 -0.750000000       0.00000000    
 -0.689999998       0.00000000    
 -0.629999995       0.00000000    
 -0.569999993       0.00000000    
 -0.509999990       0.00000000    
 -0.449999988       0.00000000    
 -0.389999986       0.00000000    
 -0.330000013       0.00000000    
 -0.270000011       0.00000000    
 -0.209999993      -3.22061340E-30
 -0.150000006       1.39187622E-27
  -9.00000036E-02   1.95989410E-26
  -2.99999993E-02   1.33129719E-25
   2.99999993E-02   5.71672066E-25
   9.00000036E-02   1.66482606E-24
  0.150000006       3.08111300E-24
  0.209999993       1.62434329E-24
  0.270000011      -1.18048112E-23
  0.330000013      -5.13626578E-23
  0.389999986      -1.21552270E-22
  0.449999988      -1.80097008E-22
  0.509999990      -9.03341157E-23
  0.569999993       3.81142728E-22
  0.629999995       1.42384542E-21
  0.689999998       2.82672940E-21
  0.750000000       3.49863674E-21
  0.810000002       1.26659275E-21
  0.870000005      -6.37236922E-21
  0.930000007      -1.99898826E-20
  0.990000010      -3.47825344E-20
   1.04999995      -3.79126085E-20
   1.11000001      -1.02232924E-20
   1.16999996       6.40468500E-20
   1.23000002       1.79175192E-19
   1.28999996       2.88083614E-19
   1.35000002       2.95600488E-19
   1.40999997       8.37755277E-20
   1.47000003      -4.19437232E-19
   1.52999997      -1.14047227E-18
   1.59000003      -1.77705155E-18
   1.64999998      -1.80878985E-18
   1.71000004      -6.74407023E-19
   1.76999998       1.87437493E-18
   1.83000004       5.35341532E-18
   1.88999999       8.30614487E-18
   1.95000005       8.54248444E-18
   2.00999999       4.03165680E-18
   2.06999993      -5.71501732E-18
   2.13000011      -1.83835217E-17
   2.19000006      -2.86288600E-17
   2.25000000      -2.96222543E-17
   2.30999994      -1.63272086E-17
   2.36999989       1.07361682E-17
   2.43000007       4.34294472E-17
   2.49000001       6.77140174E-17
   2.54999995       6.95973753E-17
   2.60999990       4.30709636E-17
   2.67000008      -4.45900974E-18
   2.73000002      -5.37252683E-17
   2.78999996      -8.33240869E-17
   2.84999990      -8.32918533E-17
   2.91000009      -6.37163594E-17
   2.97000003      -4.99409666E-17
   3.02999997      -6.29846156E-17
   3.08999991      -9.50106468E-17
   3.15000010      -9.81991832E-17
   3.21000004      -3.46073054E-18
   3.26999998       2.30101424E-16
   3.32999992       5.57525556E-16
   3.39000010       8.22099315E-16
   3.45000005       7.97332760E-16
   3.50999999       3.01560988E-16
   3.56999993      -6.58008175E-16
   3.63000011      -1.79321512E-15
   3.69000006      -2.57557097E-15
   3.75000000      -2.43742328E-15
   3.80999994      -1.07284060E-15
   3.86999989       1.30273646E-15
   3.93000007       3.89473711E-15
   3.99000001       5.56488873E-15
   4.05000019       5.31055650E-15
   4.11000013       2.79157072E-15
   4.17000008      -1.36274070E-15
   4.23000002      -5.67203331E-15
   4.28999996      -8.36878293E-15
   4.34999990      -8.19612204E-15
   4.40999985      -5.06927408E-15
   4.46999979      -2.40305391E-16
   4.53000021       4.19315063E-15
   4.59000015       6.27835093E-15
   4.65000010       5.25503179E-15
   4.71000004       2.11503767E-15
   4.76999998      -7.10404521E-16
   4.82999992      -5.33197023E-16
   4.88999987       4.00003093E-15
   4.94999981       1.16804539E-14
   5.01000023       1.86279333E-14
   5.07000017       1.96431159E-14
   5.13000011       1.06798014E-14
   5.19000006      -8.57554198E-15
   5.25000000      -3.33431165E-14
   5.30999994      -5.46343434E-14
   5.36999989      -6.24963677E-14
   5.42999983      -5.05304654E-14
   5.48999977      -1.96719438E-14
   5.55000019       2.08680051E-14
   5.61000013       5.65928868E-14
   5.67000008       7.39185257E-14
   5.73000002       6.70113447E-14
   5.78999996       4.18265581E-14
   5.84999990       1.46755861E-14
   5.90999985       4.98751295E-15
   5.96999979       2.48856992E-14
   6.03000021       7.03268349E-14
   6.09000015       1.18598233E-13
   6.15000010       1.34611791E-13
   6.21000004       8.45620300E-14
   6.26999998      -4.80909359E-14
   6.32999992      -2.50892650E-13
   6.38999987      -4.80111502E-13
   6.44999981      -6.69369670E-13
   6.51000023      -7.46382828E-13
   6.57000017      -6.52228380E-13
   6.63000011      -3.57479752E-13
   6.69000006       1.28163539E-13
   6.75000000       7.53064603E-13
   6.80999994       1.42609112E-12
   6.86999989       2.02308266E-12
   6.92999983       2.39813876E-12
   6.98999977       2.40235457E-12
   7.05000019       1.91215208E-12
   7.11000013       8.65675099E-13
   7.17000008      -7.00148056E-13
   7.23000002      -2.62438682E-12
   7.28999996      -4.62235675E-12
   7.34999990      -6.31995194E-12
   7.40999985      -7.32021041E-12
   7.46999979      -7.28779190E-12
   7.53000021      -6.02772259E-12
   7.59000015      -3.53336652E-12
   7.65000010       1.27904423E-14
   7.71000004       4.28526485E-12
   7.76999998       8.88928601E-12
   7.82999992       1.34293150E-11
   7.88999987       1.75385609E-11
   7.94999981       2.08500179E-11
   8.01000023       2.29161256E-11
   8.06999969       2.31142189E-11
   8.13000011       2.05962539E-11
   8.18999958       1.43433121E-11
   8.25000000       3.36281979E-12
   8.31000042      -1.29768132E-11
   8.36999989      -3.45311210E-11
   8.43000031      -5.99838859E-11
   8.48999977      -8.65886182E-11
   8.55000019      -1.10149299E-10
   8.60999966      -1.25295108E-10
   8.67000008      -1.26037902E-10
   8.72999954      -1.06535815E-10
   8.78999996      -6.19410495E-11
   8.85000038       1.08035690E-11
   8.90999985       1.12334857E-10
   8.97000027       2.40477499E-10
   9.02999973       3.90109639E-10
   9.09000015       5.53263158E-10
   9.14999962       7.19414139E-10
   9.21000004       8.75925887E-10
   9.27000046       1.00862740E-09
   9.32999992       1.10254095E-09
   9.39000034       1.14279197E-09
   9.44999981       1.11572585E-09
   9.51000023       1.01022568E-09
   9.56999969       8.19158019E-10
   9.63000011       5.40800016E-10
   9.68999958       1.80026660E-10
   9.75000000      -2.50999138E-10
   9.81000042      -7.32887084E-10
   9.86999989      -1.24000377E-09
   9.93000031      -1.74241988E-09
   9.98999977      -2.20867924E-09
   10.0500002      -2.60906163E-09
   10.1099997      -2.91886804E-09
   10.1700001      -3.12120352E-09
   10.2299995      -3.20878435E-09
   10.2900000      -3.18447291E-09
   10.3500004      -3.06048675E-09
   10.4099998      -2.85649060E-09
   10.4700003      -2.59698907E-09
   10.5299997      -2.30850983E-09
   10.5900002      -2.01703587E-09
   10.6499996      -1.74596559E-09
   10.7100000      -1.51468582E-09
   10.7700005      -1.33765354E-09
   10.8299999      -1.22381538E-09
   10.8900003      -1.17622834E-09
   10.9499998      -1.19188615E-09
   11.0100002      -1.26190780E-09
   11.0699997      -1.37233280E-09
   11.1300001      -1.50571966E-09
   11.1899996      -1.64355174E-09
   11.2500000      -1.76917503E-09
   11.3100004      -1.87071070E-09
   11.3699999      -1.94324312E-09
   11.4300003      -1.98963757E-09
   11.4899998      -2.01962846E-09
   11.5500002      -2.04726125E-09
   11.6099997      -2.08723194E-09
   11.6700001      -2.15101936E-09
   11.7299995      -2.24379293E-09
   11.7900000      -2.36289588E-09
   11.8500004      -2.49827670E-09
   11.9099998      -2.63471334E-09
   11.9700003      -2.75521139E-09
   12.0299997      -2.84469026E-09
   12.0900002      -2.89305979E-09
   12.1499996      -2.89705038E-09
   12.2100000      -2.86054380E-09
   12.2700005      -2.79356982E-09
   12.3299999      -2.71043898E-09
   12.3900003      -2.62760991E-09
   12.4499998      -2.56181165E-09
   12.5100002      -2.52873300E-09
   12.5699997      -2.54230903E-09
   12.6300001      -2.61439292E-09
   12.6899996      -2.75445444E-09
   12.7500000      -2.96897862E-09
   12.8100004      -3.26039662E-09
   12.8699999      -3.62567198E-09
   12.9300003      -4.05495015E-09
   12.9899998      -4.53090054E-09
   13.0500002      -5.02937647E-09
   13.1099997      -5.52179324E-09
   13.1700001      -5.97913985E-09
   13.2299995      -6.37700248E-09
   13.2900000      -6.70045841E-09
   13.3500004      -6.94752567E-09
   13.4099998      -7.13003789E-09
   13.4700003      -7.27142657E-09
   13.5299997      -7.40176143E-09
   13.5900002      -7.55122453E-09
   13.6499996      -7.74371856E-09
   13.7100000      -7.99232591E-09
   13.7700005      -8.29775804E-09
   13.8299999      -8.65002381E-09
   13.8900003      -9.03250097E-09
   13.9499998      -9.42690193E-09
   14.0100002      -9.81738513E-09
   14.0699997      -1.01925153E-08
   14.1300001      -1.05446434E-08
   14.1899996      -1.08672777E-08
   14.2500000      -1.11518155E-08
   14.3100004      -1.13852572E-08
   14.3699999      -1.15501617E-08
   14.4300003      -1.16272814E-08
   14.4899998      -1.16002434E-08
   14.5500002      -1.14608394E-08
   14.6099997      -1.12131078E-08
   14.6700001      -1.08747038E-08
   14.7299995      -1.04748290E-08
   14.7900000      -1.00490976E-08
   14.8500004      -9.63265823E-09
   14.9099998      -9.25344246E-09
   14.9700003      -8.92737884E-09
   15.0299997      -8.65678196E-09
   15.0900002      -8.43221315E-09
   15.1499996      -8.23707058E-09
   15.2100000      -8.05347700E-09
   15.2700005      -7.86774645E-09
   15.3299999      -7.67397168E-09
   15.3900003      -7.47493267E-09
   15.4499998      -7.28041494E-09
   15.5100002      -7.10376824E-09
   15.5699997      -6.95801328E-09
   15.6300001      -6.85280943E-09
   15.6899996      -6.79313761E-09
   15.7500000      -6.77988465E-09
   15.8100004      -6.81174317E-09
   15.8699999      -6.88740887E-09
   15.9300003      -7.00699632E-09
   15.9899998      -7.17200432E-09
   16.0499992      -7.38384287E-09
   16.1100006      -7.64158337E-09
   16.1700001      -7.93993848E-09
   16.2299995      -8.26839130E-09
   16.2900009      -8.61186678E-09
   16.3500004      -8.95270347E-09
   16.4099998      -9.27313870E-09
   16.4699993      -9.55743396E-09
   16.5300007      -9.79304371E-09
   16.5900002      -9.97077443E-09
   16.6499996      -1.00843769E-08
   16.7099991      -1.01301980E-08
   16.7700005      -1.01072972E-08
   16.8299999      -1.00179713E-08
   16.8899994      -9.86818094E-09
   16.9500008      -9.66721014E-09
   17.0100002      -9.42613188E-09
   17.0699997      -9.15522502E-09
   17.1299992      -8.86101592E-09
   17.1900005      -8.54400373E-09
   17.2500000      -8.19798540E-09
   17.3099995      -7.81143417E-09
   17.3700008      -7.37069872E-09
   17.4300003      -6.86418034E-09
   17.4899998      -6.28631991E-09
   17.5499992      -5.64027269E-09
   17.6100006      -4.93851893E-09
   17.6700001      -4.20121360E-09
   17.7299995      -3.45271522E-09
   17.7900009      -2.71724399E-09
   17.8500004      -2.01489958E-09
   17.9099998      -1.35920830E-09
   17.9699993      -7.56915863E-10
   18.0300007      -2.09989776E-10
   18.0900002       2.81036722E-10
   18.1499996       7.13823112E-10
   18.2099991       1.08256426E-09
   18.2700005       1.37879597E-09
   18.3299999       1.59447733E-09
   18.3899994       1.72608317E-09
   18.4500008       1.77783954E-09
   18.5100002       1.76245230E-09
   18.5699997       1.69867664E-09
   18.6299992       1.60645486E-09
   18.6900005       1.50148705E-09
   18.7500000       1.39147605E-09
   18.8099995       1.27569877E-09
   18.8700008       1.14822674E-09
   18.9300003       1.00361708E-09
   18.9899998       8.42832470E-10
   19.0499992       6.76969203E-10
   19.1100006       5.27130228E-10
   19.1700001       4.20181945E-10
   19.2299995       3.81640303E-10
   19.2900009       4.28002245E-10
   19.3500004       5.61106495E-10
   19.4099998       7.66481933E-10
   19.4699993       1.01635544E-09
   19.5300007       1.27646582E-09
   19.5900002       1.51458235E-09
   19.6499996       1.70807890E-09
   19.7099991       1.84825433E-09
   19.7700005       1.94020067E-09
   19.8299999       1.99851535E-09
   19.8899994       2.04050865E-09
   19.9500008       2.07930206E-09
   20.0100002       2.11911555E-09
   20.0699997       2.15417661E-09
   20.1299992       2.17139773E-09
   20.1900005       2.15572205E-09
   20.2500000       2.09623274E-09
   20.3099995       1.99097583E-09
   20.3700008       1.84895577E-09
   20.4300003       1.68871350E-09
   20.4899998       1.53398072E-09
   20.5499992       1.40780776E-09
   20.6100006       1.32699285E-09
   20.6700001       1.29848510E-09
   20.7299995       1.31872258E-09
   20.7900009       1.37585021E-09
   20.8500004       1.45380874E-09
   20.9099998       1.53676138E-09
   20.9699993       1.61243718E-09
   21.0300007       1.67362380E-09
   21.0900002       1.71791992E-09
   21.1499996       1.74651238E-09
   21.2099991       1.76288373E-09
   21.2700005       1.77199111E-09
   21.3299999       1.77985482E-09
   21.3899994       1.79307991E-09
   21.4500008       1.81785587E-09
   21.5100002       1.85841387E-09
   21.5699997       1.91546357E-09
   21.6299992       1.98539452E-09
   21.6900005       2.06081996E-09
   21.7500000       2.13243512E-09
   21.8099995       2.19152829E-09
   21.8700008       2.23216667E-09
   21.9300003       2.25225461E-09
   21.9899998       2.25320518E-09
   22.0499992       2.23854157E-09
   22.1100006       2.21206498E-09
   22.1700001       2.17616147E-09
   22.2299995       2.13054974E-09
   22.2900009       2.07149786E-09
   22.3500004       1.99148942E-09
   22.4099998       1.87943283E-09
   22.4699993       1.72163228E-09
   22.5300007       1.50365154E-09
   22.5900002       1.21286181E-09
   22.6499996       8.41036907E-10
   22.7099991       3.86095572E-10
   22.7700005      -1.47767715E-10
   22.8299999      -7.51787965E-10
   22.8899994      -1.41567458E-09
   22.9500008      -2.13092988E-09
   23.0100002      -2.89323254E-09
   23.0699997      -3.70302011E-09
   23.1299992      -4.56408733E-09
   23.1900005      -5.48073942E-09
   23.2500000      -6.45451737E-09
   23.3099995      -7.48159135E-09
   23.3700008      -8.55161986E-09
   23.4300003      -9.64834435E-09
   23.4899998      -1.07516387E-08
   23.5499992      -1.18403429E-08
   23.6100006      -1.28951010E-08
   23.6700001      -1.39004923E-08
   23.7299995      -1.48460941E-08
   23.7900009      -1.57263766E-08
   23.8500004      -1.65397047E-08
   23.9099998      -1.72868297E-08
   23.9699993      -1.79693735E-08
   24.0300007      -1.85887625E-08
   24.0900002      -1.91459204E-08
   24.1499996      -1.96418561E-08
   24.2099991      -2.00789465E-08
   24.2700005      -2.04624104E-08
   24.3299999      -2.08013162E-08
   24.3899994      -2.11083844E-08
   24.4500008      -2.13983160E-08
   24.5100002      -2.16848903E-08
   24.5699997      -2.19776766E-08
   24.6299992      -2.22795240E-08
   24.6900005      -2.25857715E-08
   24.7500000      -2.28854944E-08
   24.8099995      -2.31642279E-08
   24.8700008      -2.34070647E-08
   24.9300003      -2.36009168E-08
   24.9899998      -2.37353337E-08
   25.0499992      -2.38020057E-08
   25.1100006      -2.37937687E-08
   25.1700001      -2.37040449E-08
   25.2299995      -2.35273045E-08
   25.2900009      -2.32603590E-08
   25.3500004      -2.29039081E-08
   25.4099998      -2.24634977E-08
   25.4699993      -2.19494982E-08
   25.5300007      -2.13761631E-08
   25.5900002      -2.07601651E-08
   25.6499996      -2.01189536E-08
   25.7099991      -1.94690664E-08
   25.7700005      -1.88241653E-08
   25.8299999      -1.81927522E-08
   25.8899994      -1.75757879E-08
   25.9500008      -1.69651155E-08
   26.0100002      -1.63436713E-08
   26.0699997      -1.56881743E-08
   26.1299992      -1.49740256E-08
   26.1900005      -1.41811594E-08
   26.2500000      -1.32988980E-08
   26.3099995      -1.23281607E-08
   26.3700008      -1.12803127E-08
   26.4300003      -1.01733377E-08
   26.4899998      -9.02702713E-09
   26.5499992      -7.85911070E-09
   26.6100006      -6.68357769E-09
   26.6700001      -5.51121193E-09
   26.7299995      -4.35136371E-09
   26.7900009      -3.21354410E-09
   26.8500004      -2.10785478E-09
   26.9099998      -1.04416276E-09
   26.9699993      -3.07572232E-11
   27.0300007       9.26468735E-10
   27.0900002       1.82364401E-09
   27.1499996       2.65743538E-09
   27.2099991       3.42321815E-09
   27.2700005       4.11388124E-09
   27.3299999       4.71990358E-09
   27.3899994       5.23071764E-09
   27.4500008       5.63681235E-09
   27.5100002       5.93185545E-09
   27.5699997       6.11430329E-09
   27.6299992       6.18833029E-09
   27.6900005       6.16413898E-09
   27.7500000       6.05771611E-09
   27.8099995       5.88992188E-09
   27.8700008       5.68469227E-09
   27.9300003       5.46625589E-09
   27.9899998       5.25563726E-09
   28.0499992       5.06710895E-09
   28.1100006       4.90545871E-09
   28.1700001       4.76478279E-09
   28.2299995       4.62908467E-09
   28.2900009       4.47446791E-09
   28.3500004       4.27235980E-09
   28.4099998       3.99311295E-09
   28.4699993       3.60942010E-09
   28.5300007       3.09915027E-09
   28.5900002       2.44732457E-09
   28.6499996       1.64709224E-09
   28.7099991       6.99692748E-10
   28.7700005      -3.86373239E-10
   28.8299999      -1.59654268E-09
   28.8899994      -2.91127100E-09
   28.9500008      -4.30667324E-09
   29.0100002      -5.75477577E-09
   29.0699997      -7.22377846E-09
   29.1299992      -8.67888872E-09
   29.1900005      -1.00841087E-08
   29.2500000      -1.14049001E-08
   29.3099995      -1.26112116E-08
   29.3700008      -1.36800447E-08
   29.4300003      -1.45968109E-08
   29.4899998      -1.53550452E-08
   29.5499992      -1.59545035E-08
   29.6100006      -1.63980864E-08
   29.6700001      -1.66883751E-08
   29.7299995      -1.68246483E-08
   29.7900009      -1.68012395E-08
   29.8500004      -1.66078351E-08
   29.9099998      -1.62317235E-08
   29.9699993      -1.56614526E-08
   30.0300007      -1.48906949E-08
   30.0900002      -1.39210137E-08
   30.1499996      -1.27625093E-08
   30.2099991      -1.14321885E-08
   30.2700005      -9.95078686E-09
   30.3299999      -8.33940206E-09
   30.3899994      -6.61728450E-09
   30.4500008      -4.80150497E-09
   30.5100002      -2.90829361E-09
   30.5699997      -9.55135304E-10
   30.6299992       1.03760167E-09
   30.6900005       3.04642223E-09
   30.7500000       5.04613551E-09
   30.8099995       7.01256297E-09
   30.8700008       8.92560248E-09
   30.9300003       1.07715321E-08
   30.9899998       1.25435893E-08
   31.0499992       1.42403502E-08
   31.1100006       1.58621614E-08
   31.1700001       1.74067321E-08
   31.2299995       1.88655793E-08
   31.2900009       2.02229380E-08
   31.3500004       2.14580105E-08
   31.4099998       2.25499655E-08
   31.4699993       2.34837572E-08
   31.5300007       2.42541756E-08
   31.5900002       2.48661518E-08
   31.6499996       2.53309445E-08
   31.7099991       2.56597854E-08
   31.7700005       2.58578137E-08
   31.8299999       2.59209525E-08
   31.8899994       2.58370019E-08
   31.9500008       2.55902233E-08
   32.0099983       2.51672390E-08
   32.0699997       2.45617056E-08
   32.1300011       2.37761828E-08
   32.1899986       2.28209753E-08
   32.2500000       2.17110241E-08
   32.3100014       2.04622861E-08
   32.3699989       1.90887590E-08
   32.4300003       1.76006463E-08
   32.4900017       1.60037388E-08
   32.5499992       1.42998902E-08
   32.6100006       1.24885835E-08
   32.6699982       1.05694955E-08
   32.7299995       8.54560600E-09
   32.7900009       6.42597486E-09
   32.8499985       4.22704272E-09
   32.9099998       1.97164840E-09
   32.9700012      -3.14241050E-10
   33.0299988      -2.60615440E-09
   33.0900002      -4.88550178E-09
   33.1500015      -7.14217441E-09
   33.2099991      -9.37443811E-09
   33.2700005      -1.15861649E-08
   33.3300018      -1.37823379E-08
   33.3899994      -1.59642486E-08
   33.4500008      -1.81258564E-08
   33.5099983      -2.02523633E-08
   33.5699997      -2.23214300E-08
   33.6300011      -2.43066314E-08
   33.6899986      -2.61821693E-08
   33.7500000      -2.79272889E-08
   33.8100014      -2.95290707E-08
   33.8699989      -3.09827399E-08
   33.9300003      -3.22895524E-08
   33.9900017      -3.34532793E-08
   34.0499992      -3.44766207E-08
   34.1100006      -3.53589442E-08
   34.1699982      -3.60958268E-08
   34.2299995      -3.66803476E-08
   34.2900009      -3.71052096E-08
   34.3499985      -3.73648597E-08
   34.4099998      -3.74567755E-08
   34.4700012      -3.73816853E-08
   34.5299988      -3.71426125E-08
   34.5900002      -3.67432271E-08
   34.6500015      -3.61858525E-08
   34.7099991      -3.54699736E-08
   34.7700005      -3.45919275E-08
   34.8300018      -3.35464563E-08
   34.8899994      -3.23299503E-08
   34.9500008      -3.09446229E-08
   35.0099983      -2.94020204E-08
   35.0699997      -2.77243206E-08
   35.1300011      -2.59424962E-08
   35.1899986      -2.40918023E-08
   35.2500000      -2.22061267E-08
   35.3100014      -2.03134274E-08
   35.3699989      -1.84339033E-08
   35.4300003      -1.65813940E-08
   35.4900017      -1.47670400E-08
   35.5499992      -1.30033069E-08
   35.6100006      -1.13063523E-08
   35.6699982      -9.69557234E-09
   35.7299995      -8.19033286E-09
   35.7900009      -6.80511913E-09
   35.8499985      -5.54500623E-09
   35.9099998      -4.40340298E-09
   35.9700012      -3.36336314E-09
   36.0299988      -2.40263276E-09
   36.0900002      -1.50126256E-09
   36.1500015      -6.49531595E-10
   36.2099991       1.46534521E-10
   36.2700005       8.64294636E-10
   36.3300018       1.46910861E-09
   36.3899994       1.92338900E-09
   36.4500008       2.19736052E-09
   36.5099983       2.27802954E-09
   36.5699997       2.17337903E-09
   36.6300011       1.91040916E-09
   36.6899986       1.52772539E-09
   36.7500000       1.06513265E-09
   36.8100014       5.53534218E-10
   36.8699989       8.13351643E-12
   36.9300003      -5.73253722E-10
   36.9900017      -1.20662735E-09
   37.0499992      -1.91440552E-09
   37.1100006      -2.71675327E-09
   37.1699982      -3.62452046E-09
   37.2299995      -4.63613326E-09
   37.2900009      -5.73943826E-09
   37.3499985      -6.91774105E-09
   37.4099998      -8.15766033E-09
   37.4700012      -9.45559275E-09
   37.5299988      -1.08199867E-08
   37.5900002      -1.22680914E-08
   37.6500015      -1.38180258E-08
   37.7099991      -1.54787791E-08
   37.7700005      -1.72417529E-08
   37.8300018      -1.90769018E-08
   37.8899994      -2.09351221E-08
   37.9500008      -2.27564207E-08
   38.0099983      -2.44816238E-08
   38.0699997      -2.60641908E-08
   38.1300011      -2.74786238E-08
   38.1899986      -2.87227611E-08
   38.2500000      -2.98130196E-08
   38.3100014      -3.07737160E-08
   38.3699989      -3.16237738E-08
   38.4300003      -3.23652039E-08
   38.4900017      -3.29776917E-08
   38.5499992      -3.34216317E-08
   38.6100006      -3.36492292E-08
   38.6699982      -3.36200721E-08
   38.7299995      -3.33157750E-08
   38.7900009      -3.27483356E-08
   38.8499985      -3.19589546E-08
   38.9099998      -3.10073496E-08
   38.9700012      -2.99549221E-08
   39.0299988      -2.88472322E-08
   39.0900002      -2.77014180E-08
   39.1500015      -2.65026721E-08
   39.2099991      -2.52110599E-08
   39.2700005      -2.37768401E-08
   39.3300018      -2.21597904E-08
   39.3899994      -2.03465369E-08
   39.4500008      -1.83601649E-08
   39.5099983      -1.62583884E-08
   39.5699997      -1.41200980E-08
   39.6300011      -1.20240955E-08
   39.6899986      -1.00268487E-08
   39.7500000      -8.14693468E-09
   39.8100014      -6.36185105E-09
   39.8699989      -4.61864458E-09
   39.9300003      -2.85481550E-09
   39.9900017      -1.02222786E-09
   40.0499992       8.94314733E-10
   40.1100006       2.87014168E-09
   40.1699982       4.84757434E-09
   40.2299995       6.75396583E-09
   40.2900009       8.52470983E-09
   40.3499985       1.01236450E-08
   40.4099998       1.15543104E-08
   40.4700012       1.28585462E-08
   40.5299988       1.41028309E-08
   40.5900002       1.53566209E-08
   40.6500015       1.66695173E-08
   40.7099991       1.80547737E-08
   40.7700005       1.94848546E-08
   40.8300018       2.09009254E-08
   40.8899994       2.22334702E-08
   40.9500008       2.34270878E-08
   41.0099983       2.44607943E-08
   41.0699997       2.53565684E-08
   41.1300011       2.61730246E-08
   41.1899986       2.69864522E-08
   41.2500000       2.78660117E-08
   41.3100014       2.88517708E-08
   41.3699989       2.99430560E-08
   41.4300003       3.11007682E-08
   41.4900017       3.22624452E-08
   41.5499992       3.33648131E-08
   41.6100006       3.43661455E-08
   41.6699982       3.52612446E-08
   41.7299995       3.60840247E-08
   41.7900009       3.68968358E-08
   41.8499985       3.77696701E-08
   41.9099998       3.87558785E-08
   41.9700012       3.98724715E-08
   42.0299988       4.10918446E-08
   42.0900002       4.23483790E-08
   42.1500015       4.35581313E-08
   42.2099991       4.46452972E-08
   42.2700005       4.55662743E-08
   42.3300018       4.63228922E-08
   42.3899994       4.69599257E-08
   42.4500008       4.75476156E-08
   42.5099983       4.81552753E-08
   42.5699997       4.88251004E-08
   42.6300011       4.95551973E-08
   42.6899986       5.02976043E-08
   42.7500000       5.09719236E-08
   42.8100014       5.14900691E-08
   42.8699989       5.17838892E-08
   42.9300003       5.18266283E-08
   42.9900017       5.16410026E-08
   43.0499992       5.12910603E-08
   43.1100006       5.08601659E-08
   43.1699982       5.04221873E-08
   43.2299995       5.00154442E-08
   43.2900009       4.96283548E-08
   43.3499985       4.92019083E-08
   43.4099998       4.86484630E-08
   43.4700012       4.78806932E-08
   43.5299988       4.68408778E-08
   43.5900002       4.55206077E-08
   43.6500015       4.39642811E-08
   43.7099991       4.22555786E-08
   43.7700005       4.04916740E-08
   43.8300018       3.87541412E-08
   43.8899994       3.70860995E-08
   43.9500008       3.54827385E-08
   44.0099983       3.38976029E-08
   44.0699997       3.22619051E-08
   44.1300011       3.05100620E-08
   44.1899986       2.86030435E-08
   44.2500000       2.65422546E-08
   44.3100014       2.43698910E-08
   44.3699989       2.21561915E-08
   44.4300003       1.99781010E-08
   44.4900017       1.78964061E-08
   44.5499992       1.59387863E-08
   44.6100006       1.40939633E-08
   44.6699982       1.23185853E-08
   44.7299995       1.05542046E-08
   44.7900009       8.74853345E-09
   44.8499985       6.87392365E-09
   44.9099998       4.93709695E-09
   44.9700012       2.97718228E-09
   45.0299988       1.05302078E-09
   45.0900002      -7.75767450E-10
   45.1500015      -2.46747156E-09
   45.2099991      -4.01040934E-09
   45.2700005      -5.42440581E-09
   45.3300018      -6.75116096E-09
   45.3899994      -8.03681921E-09
   45.4500008      -9.31277278E-09
   45.5099983      -1.05813855E-08
   45.5699997      -1.18117338E-08
   45.6300011      -1.29470150E-08
   45.6899986      -1.39212402E-08
   45.7500000      -1.46795331E-08
   45.8100014      -1.51950736E-08
   45.8699989      -1.54768713E-08
   45.9300003      -1.55657869E-08
   45.9900017      -1.55202748E-08
   46.0499992      -1.53968873E-08
   46.1100006      -1.52322102E-08
   46.1699982      -1.50322208E-08
   46.2299995      -1.47723140E-08
   46.2900009      -1.44074885E-08
   46.3499985      -1.38889042E-08
   46.4099998      -1.31810971E-08
   46.4700012      -1.22743424E-08
   46.5299988      -1.11886207E-08
   46.5900002      -9.96849359E-09
   46.6500015      -8.67108074E-09
   46.7099991      -7.35118322E-09
   46.7700005      -6.04809136E-09
   46.8300018      -4.77780926E-09
   46.8899994      -3.53265039E-09
   46.9500008      -2.28800712E-09
   47.0099983      -1.01412612E-09
   47.0699997       3.10692139E-10
   47.1300011       1.68949232E-09
   47.1899986       3.10205217E-09
   47.2500000       4.50792115E-09
   47.3100014       5.85637494E-09
   47.3699989       7.10018888E-09
   47.4300003       8.20864088E-09
   47.4900017       9.17523924E-09
   47.5499992       1.00174296E-08
   47.6100006       1.07683737E-08
   47.6699982       1.14637952E-08
   47.7299995       1.21285639E-08
   47.7900009       1.27676270E-08
   47.8499985       1.33640716E-08
   47.9099998       1.38844145E-08
   47.9700012       1.42887817E-08
   48.0299988       1.45422954E-08
   48.0900002       1.46241295E-08
   48.1500015       1.45318921E-08
   48.2099991       1.42806869E-08
   48.2700005       1.38977647E-08
   48.3300018       1.34146729E-08
   48.3899994       1.28592301E-08
   48.4500008       1.22495036E-08
   48.5099983       1.15913075E-08
   48.5699997       1.08797140E-08
   48.6300011       1.01038822E-08
   48.6899986       9.25342025E-09
   48.7500000       8.32407387E-09
   48.8100014       7.32080885E-09
   48.8699989       6.25746255E-09
   48.9300003       5.15345544E-09
   48.9900017       4.02909839E-09
   49.0499992       2.90133628E-09
   49.1100006       1.78129800E-09
   49.1699982       6.74113210E-10
   49.2299995      -4.19407703E-10
   49.2900009      -1.50009394E-09
   49.3499985      -2.56761545E-09
   49.4099998      -3.61821617E-09
   49.4700012      -4.64338878E-09
   49.5299988      -5.62974067E-09
   49.5900002      -6.56018084E-09
   49.6500015      -7.41630135E-09
   49.7099991      -8.18151591E-09
   49.7700005      -8.84421070E-09
   49.8300018      -9.40008604E-09
   49.8899994      -9.85309878E-09
   49.9500008      -1.02148245E-08
   50.0099983      -1.05024425E-08
   50.0699997      -1.07357581E-08
   50.1300011      -1.09337641E-08
   50.1899986      -1.11112817E-08
   50.2500000      -1.12764011E-08
   50.3100014      -1.14295302E-08
   50.3699989      -1.15646914E-08
   50.4300003      -1.16730803E-08
   50.4900017      -1.17478871E-08
   50.5499992      -1.17885675E-08
   50.6100006      -1.18026442E-08