  -2.400000      0.0000000E+00
  -2.340000      0.0000000E+00
  -2.280000      0.0000000E+00
  -2.220000      0.0000000E+00
  -2.160000      0.0000000E+00
  -2.100000      0.0000000E+00
  -2.040000      0.0000000E+00
  -1.980000      0.0000000E+00
  -1.920000     -5.7829090E-28
  -1.860000     -4.6531235E-26
  -1.800000     -5.2665192E-25
  -1.740000     -3.0471506E-24
  -1.680000     -1.1190173E-23
  -1.620000     -2.7100657E-23
  -1.560000     -3.6229229E-23
  -1.500000      2.1553832E-23
  -1.440000      2.6754040E-22
  -1.380000      8.1228591E-22
  -1.320000      1.5074460E-21
  -1.260000      1.5468113E-21
  -1.200000     -7.5426099E-22
  -1.140000     -7.3079299E-21
  -1.080000     -1.8042118E-20
  -1.020000     -2.7386473E-20
 -0.9600000     -2.1784562E-20
 -0.9000000      1.7221028E-20
 -0.8400000      9.9842736E-20
 -0.7800000      2.0553737E-19
 -0.7200000      2.6273024E-19
 -0.6600000      1.5415167E-19
 -0.6000000     -2.2728969E-19
 -0.5400000     -8.6843387E-19
 -0.4800000     -1.5150110E-18
 -0.4200000     -1.6374916E-18
 -0.3600000     -5.9902461E-19
 -0.3000000      1.9268877E-18
 -0.2400000      5.4105905E-18
 -0.1800000      8.1248087E-18
 -0.1200000      7.4478068E-18
 -5.9999999E-02  1.0860893E-18
  0.0000000E+00 -1.1017736E-17
  5.9999999E-02 -2.5019484E-17
  0.1200000     -3.3135714E-17
  0.1800000     -2.6329491E-17
  0.2400000      4.7689951E-19
  0.3000000      4.2790199E-17
  0.3600000      8.4165760E-17
  0.4200000      1.0040938E-16
  0.4800000      7.0887334E-17
  0.5400000     -7.1741432E-18
  0.6000000     -1.0954459E-16
  0.6600000     -1.8935427E-16
  0.7200000     -1.9776574E-16
  0.7800000     -1.1375058E-16
  0.8400000      3.3530365E-17
  0.9000000      1.6792833E-16
  0.9600000      2.0288101E-16
   1.020000      9.8958151E-17
   1.080000     -8.9817752E-17
   1.140000     -2.1836810E-16
   1.200000     -1.2038482E-16
   1.260000      2.7510479E-16
   1.320000      8.4207659E-16
   1.380000      1.2475062E-15
   1.440000      1.0790496E-15
   1.500000      8.3371177E-17
   1.560000     -1.5945035E-15
   1.620000     -3.3223781E-15
   1.680000     -4.1549643E-15
   1.740000     -3.2610449E-15
   1.800000     -4.3833269E-16
   1.860000      3.5538669E-15
   1.920000      7.0906814E-15
   1.980000      8.2806729E-15
   2.040000      5.8822732E-15
   2.100000      1.3034715E-16
   2.160000     -6.9864607E-15
   2.220000     -1.2275071E-14
   2.280000     -1.2626517E-14
   2.340000     -6.5648907E-15
   2.400000      4.6448695E-15
   2.460000      1.6949480E-14
   2.520000      2.4748327E-14
   2.580000      2.3096125E-14
   2.640000      1.0055126E-14
   2.700000     -1.1807773E-14
   2.760000     -3.5570315E-14
   2.820000     -5.1968619E-14
   2.880000     -5.2753012E-14
   2.940000     -3.4227934E-14
   3.000000      4.5110730E-16
   3.060000      4.1389943E-14
   3.120000      7.4857906E-14
   3.180000      8.8254382E-14
   3.240000      7.5376832E-14
   3.300000      3.9728783E-14
   3.360000     -5.9798209E-15
   3.420000     -4.4600960E-14
   3.480000     -6.2090883E-14
   3.540000     -5.4631931E-14
   3.600000     -3.1643955E-14
   3.660000     -1.2296833E-14
   3.720000     -1.6020647E-14
   3.780000     -5.0832521E-14
   3.840000     -1.0535792E-13
   3.900000     -1.4977485E-13
   3.960000     -1.4725967E-13
   4.020000     -7.2182291E-14
   4.080000      7.3150416E-14
   4.140000      2.5232445E-13
   4.200000      4.0450838E-13
   4.260000      4.6786885E-13
   4.320000      4.0697477E-13
   4.380000      2.3080390E-13
   4.440000     -9.0431279E-15
   4.500000     -2.4121894E-13
   4.560000     -4.0869624E-13
   4.620000     -4.9665019E-13
   4.680000     -5.3772275E-13
   4.740000     -5.8839961E-13
   4.800000     -6.8549094E-13
   4.860000     -8.0455879E-13
   4.920000     -8.4525925E-13
   4.980000     -6.5882082E-13
   5.040000     -1.1346291E-13
   5.100000      8.2683816E-13
   5.160000      2.0459745E-12
   5.220000      3.2726276E-12
   5.280000      4.1411766E-12
   5.340000      4.2998942E-12
   5.400000      3.5275929E-12
   5.460000      1.8136643E-12
   5.520000     -6.3006366E-13
   5.580000     -3.4294514E-12
   5.640000     -6.1541839E-12
   5.700000     -8.4256465E-12
   5.760000     -9.9837907E-12
   5.820000     -1.0690815E-11
   5.880000     -1.0479616E-11
   5.940000     -9.2807845E-12
   6.000000     -6.9719712E-12
   6.060000     -3.3834155E-12
   6.120000      1.6317184E-12
   6.180000      8.0825381E-12
   6.240000      1.5721804E-11
   6.300000      2.3967666E-11
   6.360000      3.1896080E-11
   6.420000      3.8309425E-11
   6.480000      4.1861795E-11
   6.540000      4.1205719E-11
   6.600000      3.5124476E-11
   6.660000      2.2628571E-11
   6.720000      3.0176237E-12
   6.780000     -2.4068993E-11
   6.840000     -5.8578239E-11
   6.900000     -9.9917997E-11
   6.960000     -1.4677648E-10
   7.020000     -1.9691944E-10
   7.080000     -2.4703123E-10
   7.140000     -2.9268310E-10
   7.200000     -3.2849631E-10
   7.260000     -3.4852402E-10
   7.320000     -3.4681172E-10
   7.380000     -3.1803951E-10
   7.440000     -2.5812313E-10
   7.500000     -1.6467198E-10
   7.560000     -3.7261614E-11
   7.620000      1.2244827E-10
   7.680000      3.1066949E-10
   7.740000      5.2143734E-10
   7.800000      7.4654249E-10
   7.860000      9.7551456E-10
   7.920000      1.1958055E-09
   7.980000      1.3933302E-09
   8.040000      1.5534459E-09
   8.100000      1.6623195E-09
   8.160000      1.7084709E-09
   8.220000      1.6841966E-09
   8.280000      1.5865662E-09
   8.340000      1.4178048E-09
   8.400000      1.1850303E-09
   8.460000      8.9948776E-10
   8.520000      5.7549843E-10
   8.580000      2.2933762E-10
   8.640000     -1.2184544E-10
   8.700000     -4.6106827E-10
   8.760000     -7.7259016E-10
   8.820000     -1.0430776E-09
   8.880000     -1.2628146E-09
   8.940000     -1.4267795E-09
   9.000000     -1.5353152E-09
   9.060000     -1.5941380E-09
   9.120000     -1.6135535E-09
   9.180000     -1.6069676E-09
   9.240000     -1.5889877E-09
   9.300000     -1.5735347E-09
   9.360000     -1.5723702E-09
   9.420000     -1.5942950E-09
   9.480000     -1.6450479E-09
   9.540000     -1.7277167E-09
   9.600000     -1.8433630E-09
   9.660000     -1.9915707E-09
   9.720000     -2.1707551E-09
   9.780000     -2.3782403E-09
   9.840000     -2.6102467E-09
   9.900000     -2.8619782E-09
   9.960000     -3.1279377E-09
   10.02000     -3.4024790E-09
   10.08000     -3.6804597E-09
   10.14000     -3.9577848E-09
   10.20000     -4.2316222E-09
   10.26000     -4.5001642E-09
   10.32000     -4.7619504E-09
   10.38000     -5.0149249E-09
   10.44000     -5.2555174E-09
   10.50000     -5.4780713E-09
   10.56000     -5.6748881E-09
   10.62000     -5.8369776E-09
   10.68000     -5.9553913E-09
   10.74000     -6.0227912E-09
   10.80000     -6.0347931E-09
   10.86000     -5.9906498E-09
   10.92000     -5.8930416E-09
   10.98000     -5.7470566E-09
   11.04000     -5.5587410E-09
   11.10000     -5.3337526E-09
   11.16000     -5.0766022E-09
   11.22000     -4.7907083E-09
   11.28000     -4.4791335E-09
   11.34000     -4.1455976E-09
   11.40000     -3.7952734E-09
   11.46000     -3.4350267E-09
   11.52000     -3.0730416E-09
   11.58000     -2.7180886E-09
   11.64000     -2.3788027E-09
   11.70000     -2.0632769E-09
   11.76000     -1.7790291E-09
   11.82000     -1.5331363E-09
   11.88000     -1.3321972E-09
   11.94000     -1.1818633E-09
   12.00000     -1.0859200E-09
   12.06000     -1.0452011E-09
   12.12000     -1.0567909E-09
   12.18000     -1.1139438E-09
   12.24000     -1.2069070E-09
   12.30000     -1.3244871E-09
   12.36000     -1.4559115E-09
   12.42000     -1.5924213E-09
   12.48000     -1.7281556E-09
   12.54000     -1.8601816E-09
   12.60000     -1.9878581E-09
   12.66000     -2.1119522E-09
   12.72000     -2.2339439E-09
   12.78000     -2.3557749E-09
   12.84000     -2.4799698E-09
   12.90000     -2.6097944E-09
   12.96000     -2.7490055E-09
   13.02000     -2.9009004E-09
   13.08000     -3.0667087E-09
   13.14000     -3.2437690E-09
   13.20000     -3.4241707E-09
   13.26000     -3.5945091E-09
   13.32000     -3.7370569E-09
   13.38000     -3.8321555E-09
   13.44000     -3.8611665E-09
   13.50000     -3.8091219E-09
   13.56000     -3.6663499E-09
   13.62000     -3.4287930E-09
   13.68000     -3.0972254E-09
   13.74000     -2.6759668E-09
   13.80000     -2.1717630E-09
   13.86000     -1.5932901E-09
   13.92000     -9.5136854E-10
   13.98000     -2.5960151E-10
   14.04000      4.6503335E-10
   14.10000      1.2020845E-09
   14.16000      1.9282562E-09
   14.22000      2.6187410E-09
   14.28000      3.2489913E-09
   14.34000      3.7965484E-09
   14.40000      4.2425330E-09
   14.46000      4.5725139E-09
   14.52000      4.7766382E-09
   14.58000      4.8491469E-09
   14.64000      4.7875908E-09
   14.70000      4.5921849E-09
   14.76000      4.2657069E-09
   14.82000      3.8140917E-09
   14.88000      3.2475524E-09
   14.94000      2.5817146E-09
   15.00000      1.8381006E-09
   15.06000      1.0434281E-09
   15.12000      2.2760061E-10
   15.18000     -5.7923971E-10
   15.24000     -1.3498067E-09
   15.30000     -2.0620234E-09
   15.36000     -2.6999851E-09
   15.42000     -3.2533995E-09
   15.48000     -3.7159134E-09
   15.54000     -4.0831125E-09
   15.60000     -4.3510080E-09
   15.66000     -4.5155484E-09
   15.72000     -4.5732316E-09
   15.78000     -4.5224198E-09
   15.84000     -4.3647215E-09
   15.90000     -4.1058135E-09
   15.96000     -3.7553338E-09
   16.02000     -3.3258729E-09
   16.08000     -2.8314109E-09
   16.14000     -2.2857389E-09
   16.20000     -1.7013340E-09
   16.26000     -1.0889400E-09
   16.32000     -4.5780207E-10
   16.38000      1.8372612E-10
   16.44000      8.2756180E-10
   16.50000      1.4655278E-09
   16.56000      2.0893169E-09
   16.62000      2.6906821E-09
   16.68000      3.2616720E-09
   16.74000      3.7947858E-09
   16.80000      4.2830477E-09
   16.86000      4.7201119E-09
   16.92000      5.1005093E-09
   16.98000      5.4200622E-09
   17.04000      5.6763239E-09
   17.10000      5.8688672E-09
   17.16000      5.9992464E-09
   17.22000      6.0706453E-09
   17.28000      6.0873786E-09
   17.34000      6.0544885E-09
   17.40000      5.9776188E-09
   17.46000      5.8631588E-09
   17.52000      5.7184808E-09
   17.58000      5.5520299E-09
   17.64000      5.3731046E-09
   17.70000      5.1913505E-09
   17.76000      5.0161262E-09
   17.82000      4.8559405E-09
   17.88000      4.7180424E-09
   17.94000      4.6081117E-09
   18.00000      4.5299506E-09
   18.06000      4.4851398E-09
   18.12000      4.4728168E-09
   18.18000      4.4898574E-09
   18.24000      4.5316959E-09
   18.30000      4.5937516E-09
   18.36000      4.6730766E-09
   18.42000      4.7695874E-09
   18.48000      4.8863069E-09
   18.54000      5.0283866E-09
   18.60000      5.2012532E-09
   18.66000      5.4086375E-09
   18.72000      5.6513194E-09
   18.78000      5.9271046E-09
   18.84000      6.2319412E-09
   18.90000      6.5615384E-09
   18.96000      6.9126447E-09
   19.02000      7.2833402E-09
   19.08000      7.6722628E-09
   19.14000      8.0772589E-09
   19.20000      8.4942444E-09
   19.26000      8.9169641E-09
   19.32000      9.3378913E-09
   19.38000      9.7499040E-09
   19.44000      1.0148023E-08
   19.50000      1.0530424E-08
   19.56000      1.0898293E-08
   19.62000      1.1254540E-08
   19.68000      1.1601883E-08
   19.74000      1.1940982E-08
   19.80000      1.2269266E-08
   19.86000      1.2580734E-08
   19.92000      1.2866702E-08
   19.98000      1.3117132E-08
   20.04000      1.3322107E-08
   20.10000      1.3473040E-08
   20.16000      1.3563376E-08
   20.22000      1.3588714E-08
   20.28000      1.3546478E-08
   20.34000      1.3435319E-08
   20.40000      1.3254549E-08
   20.46000      1.3003822E-08
   20.52000      1.2683228E-08
   20.58000      1.2293792E-08
   20.64000      1.1838122E-08
   20.70000      1.1320814E-08
   20.76000      1.0748220E-08
   20.82000      1.0127364E-08
   20.88000      9.4642258E-09
   20.94000      8.7620027E-09
   21.00000      8.0201783E-09
   21.06000      7.2350410E-09
   21.12000      6.4017494E-09
   21.18000      5.5173031E-09
   21.24000      4.5832675E-09
   21.30000      3.6070709E-09
   21.36000      2.6012597E-09
   21.42000      1.5810195E-09
   21.48000      5.6104971E-10
   21.54000     -4.4684903E-10
   21.60000     -1.4345547E-09
   21.66000     -2.3967530E-09
   21.72000     -3.3292553E-09
   21.78000     -4.2276800E-09
   21.84000     -5.0873146E-09
   21.90000     -5.9041350E-09
   21.96000     -6.6761978E-09
   22.02000     -7.4043918E-09
   22.08000     -8.0919351E-09
   22.14000     -8.7428340E-09
   22.20000     -9.3601358E-09
   22.26000     -9.9448787E-09
   22.32000     -1.0496144E-08
   22.38000     -1.1011788E-08
   22.44000     -1.1489043E-08
   22.50000     -1.1924328E-08
   22.56000     -1.2312301E-08
   22.62000     -1.2644968E-08
   22.68000     -1.2911840E-08
   22.74000     -1.3101698E-08
   22.80000     -1.3205481E-08
   22.86000     -1.3219100E-08
   22.92000     -1.3144726E-08
   22.98000     -1.2989942E-08
   23.04000     -1.2765155E-08
   23.10000     -1.2480678E-08
   23.16000     -1.2144866E-08
   23.22000     -1.1764071E-08
   23.28000     -1.1343976E-08
   23.34000     -1.0891114E-08
   23.40000     -1.0413370E-08
   23.46000     -9.9190380E-09
   23.52000     -9.4149648E-09
   23.58000     -8.9049736E-09
   23.64000     -8.3895628E-09
   23.70000     -7.8671070E-09
   23.76000     -7.3358661E-09
   23.82000     -6.7957067E-09
   23.88000     -6.2486847E-09
   23.94000     -5.6984244E-09
   24.00000     -5.1489546E-09
   24.06000     -4.6039017E-09
   24.12000     -4.0665582E-09
   24.18000     -3.5406467E-09
   24.24000     -3.0310543E-09
   24.30000     -2.5437843E-09
   24.36000     -2.0848647E-09
   24.42000     -1.6586403E-09
   24.48000     -1.2662896E-09
   24.54000     -9.0532554E-10
   24.60000     -5.7030336E-10
   24.66000     -2.5432331E-10
   24.72000      4.9429214E-11
   24.78000      3.4675679E-10
   24.84000      6.4232086E-10
   24.90000      9.3999086E-10
   24.96000      1.2431044E-09
   25.02000      1.5542054E-09
   25.08000      1.8742123E-09
   25.14000      2.2013511E-09
   25.20000      2.5303548E-09
   25.26000      2.8523044E-09
   25.32000      3.1551788E-09
   25.38000      3.4248977E-09
   25.44000      3.6465004E-09
   25.50000      3.8051655E-09
   25.56000      3.8869570E-09
   25.62000      3.8793506E-09
   25.68000      3.7716843E-09
   25.74000      3.5556678E-09
   25.80000      3.2260044E-09
   25.86000      2.7810889E-09
   25.92000      2.2236815E-09
   25.98000      1.5614031E-09
   26.04000      8.0691559E-10
   26.10000     -2.2349783E-11
   26.16000     -9.0495261E-10
   26.22000     -1.8166496E-09
   26.28000     -2.7318969E-09
   26.34000     -3.6254513E-09
   26.40000     -4.4738941E-09
   26.46000     -5.2569633E-09
   26.52000     -5.9586549E-09
   26.58000     -6.5680661E-09
   26.64000     -7.0799122E-09
   26.70000     -7.4945898E-09
   26.76000     -7.8176479E-09
   26.82000     -8.0586640E-09
   26.88000     -8.2297031E-09
   26.94000     -8.3436982E-09
   27.00000     -8.4131937E-09
   27.06000     -8.4496881E-09
   27.12000     -8.4635507E-09
   27.18000     -8.4641893E-09
   27.24000     -8.4599998E-09
   27.30000     -8.4578033E-09
   27.36000     -8.4617886E-09
   27.42000     -8.4723295E-09
   27.48000     -8.4852658E-09
   27.54000     -8.4920888E-09
   27.60000     -8.4811225E-09
   27.66000     -8.4393292E-09
   27.72000     -8.3541556E-09
   27.78000     -8.2147622E-09
   27.84000     -8.0123739E-09
   27.90000     -7.7398443E-09
   27.96000     -7.3908906E-09
   28.02000     -6.9595352E-09
   28.08000     -6.4401284E-09
   28.14000     -5.8280216E-09
   28.20000     -5.1206439E-09
   28.26000     -4.3186277E-09
   28.32000     -3.4266279E-09
   28.38000     -2.4536631E-09
   28.44000     -1.4129602E-09
   28.50000     -3.2140007E-10
   28.56000      8.0132162E-10
   28.62000      1.9337401E-09
   28.68000      3.0538103E-09
   28.74000      4.1401682E-09
   28.80000      5.1733386E-09
   28.86000      6.1367120E-09
   28.92000      7.0171113E-09
   28.98000      7.8048439E-09
   29.04000      8.4932612E-09
   29.10000      9.0779997E-09
   29.16000      9.5561452E-09
   29.22000      9.9256043E-09
   29.28000      1.0184857E-08
   29.34000      1.0333132E-08
   29.40000      1.0370902E-08
   29.46000      1.0300518E-08
   29.52000      1.0126749E-08
   29.58000      9.8570938E-09
   29.64000      9.5017860E-09
   29.70000      9.0734851E-09
   29.76000      8.5867375E-09
   29.82000      8.0572269E-09
   29.88000      7.5009110E-09
   29.94000      6.9330954E-09
   30.00000      6.3675505E-09
   30.06000      5.8157936E-09
   30.12000      5.2866493E-09
   30.18000      4.7861581E-09
   30.24000      4.3178012E-09
   30.30000      3.8829340E-09
   30.36000      3.4812495E-09
   30.42000      3.1111529E-09
   30.48000      2.7699605E-09
   30.54000      2.4539908E-09
   30.60000      2.1586612E-09
   30.66000      1.8787296E-09
   30.72000      1.6087398E-09
   30.78000      1.3436301E-09
   30.84000      1.0793582E-09
   30.90000      8.1337009E-10
   30.96000      5.4480587E-10
   31.02000      2.7445760E-10
   31.08000      4.6067230E-12
   31.14000     -2.6110400E-10
   31.20000     -5.1770227E-10
   31.26000     -7.5892437E-10
   31.32000     -9.7749642E-10
   31.38000     -1.1658774E-09
   31.44000     -1.3174842E-09
   31.50000     -1.4280965E-09
   31.56000     -1.4969076E-09
   31.62000     -1.5266860E-09
   31.68000     -1.5228458E-09
   31.74000     -1.4917445E-09
   31.80000     -1.4389530E-09
   31.86000     -1.3683344E-09
   31.92000     -1.2823850E-09
   31.98000     -1.1836269E-09
   32.04000     -1.0762475E-09
   32.10000     -9.6700592E-10
   32.16000     -8.6481122E-10
   32.22000     -7.7911239E-10
   32.28000     -7.1790895E-10
   32.34000     -6.8639616E-10
   32.40000     -6.8687128E-10
   32.46000     -7.1978878E-10
   32.52000     -7.8521556E-10
   32.58000     -8.8378616E-10
   32.64000     -1.0166811E-09
   32.70000     -1.1848459E-09
   32.76000     -1.3881919E-09
   32.82000     -1.6255101E-09
   32.88000     -1.8953157E-09
   32.94000     -2.1971474E-09
   33.00000     -2.5324496E-09
   33.06000     -2.9043092E-09
   33.12000     -3.3159540E-09
   33.18000     -3.7686223E-09
   33.24000     -4.2597921E-09
   33.30000     -4.7825703E-09
   33.36000     -5.3264779E-09
   33.42000     -5.8792224E-09
   33.48000     -6.4287202E-09
   33.54000     -6.9647164E-09
   33.60000     -7.4797128E-09
   33.66000     -7.9692404E-09
   33.72000     -8.4317060E-09
   33.78000     -8.8679508E-09
   33.84000     -9.2805568E-09
   33.90000     -9.6729567E-09
   33.96000     -1.0048493E-08
   34.02000     -1.0409726E-08
   34.08000     -1.0758233E-08
   34.14000     -1.1094870E-08
   34.20000     -1.1420185E-08
   34.26000     -1.1734405E-08
   34.32000     -1.2036698E-08
   34.38000     -1.2323778E-08
   34.44000     -1.2588537E-08
   34.50000     -1.2819550E-08
   34.56000     -1.3002057E-08
   34.62000     -1.3120436E-08
   34.68000     -1.3161380E-08
   34.74000     -1.3116662E-08
   34.80000     -1.2984492E-08
   34.86000     -1.2769068E-08
   34.92000     -1.2478695E-08
   34.98000     -1.2123381E-08
   35.04000     -1.1712903E-08
   35.10000     -1.1255946E-08
   35.16000     -1.0760345E-08
   35.22000     -1.0233948E-08
   35.28000     -9.6853983E-09
   35.34000     -9.1242489E-09
   35.40000     -8.5602361E-09
   35.46000     -8.0018863E-09
   35.52000     -7.4549673E-09
   35.58000     -6.9213333E-09
   35.64000     -6.3985768E-09
   35.70000     -5.8806435E-09
   35.76000     -5.3592788E-09
   35.82000     -4.8259574E-09
   35.88000     -4.2738808E-09
   35.94000     -3.6996264E-09
   36.00000     -3.1041756E-09
   36.06000     -2.4931652E-09
   36.12000     -1.8763504E-09
   36.18000     -1.2663935E-09
   36.24000     -6.7720907E-10
   36.30000     -1.2220336E-10
   36.36000      3.8718700E-10
   36.42000      8.4229862E-10
   36.48000      1.2372060E-09
   36.54000      1.5679591E-09
   36.60000      1.8315055E-09
   36.66000      2.0248694E-09
   36.72000      2.1450777E-09
   36.78000      2.1899951E-09
   36.84000      2.1597950E-09
   36.90000      2.0584425E-09
   36.96000      1.8944659E-09
   37.02000      1.6805299E-09
   37.08000      1.4317399E-09
   37.14000      1.1630882E-09
   37.20000      8.8675339E-10
   37.26000      6.1002775E-10
   37.32000      3.3446104E-10
   37.38000      5.6481306E-11
   37.44000     -2.3063006E-10
   37.50000     -5.3388216E-10
   37.56000     -8.5757573E-10
   37.62000     -1.2010133E-09
   37.68000     -1.5576622E-09
   37.74000     -1.9161459E-09
   37.80000     -2.2628472E-09
   37.86000     -2.5852886E-09
   37.92000     -2.8750533E-09
   37.98000     -3.1290790E-09
   38.04000     -3.3487324E-09
   38.10000     -3.5370002E-09
   38.16000     -3.6949837E-09
   38.22000     -3.8192933E-09
   38.28000     -3.9016408E-09
   38.34000     -3.9310351E-09
   38.40000     -3.8978722E-09
   38.46000     -3.7983501E-09
   38.52000     -3.6374128E-09
   38.58000     -3.4289429E-09
   38.64000     -3.1929224E-09
   38.70000     -2.9503888E-09
   38.76000     -2.7178080E-09
   38.82000     -2.5027105E-09
   38.88000     -2.3020290E-09
   38.94000     -2.1037083E-09
   39.00000     -1.8910817E-09
   39.06000     -1.6485373E-09
   39.12000     -1.3664914E-09
   39.18000     -1.0438184E-09
   39.24000     -6.8675626E-10
   39.30000     -3.0465161E-10
   39.36000      9.5727398E-11
   39.42000      5.1479920E-10
   39.48000      9.6143804E-10
   39.54000      1.4499583E-09
   39.60000      1.9937589E-09
   39.66000      2.5982150E-09
   39.72000      3.2559722E-09
   39.78000      3.9469463E-09
   39.84000      4.6433803E-09
   39.90000      5.3181046E-09
   39.96000      5.9527685E-09
   40.02000      6.5428405E-09
   40.08000      7.0976056E-09
   40.14000      7.6354958E-09
   40.20000      8.1769045E-09
   40.26000      8.7374170E-09
   40.32000      9.3238546E-09
   40.38000      9.9342152E-09
   40.44000      1.0560940E-08
   40.50000      1.1195883E-08
   40.56000      1.1834959E-08
   40.62000      1.2480816E-08
   40.68000      1.3142715E-08
   40.74000      1.3833719E-08
   40.80000      1.4566140E-08
   40.86000      1.5346719E-08
   40.92000      1.6173070E-08
   40.98000      1.7032573E-08
   41.04000      1.7904162E-08
   41.10000      1.8762339E-08
   41.16000      1.9582147E-08
   41.22000      2.0343341E-08
   41.28000      2.1032536E-08
   41.34000      2.1642858E-08
   41.40000      2.2171665E-08
   41.46000      2.2617550E-08
   41.52000      2.2977941E-08
   41.58000      2.3248139E-08
   41.64000      2.3421968E-08
   41.70000      2.3493586E-08
   41.76000      2.3459657E-08
   41.82000      2.3321141E-08
   41.88000      2.3084118E-08
   41.94000      2.2759474E-08
   42.00000      2.2361526E-08
   42.06000      2.1905937E-08
   42.12000      2.1407580E-08
   42.18000      2.0878872E-08
   42.24000      2.0329100E-08
   42.30000      1.9764739E-08
   42.36000      1.9190432E-08
   42.42000      1.8610026E-08
   42.48000      1.8027150E-08
   42.54000      1.7445162E-08
   42.60000      1.6866732E-08
   42.66000      1.6293546E-08
   42.72000      1.5726513E-08
   42.78000      1.5166460E-08
   42.84000      1.4614983E-08
   42.90000      1.4074993E-08
   42.96000      1.3550668E-08
   43.02000      1.3046948E-08
   43.08000      1.2568890E-08
   43.14000      1.2121227E-08
   43.20000      1.1708142E-08
   43.26000      1.1333040E-08
   43.32000      1.0997963E-08
   43.38000      1.0702608E-08
   43.44000      1.0443246E-08
   43.50000      1.0212128E-08
   43.56000      9.9979136E-09
   43.62000      9.7872732E-09
   43.68000      9.5673132E-09
   43.74000      9.3281090E-09
   43.80000      9.0645891E-09
   43.86000      8.7772429E-09
   43.92000      8.4715639E-09
   43.98000      8.1564666E-09
   44.04000      7.8422548E-09
   44.10000      7.5387332E-09
   44.16000      7.2540729E-09
   44.22000      6.9947643E-09
   44.28000      6.7666068E-09
   44.34000      6.5762422E-09
   44.40000      6.4323773E-09
   44.46000      6.3458598E-09
   44.52000      6.3281869E-09
   44.58000      6.3887624E-09
   44.64000      6.5319194E-09
   44.70000      6.7549712E-09
   44.76000      7.0482100E-09
   44.82000      7.3969488E-09
   44.88000      7.7848048E-09
   44.94000      8.1968992E-09
   45.00000      8.6218259E-09
   45.06000      9.0518277E-09
   45.12000      9.4815285E-09
   45.18000      9.9060955E-09
   45.24000      1.0319824E-08
   45.30000      1.0715798E-08
   45.36000      1.1086645E-08
   45.42000      1.1425920E-08
   45.48000      1.1729363E-08
   45.54000      1.1995346E-08
   45.60000      1.2224172E-08
   45.66000      1.2416445E-08
   45.72000      1.2571210E-08
   45.78000      1.2684808E-08
   45.84000      1.2751222E-08
   45.90000      1.2764035E-08
   45.96000      1.2719280E-08
   46.02000      1.2617834E-08
   46.08000      1.2465989E-08
   46.14000      1.2273589E-08
   46.20000      1.2050352E-08
   46.26000      1.1802005E-08
   46.32000      1.1528130E-08
   46.38000      1.1222816E-08
   46.44000      1.0877850E-08
   46.50000      1.0486789E-08
   46.56000      1.0047938E-08
   46.62000      9.5648014E-09
   46.68000      9.0440802E-09
   46.74000      8.4925240E-09
   46.80000      7.9144700E-09
   46.86000      7.3113622E-09
   46.92000      6.6832850E-09
   46.98000      6.0314549E-09
   47.04000      5.3601492E-09
   47.10000      4.6769983E-09
   47.16000      3.9915662E-09
   47.22000      3.3130507E-09
   47.28000      2.6483302E-09
   47.34000      2.0012911E-09
   47.40000      1.3736380E-09
   47.46000      7.6663881E-10
   47.52000      1.8280809E-10
   47.58000     -3.7339465E-10
   47.64000     -8.9629959E-10
   47.70000     -1.3809357E-09
   47.76000     -1.8252339E-09
   47.82000     -2.2313722E-09
   47.88000     -2.6053566E-09
   47.94000     -2.9546803E-09
   48.00000     -3.2848473E-09
   48.06000     -3.5962642E-09
   48.12000     -3.8830370E-09
   48.18000     -4.1344457E-09
   48.24000     -4.3386250E-09
   48.30000     -4.4868407E-09
   48.36000     -4.5764010E-09
   48.42000     -4.6108828E-09
   48.48000     -4.5976938E-09
   48.54000     -4.5442921E-09
   48.60000     -4.4549586E-09
   48.66000     -4.3295652E-09
   48.72000     -4.1646313E-09
   48.78000     -3.9558143E-09
   48.84000     -3.7004062E-09
   48.90000     -3.3987018E-09
   48.96000     -3.0538689E-09
   49.02000     -2.6707427E-09
   49.08000     -2.2542954E-09
   49.14000     -1.8083882E-09
   49.20000     -1.3350407E-09
   49.26000     -8.3416113E-10
   49.32000     -3.0363329E-10
   49.38000      2.6027289E-10
   49.44000      8.6220714E-10
   49.50000      1.5069611E-09
   49.56000      2.1990036E-09
   49.62000      2.9427345E-09
   49.68000      3.7435655E-09
   49.74000      4.6094559E-09
   49.80000      5.5521827E-09
   49.86000      6.5876491E-09
   49.92000      7.7349798E-09
   49.98000      9.0147445E-09
   50.04000      1.0447017E-08
   50.10000      1.2049949E-08
   50.16000      1.3839172E-08
   50.22000      1.5827835E-08
   50.28000      1.8026938E-08
   50.34000      2.0445615E-08
   50.40000      2.3091250E-08
   50.46000      2.5969445E-08
   50.52000      2.9083822E-08
   50.58000      3.2435523E-08
   50.64000      3.6022282E-08
   50.70000      3.9837186E-08
   50.76000      4.3867445E-08
   50.82000      4.8093739E-08
   50.88000      5.2490353E-08
   50.94000      5.7025868E-08
   51.00000      6.1663577E-08
   51.06000      6.6360869E-08
   51.12000      7.1067099E-08
   51.18000      7.5720322E-08
   51.24000      8.0244163E-08
   51.30000      8.4545810E-08
   51.36000      8.8515989E-08
   51.42000      9.2030724E-08
   51.48000      9.4953791E-08
   51.54000      9.7138653E-08
   51.60000      9.8429126E-08
   51.66000      9.8658496E-08
   51.72000      9.7647877E-08
   51.78000      9.5204818E-08
   51.84000      9.1122828E-08
   51.90000      8.5182400E-08
   51.96000      7.7153253E-08
   52.02000      6.6797590E-08
   52.08000      5.3873837E-08
   52.14000      3.8140271E-08
   52.20000      1.9358431E-08
   52.26000     -2.7041818E-09
   52.32000     -2.8271932E-08
   52.38000     -5.7559177E-08
   52.44000     -9.0767976E-08
   52.50000     -1.2808449E-07
   52.56000     -1.6967344E-07
   52.62000     -2.1567051E-07
   52.68000     -2.6617383E-07
   52.74000     -3.2123603E-07
   52.80000     -3.8085801E-07
   52.86000     -4.4498614E-07
   52.92000     -5.1351111E-07
   52.98000     -5.8626802E-07
   53.04000     -6.6303488E-07
   53.10000     -7.4352897E-07
   53.16000     -8.2740149E-07
   53.22000     -9.1423186E-07
   53.28000     -1.0035239E-06
   53.34000     -1.0947061E-06
   53.40000     -1.1871336E-06
   53.46000     -1.2800939E-06
   53.52000     -1.3728103E-06
   53.58000     -1.4644464E-06
   53.64000     -1.5541087E-06
   53.70000     -1.6408497E-06
   53.76000     -1.7236748E-06
   53.82000     -1.8015512E-06
   53.88000     -1.8734195E-06
   53.94000     -1.9382044E-06
   54.00000     -1.9948259E-06
   54.06000     -2.0422085E-06
   54.12000     -2.0792897E-06
   54.18000     -2.1050309E-06
   54.24000     -2.1184271E-06
   54.30000     -2.1185231E-06
   54.36000     -2.1044252E-06
   54.42000     -2.0753143E-06
   54.48000     -2.0304581E-06
   54.54000     -1.9692204E-06
   54.60000     -1.8910714E-06
   54.66000     -1.7955961E-06
   54.72000     -1.6825013E-06
   54.78000     -1.5516229E-06
   54.84000     -1.4029306E-06
   54.90000     -1.2365314E-06
   54.96000     -1.0526728E-06
   55.02000     -8.5174645E-07
   55.08000     -6.3428917E-07
   55.14000     -4.0098314E-07
   55.20000     -1.5265286E-07
   55.26000      1.0974101E-07
   55.32000      3.8511041E-07
   55.38000      6.7225051E-07
   55.44000      9.6985070E-07
   55.50000      1.2765065E-06
   55.56000      1.5907309E-06