  -2.400000      0.0000000E+00
  -2.340000      0.0000000E+00
  -2.280000      0.0000000E+00
  -2.220000      0.0000000E+00
  -2.160000      0.0000000E+00
  -2.100000      0.0000000E+00
  -2.040000      0.0000000E+00
  -1.980000      0.0000000E+00
  -1.920000      0.0000000E+00
  -1.860000      5.9479343E-29
  -1.800000      1.8005390E-27
  -1.740000      1.9063092E-26
  -1.680000      1.1473946E-25
  -1.620000      4.5708824E-25
  -1.560000      1.2497319E-24
  -1.500000      2.1213864E-24
  -1.440000      5.1611042E-25
  -1.380000     -1.0304704E-23
  -1.320000     -4.0109951E-23
  -1.260000     -9.0488833E-23
  -1.200000     -1.2843157E-22
  -1.140000     -5.4438982E-23
  -1.080000      2.9545673E-22
  -1.020000      1.0480990E-21
 -0.9600000      2.0463261E-21
 -0.9000000      2.5236275E-21
 -0.8400000      9.6899271E-22
 -0.7800000     -4.3703542E-21
 -0.7200000     -1.3971488E-20
 -0.6600000     -2.4683081E-20
 -0.6000000     -2.7779879E-20
 -0.5400000     -9.7999205E-21
 -0.4800000      4.1221877E-20
 -0.4200000      1.2335005E-19
 -0.3600000      2.0593162E-19
 -0.3000000      2.2229246E-19
 -0.2400000      8.4154519E-20
 -0.1800000     -2.7120132E-19
 -0.1200000     -8.0561162E-19
 -5.9999999E-02 -1.3085683E-18
  0.0000000E+00 -1.3895460E-18
  5.9999999E-02 -5.9946849E-19
  0.1200000      1.2960131E-18
  0.1800000      3.9677000E-18
  0.2400000      6.2974083E-18
  0.3000000      6.5405514E-18
  0.3600000      3.0506959E-18
  0.4200000     -4.5548175E-18
  0.4800000     -1.4323046E-17
  0.5400000     -2.1810643E-17
  0.6000000     -2.1519119E-17
  0.6600000     -9.8372148E-18
  0.7200000      1.1741391E-17
  0.7800000      3.5239757E-17
  0.8400000      4.8550618E-17
  0.9000000      4.1639263E-17
  0.9600000      1.3924897E-17
   1.020000     -2.2010135E-17
   1.080000     -4.4795129E-17
   1.140000     -3.7093406E-17
   1.200000     -9.1431199E-19
   1.260000      3.5361564E-17
   1.320000      2.7871930E-17
   1.380000     -5.3423106E-17
   1.440000     -1.9048964E-16
   1.500000     -3.0200952E-16
   1.560000     -2.6879646E-16
   1.620000     -1.9621694E-18
   1.680000      4.7402214E-16
   1.740000      9.7481486E-16
   1.800000      1.1955804E-15
   1.860000      8.4878144E-16
   1.920000     -1.4717178E-16
   1.980000     -1.5279255E-15
   2.040000     -2.6980945E-15
   2.100000     -2.9489213E-15
   2.160000     -1.8186416E-15
   2.220000      5.6981902E-16
   2.280000      3.3962978E-15
   2.340000      5.3854109E-15
   2.400000      5.3633974E-15
   2.460000      2.9001478E-15
   2.520000     -1.2980274E-15
   2.580000     -5.5185132E-15
   2.640000     -7.7401947E-15
   2.700000     -6.6397303E-15
   2.760000     -2.4221437E-15
   2.820000      3.0135973E-15
   2.880000      6.8020147E-15
   2.940000      6.5209098E-15
   3.000000      1.6583725E-15
   3.060000     -5.6523373E-15
   3.120000     -1.1196452E-14
   3.180000     -1.0535468E-14
   3.240000     -1.4634117E-15
   3.300000      1.4110530E-14
   3.360000      2.9993501E-14
   3.420000      3.7760946E-14
   3.480000      3.0494257E-14
   3.540000      6.6702341E-15
   3.600000     -2.7758842E-14
   3.660000     -6.0558471E-14
   3.720000     -7.7771069E-14
   3.780000     -7.0012958E-14
   3.840000     -3.7642995E-14
   3.900000      8.0543575E-15
   3.960000      4.9009255E-14
   4.020000      6.8629211E-14
   4.080000      6.0578279E-14
   4.140000      3.3510873E-14
   4.200000      8.4868593E-15
   4.260000      9.0585718E-15
   4.320000      4.7875061E-14
   4.380000      1.1615703E-13
   4.440000      1.8202876E-13
   4.500000      2.0022487E-13
   4.560000      1.3049291E-13
   4.620000     -4.2477018E-14
   4.680000     -2.9623857E-13
   4.740000     -5.7104603E-13
   4.800000     -7.8430486E-13
   4.860000     -8.5392706E-13
   4.920000     -7.2212098E-13
   4.980000     -3.7176227E-13
   5.040000      1.6843790E-13
   5.100000      8.2860319E-13
   5.160000      1.5075098E-12
   5.220000      2.0831056E-12
   5.280000      2.4226775E-12
   5.340000      2.3957099E-12
   5.400000      1.8941532E-12
   5.460000      8.6217432E-13
   5.520000     -6.6898738E-13
   5.580000     -2.5525938E-12
   5.640000     -4.5196065E-12
   5.700000     -6.2056402E-12
   5.760000     -7.2136581E-12
   5.820000     -7.2003462E-12
   5.880000     -5.9619440E-12
   5.940000     -3.4909783E-12
   6.000000      1.7497212E-14
   6.060000      4.2140332E-12
   6.120000      8.6790332E-12
   6.180000      1.3007204E-11
   6.240000      1.6851843E-11
   6.300000      1.9902075E-11
   6.360000      2.1795293E-11
   6.420000      2.2002200E-11
   6.480000      1.9749011E-11
   6.540000      1.4046879E-11
   6.600000      3.8756698E-12
   6.660000     -1.1478621E-11
   6.720000     -3.1992218E-11
   6.780000     -5.6485878E-11
   6.840000     -8.2349308E-11
   6.900000     -1.0551673E-10
   6.960000     -1.2074799E-10
   7.020000     -1.2219580E-10
   7.080000     -1.0417030E-10
   7.140000     -6.1969624E-11
   7.200000      7.3608749E-12
   7.260000      1.0444654E-10
   7.320000      2.2723276E-10
   7.380000      3.7086736E-10
   7.440000      5.2778265E-10
   7.500000      6.8793621E-10
   7.560000      8.3918511E-10
   7.620000      9.6779984E-10
   7.680000      1.0591489E-09
   7.740000      1.0985921E-09
   7.800000      1.0726074E-09
   7.860000      9.7012343E-10
   7.920000      7.8397350E-10
   7.980000      5.1231391E-10
   8.040000      1.5979056E-10
   8.100000     -2.6179209E-10
   8.160000     -7.3353079E-10
   8.220000     -1.2303761E-09
   8.280000     -1.7230151E-09
   8.340000     -2.1805533E-09
   8.400000     -2.5736939E-09
   8.460000     -2.8779594E-09
   8.520000     -3.0764471E-09
   8.580000     -3.1616476E-09
   8.640000     -3.1360228E-09
   8.700000     -3.0112755E-09
   8.760000     -2.8065097E-09
   8.820000     -2.5456859E-09
   8.880000     -2.2548621E-09
   8.940000     -1.9596715E-09
   9.000000     -1.6833215E-09
   9.060000     -1.4451889E-09
   9.120000     -1.2599137E-09
   9.180000     -1.1368118E-09
   9.240000     -1.0794730E-09
   9.300000     -1.0855491E-09
   9.360000     -1.1468870E-09
   9.420000     -1.2502536E-09
   9.480000     -1.3788510E-09
   9.540000     -1.5146381E-09
   9.600000     -1.6411911E-09
   9.660000     -1.7465722E-09
   9.720000     -1.8255177E-09
   9.780000     -1.8803106E-09
   9.840000     -1.9199695E-09
   9.900000     -1.9578119E-09
   9.960000     -2.0079067E-09
   10.02000     -2.0812838E-09
   10.08000     -2.1828697E-09
   10.14000     -2.3099569E-09
   10.20000     -2.4525970E-09
   10.26000     -2.5957900E-09
   10.32000     -2.7228535E-09
   10.38000     -2.8190772E-09
   10.44000     -2.8747607E-09
   10.50000     -2.8869696E-09
   10.56000     -2.8597749E-09
   10.62000     -2.8031648E-09
   10.68000     -2.7311422E-09
   10.74000     -2.6596312E-09
   10.80000     -2.6047255E-09
   10.86000     -2.5815476E-09
   10.92000     -2.6036924E-09
   10.98000     -2.6829730E-09
   11.04000     -2.8290914E-09
   11.10000     -3.0489091E-09
   11.16000     -3.3452130E-09
   11.22000     -3.7151660E-09
   11.28000     -4.1489110E-09
   11.34000     -4.6289608E-09
   11.40000     -5.1309752E-09
   11.46000     -5.6262475E-09
   11.52000     -6.0857737E-09
   11.58000     -6.4852426E-09
   11.64000     -6.8098323E-09
   11.70000     -7.0575461E-09
   11.76000     -7.2400121E-09
   11.82000     -7.3802826E-09
   11.88000     -7.5079667E-09
   11.94000     -7.6528632E-09
   12.00000     -7.8387270E-09
   12.06000     -8.0788345E-09
   12.12000     -8.3744602E-09
   12.18000     -8.7164791E-09
   12.24000     -9.0892884E-09
   12.30000     -9.4755768E-09
   12.36000     -9.8602362E-09
   12.42000     -1.0232166E-08
   12.48000     -1.0583583E-08
   12.54000     -1.0907428E-08
   12.60000     -1.1194254E-08
   12.66000     -1.1430170E-08
   12.72000     -1.1597062E-08
   12.78000     -1.1675417E-08
   12.84000     -1.1649072E-08
   12.90000     -1.1510407E-08
   12.96000     -1.1264192E-08
   13.02000     -1.0928658E-08
   13.08000     -1.0533172E-08
   13.14000     -1.0113008E-08
   13.20000     -9.7025774E-09
   13.26000     -9.3289581E-09
   13.32000     -9.0074552E-09
   13.38000     -8.7402698E-09
   13.44000     -8.5184304E-09
   13.50000     -8.3262108E-09
   13.56000     -8.1466638E-09
   13.62000     -7.9666922E-09
   13.68000     -7.7803568E-09
   13.74000     -7.5897733E-09
   13.80000     -7.4036572E-09
   13.86000     -7.2342701E-09
   13.92000     -7.0938997E-09
   13.98000     -6.9920238E-09
   14.04000     -6.9339476E-09
   14.10000     -6.9211321E-09
   14.16000     -6.9527579E-09
   14.22000     -7.0276451E-09
   14.28000     -7.1455628E-09
   14.34000     -7.3072739E-09
   14.40000     -7.5132629E-09
   14.46000     -7.7617228E-09
   14.52000     -8.0467260E-09
   14.58000     -8.3574587E-09
   14.64000     -8.6789242E-09
   14.70000     -8.9938883E-09
   14.76000     -9.2853059E-09
   14.82000     -9.5383603E-09
   14.88000     -9.7414992E-09
   14.94000     -9.8864454E-09
   15.00000     -9.9676516E-09
   15.06000     -9.9818722E-09
   15.12000     -9.9282822E-09
   15.18000     -9.8091055E-09
   15.24000     -9.6301793E-09
   15.30000     -9.4007433E-09
   15.36000     -9.1319885E-09
   15.42000     -8.8344727E-09
   15.48000     -8.5151362E-09
   15.54000     -8.1749914E-09
   15.60000     -7.8084481E-09
   15.66000     -7.4047271E-09
   15.72000     -6.9510797E-09
   15.78000     -6.4369492E-09
   15.84000     -5.8578511E-09
   15.90000     -5.2178768E-09
   15.96000     -4.5301016E-09
   16.02000     -3.8147778E-09
   16.08000     -3.0958109E-09
   16.14000     -2.3964972E-09
   16.20000     -1.7357232E-09
   16.26000     -1.1257323E-09
   16.32000     -5.7208122E-10
   16.38000     -7.5688358E-11
   16.44000      3.6390682E-10
   16.50000      7.4546247E-10
   16.56000      1.0645130E-09
   16.62000      1.3141820E-09
   16.68000      1.4880962E-09
   16.74000      1.5841733E-09
   16.80000      1.6075312E-09
   16.86000      1.5710088E-09
   16.92000      1.4927509E-09
   16.98000      1.3915840E-09
   17.04000      1.2819537E-09
   17.10000      1.1705170E-09
   17.16000      1.0559016E-09
   17.22000      9.3190045E-10
   17.28000      7.9295853E-10
   17.34000      6.3981370E-10
   17.40000      4.8298859E-10
   17.46000      3.4255079E-10
   17.52000      2.4390934E-10
   17.58000      2.1087597E-10
   17.64000      2.5827282E-10
   17.70000      3.8662007E-10
   17.76000      5.8080235E-10
   17.82000      8.1330498E-10
   17.88000      1.0510772E-09
   17.94000      1.2638623E-09
   18.00000      1.4313543E-09
   18.06000      1.5469740E-09
   18.12000      1.6172352E-09
   18.18000      1.6571735E-09
   18.24000      1.6835909E-09
   18.30000      1.7084935E-09
   18.36000      1.7348846E-09
   18.42000      1.7561635E-09
   18.48000      1.7591117E-09
   18.54000      1.7292889E-09
   18.60000      1.6569544E-09
   18.66000      1.5415501E-09
   18.72000      1.3933239E-09
   18.78000      1.2315997E-09
   18.84000      1.0802750E-09
   18.90000      9.6197339E-10
   18.96000      8.9268393E-10
   19.02000      8.7849483E-10
   19.08000      9.1528041E-10
   19.14000      9.9115283E-10
   19.20000      1.0905707E-09
   19.26000      1.1985479E-09
   19.32000      1.3036214E-09
   19.38000      1.3989606E-09
   19.44000      1.4818813E-09
   19.50000      1.5526099E-09
   19.56000      1.6131861E-09
   19.62000      1.6669383E-09
   19.68000      1.7183508E-09
   19.74000      1.7727638E-09
   19.80000      1.8354329E-09
   19.86000      1.9099597E-09
   19.92000      1.9966515E-09
   19.98000      2.0916151E-09
   20.04000      2.1871716E-09
   20.10000      2.2735851E-09
   20.16000      2.3414972E-09
   20.22000      2.3841438E-09
   20.28000      2.3985878E-09
   20.34000      2.3856583E-09
   20.40000      2.3488071E-09
   20.46000      2.2923929E-09
   20.52000      2.2199140E-09
   20.58000      2.1325266E-09
   20.64000      2.0280073E-09
   20.70000      1.9002657E-09
   20.76000      1.7395536E-09
   20.82000      1.5335285E-09
   20.88000      1.2691773E-09
   20.94000      9.3529728E-10
   21.00000      5.2489202E-10
   21.06000      3.6691629E-11
   21.12000     -5.2482002E-10
   21.18000     -1.1510122E-09
   21.24000     -1.8318881E-09
   21.30000     -2.5591151E-09
   21.36000     -3.3282461E-09
   21.42000     -4.1393484E-09
   21.48000     -4.9958162E-09
   21.54000     -5.9017737E-09
   21.60000     -6.8589534E-09
   21.66000     -7.8640925E-09
   21.72000     -8.9076675E-09
   21.78000     -9.9743227E-09
   21.84000     -1.1044784E-08
   21.90000     -1.2098612E-08
   21.96000     -1.3116958E-08
   22.02000     -1.4084639E-08
   22.08000     -1.4991114E-08
   22.14000     -1.5830395E-08
   22.20000     -1.6600143E-08
   22.26000     -1.7300422E-08
   22.32000     -1.7932493E-08
   22.38000     -1.8498028E-08
   22.44000     -1.8998945E-08
   22.50000     -1.9437916E-08
   22.56000     -1.9819399E-08
   22.62000     -2.0150731E-08
   22.68000     -2.0442732E-08
   22.74000     -2.0709207E-08
   22.80000     -2.0965123E-08
   22.86000     -2.1223768E-08
   22.92000     -2.1493728E-08
   22.98000     -2.1776772E-08
   23.04000     -2.2067493E-08
   23.10000     -2.2354810E-08
   23.16000     -2.2624715E-08
   23.22000     -2.2863096E-08
   23.28000     -2.3057559E-08
   23.34000     -2.3197797E-08
   23.40000     -2.3274870E-08
   23.46000     -2.3280291E-08
   23.52000     -2.3205859E-08
   23.58000     -2.3044594E-08
   23.64000     -2.2792499E-08
   23.70000     -2.2450273E-08
   23.76000     -2.2024206E-08
   23.82000     -2.1525837E-08
   23.88000     -2.0970585E-08
   23.94000     -2.0375893E-08
   24.00000     -1.9759311E-08
   24.06000     -1.9136731E-08
   24.12000     -1.8520566E-08
   24.18000     -1.7917760E-08
   24.24000     -1.7327840E-08
   24.30000     -1.6741716E-08
   24.36000     -1.6142124E-08
   24.42000     -1.5506300E-08
   24.48000     -1.4810602E-08
   24.54000     -1.4035893E-08
   24.60000     -1.3171993E-08
   24.66000     -1.2219610E-08
   24.72000     -1.1189219E-08
   24.78000     -1.0097523E-08
   24.84000     -8.9630667E-09
   24.90000     -7.8027913E-09
   24.96000     -6.6305925E-09
   25.02000     -5.4578675E-09
   25.08000     -4.2950643E-09
   25.14000     -3.1529110E-09
   25.20000     -2.0424793E-09
   25.26000     -9.7412356E-10
   25.32000      4.3871864E-11
   25.38000      1.0058914E-09
   25.44000      1.9082487E-09
   25.50000      2.7473552E-09
   25.56000      3.5177343E-09
   25.62000      4.2109498E-09
   25.68000      4.8160715E-09
   25.74000      5.3215308E-09
   25.80000      5.7176184E-09
   25.86000      5.9987428E-09
   25.92000      6.1648611E-09
   25.98000      6.2220105E-09
   26.04000      6.1821530E-09
   26.10000      6.0625576E-09
   26.16000      5.8846847E-09
   26.22000      5.6723555E-09
   26.28000      5.4490665E-09
   26.34000      5.2346838E-09
   26.40000      5.0421622E-09
   26.46000      4.8751412E-09
   26.52000      4.7270694E-09
   26.58000      4.5820552E-09
   26.64000      4.4171049E-09
   26.70000      4.2051473E-09
   26.76000      3.9182351E-09
   26.82000      3.5305052E-09
   26.88000      3.0206784E-09
   26.94000      2.3739484E-09
   27.00000      1.5831099E-09
   27.06000      6.4881966E-10
   27.12000     -4.2094453E-10
   27.18000     -1.6119175E-09
   27.24000     -2.9046183E-09
   27.30000     -4.2751007E-09
   27.36000     -5.6953517E-09
   27.42000     -7.1336919E-09
   27.48000     -8.5557019E-09
   27.54000     -9.9260538E-09
   27.60000     -1.1211167E-08
   27.66000     -1.2382142E-08
   27.72000     -1.3417162E-08
   27.78000     -1.4302636E-08
   27.84000     -1.5032699E-08
   27.90000     -1.5607208E-08
   27.96000     -1.6028698E-08
   28.02000     -1.6299053E-08
   28.08000     -1.6416733E-08
   28.14000     -1.6375322E-08
   28.20000     -1.6163932E-08
   28.26000     -1.5769492E-08
   28.32000     -1.5180365E-08
   28.38000     -1.4390193E-08
   28.44000     -1.3400603E-08
   28.50000     -1.2221800E-08
   28.56000     -1.0870859E-08
   28.62000     -9.3684820E-09
   28.68000     -7.7356175E-09
   28.74000     -5.9912928E-09
   28.80000     -4.1523807E-09
   28.86000     -2.2350604E-09
   28.92000     -2.5697403E-10
   28.98000      1.7611530E-09
   29.04000      3.7953463E-09
   29.10000      5.8198988E-09
   29.16000      7.8101143E-09
   29.22000      9.7453539E-09
   29.28000      1.1611290E-08
   29.34000      1.3400459E-08
   29.40000      1.5110654E-08
   29.46000      1.6741440E-08
   29.52000      1.8289811E-08
   29.58000      1.9746647E-08
   29.64000      2.1095646E-08
   29.70000      2.2315511E-08
   29.76000      2.3384969E-08
   29.82000      2.4288632E-08
   29.88000      2.5021139E-08
   29.94000      2.5587553E-08
   30.00000      2.5999588E-08
   30.06000      2.6269273E-08
   30.12000      2.6402819E-08
   30.18000      2.6397442E-08
   30.24000      2.6242356E-08
   30.30000      2.5923214E-08
   30.36000      2.5427829E-08
   30.42000      2.4750667E-08
   30.48000      2.3894609E-08
   30.54000      2.2869816E-08
   30.60000      2.1690811E-08
   30.66000      2.0373134E-08
   30.72000      1.8930617E-08
   30.78000      1.7373692E-08
   30.84000      1.5708734E-08
   30.90000      1.3938371E-08
   30.96000      1.2062888E-08
   31.02000      1.0082648E-08
   31.08000      8.0011642E-09
   31.14000      5.8278449E-09
   31.20000      3.5792513E-09
   31.26000      1.2780359E-09
   31.32000     -1.0503838E-09
   31.38000     -3.3823815E-09
   31.44000     -5.7003007E-09
   31.50000     -7.9947426E-09
   31.56000     -1.0264177E-08
   31.62000     -1.2512060E-08
   31.68000     -1.4742445E-08
   31.74000     -1.6955482E-08
   31.80000     -1.9144094E-08
   31.86000     -2.1292816E-08
   31.92000     -2.3379064E-08
   31.98000     -2.5376577E-08
   32.04000     -2.7259979E-08
   32.10000     -2.9009113E-08
   32.16000     -3.0611698E-08
   32.22000     -3.2063493E-08
   32.28000     -3.3366007E-08
   32.34000     -3.4522749E-08
   32.40000     -3.5535592E-08
   32.46000     -3.6402579E-08
   32.52000     -3.7117879E-08
   32.58000     -3.7673509E-08
   32.64000     -3.8061884E-08
   32.70000     -3.8278067E-08
   32.76000     -3.8320888E-08
   32.82000     -3.8192706E-08
   32.88000     -3.7898015E-08
   32.94000     -3.7441502E-08
   33.00000     -3.6826037E-08
   33.06000     -3.6051375E-08
   33.12000     -3.5114230E-08
   33.18000     -3.4010057E-08
   33.24000     -3.2736395E-08
   33.30000     -3.1296945E-08
   33.36000     -2.9704854E-08
   33.42000     -2.7983653E-08
   33.48000     -2.6165161E-08
   33.54000     -2.4284732E-08
   33.60000     -2.2375565E-08
   33.66000     -2.0464238E-08
   33.72000     -1.8569184E-08
   33.78000     -1.6702490E-08
   33.84000     -1.4873979E-08
   33.90000     -1.3095478E-08
   33.96000     -1.1383216E-08
   34.02000     -9.7571746E-09
   34.08000     -8.2375013E-09
   34.14000     -6.8393460E-09
   34.20000     -5.5681610E-09
   34.26000     -4.4174260E-09
   34.32000     -3.3700476E-09
   34.38000     -2.4035010E-09
   34.44000     -1.4975103E-09
   34.50000     -6.4199918E-10
   34.56000      1.5736613E-10
   34.62000      8.7825125E-10
   34.68000      1.4862171E-09
   34.74000      1.9437818E-09
   34.80000      2.2212945E-09
   34.86000      2.3060993E-09
   34.92000      2.2068896E-09
   34.98000      1.9517403E-09
   35.04000      1.5804580E-09
   35.10000      1.1337762E-09
   35.16000      6.4287164E-10
   35.22000      1.2240643E-10
   35.28000     -4.3099802E-10
   35.34000     -1.0347726E-09
   35.40000     -1.7125455E-09
   35.46000     -2.4851907E-09
   35.52000     -3.3637908E-09
   35.58000     -4.3467927E-09
   35.64000     -5.4221725E-09
   35.70000     -6.5736439E-09
   35.76000     -7.7884375E-09
   35.82000     -9.0635162E-09
   35.88000     -1.0407576E-08
   35.94000     -1.1837681E-08
   36.00000     -1.3371427E-08
   36.06000     -1.5017200E-08
   36.12000     -1.6765984E-08
   36.18000     -1.8587684E-08
   36.24000     -2.0433518E-08
   36.30000     -2.2244091E-08
   36.36000     -2.3960926E-08
   36.42000     -2.5538103E-08
   36.48000     -2.6950476E-08
   36.54000     -2.8195835E-08
   36.60000     -2.9290065E-08
   36.66000     -3.0256572E-08
   36.72000     -3.1113196E-08
   36.78000     -3.1861084E-08
   36.84000     -3.2479591E-08
   36.90000     -3.2929496E-08
   36.96000     -3.3163939E-08
   37.02000     -3.3143603E-08
   37.08000     -3.2850874E-08
   37.14000     -3.2297844E-08
   37.20000     -3.1525076E-08
   37.26000     -3.0591188E-08
   37.32000     -2.9556450E-08
   37.38000     -2.8465653E-08
   37.44000     -2.7335686E-08
   37.50000     -2.6151922E-08
   37.56000     -2.4874803E-08
   37.62000     -2.3454936E-08
   37.68000     -2.1852316E-08
   37.74000     -2.0053710E-08
   37.80000     -1.8082417E-08
   37.86000     -1.5996569E-08
   37.92000     -1.3875731E-08
   37.98000     -1.1799570E-08
   38.04000     -9.8254471E-09
   38.10000     -7.9726528E-09
   38.16000     -6.2190399E-09
   38.22000     -4.5115507E-09
   38.28000     -2.7871518E-09
   38.34000     -9.9691977E-10
   38.40000      8.7511087E-10
   38.46000      2.8047644E-09
   38.52000      4.7344750E-09
   38.58000      6.5914549E-09
   38.64000      8.3110336E-09
   38.70000      9.8574215E-09
   38.76000      1.1235157E-08
   38.82000      1.2487552E-08
   38.88000      1.3682572E-08
   38.94000      1.4890591E-08
   39.00000      1.6161188E-08
   39.06000      1.7506682E-08
   39.12000      1.8898170E-08
   39.18000      2.0275731E-08
   39.24000      2.1569630E-08
   39.30000      2.2725281E-08
   39.36000      2.3723263E-08
   39.42000      2.4587226E-08
   39.48000      2.5376933E-08
   39.54000      2.6168944E-08
   39.60000      2.7031886E-08
   39.66000      2.8004827E-08
   39.72000      2.9086097E-08
   39.78000      3.0235888E-08
   39.84000      3.1391430E-08
   39.90000      3.2489424E-08
   39.96000      3.3488341E-08
   40.02000      3.4383302E-08
   40.08000      3.5208775E-08
   40.14000      3.6027874E-08
   40.20000      3.6911473E-08
   40.26000      3.7913637E-08
   40.32000      3.9051557E-08
   40.38000      4.0297060E-08
   40.44000      4.1583199E-08
   40.50000      4.2824318E-08
   40.56000      4.3943004E-08
   40.62000      4.4894698E-08
   40.68000      4.5681190E-08
   40.74000      4.6348113E-08
   40.80000      4.6967180E-08
   40.86000      4.7609358E-08
   40.92000      4.8318316E-08
   40.98000      4.9093160E-08
   41.04000      4.9886300E-08
   41.10000      5.0617015E-08
   41.16000      5.1196182E-08
   41.22000      5.1554000E-08
   41.28000      5.1661736E-08
   41.34000      5.1540226E-08
   41.40000      5.1252240E-08
   41.46000      5.0880868E-08
   41.52000      5.0500745E-08
   41.58000      5.0151641E-08
   41.64000      4.9823424E-08
   41.70000      4.9457785E-08
   41.76000      4.8966577E-08
   41.82000      4.8260791E-08
   41.88000      4.7280327E-08
   41.94000      4.6014488E-08
   42.00000      4.4506212E-08
   42.06000      4.2838945E-08
   42.12000      4.1110827E-08
   42.18000      3.9405105E-08
   42.24000      3.7766618E-08
   42.30000      3.6191611E-08
   42.36000      3.4633658E-08
   42.42000      3.3022907E-08
   42.48000      3.1292075E-08
   42.54000      2.9400475E-08
   42.60000      2.7348692E-08
   42.66000      2.5179453E-08
   42.72000      2.2964878E-08
   42.78000      2.0784560E-08
   42.84000      1.8701707E-08
   42.90000      1.6745140E-08
   42.96000      1.4902874E-08
   43.02000      1.3129155E-08
   43.08000      1.1362292E-08
   43.14000      9.5471648E-09
   43.20000      7.6548012E-09
   43.26000      5.6926268E-09
   43.32000      3.7022843E-09
   43.38000      1.7461286E-09
   43.44000     -1.1273790E-10
   43.50000     -1.8300319E-09
   43.56000     -3.3929139E-09
   43.62000     -4.8215618E-09
   43.68000     -6.1593166E-09
   43.74000     -7.4548279E-09
   43.80000     -8.7422869E-09
   43.86000     -1.0026513E-08
   43.92000     -1.1278070E-08
   43.98000     -1.2440244E-08
   44.04000     -1.3445667E-08
   44.10000     -1.4237001E-08
   44.16000     -1.4784596E-08
   44.22000     -1.5095068E-08
   44.28000     -1.5207862E-08
   44.34000     -1.5181126E-08
   44.40000     -1.5071901E-08
   44.46000     -1.4917543E-08
   44.52000     -1.4724643E-08
   44.58000     -1.4468856E-08
   44.64000     -1.4105225E-08
   44.70000     -1.3585002E-08
   44.76000     -1.2873143E-08
   44.82000     -1.1960811E-08
   44.88000     -1.0869271E-08
   44.94000     -9.6445687E-09
   45.00000     -8.3452338E-09
   45.06000     -7.0271065E-09
   45.12000     -5.7299139E-09
   45.18000     -4.4693791E-09
   45.24000     -3.2368546E-09
   45.30000     -2.0063189E-09
   45.36000     -7.4649736E-10
   45.42000      5.6558064E-10
   45.48000      1.9337434E-09
   45.54000      3.3380114E-09
   45.60000      4.7377395E-09
   45.66000      6.0817444E-09
   45.72000      7.3222171E-09
   45.78000      8.4278255E-09
   45.84000      9.3915427E-09
   45.90000      1.0230516E-08
   45.96000      1.0978055E-08
   46.02000      1.1670602E-08
   46.08000      1.2334219E-08
   46.14000      1.2975092E-08
   46.20000      1.3576990E-08
   46.26000      1.4106011E-08
   46.32000      1.4520608E-08
   46.38000      1.4783359E-08
   46.44000      1.4870845E-08
   46.50000      1.4778909E-08
   46.56000      1.4522295E-08
   46.62000      1.4129308E-08
   46.68000      1.3633432E-08
   46.74000      1.3064533E-08
   46.80000      1.2442131E-08
   46.86000      1.1772536E-08
   46.92000      1.1050378E-08
   46.98000      1.0263689E-08
   47.04000      9.4006403E-09
   47.10000      8.4555598E-09
   47.16000      7.4323436E-09
   47.22000      6.3443890E-09
   47.28000      5.2115370E-09
   47.34000      4.0554564E-09
   47.40000      2.8952203E-09
   47.46000      1.7444284E-09
   47.52000      6.1045047E-10
   47.58000     -5.0440147E-10
   47.64000     -1.6004533E-09
   47.70000     -2.6778091E-09
   47.76000     -3.7337795E-09
   47.82000     -4.7611723E-09
   47.88000     -5.7478511E-09
   47.94000     -6.6777450E-09
   48.00000     -7.5331830E-09
   48.06000     -8.2980325E-09
   48.12000     -8.9608854E-09
   48.18000     -9.5174597E-09
   48.24000     -9.9716537E-09
   48.30000     -1.0335037E-08
   48.36000     -1.0624913E-08
   48.42000     -1.0861321E-08
   48.48000     -1.1063459E-08
   48.54000     -1.1246158E-08
   48.60000     -1.1417223E-08
   48.66000     -1.1576550E-08
   48.72000     -1.1717619E-08
   48.78000     -1.1831241E-08
   48.84000     -1.1910487E-08
   48.90000     -1.1954909E-08
   48.96000     -1.1972200E-08
   49.02000     -1.1976359E-08
   49.08000     -1.1982946E-08
   49.14000     -1.2003407E-08
   49.20000     -1.2040929E-08
   49.26000     -1.2089590E-08
   49.32000     -1.2137047E-08
   49.38000     -1.2169475E-08
   49.44000     -1.2176631E-08
   49.50000     -1.2155146E-08
   49.56000     -1.2109164E-08
   49.62000     -1.2048524E-08
   49.68000     -1.1985417E-08
   49.74000     -1.1930605E-08
   49.80000     -1.1890043E-08
   49.86000     -1.1862541E-08
   49.92000     -1.1838873E-08
   49.98000     -1.1802661E-08
   50.04000     -1.1732969E-08
   50.10000     -1.1607994E-08
   50.16000     -1.1408755E-08
   50.22000     -1.1121547E-08
   50.28000     -1.0738381E-08
   50.34000     -1.0255504E-08
   50.40000     -9.6708934E-09
   50.46000     -8.9819086E-09
   50.52000     -8.1839815E-09
   50.58000     -7.2705593E-09
   50.64000     -6.2339605E-09
   50.70000     -5.0666200E-09
   50.76000     -3.7623704E-09
   50.82000     -2.3175888E-09
   50.88000     -7.3197631E-10
   50.94000      9.9142228E-10
   51.00000      2.8474136E-09
   51.06000      4.8310973E-09
   51.12000      6.9408244E-09
   51.18000      9.1802832E-09
   51.24000      1.1558390E-08
   51.30000      1.4086542E-08
   51.36000      1.6774271E-08
   51.42000      1.9625332E-08
   51.48000      2.2636268E-08
   51.54000      2.5798302E-08
   51.60000      2.9101749E-08
   51.66000      3.2540864E-08
   51.72000      3.6117044E-08
   51.78000      3.9839190E-08
   51.84000      4.3721467E-08
   51.90000      4.7779597E-08
   51.96000      5.2026884E-08
   52.02000      5.6470789E-08
   52.08000      6.1110363E-08
   52.14000      6.5934941E-08
   52.20000      7.0924457E-08
   52.26000      7.6051961E-08
   52.32000      8.1287894E-08
   52.38000      8.6604942E-08
   52.44000      9.1981406E-08
   52.50000      9.7401276E-08
   52.56000      1.0285054E-07
   52.62000      1.0831114E-07
   52.68000      1.1375490E-07
   52.74000      1.1913992E-07
   52.80000      1.2441058E-07
   52.86000      1.2950039E-07
   52.92000      1.3433632E-07
   52.98000      1.3884221E-07
   53.04000      1.4294071E-07
   53.10000      1.4655262E-07
   53.16000      1.4959456E-07
   53.22000      1.5197519E-07
   53.28000      1.5359137E-07
   53.34000      1.5432536E-07
   53.40000      1.5404483E-07
   53.46000      1.5260704E-07
   53.52000      1.4986658E-07
   53.58000      1.4568462E-07
   53.64000      1.3993696E-07
   53.70000      1.3251737E-07
   53.76000      1.2333572E-07
   53.82000      1.1231189E-07
   53.88000      9.9368833E-08
   53.94000      8.4427555E-08
   54.00000      6.7405871E-08
   54.06000      4.8220922E-08
   54.12000      2.6794336E-08
   54.18000      3.0588176E-09
   54.24000     -2.3034577E-08
   54.30000     -5.1509339E-08
   54.36000     -8.2357857E-08
   54.42000     -1.1553881E-07
   54.48000     -1.5097926E-07
   54.54000     -1.8858091E-07
   54.60000     -2.2822847E-07
   54.66000     -2.6979632E-07
   54.72000     -3.1315079E-07
   54.78000     -3.5814739E-07
   54.84000     -4.0462547E-07
   54.90000     -4.5240381E-07
   54.96000     -5.0127949E-07
   55.02000     -5.5103044E-07
   55.08000     -6.0142020E-07
   55.14000     -6.5220104E-07
   55.20000     -7.0311609E-07
   55.26000     -7.5390017E-07
   55.32000     -8.0428129E-07
   55.38000     -8.5398290E-07
   55.44000     -9.0272721E-07
   55.50000     -9.5023694E-07
   55.56000     -9.9623526E-07