 -0.750000000       0.00000000    
 -0.689999998       0.00000000    
 -0.629999995       0.00000000    
 -0.569999993       0.00000000    
 -0.509999990       0.00000000    
 -0.449999988       0.00000000    
 -0.389999986       0.00000000    
 -0.330000013       0.00000000    
 -0.270000011      -5.57587293E-28
 -0.209999993      -4.63520154E-26
 -0.150000006      -5.26262274E-25
  -9.00000036E-02  -3.04930692E-24
  -2.99999993E-02  -1.12084292E-23
   2.99999993E-02  -2.71605094E-23
   9.00000036E-02  -3.63057234E-23
  0.150000006       2.17446053E-23
  0.209999993       2.68802069E-22
  0.270000011       8.15594328E-22
  0.330000013       1.51173093E-21
  0.389999986       1.54447515E-21
  0.449999988      -7.80143601E-22
  0.509999990      -7.37386037E-21
  0.569999993      -1.81297731E-20
  0.629999995      -2.73908258E-20
  0.689999998      -2.14983417E-20
  0.750000000       1.79863784E-20
  0.810000002       1.00928300E-19
  0.870000005       2.06015613E-19
  0.930000007       2.60829589E-19
  0.990000010       1.48180566E-19
   1.04999995      -2.36694475E-19
   1.11000001      -8.75600147E-19
   1.16999996      -1.50862782E-18
   1.23000002      -1.60550370E-18
   1.28999996      -5.40433490E-19
   1.35000002       1.98763333E-18
   1.40999997       5.41830309E-18
   1.47000003       8.01215992E-18
   1.52999997       7.18428779E-18
   1.59000003       7.41601023E-19
   1.64999998      -1.12377888E-17
   1.71000004      -2.48227803E-17
   1.76999998      -3.23041591E-17
   1.83000004      -2.49507716E-17
   1.88999999       1.83803771E-18
   1.95000005       4.31567224E-17
   2.00999999       8.25619028E-17
   2.06999993       9.65453778E-17
   2.13000011       6.57908423E-17
   2.19000006      -1.10545145E-17
   2.25000000      -1.09126385E-16
   2.30999994      -1.82534634E-16
   2.36999989      -1.85204310E-16
   2.43000007      -9.97476256E-17
   2.49000001       4.20081623E-17
   2.54999995       1.64209367E-16
   2.60999990       1.84450821E-16
   2.67000008       7.01737349E-17
   2.73000002      -1.18170493E-16
   2.78999996      -2.33321022E-16
   2.84999990      -1.13263538E-16
   2.91000009       3.03421284E-16
   2.97000003       8.80709760E-16
   3.02999997       1.28131764E-15
   3.08999991       1.09808790E-15
   3.15000010       9.01872110E-17
   3.21000004      -1.58590614E-15
   3.26999998      -3.29827028E-15
   3.32999992      -4.11953330E-15
   3.39000010      -3.24859878E-15
   3.45000005      -5.07322337E-16
   3.50999999       3.35096843E-15
   3.56999993       6.75373801E-15
   3.63000011       7.90175861E-15
   3.69000006       5.64939678E-15
   3.75000000       2.73799800E-16
   3.80999994      -6.30169558E-15
   3.86999989      -1.10746839E-14
   3.93000007      -1.12088082E-14
   3.99000001      -5.47738726E-15
   4.05000019       4.76361250E-15
   4.11000013       1.56333923E-14
   4.17000008       2.19803644E-14
   4.23000002       1.94703262E-14
   4.28999996       6.71474358E-15
   4.34999990      -1.34891767E-14
   4.40999985      -3.44868990E-14
   4.46999979      -4.77826092E-14
   4.53000021      -4.61843596E-14
   4.59000015      -2.69763036E-14
   4.65000010       6.17193945E-15
   4.71000004       4.35607191E-14
   4.76999998       7.23440269E-14
   4.82999992       8.12084571E-14
   4.88999987       6.51995886E-14
   4.94999981       2.86250075E-14
   5.01000023      -1.56385457E-14
   5.07000017      -5.08260460E-14
   5.13000011      -6.35374186E-14
   5.19000006      -5.05587563E-14
   5.25000000      -2.17599901E-14
   5.30999994       3.23355188E-15
   5.36999989       4.19624908E-15
   5.42999983      -2.82813459E-14
   5.48999977      -8.47071572E-14
   5.55000019      -1.37015331E-13
   5.61000013      -1.49007570E-13
   5.67000008      -9.35541385E-14
   5.73000002       3.11078508E-14
   5.78999996       1.94665803E-13
   5.84999990       3.42811364E-13
   5.90999985       4.18361255E-13
   5.96999979       3.86468635E-13
   6.03000021       2.51456706E-13
   6.09000015       5.55498572E-14
   6.15000010      -1.41701700E-13
   6.21000004      -2.94014216E-13
   6.26999998      -3.92760097E-13
   6.32999992      -4.70008201E-13
   6.38999987      -5.74843612E-13
   6.44999981      -7.32058999E-13
   6.51000023      -9.04258168E-13
   6.57000017      -9.80928121E-13
   6.63000011      -8.08252824E-13
   6.69000006      -2.54649763E-13
   6.75000000       7.12365063E-13
   6.80999994       1.97254843E-12
   6.86999989       3.25183803E-12
   6.92999983       4.18325661E-12
   6.98999977       4.41298300E-12
   7.05000019       3.71389594E-12
   7.11000013       2.06355397E-12
   7.17000008      -3.43098542E-13
   7.23000002      -3.14943948E-12
   7.28999996      -5.93648004E-12
   7.34999990      -8.32426489E-12
   7.40999985      -1.00358211E-11
   7.46999979      -1.09036643E-11
   7.53000021      -1.08265992E-11
   7.59000015      -9.70780921E-12
   7.65000010      -7.41356629E-12
   7.71000004      -3.78210701E-12
   7.76999998       1.31064029E-12
   7.82999992       7.84728966E-12
   7.88999987       1.55631740E-11
   7.94999981       2.38767669E-11
   8.01000023       3.18822226E-11
   8.06999969       3.84088455E-11
   8.13000011       4.21315829E-11
   8.18999958       4.17039042E-11
   8.25000000       3.58839833E-11
   8.31000042       2.36360636E-11
   8.36999989       4.20663764E-12
   8.43000031      -2.28077071E-11
   8.48999977      -5.73745496E-11
   8.55000019      -9.88999438E-11
   8.60999966      -1.46060233E-10
   8.67000008      -1.96617930E-10
   8.72999954      -2.47278781E-10
   8.78999996      -2.93662650E-10
   8.85000038      -3.30452082E-10
   8.90999985      -3.51745105E-10
   8.97000027      -3.51582985E-10
   9.02999973      -3.24569732E-10
   9.09000015      -2.66471123E-10
   9.14999962      -1.74694453E-10
   9.21000004      -4.85998707E-11
   9.27000046       1.10338627E-10
   9.32999992       2.98457647E-10
   9.39000034       5.09845777E-10
   9.44999981       7.36285588E-10
   9.51000023       9.67259384E-10
   9.56999969       1.19015209E-09
   9.63000011       1.39079748E-09
   9.68999958       1.55444602E-09
   9.75000000       1.66710956E-09
   9.81000042       1.71708991E-09
   9.86999989       1.69640568E-09
   9.93000031       1.60182700E-09
   9.98999977       1.43532020E-09
   10.0500002       1.20385901E-09
   10.1099997       9.18716436E-10
   10.1700001       5.94433447E-10
   10.2299995       2.47665971E-10
   10.2900000      -1.03972220E-10
   10.3500004      -4.43050763E-10
   10.4099998      -7.53492324E-10
   10.4700003      -1.02179853E-09
   10.5299997      -1.23827382E-09
   10.5900002      -1.39806888E-09
   10.6499996      -1.50179813E-09
   10.7100000      -1.55549673E-09
   10.7700005      -1.56981639E-09
   10.8299999      -1.55854751E-09
   10.8900003      -1.53675073E-09
   10.9499998      -1.51888879E-09
   11.0100002      -1.51733470E-09
   11.0699997      -1.54149726E-09
   11.1300001      -1.59759694E-09
   11.1899996      -1.68894509E-09
   11.2500000      -1.81646620E-09
   11.3100004      -1.97921746E-09
   11.3699999      -2.17475904E-09
   11.4300003      -2.39936870E-09
   11.4899998      -2.64820588E-09
   11.5500002      -2.91555380E-09
   11.6099997      -3.19523807E-09
   11.6700001      -3.48120022E-09
   11.7299995      -3.76811515E-09
   11.7900000      -4.05186595E-09
   11.8500004      -4.32970726E-09
   11.9099998      -4.60000837E-09
   11.9700003      -4.86159824E-09
   12.0299997      -5.11285281E-09
   12.0900002      -5.35078382E-09
   12.1499996      -5.57042634E-09
   12.2100000      -5.76477710E-09
   12.2700005      -5.92541571E-09
   12.3299999      -6.04371220E-09
   12.3900003      -6.11233686E-09
   12.4499998      -6.12661921E-09
   12.5100002      -6.08532869E-09
   12.5699997      -5.99060490E-09
   12.6300001      -5.84706505E-09
   12.6899996      -5.66042191E-09
   12.7500000      -5.43613377E-09
   12.8100004      -5.17857934E-09
   12.8699999      -4.89103336E-09
   12.9300003      -4.57635529E-09
   12.9899998      -4.23802593E-09
   13.0500002      -3.88102395E-09
   13.1099997      -3.51217788E-09
   13.1700001      -3.13987991E-09
   13.2299995      -2.77336243E-09
   13.2900000      -2.42190379E-09
   13.3500004      -2.09428763E-09
   13.4099998      -1.79862392E-09
   13.4700003      -1.54238389E-09
   13.5299997      -1.33234801E-09
   13.5900002      -1.17419630E-09
   13.6499996      -1.07169462E-09
   13.7100000      -1.02569919E-09
   13.7700005      -1.03339914E-09
   13.8299999      -1.08821085E-09
   13.8900003      -1.18053012E-09
   13.9499998      -1.29922795E-09
   14.0100002      -1.43347478E-09
   14.0699997      -1.57435565E-09
   14.1300001      -1.71581871E-09
   14.1899996      -1.85478066E-09
   14.2500000      -1.99053396E-09
   14.3100004      -2.12384887E-09
   14.3699999      -2.25620900E-09
   14.4300003      -2.38945752E-09
   14.4899998      -2.52583132E-09
   14.5500002      -2.66808731E-09
   14.6099997      -2.81929524E-09
   14.6700001      -2.98199176E-09
   14.7299995      -3.15671178E-09
   14.7900000      -3.34028871E-09
   14.8500004      -3.52456575E-09
   14.9099998      -3.69614872E-09
   14.9700003      -3.83751209E-09
   15.0299997      -3.92929911E-09
   15.0900002      -3.95318889E-09
   15.1499996      -3.89450738E-09
   15.2100000      -3.74386300E-09
   15.2700005      -3.49750096E-09
   15.3299999      -3.15655124E-09
   15.3900003      -2.72573764E-09
   15.4499998      -2.21219909E-09
   15.5100002      -1.62489999E-09
   15.5699997      -9.74752390E-10
   15.6300001      -2.75213935E-10
   15.6899996       4.57077404E-10
   15.7500000       1.20207311E-09
   15.8100004       1.93676408E-09
   15.8699999       2.63634470E-09
   15.9300003       3.27589467E-09
   15.9899998       3.83223542E-09
   16.0499992       4.28556968E-09
   16.1100006       4.62056349E-09
   16.1700001       4.82668749E-09
   16.2299995       4.89787100E-09
   16.2900009       4.83174034E-09
   16.3500004       4.62890393E-09
   16.4099998       4.29272529E-09
   16.4699993       3.82981158E-09
   16.5300007       3.25108918E-09
   16.5900002       2.57293697E-09
   16.6499996       1.81768345E-09
   16.7099991       1.01287745E-09
   16.7700005       1.89170596E-10
   16.8299999      -6.22791707E-10
   16.8899994      -1.39561707E-09
   16.9500008      -2.10757811E-09
   17.0100002      -2.74349143E-09
   17.0699997      -3.29393091E-09
   17.1299992      -3.75326970E-09
   17.1900005      -4.11743928E-09
   17.2500000      -4.38232206E-09
   17.3099995      -4.54335458E-09
   17.3700008      -4.59636329E-09
   17.4300003      -4.53914906E-09
   17.4899998      -4.37306991E-09
   17.5499992      -4.10392786E-09
   17.6100006      -3.74178954E-09
   17.6700001      -3.29981398E-09
   17.7299995      -2.79252332E-09
   17.7900009      -2.23411556E-09
   17.8500004      -1.63731595E-09
   17.9099998      -1.01300124E-09
   17.9699993      -3.70505071E-10
   18.0300007       2.81724005E-10
   18.0900002       9.35489131E-10
   18.1499996       1.58250790E-09
   18.2099991       2.21442864E-09
   18.2700005       2.82306889E-09
   18.3299999       3.40067885E-09
   18.3899994       3.94008737E-09
   18.4500008       4.43473125E-09
   18.5100002       4.87868546E-09
   18.5699997       5.26682653E-09
   18.6299992       5.59516922E-09
   18.6900005       5.86127458E-09
   18.7500000       6.06452755E-09
   18.8099995       6.20612184E-09
   18.8700008       6.28872687E-09
   18.9300003       6.31599129E-09
   18.9899998       6.29213481E-09
   19.0499992       6.22183105E-09
   19.1100006       6.11042950E-09
   19.1700001       5.96433614E-09
   19.2299995       5.79131454E-09
   19.2900009       5.60045699E-09
   19.3500004       5.40177414E-09
   19.4099998       5.20549337E-09
   19.4699993       5.02126074E-09
   19.5300007       4.85741802E-09
   19.5900002       4.72041428E-09
   19.6499996       4.61436800E-09
   19.7099991       4.54079352E-09
   19.7700005       4.49862325E-09
   19.8299999       4.48468285E-09
   19.8899994       4.49475124E-09
   19.9500008       4.52507365E-09
   20.0100002       4.57393234E-09
   20.0699997       4.64268046E-09
   20.1299992       4.73573225E-09
   20.1900005       4.85937868E-09
   20.2500000       5.01980812E-09
   20.3099995       5.22108445E-09
   20.3700008       5.46392531E-09
   20.4300003       5.74574210E-09
   20.4899998       6.06184436E-09
   20.5499992       6.40713305E-09
   20.6100006       6.77742706E-09
   20.6700001       7.16978654E-09
   20.7299995       7.58175300E-09
   20.7900009       8.01003441E-09
   20.8500004       8.44944381E-09
   20.9099998       8.89280560E-09
   20.9699993       9.33200894E-09
   21.0300007       9.75982317E-09
   21.0900002       1.01716706E-08
   21.1499996       1.05665414E-08
   21.2099991       1.09466161E-08
   21.2700005       1.13157137E-08
   21.3299999       1.16771437E-08
   21.3899994       1.20317445E-08
   21.4500008       1.23767618E-08
   21.5100002       1.27058195E-08
   21.5699997       1.30098501E-08
   21.6299992       1.32785498E-08
   21.6900005       1.35018858E-08
   21.7500000       1.36712135E-08
   21.8099995       1.37798617E-08
   21.8700008       1.38231604E-08
   21.9300003       1.37980836E-08
   21.9899998       1.37027278E-08
   22.0499992       1.35358631E-08
   22.1100006       1.32967601E-08
   22.1700001       1.29853799E-08
   22.2299995       1.26028787E-08
   22.2900009       1.21521886E-08
   22.3500004       1.16383072E-08
   22.4099998       1.10679510E-08
   22.4699993       1.04484252E-08
   22.5300007       9.78595072E-09
   22.5900002       9.08403663E-09
   22.6499996       8.34267766E-09
   22.7099991       7.55892238E-09
   22.7700005       6.72886236E-09
   22.8299999       5.85038906E-09
   22.8899994       4.92563945E-09
   22.9500008       3.96204669E-09
   23.0100002       2.97150771E-09
   23.0699997       1.96799776E-09
   23.1299992       9.64712421E-10
   23.1900005      -2.80199960E-11
   23.2500000      -1.00325648E-09
   23.3099995      -1.95646099E-09
   23.3700008      -2.88388446E-09
   23.4300003      -3.78141563E-09
   23.4899998      -4.64460292E-09
   23.5499992      -5.46972867E-09
   23.6100006      -6.25513019E-09
   23.6700001      -7.00176717E-09
   23.7299995      -7.71255415E-09
   23.7900009      -8.39075120E-09
   23.8500004      -9.03831143E-09
   23.9099998      -9.65507141E-09
   23.9699993      -1.02390825E-08
   24.0300007      -1.07875522E-08
   24.0900002      -1.12975105E-08
   24.1499996      -1.17655015E-08
   24.2099991      -1.21864403E-08
   24.2700005      -1.25525039E-08
   24.3299999      -1.28531967E-08
   24.3899994      -1.30771003E-08
   24.4500008      -1.32148656E-08
   24.5100002      -1.32620936E-08
   24.5699997      -1.32206681E-08
   24.6299992      -1.30978419E-08
   24.6900005      -1.29035911E-08
   24.7500000      -1.26476269E-08
   24.8099995      -1.23375843E-08
   24.8700008      -1.19790711E-08
   24.9300003      -1.15771401E-08
   24.9899998      -1.11379315E-08
   25.0499992      -1.06692442E-08
   25.1100006      -1.01796225E-08
   25.1700001      -9.67650582E-09
   25.2299995      -9.16464504E-09
   25.2900009      -8.64575966E-09
   25.3500004      -8.11961964E-09
   25.4099998      -7.58586616E-09
   25.4699993      -7.04550152E-09
   25.5300007      -6.50127818E-09
   25.5900002      -5.95702376E-09
   25.6499996      -5.41655965E-09
   25.7099991      -4.88308904E-09
   25.7700005      -4.35944969E-09
   25.8299999      -3.84895760E-09
   25.8899994      -3.35609074E-09
   25.9500008      -2.88631918E-09
   26.0100002      -2.44492848E-09
   26.0699997      -2.03534767E-09
   26.1299992      -1.65782910E-09
   26.1900005      -1.30914768E-09
   26.2500000      -9.83433557E-10
   26.3099995      -6.73656519E-10
   26.3700008      -3.73024611E-10
   26.4300003      -7.57451324E-11
   26.4899998       2.22927246E-10
   26.5499992       5.26987343E-10
   26.6100006       8.39797509E-10
   26.6700001       1.16369325E-09
   26.7299995       1.49912405E-09
   26.7900009       1.84369042E-09
   26.8500004       2.19152563E-09
   26.9099998       2.53329646E-09
   26.9699993       2.85681545E-09
   27.0300007       3.14801785E-09
   27.0900002       3.39199135E-09
   27.1499996       3.57383501E-09
   27.2099991       3.67928865E-09
   27.2700005       3.69522901E-09
   27.3299999       3.61017660E-09
   27.3899994       3.41494077E-09
   27.4500008       3.10342751E-09
   27.5100002       2.67353739E-09
   27.5699997       2.12798423E-09
   27.6299992       1.47482704E-09
   27.6900005       7.27530203E-10
   27.7500000      -9.55408114E-11
   27.8099995      -9.72146030E-10
   27.8700008      -1.87755078E-09
   27.9300003      -2.78603496E-09
   27.9899998      -3.67234088E-09
   28.0499992      -4.51298110E-09
   28.1100006      -5.28742916E-09
   28.1700001      -5.97923044E-09
   28.2299995      -6.57700827E-09
   28.2900009      -7.07518755E-09
   28.3500004      -7.47419193E-09
   28.4099998      -7.77991538E-09
   28.4699993      -8.00246802E-09
   28.5300007      -8.15446821E-09
   28.5900002      -8.24933988E-09
   28.6499996      -8.30006108E-09
   28.7099991      -8.31857427E-09
   28.7700005      -8.31577740E-09
   28.8299999      -8.30167490E-09
   28.8899994      -8.28527114E-09
   28.9500008      -8.27391133E-09
   29.0100002      -8.27215541E-09
   29.0699997      -8.28060198E-09
   29.1299992      -8.29517877E-09
   29.1900005      -8.30732283E-09
   29.2500000      -8.30512192E-09
   29.3099995      -8.27508462E-09
   29.3700008      -8.20397883E-09
   29.4300003      -8.08017209E-09
   29.4899998      -7.89413246E-09
   29.5499992      -7.63815144E-09
   29.6100006      -7.30564143E-09
   29.6700001      -6.89051705E-09
   29.7299995      -6.38706243E-09
   29.7900009      -5.79043746E-09
   29.8500004      -5.09767961E-09
   29.9099998      -4.30887015E-09
   29.9699993      -3.42808271E-09
   30.0300007      -2.46388021E-09
   30.0900002      -1.42926748E-09
   30.1499996      -3.41173562E-10
   30.2099991       7.80414400E-10
   30.2700005       1.91355976E-09
   30.3299999       3.03564729E-09
   30.3899994       4.12474011E-09
   30.4500008       5.16088505E-09
   30.5100002       6.12716411E-09
   30.5699997       7.01028169E-09
   30.6299992       7.80055842E-09
   30.6900005       8.49137116E-09
   30.7500000       9.07827236E-09
   30.8099995       9.55811874E-09
   30.8700008       9.92851668E-09
   30.9300003       1.01877404E-08
   30.9899998       1.03350644E-08
   31.0499992       1.03713180E-08
   31.1100006       1.02994289E-08
   31.1700001       1.01247792E-08
   31.2299995       9.85531479E-09
   31.2900009       9.50143075E-09
   31.3500004       9.07568865E-09
   31.4099998       8.59236771E-09
   31.4699993       8.06683342E-09
   31.5300007       7.51472573E-09
   31.5900002       6.95101843E-09
   31.6499996       6.38910214E-09
   31.7099991       5.84006976E-09
   31.7700005       5.31233812E-09
   31.8299999       4.81165818E-09
   31.8899994       4.34143033E-09
   31.9500008       3.90316934E-09
   32.0099983       3.49694740E-09
   32.0699997       3.12170267E-09
   32.1300011       2.77537970E-09
   32.1899986       2.45495224E-09
   32.2500000       2.15644080E-09
   32.3100014       1.87505145E-09
   32.3699989       1.60552782E-09
   32.4300003       1.34272837E-09
   32.4900017       1.08233911E-09
   32.5499992       8.21537172E-10
   32.6100006       5.59412905E-10
   32.6699982       2.97039199E-10
   32.7299995       3.72252507E-11
   32.7900009      -2.15864854E-10
   32.8499985      -4.57041460E-10
   32.9099998      -6.80286660E-10
   32.9700012      -8.78954909E-10
   33.0299988      -1.04623121E-09
   33.0900002      -1.17602950E-09
   33.1500015      -1.26423905E-09
   33.2099991      -1.30987987E-09
   33.2700005      -1.31558175E-09
   33.3300018      -1.28699129E-09
   33.3899994      -1.23120991E-09
   33.4500008      -1.15491705E-09
   33.5099983      -1.06308362E-09
   33.5699997      -9.58923718E-10
   33.6300011      -8.45080561E-10
   33.6899986      -7.25326965E-10
   33.7500000      -6.05743067E-10
   33.8100014      -4.94616792E-10
   33.8699989      -4.01050831E-10
   33.9300003      -3.33019196E-10
   33.9900017      -2.95922259E-10
   34.0499992      -2.92359387E-10
   34.1100006      -3.23079091E-10
   34.1699982      -3.88373778E-10
   34.2299995      -4.88992291E-10
   34.2900009      -6.26064589E-10
   34.3499985      -8.00270461E-10
   34.4099998      -1.01103526E-09
   34.4700012      -1.25652000E-09
   34.5299988      -1.53461088E-09
   34.5900002      -1.84436866E-09
   34.6500015      -2.18698659E-09
   34.7099991      -2.56550114E-09
   34.7700005      -2.98319014E-09
   34.8300018      -3.44135409E-09
   34.8899994      -3.93753385E-09
   34.9500008      -4.46499193E-09
   35.0099983      -5.01362107E-09
   35.0699997      -5.57178792E-09
   35.1300011      -6.12829432E-09
   35.1899986      -6.67380906E-09
   35.2500000      -7.20153093E-09
   35.3100014      -7.70722419E-09
   35.3699989      -8.18893575E-09
   35.4300003      -8.64659278E-09
   35.4900017      -9.08152487E-09
   35.5499992      -9.49591872E-09
   35.6100006      -9.89226923E-09
   35.6699982      -1.02730002E-08
   35.7299995      -1.06403508E-08
   35.7900009      -1.09964500E-08
   35.8499985      -1.13432366E-08
   35.9099998      -1.16818999E-08
   35.9700012      -1.20117027E-08
   36.0299988      -1.23285382E-08
   36.0900002      -1.26239010E-08
   36.1500015      -1.28849544E-08
   36.2099991      -1.30960345E-08
   36.2700005      -1.32412543E-08
   36.3300018      -1.33074121E-08
   36.3899994      -1.32862521E-08
   36.4500008      -1.31754243E-08
   36.5099983      -1.29780382E-08
   36.5699997      -1.27012401E-08
   36.6300011      -1.23544623E-08
   36.6899986      -1.19479422E-08
   36.7500000      -1.14918350E-08
   36.8100014      -1.09959410E-08
   36.8699989      -1.04698197E-08
   36.9300003      -9.92302596E-09
   36.9900017      -9.36515665E-09
   37.0499992      -8.80549145E-09
   37.1100006      -8.25215363E-09
   37.1699982      -7.71090924E-09
   37.2299995      -7.18395166E-09
   37.2900009      -6.66916078E-09
   37.3499985      -6.16027718E-09
   37.4099998      -5.64817393E-09
   37.4700012      -5.12301757E-09
   37.5299988      -4.57677185E-09
   37.5900002      -4.00535516E-09
   37.6500015      -3.40989681E-09
   37.7099991      -2.79684187E-09
   37.7700005      -2.17701013E-09
   37.8300018      -1.56394886E-09
   37.8899994      -9.72017133E-10
   37.9500008      -4.14619367E-10
   38.0099983       9.70711636E-11
   38.0699997       5.54668589E-10
   38.1300011       9.52344426E-10
   38.1899986       1.28597455E-09
   38.2500000       1.55207702E-09
   38.3100014       1.74709669E-09
   38.3699989       1.86750726E-09
   38.4300003       1.91086613E-09
   38.4900017       1.87748950E-09
   38.5499992       1.77203296E-09
   38.6100006       1.60419211E-09
   38.6699982       1.38801814E-09
   38.7299995       1.13986742E-09
   38.7900009       8.75527595E-10
   38.8499985       6.07354722E-10
   38.9099998       3.42239098E-10
   38.9700012       8.09420309E-11
   39.0299988      -1.81035867E-10
   39.0900002      -4.51263554E-10
   39.1500015      -7.37372219E-10
   39.2099991      -1.04396169E-09
   39.2700005      -1.37026568E-09
   39.3300018      -1.70934178E-09
   39.3899994      -2.04920036E-09
   39.4500008      -2.37565789E-09
   39.5099983      -2.67600497E-09
   39.5699997      -2.94211433E-09
   39.6300011      -3.17168736E-09
   39.6899986      -3.36703510E-09
   39.7500000      -3.53185148E-09
   39.8100014      -3.66739705E-09
   39.8699989      -3.76987686E-09
   39.9300003      -3.83034759E-09
   39.9900017      -3.83739929E-09
   40.0499992      -3.78161547E-09
   40.1100006      -3.66001895E-09
   40.1699982      -3.47867224E-09
   40.2299995      -3.25232241E-09
   40.2900009      -3.00111624E-09
   40.3499985      -2.74546008E-09
   40.4099998      -2.50070231E-09
   40.4700012      -2.27331487E-09
   40.5299988      -2.05973327E-09
   40.5900002      -1.84817495E-09
   40.6500015      -1.62284797E-09
   40.7099991      -1.36919431E-09
   40.7700005      -1.07839926E-09
   40.8300018      -7.49538764E-10
   40.8899994      -3.88474863E-10
   40.9500008      -3.82466411E-12
   41.0099983       3.98402644E-10
   41.0699997       8.19138257E-10
   41.1300011       1.26738764E-09
   41.1899986       1.75723325E-09
   41.2500000       2.30160557E-09
   41.3100014       2.90534108E-09
   41.3699989       3.56062047E-09
   41.4300003       4.24705826E-09
   41.4900017       4.93677410E-09
   41.5499992       5.60261837E-09
   41.6100006       6.22634744E-09
   41.6699982       6.80358925E-09
   41.7299995       7.34384464E-09
   41.7900009       7.86588217E-09
   41.8499985       8.39062153E-09
   41.9099998       8.93440966E-09
   41.9700012       9.50502876E-09
   42.0299988       1.01015010E-08
   42.0900002       1.07171720E-08
   42.1500015       1.13445040E-08
   42.2099991       1.19796209E-08
   42.2700005       1.26250113E-08
   42.3300018       1.32895268E-08
   42.3899994       1.39857450E-08
   42.4500008       1.47255692E-08
   42.5099983       1.55154591E-08
   42.5699997       1.63528711E-08
   42.6300011       1.72250854E-08
   42.6899986       1.81109296E-08
   42.7500000       1.89848191E-08
   42.8100014       1.98217283E-08
   42.8699989       2.06014175E-08
   42.9300003       2.13105142E-08
   42.9900017       2.19420091E-08
   43.0499992       2.24927774E-08
   43.1100006       2.29604087E-08
   43.1699982       2.33407995E-08
   43.2299995       2.36273845E-08
   43.2900009       2.38121771E-08
   43.3499985       2.38879956E-08
   43.4099998       2.38509532E-08
   43.4700012       2.37023059E-08
   43.5299988       2.34490845E-08
   43.5900002       2.31034054E-08
   43.6500015       2.26806964E-08
   43.7099991       2.21973959E-08
   43.7700005       2.16687681E-08
   43.8300018       2.11074127E-08
   43.8899994       2.05228208E-08
   43.9500008       1.99218988E-08
   44.0099983       1.93100043E-08
   44.0699997       1.86919067E-08
   44.1300011       1.80721731E-08
   44.1899986       1.74548713E-08
   44.2500000       1.68429573E-08
   44.3100014       1.62379106E-08
   44.3699989       1.56399906E-08
   44.4300003       1.50491832E-08
   44.4900017       1.44663694E-08
   44.5499992       1.38941729E-08
   44.6100006       1.33370808E-08
   44.6699982       1.28008546E-08
   44.7299995       1.22915846E-08
   44.7900009       1.18148096E-08
   44.8499985       1.13749508E-08
   44.9099998       1.09749516E-08
   44.9700012       1.06159179E-08
   45.0299988       1.02965654E-08
   45.0900002       1.00126147E-08
   45.1500015       9.75649517E-09
   45.2099991       9.51773149E-09
   45.2700005       9.28420363E-09
   45.3300018       9.04406861E-09
   45.3899994       8.78786555E-09
   45.4500008       8.51021564E-09
   45.5099983       8.21068369E-09
   45.5699997       7.89359156E-09
   45.6300011       7.56691065E-09
   45.6899986       7.24057481E-09
   45.7500000       6.92472657E-09
   45.8100014       6.62844890E-09
   45.8699989       6.35939701E-09
   45.9300003       6.12440987E-09
   45.9900017       5.93074256E-09
   46.0499992       5.78716541E-09
   46.1100006       5.70412562E-09
   46.1699982       5.69250602E-09
   46.2299995       5.76119419E-09
   46.2900009       5.91433524E-09
   46.3499985       6.14945384E-09
   46.4099998       6.45732579E-09
   46.4700012       6.82375267E-09
   46.5299988       7.23254878E-09
   46.5900002       7.66855646E-09
   46.6500015       8.11960099E-09
   46.7099991       8.57684679E-09
   46.7700005       9.03381459E-09
   46.8300018       9.48481116E-09
   46.8899994       9.92365656E-09
   46.9500008       1.03433146E-08
   47.0099983       1.07364846E-08
   47.0699997       1.10967946E-08
   47.1300011       1.14199414E-08
   47.1899986       1.17041576E-08
   47.2500000       1.19496733E-08
   47.3100014       1.21572841E-08
   47.3699989       1.23265957E-08
   47.4300003       1.24548158E-08
   47.4900017       1.25368853E-08
   47.5499992       1.25671686E-08
   47.6100006       1.25421495E-08
   47.6699982       1.24628556E-08
   47.7299995       1.23356383E-08
   47.7900009       1.21705463E-08
   47.8499985       1.19777130E-08
   47.9099998       1.17633157E-08
   47.9700012       1.15270335E-08
   48.0299988       1.12623679E-08
   48.0900002       1.09597602E-08
   48.1500015       1.06110205E-08
   48.2099991       1.02129150E-08
   48.2700005       9.76822356E-09
   48.3300018       9.28395938E-09
   48.3899994       8.76791439E-09
   48.4500008       8.22547985E-09
   48.5099983       7.65837793E-09
   48.5699997       7.06579018E-09
   48.6300011       6.44701936E-09
   48.6899986       5.80410742E-09
   48.7500000       5.14299670E-09
   48.8100014       4.47273374E-09
   48.8699989       3.80327947E-09
   48.9300003       3.14314574E-09
   48.9900017       2.49803866E-09
   49.0499992       1.87103155E-09
   49.1100006       1.26396171E-09
   49.1699982       6.79138967E-10
   49.2299995       1.20337670E-10
   49.2900009      -4.07533424E-10
   49.3499985      -8.99983366E-10
   49.4099998      -1.35492795E-09
   49.4700012      -1.77400061E-09
   49.5299988      -2.16228591E-09
   49.5900002      -2.52627741E-09
   49.6500015      -2.87077007E-09
   49.7099991      -3.19606741E-09
   49.7700005      -3.49690188E-09
   49.8300018      -3.76377818E-09
   49.8899994      -3.98628197E-09
   49.9500008      -4.15688550E-09
   50.0099983      -4.27347402E-09
   50.0699997      -4.33939951E-09
   50.1300011      -4.36113279E-09
   50.1899986      -4.34477432E-09
   50.2500000      -4.29319646E-09
   50.3100014      -4.20514645E-09
   50.3699989      -4.07651646E-09
   50.4300003      -3.90286647E-09
   50.4900017      -3.68175979E-09
   50.5499992      -3.41380524E-09
   50.6100006      -3.10214432E-09