  -2.400000      0.0000000E+00
  -2.340000      0.0000000E+00
  -2.280000      0.0000000E+00
  -2.220000      0.0000000E+00
  -2.160000      0.0000000E+00
  -2.100000      0.0000000E+00
  -2.040000      0.0000000E+00
  -1.980000      0.0000000E+00
  -1.920000      0.0000000E+00
  -1.860000      3.1993133E-29
  -1.800000      1.0913013E-27
  -1.740000      1.1491359E-26
  -1.680000      6.5077672E-26
  -1.620000      2.2503219E-25
  -1.560000      4.2462509E-25
  -1.500000     -1.5323908E-25
  -1.440000     -4.1755985E-24
  -1.380000     -1.6220059E-23
  -1.320000     -3.7474424E-23
  -1.260000     -4.9913202E-23
  -1.200000      6.5944662E-24
  -1.140000      2.3673973E-22
  -1.080000      7.1536855E-22
  -1.020000      1.2871238E-21
 -0.9600000      1.2933006E-21
 -0.9000000     -5.1011154E-22
 -0.8400000     -5.3828346E-21
 -0.7800000     -1.3025817E-20
 -0.7200000     -1.9360776E-20
 -0.6600000     -1.5294343E-20
 -0.6000000      1.0824883E-20
 -0.5400000      6.4866411E-20
 -0.4800000      1.3384555E-19
 -0.4200000      1.7506556E-19
 -0.3600000      1.1962961E-19
 -0.3000000     -9.8082508E-20
 -0.2400000     -4.8417766E-19
 -0.1800000     -9.2203765E-19
 -0.1200000     -1.1438903E-18
 -5.9999999E-02 -7.8714130E-19
  0.0000000E+00  4.3548774E-19
  5.9999999E-02  2.4787038E-18
  0.1200000      4.7244681E-18
  0.1800000      5.9278761E-18
  0.2400000      4.5212381E-18
  0.3000000     -6.5431413E-19
  0.3600000     -9.3401289E-18
  0.4200000     -1.9006991E-17
  0.4800000     -2.4798929E-17
  0.5400000     -2.0857415E-17
  0.6000000     -3.1285774E-18
  0.6600000      2.7126358E-17
  0.7200000      6.0856207E-17
  0.7800000      8.1944369E-17
  0.8400000      7.2545705E-17
  0.9000000      2.2311751E-17
  0.9600000     -6.2089447E-17
   1.020000     -1.5279682E-16
   1.080000     -2.0694990E-16
   1.140000     -1.8409987E-16
   1.200000     -6.9070058E-17
   1.260000      1.1120553E-16
   1.320000      2.8894920E-16
   1.380000      3.8011927E-16
   1.440000      3.2492157E-16
   1.500000      1.2488270E-16
   1.560000     -1.4621282E-16
   1.620000     -3.7006674E-16
   1.680000     -4.4200021E-16
   1.740000     -3.3045127E-16
   1.800000     -1.0182544E-16
   1.860000      1.1064308E-16
   1.920000      1.8378905E-16
   1.980000      8.5642131E-17
   2.040000     -9.0999277E-17
   2.100000     -1.7263327E-16
   2.160000     -1.1611123E-17
   2.220000      4.0302079E-16
   2.280000      9.0081425E-16
   2.340000      1.1905302E-15
   2.400000      1.0049727E-15
   2.460000      2.5519509E-16
   2.520000     -8.9282312E-16
   2.580000     -2.0653132E-15
   2.640000     -2.8278720E-15
   2.700000     -2.8535426E-15
   2.760000     -2.0283754E-15
   2.820000     -4.5960193E-16
   2.880000      1.5826057E-15
   2.940000      3.7248198E-15
   3.000000      5.5108290E-15
   3.060000      6.4059768E-15
   3.120000      5.8578541E-15
   3.180000      3.4713170E-15
   3.240000     -7.2732760E-16
   3.300000     -6.0625019E-15
   3.360000     -1.1184943E-14
   3.420000     -1.4354283E-14
   3.480000     -1.3986634E-14
   3.540000     -9.2800794E-15
   3.600000     -6.7415257E-16
   3.660000      1.0039011E-14
   3.720000      2.0002686E-14
   3.780000      2.5919903E-14
   3.840000      2.4908085E-14
   3.900000      1.5475895E-14
   3.960000     -1.5312460E-15
   4.020000     -2.2308830E-14
   4.080000     -4.0246405E-14
   4.140000     -4.7304567E-14
   4.200000     -3.6716601E-14
   4.260000     -6.4269281E-15
   4.320000      3.8067395E-14
   4.380000      8.3135328E-14
   4.440000      1.0986908E-13
   4.500000      1.0024335E-13
   4.560000      4.4787236E-14
   4.620000     -5.1187705E-14
   4.680000     -1.6572067E-13
   4.740000     -2.6419860E-13
   4.800000     -3.0848387E-13
   4.860000     -2.6841683E-13
   4.920000     -1.3207683E-13
   4.980000      8.8191790E-14
   5.040000      3.5535778E-13
   5.100000      6.1260139E-13
   5.160000      7.9237794E-13
   5.220000      8.2852648E-13
   5.280000      6.7059628E-13
   5.340000      2.9921465E-13
   5.400000     -2.6009812E-13
   5.460000     -9.2915627E-13
   5.520000     -1.5808022E-12
   5.580000     -2.0579660E-12
   5.640000     -2.2075280E-12
   5.700000     -1.9221818E-12
   5.760000     -1.1780980E-12
   5.820000     -5.4555657E-14
   5.880000      1.2744123E-12
   5.940000      2.5774818E-12
   6.000000      3.6229041E-12
   6.060000      4.2365759E-12
   6.120000      4.3408215E-12
   6.180000      3.9589890E-12
   6.240000      3.1830274E-12
   6.300000      2.1156180E-12
   6.360000      8.0972143E-13
   6.420000     -7.6792690E-13
   6.480000     -2.7288239E-12
   6.540000     -5.2036942E-12
   6.600000     -8.2435204E-12
   6.660000     -1.1706685E-11
   6.720000     -1.5165534E-11
   6.780000     -1.7862541E-11
   6.840000     -1.8733796E-11
   6.900000     -1.6500148E-11
   6.960000     -9.8099237E-12
   7.020000      2.5931167E-12
   7.080000      2.1704361E-11
   7.140000      4.8117409E-11
   7.200000      8.1920075E-11
   7.260000      1.2263211E-10
   7.320000      1.6918682E-10
   7.380000      2.1996091E-10
   7.440000      2.7286048E-10
   7.500000      3.2546971E-10
   7.560000      3.7525896E-10
   7.620000      4.1983000E-10
   7.680000      4.5715390E-10
   7.740000      4.8574372E-10
   7.800000      5.0470850E-10
   7.860000      5.1366050E-10
   7.920000      5.1249599E-10
   7.980000      5.0111404E-10
   8.040000      4.7917359E-10
   8.100000      4.4598411E-10
   8.160000      4.0058798E-10
   8.220000      3.4202685E-10
   8.280000      2.6971672E-10
   8.340000      1.8381269E-10
   8.400000      8.5446844E-11
   8.460000     -2.3234319E-11
   8.520000     -1.3923528E-10
   8.580000     -2.5901459E-10
   8.640000     -3.7882406E-10
   8.700000     -4.9498827E-10
   8.760000     -6.0407307E-10
   8.820000     -7.0294764E-10
   8.880000     -7.8879331E-10
   8.940000     -8.5912555E-10
   9.000000     -9.1187835E-10
   9.060000     -9.4556296E-10
   9.120000     -9.5946973E-10
   9.180000     -9.5385855E-10
   9.240000     -9.3008101E-10
   9.300000     -8.9059105E-10
   9.360000     -8.3882429E-10
   9.420000     -7.7895007E-10
   9.480000     -7.1551465E-10
   9.540000     -6.5300887E-10
   9.600000     -5.9540545E-10
   9.660000     -5.4572585E-10
   9.720000     -5.0570703E-10
   9.780000     -4.7563720E-10
   9.840000     -4.5441181E-10
   9.900000     -4.3982534E-10
   9.960000     -4.2906126E-10
   10.02000     -4.1929221E-10
   10.08000     -4.0826306E-10
   10.14000     -3.9471795E-10
   10.20000     -3.7855827E-10
   10.26000     -3.6068054E-10
   10.32000     -3.4253159E-10
   10.38000     -3.2550856E-10
   10.44000     -3.1039693E-10
   10.50000     -2.9704547E-10
   10.56000     -2.8441560E-10
   10.62000     -2.7101577E-10
   10.68000     -2.5558458E-10
   10.74000     -2.3777216E-10
   10.80000     -2.1854284E-10
   10.86000     -2.0010807E-10
   10.92000     -1.8537714E-10
   10.98000     -1.7711733E-10
   11.04000     -1.7715922E-10
   11.10000     -1.8599429E-10
   11.16000     -2.0297153E-10
   11.22000     -2.2705031E-10
   11.28000     -2.5780814E-10
   11.34000     -2.9624644E-10
   11.40000     -3.4496528E-10
   11.46000     -4.0749712E-10
   11.52000     -4.8692905E-10
   11.58000     -5.8426525E-10
   11.64000     -6.9715472E-10
   11.70000     -8.1954321E-10
   11.76000     -9.4250396E-10
   11.82000     -1.0560711E-09
   11.88000     -1.1514995E-09
   11.94000     -1.2231840E-09
   12.00000     -1.2695714E-09
   12.06000     -1.2927766E-09
   12.12000     -1.2971209E-09
   12.18000     -1.2872349E-09
   12.24000     -1.2665359E-09
   12.30000     -1.2367072E-09
   12.36000     -1.1983560E-09
   12.42000     -1.1524935E-09
   12.48000     -1.1020906E-09
   12.54000     -1.0529002E-09
   12.60000     -1.0130232E-09
   12.66000     -9.9121245E-10
   12.72000     -9.9443553E-10
   12.78000     -1.0255485E-09
   12.84000     -1.0819250E-09
   12.90000     -1.1555695E-09
   12.96000     -1.2347429E-09
   13.02000     -1.3066369E-09
   13.08000     -1.3603233E-09
   13.14000     -1.3891500E-09
   13.20000     -1.3919671E-09
   13.26000     -1.3729299E-09
   13.32000     -1.3400413E-09
   13.38000     -1.3029192E-09
   13.44000     -1.2704411E-09
   13.50000     -1.2488888E-09
   13.56000     -1.2410217E-09
   13.62000     -1.2462179E-09
   13.68000     -1.2615261E-09
   13.74000     -1.2832361E-09
   13.80000     -1.3084616E-09
   13.86000     -1.3362368E-09
   13.92000     -1.3677572E-09
   13.98000     -1.4056235E-09
   14.04000     -1.4522410E-09
   14.10000     -1.5078413E-09
   14.16000     -1.5688247E-09
   14.22000     -1.6271758E-09
   14.28000     -1.6714671E-09
   14.34000     -1.6894542E-09
   14.40000     -1.6716160E-09
   14.46000     -1.6144597E-09
   14.52000     -1.5222947E-09
   14.58000     -1.4066048E-09
   14.64000     -1.2830298E-09
   14.70000     -1.1669552E-09
   14.76000     -1.0693368E-09
   14.82000     -9.9433595E-10
   14.88000     -9.3958297E-10
   14.94000     -8.9875013E-10
   15.00000     -8.6513435E-10
   15.06000     -8.3458807E-10
   15.12000     -8.0656226E-10
   15.18000     -7.8300427E-10
   15.24000     -7.6589091E-10
   15.30000     -7.5477502E-10
   15.36000     -7.4562045E-10
   15.42000     -7.3149597E-10
   15.48000     -7.0478046E-10
   15.54000     -6.5983524E-10
   15.60000     -5.9493660E-10
   15.66000     -5.1264532E-10
   15.72000     -4.1851053E-10
   15.78000     -3.1872430E-10
   15.84000     -2.1776610E-10
   15.90000     -1.1704994E-10
   15.96000     -1.5138130E-11
   16.02000      9.0602373E-11
   16.08000      2.0168445E-10
   16.14000      3.1666436E-10
   16.20000      4.3079029E-10
   16.26000      5.3752108E-10
   16.32000      6.3141137E-10
   16.38000      7.1108230E-10
   16.44000      7.8073864E-10
   16.50000      8.4915736E-10
   16.56000      9.2614694E-10
   16.62000      1.0177170E-09
   16.68000      1.1220077E-09
   16.74000      1.2279670E-09
   16.80000      1.3177627E-09
   16.86000      1.3723619E-09
   16.92000      1.3782797E-09
   16.98000      1.3328513E-09
   17.04000      1.2458374E-09
   17.10000      1.1365728E-09
   17.16000      1.0276353E-09
   17.22000      9.3742059E-10
   17.28000      8.7446278E-10
   17.34000      8.3566309E-10
   17.40000      8.0904228E-10
   17.46000      7.7983547E-10
   17.52000      7.3742129E-10
   17.58000      6.8026590E-10
   17.64000      6.1690597E-10
   17.70000      5.6266652E-10
   17.76000      5.3360333E-10
   17.82000      5.4030963E-10
   17.88000      5.8421051E-10
   17.94000      6.5778649E-10
   18.00000      7.4837270E-10
   18.06000      8.4360507E-10
   18.12000      9.3597219E-10
   18.18000      1.0245343E-09
   18.24000      1.1133363E-09
   18.30000      1.2076125E-09
   18.36000      1.3097764E-09
   18.42000      1.4170615E-09
   18.48000      1.5216980E-09
   18.54000      1.6132801E-09
   18.60000      1.6821167E-09
   18.66000      1.7221908E-09
   18.72000      1.7327901E-09
   18.78000      1.7185349E-09
   18.84000      1.6880732E-09
   18.90000      1.6519537E-09
   18.96000      1.6202307E-09
   19.02000      1.6003240E-09
   19.08000      1.5956307E-09
   19.14000      1.6052841E-09
   19.20000      1.6251648E-09
   19.26000      1.6498154E-09
   19.32000      1.6744918E-09
   19.38000      1.6964706E-09
   19.44000      1.7150766E-09
   19.50000      1.7305614E-09
   19.56000      1.7425830E-09
   19.62000      1.7492411E-09
   19.68000      1.7472743E-09
   19.74000      1.7333261E-09
   19.80000      1.7055756E-09
   19.86000      1.6648429E-09
   19.92000      1.6146168E-09
   19.98000      1.5600363E-09
   20.04000      1.5063520E-09
   20.10000      1.4575015E-09
   20.16000      1.4152244E-09
   20.22000      1.3788134E-09
   20.28000      1.3454002E-09
   20.34000      1.3106712E-09
   20.40000      1.2699652E-09
   20.46000      1.2196628E-09
   20.52000      1.1585813E-09
   20.58000      1.0888895E-09
   20.64000      1.0160681E-09
   20.70000      9.4775365E-10
   20.76000      8.9178764E-10
   20.82000      8.5417073E-10
   20.88000      8.3764268E-10
   20.94000      8.4128121E-10
   21.00000      8.6105217E-10
   21.06000      8.9094054E-10
   21.12000      9.2427588E-10
   21.18000      9.5503050E-10
   21.24000      9.7897357E-10
   21.30000      9.9448894E-10
   21.36000      1.0026954E-09
   21.42000      1.0065343E-09
   21.48000      1.0088843E-09
   21.54000      1.0103924E-09
   21.60000      1.0081725E-09
   21.66000      9.9635933E-10
   21.72000      9.6862829E-10
   21.78000      9.2161501E-10
   21.84000      8.5741980E-10
   21.90000      7.8362972E-10
   21.96000      7.1053458E-10
   22.02000      6.4678218E-10
   22.08000      5.9567989E-10
   22.14000      5.5407862E-10
   22.20000      5.1439586E-10
   22.26000      4.6864596E-10
   22.32000      4.1234791E-10
   22.38000      3.4641959E-10
   22.44000      2.7642766E-10
   22.50000      2.1001989E-10
   22.56000      1.5415408E-10
   22.62000      1.1348961E-10
   22.68000      9.0334566E-11
   22.74000      8.5566547E-11
   22.80000      9.9567465E-11
   22.86000      1.3254403E-10
   22.92000      1.8426094E-10
   22.98000      2.5366148E-10
   23.04000      3.3880729E-10
   23.10000      4.3718409E-10
   23.16000      5.4607785E-10
   23.22000      6.6273181E-10
   23.28000      7.8430484E-10
   23.34000      9.0795499E-10
   23.40000      1.0313479E-09
   23.46000      1.1534991E-09
   23.52000      1.2754028E-09
   23.58000      1.3997787E-09
   23.64000      1.5296695E-09
   23.70000      1.6663512E-09
   23.76000      1.8075964E-09
   23.82000      1.9473514E-09
   23.88000      2.0772708E-09
   23.94000      2.1896411E-09
   24.00000      2.2805076E-09
   24.06000      2.3516948E-09
   24.12000      2.4108668E-09
   24.18000      2.4695601E-09
   24.24000      2.5398279E-09
   24.30000      2.6305362E-09
   24.36000      2.7444078E-09
   24.42000      2.8766776E-09
   24.48000      3.0158207E-09
   24.54000      3.1462579E-09
   24.60000      3.2523197E-09
   24.66000      3.3222567E-09
   24.72000      3.3509657E-09
   24.78000      3.3405312E-09
   24.84000      3.2985665E-09
   24.90000      3.2352516E-09
   24.96000      3.1604330E-09
   25.02000      3.0818932E-09
   25.08000      3.0050595E-09
   25.14000      2.9335703E-09
   25.20000      2.8697635E-09
   25.26000      2.8145206E-09
   25.32000      2.7666651E-09
   25.38000      2.7226918E-09
   25.44000      2.6775273E-09
   25.50000      2.6263287E-09
   25.56000      2.5665003E-09
   25.62000      2.4987825E-09
   25.68000      2.4267217E-09
   25.74000      2.3547875E-09
   25.80000      2.2862263E-09
   25.86000      2.2218540E-09
   25.92000      2.1603401E-09
   25.98000      2.0995723E-09
   26.04000      2.0380826E-09
   26.10000      1.9756499E-09
   26.16000      1.9129194E-09
   26.22000      1.8505930E-09
   26.28000      1.7889586E-09
   26.34000      1.7280846E-09
   26.40000      1.6683277E-09
   26.46000      1.6104612E-09
   26.52000      1.5550178E-09
   26.58000      1.5011646E-09
   26.64000      1.4459940E-09
   26.70000      1.3850360E-09
   26.76000      1.3140514E-09
   26.82000      1.2312361E-09
   26.88000      1.1385345E-09
   26.94000      1.0411783E-09
   27.00000      9.4559671E-10
   27.06000      8.5681617E-10
   27.12000      7.7674633E-10
   27.18000      7.0416251E-10
   27.24000      6.3616229E-10
   27.30000      5.7008870E-10
   27.36000      5.0484522E-10
   27.42000      4.4113804E-10
   27.48000      3.8094852E-10
   27.54000      3.2691189E-10
   27.60000      2.8204308E-10
   27.66000      2.4968816E-10
   27.72000      2.3320770E-10
   27.78000      2.3505770E-10
   27.84000      2.5551514E-10
   27.90000      2.9182665E-10
   27.96000      3.3856454E-10
   28.02000      3.8935213E-10
   28.08000      4.3925646E-10
   28.14000      4.8662857E-10
   28.20000      5.3339483E-10
   28.26000      5.8365912E-10
   28.32000      6.4142924E-10
   28.38000      7.0871903E-10
   28.44000      7.8494450E-10
   28.50000      8.6767116E-10
   28.56000      9.5396235E-10
   28.62000      1.0413364E-09
   28.68000      1.1277670E-09
   28.74000      1.2109233E-09
   28.80000      1.2874117E-09
   28.86000      1.3527889E-09
   28.92000      1.4025906E-09
   28.98000      1.4339470E-09
   29.04000      1.4469498E-09
   29.10000      1.4450424E-09
   29.16000      1.4342002E-09
   29.22000      1.4212547E-09
   29.28000      1.4120484E-09
   29.34000      1.4100867E-09
   29.40000      1.4160461E-09
   29.46000      1.4281240E-09
   29.52000      1.4429339E-09
   29.58000      1.4565414E-09
   29.64000      1.4652665E-09
   29.70000      1.4660159E-09
   29.76000      1.4561052E-09
   29.82000      1.4327500E-09
   29.88000      1.3925844E-09
   29.94000      1.3315989E-09
   30.00000      1.2457286E-09
   30.06000      1.1319966E-09
   30.12000      9.8978825E-10
   30.18000      8.2168217E-10
   30.24000      6.3340377E-10
   30.30000      4.3285084E-10
   30.36000      2.2854467E-10
   30.42000      2.8077630E-11
   30.48000     -1.6296027E-10
   30.54000     -3.4139372E-10
   30.60000     -5.0634374E-10
   30.66000     -6.5884176E-10
   30.72000     -8.0135215E-10
   30.78000     -9.3719976E-10
   30.84000     -1.0698029E-09
   30.90000     -1.2017166E-09
   30.96000     -1.3337155E-09
   31.02000     -1.4643273E-09
   31.08000     -1.5901771E-09
   31.14000     -1.7071898E-09
   31.20000     -1.8122764E-09
   31.26000     -1.9048136E-09
   31.32000     -1.9872344E-09
   31.38000     -2.0643749E-09
   31.44000     -2.1417477E-09
   31.50000     -2.2233684E-09
   31.56000     -2.3099864E-09
   31.62000     -2.3984317E-09
   31.68000     -2.4823898E-09
   31.74000     -2.5543827E-09
   31.80000     -2.6082632E-09
   31.86000     -2.6413025E-09
   31.92000     -2.6550424E-09
   31.98000     -2.6545177E-09
   32.04000     -2.6460796E-09
   32.10000     -2.6346545E-09
   32.16000     -2.6215539E-09
   32.22000     -2.6037794E-09
   32.28000     -2.5751430E-09
   32.34000     -2.5287423E-09
   32.40000     -2.4597424E-09
   32.46000     -2.3673199E-09
   32.52000     -2.2550581E-09
   32.58000     -2.1298168E-09
   32.64000     -1.9997053E-09
   32.70000     -1.8720316E-09
   32.76000     -1.7518861E-09
   32.82000     -1.6415821E-09
   32.88000     -1.5408245E-09
   32.94000     -1.4473686E-09
   33.00000     -1.3580123E-09
   33.06000     -1.2698337E-09
   33.12000     -1.1814787E-09
   33.18000     -1.0940635E-09
   33.24000     -1.0111512E-09
   33.30000     -9.3750907E-10
   33.36000     -8.7696361E-10
   33.42000     -8.3032947E-10
   33.48000     -7.9462142E-10
   33.54000     -7.6427081E-10
   33.60000     -7.3402362E-10
   33.66000     -7.0214717E-10
   33.72000     -6.7219158E-10
   33.78000     -6.5216532E-10
   33.84000     -6.5131506E-10
   33.90000     -6.7600425E-10
   33.96000     -7.2670542E-10
   34.02000     -7.9752793E-10
   34.08000     -8.7836960E-10
   34.14000     -9.5848629E-10
   34.20000     -1.0297555E-09
   34.26000     -1.0883738E-09
   34.32000     -1.1347624E-09
   34.38000     -1.1723587E-09
   34.44000     -1.2062157E-09
   34.50000     -1.2419217E-09
   34.56000     -1.2847522E-09
   34.62000     -1.3387041E-09
   34.68000     -1.4053400E-09
   34.74000     -1.4828963E-09
   34.80000     -1.5663727E-09
   34.86000     -1.6489768E-09
   34.92000     -1.7245108E-09
   34.98000     -1.7895857E-09
   35.04000     -1.8444882E-09
   35.10000     -1.8922155E-09
   35.16000     -1.9362520E-09
   35.22000     -1.9783846E-09
   35.28000     -2.0177624E-09
   35.34000     -2.0515982E-09
   35.40000     -2.0769007E-09
   35.46000     -2.0921000E-09
   35.52000     -2.0976552E-09
   35.58000     -2.0954971E-09
   35.64000     -2.0878603E-09
   35.70000     -2.0762656E-09
   35.76000     -2.0610766E-09
   35.82000     -2.0415476E-09
   35.88000     -2.0160349E-09
   35.94000     -1.9822284E-09
   36.00000     -1.9375941E-09
   36.06000     -1.8802999E-09
   36.12000     -1.8105490E-09
   36.18000     -1.7316579E-09
   36.24000     -1.6499599E-09
   36.30000     -1.5730114E-09
   36.36000     -1.5065544E-09
   36.42000     -1.4516173E-09
   36.48000     -1.4033479E-09
   36.54000     -1.3524080E-09
   36.60000     -1.2883999E-09
   36.66000     -1.2036921E-09
   36.72000     -1.0958529E-09
   36.78000     -9.6777419E-10
   36.84000     -8.2587576E-10
   36.90000     -6.7767059E-10
   36.96000     -5.2993943E-10
   37.02000     -3.8796164E-10
   37.08000     -2.5537858E-10
   37.14000     -1.3399452E-10
   37.20000     -2.3281195E-11
   37.26000      7.9912250E-11
   37.32000      1.8064840E-10
   37.38000      2.8389505E-10
   37.44000      3.9193196E-10
   37.50000      5.0262949E-10
   37.56000      6.0989086E-10
   37.62000      7.0643380E-10
   37.68000      7.8767470E-10
   37.74000      8.5469315E-10
   37.80000      9.1464297E-10
   37.86000      9.7832531E-10
   37.92000      1.0561215E-09
   37.98000      1.1542253E-09
   38.04000      1.2727468E-09
   38.10000      1.4061491E-09
   38.16000      1.5453645E-09
   38.22000      1.6804617E-09
   38.28000      1.8029609E-09
   38.34000      1.9074406E-09
   38.40000      1.9924440E-09
   38.46000      2.0606672E-09
   38.52000      2.1182296E-09
   38.58000      2.1728450E-09
   38.64000      2.2311522E-09
   38.70000      2.2960516E-09
   38.76000      2.3652054E-09
   38.82000      2.4315205E-09
   38.88000      2.4855586E-09
   38.94000      2.5188887E-09
   39.00000      2.5269649E-09
   39.06000      2.5104285E-09
   39.12000      2.4745308E-09
   39.18000      2.4271798E-09
   39.24000      2.3764781E-09
   39.30000      2.3285045E-09
   39.36000      2.2857711E-09
   39.42000      2.2465649E-09
   39.48000      2.2053335E-09
   39.54000      2.1542264E-09
   39.60000      2.0856192E-09
   39.66000      1.9949329E-09
   39.72000      1.8826398E-09
   39.78000      1.7544236E-09
   39.84000      1.6191849E-09
   39.90000      1.4856369E-09
   39.96000      1.3590160E-09
   40.02000      1.2394059E-09
   40.08000      1.1223302E-09
   40.14000      1.0010934E-09
   40.20000      8.6957752E-10
   40.26000      7.2422862E-10
   40.32000      5.6468985E-10
   40.38000      3.9337369E-10
   40.44000      2.1466127E-10
   40.50000      3.4202537E-11
   40.56000     -1.4170494E-10
   40.62000     -3.0695343E-10
   40.68000     -4.5676907E-10
   40.74000     -5.8876248E-10
   40.80000     -7.0320000E-10
   40.86000     -8.0208823E-10
   40.92000     -8.8740049E-10
   40.98000     -9.5945563E-10
   41.04000     -1.0165278E-09
   41.10000     -1.0560803E-09
   41.16000     -1.0769782E-09
   41.22000     -1.0813530E-09
   41.28000     -1.0749466E-09
   41.34000     -1.0656522E-09
   41.40000     -1.0610113E-09
   41.46000     -1.0659266E-09
   41.52000     -1.0815433E-09
   41.58000     -1.1054453E-09
   41.64000     -1.1326321E-09
   41.70000     -1.1566341E-09
   41.76000     -1.1705459E-09
   41.82000     -1.1682169E-09
   41.88000     -1.1458631E-09
   41.94000     -1.1038365E-09
   42.00000     -1.0476754E-09
   42.06000     -9.8742647E-10
   42.12000     -9.3490293E-10
   42.18000     -8.9970265E-10
   42.24000     -8.8573138E-10
   42.30000     -8.8996810E-10
   42.36000     -9.0417446E-10
   42.42000     -9.1873814E-10
   42.48000     -9.2674074E-10
   42.54000     -9.2629898E-10
   42.60000     -9.2023944E-10
   42.66000     -9.1359115E-10
   42.72000     -9.1041030E-10
   42.78000     -9.1156749E-10
   42.84000     -9.1441116E-10
   42.90000     -9.1418273E-10
   42.96000     -9.0629004E-10
   43.02000     -8.8835161E-10
   43.08000     -8.6123592E-10
   43.14000     -8.2884183E-10
   43.20000     -7.9682799E-10
   43.26000     -7.7077689E-10
   43.32000     -7.5438350E-10
   43.38000     -7.4822931E-10
   43.44000     -7.4952133E-10
   43.50000     -7.5285728E-10
   43.56000     -7.5169865E-10
   43.62000     -7.3997264E-10
   43.68000     -7.1323936E-10
   43.74000     -6.6916311E-10
   43.80000     -6.0741523E-10
   43.86000     -5.2935117E-10
   43.92000     -4.3770604E-10
   43.98000     -3.3625591E-10
   44.04000     -2.2918945E-10
   44.10000     -1.2005211E-10
   44.16000     -1.0525967E-11
   44.22000      1.0032709E-10
   44.28000      2.1575924E-10
   44.34000      3.3988390E-10
   44.40000      4.7570764E-10
   44.46000      6.2368888E-10
   44.52000      7.8162088E-10
   44.58000      9.4583708E-10
   44.64000      1.1128972E-09
   44.70000      1.2806207E-09
   44.76000      1.4478287E-09
   44.82000      1.6130967E-09
   44.88000      1.7735639E-09
   44.94000      1.9248387E-09
   45.00000      2.0622737E-09
   45.06000      2.1828932E-09
   45.12000      2.2867543E-09
   45.18000      2.3768449E-09
   45.24000      2.4575801E-09
   45.30000      2.5328515E-09
   45.36000      2.6048064E-09
   45.42000      2.6739606E-09
   45.48000      2.7403237E-09
   45.54000      2.8045857E-09
   45.60000      2.8685130E-09
   45.66000      2.9343845E-09
   45.72000      3.0040010E-09
   45.78000      3.0780314E-09
   45.84000      3.1560559E-09
   45.90000      3.2370355E-09
   45.96000      3.3195966E-09
   46.02000      3.4017633E-09
   46.08000      3.4803833E-09
   46.14000      3.5509669E-09
   46.20000      3.6085317E-09
   46.26000      3.6493812E-09
   46.32000      3.6729475E-09
   46.38000      3.6825722E-09
   46.44000      3.6845675E-09
   46.50000      3.6858778E-09
   46.56000      3.6914827E-09
   46.62000      3.7028132E-09
   46.68000      3.7178112E-09
   46.74000      3.7322954E-09
   46.80000      3.7416363E-09
   46.86000      3.7417869E-09
   46.92000      3.7293644E-09
   46.98000      3.7011989E-09
   47.04000      3.6541001E-09
   47.10000      3.5852989E-09
   47.16000      3.4934162E-09
   47.22000      3.3793315E-09
   47.28000      3.2463208E-09
   47.34000      3.0992795E-09
   47.40000      2.9434006E-09
   47.46000      2.7829568E-09
   47.52000      2.6206999E-09
   47.58000      2.4579723E-09
   47.64000      2.2952491E-09
   47.70000      2.1327033E-09
   47.76000      1.9705360E-09
   47.82000      1.8090233E-09
   47.88000      1.6483686E-09
   47.94000      1.4884177E-09
   48.00000      1.3282668E-09
   48.06000      1.1658423E-09
   48.12000      9.9770148E-10
   48.18000      8.1939694E-10
   48.24000      6.2661637E-10
   48.30000      4.1690931E-10
   48.36000      1.9134577E-10
   48.42000     -4.4757052E-11
   48.48000     -2.8263336E-10
   48.54000     -5.1230109E-10
   48.60000     -7.2538814E-10
   48.66000     -9.1734154E-10
   48.72000     -1.0880614E-09
   48.78000     -1.2407542E-09
   48.84000     -1.3796536E-09
   48.90000     -1.5077398E-09
   48.96000     -1.6254526E-09
   49.02000     -1.7307876E-09
   49.08000     -1.8204510E-09
   49.14000     -1.8913180E-09
   49.20000     -1.9415012E-09
   49.26000     -1.9707156E-09
   49.32000     -1.9800719E-09
   49.38000     -1.9716326E-09
   49.44000     -1.9479864E-09
   49.50000     -1.9118658E-09
   49.56000     -1.8656914E-09
   49.62000     -1.8110098E-09
   49.68000     -1.7480216E-09
   49.74000     -1.6755806E-09
   49.80000     -1.5919628E-09
   49.86000     -1.4963228E-09
   49.92000     -1.3902630E-09
   49.98000     -1.2786526E-09
   50.04000     -1.1689884E-09
   50.10000     -1.0692008E-09
   50.16000     -9.8460962E-10
   50.22000     -9.1528807E-10
   50.28000     -8.5509344E-10
   50.34000     -7.9297396E-10
   50.40000     -7.1618456E-10
   50.46000     -6.1419370E-10
   50.52000     -4.8177379E-10
   50.58000     -3.2015521E-10
   50.64000     -1.3598059E-10
   50.70000      6.1331488E-11
   50.76000      2.6269972E-10
   50.82000      4.6189508E-10
   50.88000      6.5681616E-10
   50.94000      8.4942248E-10
   51.00000      1.0446159E-09
   51.06000      1.2485291E-09
   51.12000      1.4667054E-09
   51.18000      1.7026569E-09
   51.24000      1.9572477E-09
   51.30000      2.2291951E-09
   51.36000      2.5166342E-09
   51.42000      2.8191687E-09
   51.48000      3.1394940E-09
   51.54000      3.4836889E-09
   51.60000      3.8598080E-09
   51.66000      4.2752388E-09
   51.72000      4.7339324E-09
   51.78000      5.2347486E-09
   51.84000      5.7716067E-09
   51.90000      6.3352807E-09
   51.96000      6.9159385E-09
   52.02000      7.5053155E-09
   52.08000      8.0977651E-09
   52.14000      8.6900327E-09
   52.20000      9.2800647E-09
   52.26000      9.8653903E-09
   52.32000      1.0441469E-08
   52.38000      1.1000354E-08
   52.44000      1.1529950E-08
   52.50000      1.2014137E-08
   52.56000      1.2433802E-08
   52.62000      1.2768447E-08
   52.68000      1.2997607E-08
   52.74000      1.3101357E-08
   52.80000      1.3059585E-08
   52.86000      1.2850601E-08
   52.92000      1.2450164E-08
   52.98000      1.1831895E-08
   53.04000      1.0969084E-08
   53.10000      9.8369153E-09
   53.16000      8.4135987E-09
   53.22000      6.6795383E-09
   53.28000      4.6149466E-09
   53.34000      2.1974573E-09
   53.40000     -5.9856303E-10
   53.46000     -3.8003840E-09
   53.52000     -7.4338184E-09
   53.58000     -1.1520543E-08
   53.64000     -1.6077294E-08
   53.70000     -2.1116968E-08
   53.76000     -2.6650303E-08
   53.82000     -3.2686330E-08
   53.88000     -3.9230827E-08
   53.94000     -4.6283553E-08
   54.00000     -5.3836008E-08
   54.06000     -6.1871219E-08
   54.12000     -7.0365566E-08
   54.18000     -7.9290963E-08
   54.24000     -8.8615820E-08
   54.30000     -9.8303758E-08
   54.36000     -1.0831116E-07
   54.42000     -1.1858531E-07
   54.48000     -1.2906445E-07
   54.54000     -1.3967987E-07
   54.60000     -1.5035829E-07
   54.66000     -1.6102315E-07
   54.72000     -1.7159398E-07
   54.78000     -1.8198499E-07
   54.84000     -1.9210415E-07
   54.90000     -2.0185416E-07
   54.96000     -2.1113424E-07
   55.02000     -2.1984191E-07
   55.08000     -2.2787351E-07
   55.14000     -2.3512364E-07
   55.20000     -2.4148477E-07
   55.26000     -2.4684880E-07
   55.32000     -2.5111012E-07
   55.38000     -2.5416907E-07
   55.44000     -2.5593337E-07
   55.50000     -2.5631726E-07
   55.56000     -2.5523849E-07