 -0.750000000       0.00000000    
 -0.689999998       0.00000000    
 -0.629999995       0.00000000    
 -0.569999993       0.00000000    
 -0.509999990       0.00000000    
 -0.449999988       0.00000000    
 -0.389999986       0.00000000    
 -0.330000013       0.00000000    
 -0.270000011       1.78408174E-27
 -0.209999993       2.04980175E-26
 -0.150000006       1.16734182E-25
  -9.00000036E-02   4.41741498E-25
  -2.99999993E-02   1.29129549E-24
   2.99999993E-02   3.34576854E-24
   9.00000036E-02   8.55981924E-24
  0.150000006       2.12452958E-23
  0.209999993       4.39634675E-23
  0.270000011       5.37943310E-23
  0.330000013      -5.56885123E-23
  0.389999986      -5.40491091E-22
  0.449999988      -1.74418100E-21
  0.509999990      -3.64377583E-21
  0.569999993      -4.80726393E-21
  0.629999995      -1.15840970E-21
  0.689999998       1.38402374E-20
  0.750000000       4.48611389E-20
  0.810000002       8.43710266E-20
  0.870000005       9.93708743E-20
  0.930000007       2.72587225E-20
  0.990000010      -1.99738734E-19
   1.04999995      -5.87511182E-19
   1.11000001      -9.85177383E-19
   1.16999996      -1.02632011E-18
   1.23000002      -2.10457185E-19
   1.28999996       1.79221666E-18
   1.35000002       4.65590643E-18
   1.40999997       6.99042891E-18
   1.47000003       6.44499801E-18
   1.52999997       7.10170642E-19
   1.59000003      -1.06331785E-17
   1.64999998      -2.42243250E-17
   1.71000004      -3.24699492E-17
   1.76999998      -2.59578690E-17
   1.83000004       1.07826426E-18
   1.88999999       4.43075391E-17
   1.95000005       8.60289079E-17
   2.00999999       9.94314771E-17
   2.06999993       6.17076075E-17
   2.13000011      -2.84534613E-17
   2.19000006      -1.39128364E-16
   2.25000000      -2.10489898E-16
   2.30999994      -1.81969597E-16
   2.36999989      -3.27188479E-17
   2.43000007       1.86720512E-16
   2.49000001       3.57653177E-16
   2.54999995       3.44710699E-16
   2.60999990       8.10182051E-17
   2.67000008      -3.57180453E-16
   2.73000002      -7.41927276E-16
   2.78999996      -7.83946092E-16
   2.84999990      -3.00917666E-16
   2.91000009       6.18136534E-16
   2.97000003       1.56266049E-15
   3.02999997       1.94046439E-15
   3.08999991       1.28706635E-15
   3.15000010      -3.92719706E-16
   3.21000004      -2.45572597E-15
   3.26999998      -3.78855645E-15
   3.32999992      -3.32191139E-15
   3.39000010      -6.91460735E-16
   3.45000005       3.30350917E-15
   3.50999999       6.77605351E-15
   3.56999993       7.47880626E-15
   3.63000011       3.95956266E-15
   3.69000006      -3.37716674E-15
   3.75000000      -1.19075773E-14
   3.80999994      -1.75031583E-14
   3.86999989      -1.62223818E-14
   3.93000007      -6.35183570E-15
   3.99000001       1.01452202E-14
   4.05000019       2.76191813E-14
   4.11000013       3.84804256E-14
   4.17000008       3.62399116E-14
   4.23000002       1.86839324E-14
   4.28999996      -1.02550906E-14
   4.34999990      -4.10302218E-14
   4.40999985      -6.16101340E-14
   4.46999979      -6.22552140E-14
   4.53000021      -4.00735319E-14
   4.59000015      -1.27040564E-15
   4.65000010       4.02938825E-14
   4.71000004       6.81576648E-14
   4.76999998       7.01560189E-14
   4.82999992       4.42522707E-14
   4.88999987       4.43261844E-16
   4.94999981      -4.26768301E-14
   5.01000023      -6.57344865E-14
   5.07000017      -5.75383111E-14
   5.13000011      -2.09376211E-14
   5.19000006       2.76747670E-14
   5.25000000       6.56608421E-14
   5.30999994       7.52403375E-14
   5.36999989       5.30361582E-14
   5.42999983       1.28234503E-14
   5.48999977      -2.08457265E-14
   5.55000019      -2.59155829E-14
   5.61000013       3.24384417E-15
   5.67000008       4.87716489E-14
   5.73000002       7.41421017E-14
   5.78999996       4.04456437E-14
   5.84999990      -7.22975553E-14
   5.90999985      -2.48737310E-13
   5.96999979      -4.35655310E-13
   6.03000021      -5.56721715E-13
   6.09000015      -5.40179229E-13
   6.15000010      -3.48552567E-13
   6.21000004       2.54926953E-15
   6.26999998       4.45635228E-13
   6.32999992       8.83227356E-13
   6.38999987       1.22168887E-12
   6.44999981       1.40205089E-12
   6.51000023       1.41321167E-12
   6.57000017       1.28022809E-12
   6.63000011       1.03219538E-12
   6.69000006       6.65490449E-13
   6.75000000       1.23529713E-13
   6.80999994      -6.89823361E-13
   6.86999989      -1.85926144E-12
   6.92999983      -3.38341681E-12
   6.98999977      -5.10587189E-12
   7.05000019      -6.68616117E-12
   7.11000013      -7.63593182E-12
   7.17000008      -7.42344554E-12
   7.23000002      -5.62249899E-12
   7.28999996      -2.06077256E-12
   7.34999990       3.08240911E-12
   7.40999985       9.26372087E-12
   7.46999979       1.56530726E-11
   7.53000021       2.12708531E-11
   7.59000015       2.51341916E-11
   7.65000010       2.63632449E-11
   7.71000004       2.42249606E-11
   7.76999998       1.81323567E-11
   7.82999992       7.65251491E-12
   7.88999987      -7.41220280E-12
   7.94999981      -2.68280571E-11
   8.01000023      -4.96296199E-11
   8.06999969      -7.37885308E-11
   8.13000011      -9.59714530E-11
   8.18999958      -1.11515686E-10
   8.25000000      -1.14712399E-10
   8.31000042      -9.94112292E-11
   8.36999989      -5.98706917E-11
   8.43000031       8.29256108E-12
   8.48999977       1.07232383E-10
   8.55000019       2.36236891E-10
   8.60999966       3.91422589E-10
   8.67000008       5.65775982E-10
   8.72999954       7.49490248E-10
   8.78999996       9.30506727E-10
   8.85000038       1.09516940E-09
   8.90999985       1.22893340E-09
   8.97000027       1.31711431E-09
   9.02999973       1.34570233E-09
   9.09000015       1.30228428E-09
   9.14999962       1.17709698E-09
   9.21000004       9.64185398E-10
   9.27000046       6.62578326E-10
   9.32999992       2.77314088E-10
   9.39000034      -1.79892920E-10
   9.44999981      -6.90570434E-10
   9.51000023      -1.23017663E-09
   9.56999969      -1.76964687E-09
   9.63000011      -2.27775199E-09
   9.68999958      -2.72405409E-09
   9.75000000      -3.08210146E-09
   9.81000042      -3.33240169E-09
   9.86999989      -3.46469431E-09
   9.93000031      -3.47912654E-09
   9.98999977      -3.38610673E-09
   10.0500002      -3.20484306E-09
   10.1099997      -2.96082958E-09
   10.1700001      -2.68272937E-09
   10.2299995      -2.39919928E-09
   10.2900000      -2.13616591E-09
   10.3500004      -1.91490268E-09
   10.4099998      -1.75101400E-09
   10.4700003      -1.65420910E-09
   10.5299997      -1.62857672E-09
   10.5900002      -1.67304004E-09
   10.6499996      -1.78177351E-09
   10.7100000      -1.94454741E-09
   10.7700005      -2.14716334E-09
   10.8299999      -2.37225550E-09
   10.8900003      -2.60071187E-09
   10.9499998      -2.81377499E-09
   11.0100002      -2.99561909E-09
   11.0699997      -3.13590376E-09
   11.1300001      -3.23165295E-09
   11.1899996      -3.28782668E-09
   11.2500000      -3.31620909E-09
   11.3100004      -3.33265593E-09
   11.3699999      -3.35322148E-09
   11.4300003      -3.39006867E-09
   11.4899998      -3.44823214E-09
   11.5500002      -3.52415697E-09
   11.6099997      -3.60651331E-09
   11.6700001      -3.67916808E-09
   11.7299995      -3.72556697E-09
   11.7900000      -3.73334785E-09
   11.8500004      -3.69789133E-09
   11.9099998      -3.62381125E-09
   11.9700003      -3.52401242E-09
   12.0299997      -3.41666162E-09
   12.0900002      -3.32108874E-09
   12.1499996      -3.25390737E-09
   12.2100000      -3.22651039E-09
   12.2700005      -3.24454796E-09
   12.3299999      -3.30923600E-09
   12.3900003      -3.41967321E-09
   12.4499998      -3.57499985E-09
   12.5100002      -3.77536402E-09
   12.5699997      -4.02122335E-09
   12.6300001      -4.31125979E-09
   12.6899996      -4.63987071E-09
   12.7500000      -4.99548003E-09
   12.8100004      -5.36073763E-09
   12.8699999      -5.71501335E-09
   12.9300003      -6.03875350E-09
   12.9899998      -6.31850705E-09
   13.0500002      -6.55105525E-09
   13.1099997      -6.74520706E-09
   13.1700001      -6.92048019E-09
   13.2299995      -7.10278902E-09
   13.2900000      -7.31819583E-09
   13.3500004      -7.58640351E-09
   13.4099998      -7.91580579E-09
   13.4700003      -8.30146440E-09
   13.5299997      -8.72656347E-09
   13.5900002      -9.16681486E-09
   13.6499996      -9.59645341E-09
   13.7100000      -9.99395677E-09
   13.7700005      -1.03458024E-08
   13.8299999      -1.06472777E-08
   13.8900003      -1.09003446E-08
   13.9499998      -1.11096607E-08
   14.0100002      -1.12783995E-08
   14.0699997      -1.14056133E-08
   14.1300001      -1.14861729E-08
   14.1899996      -1.15133547E-08
   14.2500000      -1.14830288E-08
   14.3100004      -1.13977050E-08
   14.3699999      -1.12686722E-08
   14.4300003      -1.11150671E-08
   14.4899998      -1.09598313E-08
   14.5500002      -1.08236948E-08
   14.6099997      -1.07191145E-08
   14.6700001      -1.06462998E-08
   14.7299995      -1.05928404E-08
   14.7900000      -1.05373408E-08
   14.8500004      -1.04561373E-08
   14.9099998      -1.03311368E-08
   14.9700003      -1.01563593E-08
   15.0299997      -9.94112259E-09
   15.0900002      -9.70879199E-09
   15.1499996      -9.49139078E-09
   15.2100000      -9.32159239E-09
   15.2700005      -9.22443810E-09
   15.3299999      -9.21110033E-09
   15.3900003      -9.27640187E-09
   15.4499998      -9.40055944E-09
   15.5100002      -9.55440704E-09
   15.5699997      -9.70635572E-09
   15.6300001      -9.82898207E-09
   15.6899996      -9.90346916E-09
   15.7500000      -9.92095206E-09
   15.8100004      -9.88089877E-09
   15.8699999      -9.78758496E-09
   15.9300003      -9.64618785E-09
   15.9899998      -9.45994216E-09
   16.0499992      -9.22920762E-09
   16.1100006      -8.95249297E-09
   16.1700001      -8.62871463E-09
   16.2299995      -8.25960900E-09
   16.2900009      -7.85124055E-09
   16.3500004      -7.41399786E-09
   16.4099998      -6.96108193E-09
   16.4699993      -6.50598020E-09
   16.5300007      -6.05973272E-09
   16.5900002      -5.62873526E-09
   16.6499996      -5.21359667E-09
   16.7099991      -4.80925610E-09
   16.7700005      -4.40628556E-09
   16.8299999      -3.99312272E-09
   16.8899994      -3.55886187E-09
   16.9500008      -3.09612713E-09
   17.0100002      -2.60347921E-09
   17.0699997      -2.08677964E-09
   17.1299992      -1.55907265E-09
   17.1900005      -1.03882969E-09
   17.2500000      -5.46830081E-10
   17.3099995      -1.02354646E-10
   17.3700008       2.80392543E-10
   17.4300003       5.94755967E-10
   17.4899998       8.42430736E-10
   17.5499992       1.03249465E-09
   17.6100006       1.17903531E-09
   17.6700001       1.29805044E-09
   17.7299995       1.40439926E-09
   17.7900009       1.50949908E-09
   17.8500004       1.62022995E-09
   17.9099998       1.73921522E-09
   17.9699993       1.86630400E-09
   18.0300007       2.00074912E-09
   18.0900002       2.14333085E-09
   18.1499996       2.29761254E-09
   18.2099991       2.46972531E-09
   18.2700005       2.66657763E-09
   18.3299999       2.89303226E-09
   18.3899994       3.14912829E-09
   18.4500008       3.42860096E-09
   18.5100002       3.71959152E-09
   18.5699997       4.00763689E-09
   18.6299992       4.28004698E-09
   18.6900005       4.53008830E-09
   18.7500000       4.75927653E-09
   18.8099995       4.97668795E-09
   18.8700008       5.19531884E-09
   18.9300003       5.42670486E-09
   18.9899998       5.67575631E-09
   19.0499992       5.93778715E-09
   19.1100006       6.19891916E-09
   19.1700001       6.43979403E-09
   19.2299995       6.64126532E-09
   19.2900009       6.78999967E-09
   19.3500004       6.88193946E-09
   19.4099998       6.92241198E-09
   19.4699993       6.92292401E-09
   19.5300007       6.89591717E-09
   19.5900002       6.84951518E-09
   19.6499996       6.78423273E-09
   19.7099991       6.69286893E-09
   19.7700005       6.56353505E-09
   19.8299999       6.38460795E-09
   19.8899994       6.14962614E-09
   19.9500008       5.86021898E-09
   20.0100002       5.52589530E-09
   20.0699997       5.16075982E-09
   20.1299992       4.77839501E-09
   20.1900005       4.38688152E-09
   20.2500000       3.98588362E-09
   20.3099995       3.56698360E-09
   20.3700008       3.11722137E-09
   20.4300003       2.62465405E-09
   20.4899998       2.08399364E-09
   20.5499992       1.50040436E-09
   20.6100006       8.90208962E-10
   20.6700001       2.78368939E-10
   20.7299995      -3.06310755E-10
   20.7900009      -8.36617997E-10
   20.8500004      -1.29133082E-09
   20.9099998      -1.65745206E-09
   20.9699993      -1.93007210E-09
   21.0300007      -2.11052509E-09
   21.0900002      -2.20402208E-09
   21.1499996      -2.21791896E-09
   21.2099991      -2.16127027E-09
   21.2700005      -2.04559414E-09
   21.3299999      -1.88612614E-09
   21.3899994      -1.70258885E-09
   21.4500008      -1.51869384E-09
   21.5100002      -1.36015887E-09
   21.5699997      -1.25169319E-09
   21.6299992      -1.21388710E-09
   21.6900005      -1.26104660E-09
   21.7500000      -1.40070222E-09
   21.8099995      -1.63492875E-09
   21.8700008      -1.96297112E-09
   21.9300003      -2.38422082E-09
   21.9899998      -2.90047675E-09
   22.0499992      -3.51666718E-09
   22.1100006      -4.23970903E-09
   22.1700001      -5.07578690E-09
   22.2299995      -6.02682704E-09
   22.2900009      -7.08723524E-09
   22.3500004      -8.24193247E-09
   22.4099998      -9.46639211E-09
   22.4699993      -1.07288480E-08
   22.5300007      -1.19942181E-08
   22.5900002      -1.32287772E-08
   22.6499996      -1.44043941E-08
   22.7099991      -1.55012678E-08
   22.7700005      -1.65085350E-08
   22.8299999      -1.74227832E-08
   22.8899994      -1.82450730E-08
   22.9500008      -1.89774809E-08
   23.0100002      -1.96202521E-08
   23.0699997      -2.01703454E-08
   23.1299992      -2.06217923E-08
   23.1900005      -2.09676649E-08
   23.2500000      -2.12030375E-08
   23.3099995      -2.13280291E-08
   23.3700008      -2.13499369E-08
   23.4300003      -2.12836326E-08
   23.4899998      -2.11498996E-08
   23.5499992      -2.09719015E-08
   23.6100006      -2.07706297E-08
   23.6700001      -2.05605772E-08
   23.7299995      -2.03468922E-08
   23.7900009      -2.01248813E-08
   23.8500004      -1.98820000E-08
   23.9099998      -1.96016501E-08
   23.9699993      -1.92675689E-08
   24.0300007      -1.88674836E-08
   24.0900002      -1.83950561E-08
   24.1499996      -1.78498638E-08
   24.2099991      -1.72358288E-08
   24.2700005      -1.65590102E-08
   24.3299999      -1.58257443E-08
   24.3899994      -1.50418398E-08
   24.4500008      -1.42130405E-08
   24.5100002      -1.33464217E-08
   24.5699997      -1.24519932E-08
   24.6299992      -1.15436389E-08
   24.6900005      -1.06387139E-08
   24.7500000      -9.75607151E-09
   24.8099995      -8.91292462E-09
   24.8700008      -8.12148038E-09
   24.9300003      -7.38658823E-09
   24.9899998      -6.70544331E-09
   25.0499992      -6.06974071E-09
   25.1100006      -5.46979617E-09
   25.1700001      -4.89933250E-09
   25.2299995      -4.35926717E-09
   25.2900009      -3.85909882E-09
   25.3500004      -3.41525430E-09
   25.4099998      -3.04682124E-09
   25.4699993      -2.76996670E-09
   25.5300007      -2.59278643E-09
   25.5900002      -2.51222798E-09
   25.6499996      -2.51410159E-09
   25.7099991      -2.57630539E-09
   25.7700005      -2.67445466E-09
   25.8299999      -2.78836265E-09
   25.8899994      -2.90746360E-09
   25.9500008      -3.03344350E-09
   26.0100002      -3.17904836E-09
   26.0699997      -3.36318795E-09
   26.1299992      -3.60369246E-09
   26.1900005      -3.90998567E-09
   26.2500000      -4.27813696E-09
   26.3099995      -4.69008077E-09
   26.3700008      -5.11743448E-09
   26.4300003      -5.52879831E-09
   26.4899998      -5.89825211E-09
   26.5499992      -6.21242213E-09
   26.6100006      -6.47402931E-09
   26.6700001      -6.70104683E-09
   26.7299995      -6.92194124E-09
   26.7900009      -7.16858928E-09
   26.8500004      -7.46895434E-09
   26.9099998      -7.84152832E-09
   26.9699993      -8.29286773E-09
   27.0300007      -8.81861872E-09
   27.0900002      -9.40742240E-09
   27.1499996      -1.00462119E-08
   27.2099991      -1.07250679E-08
   27.2700005      -1.14399512E-08
   27.3299999      -1.21923991E-08
   27.3899994      -1.29863666E-08
   27.4500008      -1.38234872E-08
   27.5100002      -1.46985419E-08
   27.5699997      -1.55968802E-08
   27.6299992      -1.64947469E-08
   27.6900005      -1.73623143E-08
   27.7500000      -1.81683451E-08
   27.8099995      -1.88848670E-08
   27.8700008      -1.94904057E-08
   27.9300003      -1.99709067E-08
   27.9899998      -2.03183159E-08
   28.0499992      -2.05275210E-08
   28.1100006      -2.05927879E-08
   28.1700001      -2.05049417E-08
   28.2299995      -2.02503294E-08
   28.2900009      -1.98120507E-08
   28.3500004      -1.91731537E-08
   28.4099998      -1.83208915E-08
   28.4699993      -1.72505459E-08
   28.5300007      -1.59674673E-08
   28.5900002      -1.44864396E-08
   28.6499996      -1.28286075E-08
   28.7099991      -1.10170086E-08
   28.7700005      -9.07243614E-09
   28.8299999      -7.01110725E-09
   28.8899994      -4.84490270E-09
   28.9500008      -2.58378563E-09
   29.0100002      -2.39105930E-10
   29.0699997       2.17385199E-09
   29.1299992       4.63539473E-09
   29.1900005       7.12342407E-09
   29.2500000       9.61726698E-09
   29.3099995       1.21018742E-08
   29.3700008       1.45706123E-08
   29.4300003       1.70253056E-08
   29.4899998       1.94730365E-08
   29.5499992       2.19204388E-08
   29.6100006       2.43671323E-08
   29.6700001       2.68005191E-08
   29.7299995       2.91938278E-08
   29.7900009       3.15083000E-08
   29.8500004       3.36990276E-08
   29.9099998       3.57226178E-08
   29.9699993       3.75442184E-08
   30.0300007       3.91415576E-08
   30.0900002       4.05048297E-08
   30.1499996       4.16326635E-08
   30.2099991       4.25258406E-08
   30.2700005       4.31811600E-08
   30.3299999       4.35877752E-08
   30.3899994       4.37272689E-08
   30.4500008       4.35775789E-08
   30.5100002       4.31193534E-08
   30.5699997       4.23424815E-08
   30.6299992       4.12505337E-08
   30.6900005       3.98612769E-08
   30.7500000       3.82029732E-08
   30.8099995       3.63074975E-08
   30.8700008       3.42026247E-08
   30.9300003       3.19061257E-08
   30.9899998       2.94239317E-08
   31.0499992       2.67530158E-08
   31.1100006       2.38880364E-08
   31.1700001       2.08292850E-08
   31.2299995       1.75890360E-08
   31.2900009       1.41939900E-08
   31.3500004       1.06829896E-08
   31.4099998       7.10095849E-09
   31.4699993       3.49130280E-09
   31.5300007      -1.10493427E-10
   31.5900002      -3.67991237E-09
   31.6499996      -7.20218951E-09
   31.7099991      -1.06674785E-08
   31.7700005      -1.40643142E-08
   31.8299999      -1.73738854E-08
   31.8899994      -2.05673718E-08
   31.9500008      -2.36075479E-08
   32.0099983      -2.64543782E-08
   32.0699997      -2.90727940E-08
   32.1300011      -3.14399422E-08
   32.1899986      -3.35492736E-08
   32.2500000      -3.54098084E-08
   32.3100014      -3.70405928E-08
   32.3699989      -3.84621046E-08
   32.4300003      -3.96875315E-08
   32.4900017      -4.07167597E-08
   32.5499992      -4.15350705E-08
   32.6100006      -4.21168913E-08
   32.6699982      -4.24332960E-08
   32.7299995      -4.24608047E-08
   32.7900009      -4.21888551E-08
   32.8499985      -4.16237569E-08
   32.9099998      -4.07882048E-08
   32.9700012      -3.97167703E-08
   33.0299988      -3.84489987E-08
   33.0900002      -3.70223958E-08
   33.1500015      -3.54674619E-08
   33.2099991      -3.38061739E-08
   33.2700005      -3.20539471E-08
   33.3300018      -3.02239016E-08
   33.3899994      -2.83313302E-08
   33.4500008      -2.63963305E-08
   33.5099983      -2.44434375E-08
   33.5699997      -2.24983960E-08
   33.6300011      -2.05834478E-08
   33.6899986      -1.87131430E-08
   33.7500000      -1.68925318E-08
   33.8100014      -1.51185180E-08
   33.8699989      -1.33841285E-08
   33.9300003      -1.16842092E-08
   33.9900017      -1.00207274E-08
   34.0499992      -8.40586178E-09
   34.1100006      -6.86185819E-09
   34.1699982      -5.41764811E-09
   34.2299995      -4.10330570E-09
   34.2900009      -2.94421731E-09
   34.3499985      -1.95701100E-09
   34.4099998      -1.14874643E-09
   34.4700012      -5.19638554E-10
   34.5299988      -6.81594572E-11
   34.5900002       2.03736569E-10
   34.6500015       2.87711771E-10
   34.7099991       1.70034847E-10
   34.7700005      -1.63613650E-10
   34.8300018      -7.21296689E-10
   34.8899994      -1.49870372E-09
   34.9500008      -2.47634580E-09
   35.0099983      -3.62138319E-09
   35.0699997      -4.89361174E-09
   35.1300011      -6.25357144E-09
   35.1899986      -7.67001929E-09
   35.2500000      -9.12428089E-09
   35.3100014      -1.06101572E-08
   35.3699989      -1.21295489E-08
   35.4300003      -1.36853480E-08
   35.4900017      -1.52740398E-08
   35.5499992      -1.68805521E-08
   35.6100006      -1.84772198E-08
   35.6699982      -2.00274037E-08
   35.7299995      -2.14926583E-08
   35.7900009      -2.28410570E-08
   35.8499985      -2.40536888E-08
   35.9099998      -2.51268588E-08
   35.9700012      -2.60690971E-08
   36.0299988      -2.68938560E-08
   36.0900002      -2.76104988E-08
   36.1500015      -2.82167587E-08
   36.2099991      -2.86953519E-08
   36.2700005      -2.90160092E-08
   36.3300018      -2.91424236E-08
   36.3899994      -2.90420470E-08
   36.4500008      -2.86958191E-08
   36.5099983      -2.81049033E-08
   36.5699997      -2.72922502E-08
   36.6300011      -2.62983288E-08
   36.6899986      -2.51719996E-08
   36.7500000      -2.39592275E-08
   36.8100014      -2.26931398E-08
   36.8699989      -2.13887503E-08
   36.9300003      -2.00442170E-08
   36.9900017      -1.86481461E-08
   37.0499992      -1.71901977E-08
   37.1100006      -1.56709579E-08
   37.1699982      -1.41073668E-08
   37.2299995      -1.25317383E-08
   37.2900009      -1.09849383E-08
   37.3499985      -9.50645163E-09
   37.4099998      -8.12500645E-09
   37.4700012      -6.85303769E-09
   37.5299988      -5.68669822E-09
   37.5900002      -4.61125804E-09
   37.6500015      -3.61006558E-09
   37.7099991      -2.67425881E-09
   37.7700005      -1.81015369E-09
   37.8300018      -1.04176912E-09
   37.8899994      -4.07140738E-10
   37.9500008       5.11215618E-11
   38.0099983       2.98619546E-10
   38.0699997       3.21345367E-10
   38.1300011       1.32944475E-10
   38.1899986      -2.26029515E-10
   38.2500000      -6.97353453E-10
   38.3100014      -1.22026200E-09
   38.3699989      -1.74751802E-09
   38.4300003      -2.25691599E-09
   38.4900017      -2.75422019E-09
   38.5499992      -3.26655547E-09
   38.6100006      -3.82861032E-09
   38.6699982      -4.46644544E-09
   38.7299995      -5.18442089E-09
   38.7900009      -5.95963368E-09
   38.8499985      -6.74576350E-09
   38.9099998      -7.48518492E-09
   38.9700012      -8.12549938E-09
   39.0299988      -8.63505445E-09
   39.0900002      -9.01205688E-09
   39.1500015      -9.28368671E-09
   39.2099991      -9.49479517E-09
   39.2700005      -9.68943059E-09
   39.3300018      -9.89127269E-09
   39.3899994      -1.00899538E-08
   39.4500008      -1.02386410E-08
   39.5099983      -1.02645252E-08
   39.5699997      -1.00893232E-08
   39.6300011      -9.65323466E-09
   39.6899986      -8.93438301E-09
   39.7500000      -7.95714516E-09
   39.8100014      -6.78642298E-09
   39.8699989      -5.50951595E-09
   39.9300003      -4.21123536E-09
   39.9900017      -2.95004488E-09
   40.0499992      -1.74267634E-09
   40.1100006      -5.62042635E-10
   40.1699982       6.50863530E-10
   40.2299995       1.96480232E-09
   40.2900009       3.43292794E-09
   40.3499985       5.07252285E-09
   40.4099998       6.85663926E-09
   40.4700012       8.72064554E-09
   40.5299988       1.05816902E-08
   40.5900002       1.23646000E-08
   40.6500015       1.40254235E-08
   40.7099991       1.55644635E-08
   40.7700005       1.70242433E-08
   40.8300018       1.84729956E-08
   40.8899994       1.99791685E-08
   40.9500008       2.15856009E-08
   41.0099983       2.32920296E-08
   41.0699997       2.50518948E-08
   41.1300011       2.67846580E-08
   41.1899986       2.83996844E-08
   41.2500000       2.98238838E-08
   41.3100014       3.10238910E-08
   41.3699989       3.20152900E-08
   41.4300003       3.28555458E-08
   41.4900017       3.36229284E-08
   41.5499992       3.43885525E-08
   41.6100006       3.51912099E-08
   41.6699982       3.60237529E-08
   41.7299995       3.68358464E-08
   41.7900009       3.75520202E-08
   41.8499985       3.80986265E-08
   41.9099998       3.84301444E-08
   41.9700012       3.85457390E-08
   42.0299988       3.84905796E-08
   42.0900002       3.83416747E-08
   42.1500015       3.81834191E-08
   42.2099991       3.80812502E-08
   42.2700005       3.80623035E-08
   42.3300018       3.81093841E-08
   42.3899994       3.81700644E-08
   42.4500008       3.81776601E-08
   42.5099983       3.80767986E-08
   42.5699997       3.78447780E-08
   42.6300011       3.75011346E-08
   42.6899986       3.71018452E-08
   42.7500000       3.67198894E-08
   42.8100014       3.64187507E-08
   42.8699989       3.62281263E-08
   42.9300003       3.61305190E-08
   42.9900017       3.60637209E-08
   43.0499992       3.59386298E-08
   43.1100006       3.56664707E-08
   43.1699982       3.51861935E-08
   43.2299995       3.44829090E-08
   43.2900009       3.35912027E-08
   43.3499985       3.25826477E-08
   43.4099998       3.15417701E-08
   43.4700012       3.05388106E-08
   43.5299988       2.96081275E-08
   43.5900002       2.87392279E-08
   43.6500015       2.78829706E-08
   43.7099991       2.69704952E-08
   43.7700005       2.59382826E-08
   43.8300018       2.47509178E-08
   43.8899994       2.34140742E-08
   43.9500008       2.19737419E-08
   44.0099983       2.05023163E-08
   44.0699997       1.90765803E-08
   44.1300011       1.77550330E-08
   44.1899986       1.65619944E-08
   44.2500000       1.54832627E-08
   44.3100014       1.44741774E-08
   44.3699989       1.34768410E-08
   44.4300003       1.24404664E-08
   44.4900017       1.13381793E-08
   44.5499992       1.01750244E-08
   44.6100006       8.98502162E-09
   44.6699982       7.81870835E-09
   44.7299995       6.72565781E-09
   44.7900009       5.73796832E-09
   44.8499985       4.86026241E-09
   44.9099998       4.06943590E-09
   44.9700012       3.32404659E-09
   45.0299988       2.57992760E-09
   45.0900002       1.80654880E-09
   45.1500015       9.98505723E-10
   45.2099991       1.78339010E-10
   45.2700005      -6.10040019E-10
   45.3300018      -1.31485711E-09
   45.3899994      -1.89227367E-09
   45.4500008      -2.31931852E-09
   45.5099983      -2.60000310E-09
   45.5699997      -2.76302115E-09
   45.6300011      -2.85211499E-09
   45.6899986      -2.91235103E-09
   45.7500000      -2.97661562E-09
   45.8100014      -3.05639181E-09
   45.8699989      -3.13945137E-09
   45.9300003      -3.19491722E-09
   45.9900017      -3.18386473E-09
   46.0499992      -3.07194470E-09
   46.1100006      -2.83994805E-09
   46.1699982      -2.48904120E-09
   46.2299995      -2.03927231E-09
   46.2900009      -1.52225443E-09
   46.3499985      -9.70808101E-10
   46.4099998      -4.09183604E-10
   46.4700012       1.52990454E-10
   46.5299988       7.21360138E-10
   46.5900002       1.31232047E-09
   46.6500015       1.94516669E-09
   46.7099991       2.63368194E-09
   46.7700005       3.37990791E-09
   46.8300018       4.17204538E-09
   46.8899994       4.98708541E-09
   46.9500008       5.79731196E-09
   47.0099983       6.57857901E-09
   47.0699997       7.31763850E-09
   47.1300011       8.01603850E-09
   47.1899986       8.68916139E-09
   47.2500000       9.36056832E-09
   47.3100014       1.00534692E-08
   47.3699989       1.07820703E-08
   47.4300003       1.15456444E-08
   47.4900017       1.23271482E-08
   47.5499992       1.30966908E-08
   47.6100006       1.38186103E-08
   47.6699982       1.44598671E-08
   47.7299995       1.49973047E-08
   47.7900009       1.54218363E-08
   47.8499985       1.57385998E-08
   47.9099998       1.59633586E-08
   47.9700012       1.61163136E-08
   48.0299988       1.62152602E-08
   48.0900002       1.62700768E-08
   48.1500015       1.62802110E-08
   48.2099991       1.62358464E-08
   48.2700005       1.61221951E-08
   48.3300018       1.59253215E-08
   48.3899994       1.56372693E-08
   48.4500008       1.52586264E-08
   48.5099983       1.47975792E-08
   48.5699997       1.42659724E-08
   48.6300011       1.36739464E-08
   48.6899986       1.30253035E-08
   48.7500000       1.23153052E-08
   48.8100014       1.15317187E-08
   48.8699989       1.06587050E-08
   48.9300003       9.68223102E-09
   48.9900017       8.59530491E-09
   49.0499992       7.40145278E-09
   49.1100006       6.11545481E-09
   49.1699982       4.76120032E-09
   49.2299995       3.36732353E-09
   49.2900009       1.96193173E-09
   49.3499985       5.67956904E-10
   49.4099998      -7.99566302E-10
   49.4700012      -2.13368767E-09
   49.5299988      -3.43346995E-09
   49.5900002      -4.70070693E-09
   49.6500015      -5.93678173E-09
   49.7099991      -7.14074666E-09
   49.7700005      -8.30896685E-09
   49.8300018      -9.43589917E-09
   49.8899994      -1.05150972E-08
   49.9500008      -1.15396057E-08
   50.0099983      -1.25014532E-08
   50.0699997      -1.33906486E-08
   50.1300011      -1.41945113E-08
   50.1899986      -1.48981485E-08
   50.2500000      -1.54864068E-08
   50.3100014      -1.59469167E-08
   50.3699989      -1.62733400E-08
   50.4300003      -1.64676539E-08
   50.4900017      -1.65406586E-08
   50.5499992      -1.65103771E-08
   50.6100006      -1.63986833E-08