  -2.400000      0.0000000E+00
  -2.340000      0.0000000E+00
  -2.280000      0.0000000E+00
  -2.220000      0.0000000E+00
  -2.160000      0.0000000E+00
  -2.100000      0.0000000E+00
  -2.040000      0.0000000E+00
  -1.980000      0.0000000E+00
  -1.920000      1.5061358E-26
  -1.860000      1.6197151E-25
  -1.800000      8.4728769E-25
  -1.740000      2.7878039E-24
  -1.680000      6.0925408E-24
  -1.620000      7.7334993E-24
  -1.560000     -1.5684656E-24
  -1.500000     -3.7390385E-23
  -1.440000     -1.1458437E-22
  -1.380000     -2.3308086E-22
  -1.320000     -3.5849192E-22
  -1.260000     -3.8720381E-22
  -1.200000     -6.2529205E-23
  -1.140000      1.1732257E-21
  -1.080000      4.2535679E-21
  -1.020000      1.0043654E-20
 -0.9600000      1.7707602E-20
 -0.9000000      2.1668470E-20
 -0.8400000      8.6729499E-21
 -0.7800000     -4.0773736E-20
 -0.7200000     -1.4064573E-19
 -0.6600000     -2.7450110E-19
 -0.6000000     -3.6566814E-19
 -0.5400000     -2.6733676E-19
 -0.4800000      1.9172549E-19
 -0.4200000      1.0829732E-18
 -0.3600000      2.2020057E-18
 -0.3000000      2.9425918E-18
 -0.2400000      2.3780129E-18
 -0.1800000     -3.2676811E-19
 -0.1200000     -5.2176779E-18
 -5.9999999E-02 -1.0882133E-17
  0.0000000E+00 -1.4336221E-17
  5.9999999E-02 -1.1943667E-17
  0.1200000     -1.3795730E-18
  0.1800000      1.6113626E-17
  0.2400000      3.4581814E-17
  0.3000000      4.4694355E-17
  0.3600000      3.7854832E-17
  0.4200000      1.1556795E-17
  0.4800000     -2.7110209E-17
  0.5400000     -6.2885566E-17
  0.6000000     -7.9472185E-17
  0.6600000     -6.9308934E-17
  0.7200000     -3.9792764E-17
  0.7800000     -1.0096093E-17
  0.8400000      2.2827612E-18
  0.9000000     -1.6495610E-18
  0.9600000      5.2999447E-18
   1.020000      6.4251406E-17
   1.080000      1.9819594E-16
   1.140000      3.7596021E-16
   1.200000      4.9857492E-16
   1.260000      4.2992330E-16
   1.320000      7.1199379E-17
   1.380000     -5.5240747E-16
   1.440000     -1.2456773E-15
   1.500000     -1.6841701E-15
   1.560000     -1.5484938E-15
   1.620000     -7.0192546E-16
   1.680000      6.8074884E-16
   1.740000      2.1216102E-15
   1.800000      3.0146750E-15
   1.860000      2.9063214E-15
   1.920000      1.7458647E-15
   1.980000     -3.7508846E-17
   2.040000     -1.7011184E-15
   2.100000     -2.5414182E-15
   2.160000     -2.2631316E-15
   2.220000     -1.1644410E-15
   2.280000     -1.6825924E-17
   2.340000      3.2632868E-16
   2.400000     -5.9248006E-16
   2.460000     -2.5169290E-15
   2.520000     -4.4978970E-15
   2.580000     -5.2683671E-15
   2.640000     -3.8115305E-15
   2.700000      1.3404112E-16
   2.760000      5.8572765E-15
   2.820000      1.1836237E-14
   2.880000      1.6205304E-14
   2.940000      1.7341180E-14
   3.000000      1.4359585E-14
   3.060000      7.3744349E-15
   3.120000     -2.5316328E-15
   3.180000     -1.3586224E-14
   3.240000     -2.3754307E-14
   3.300000     -3.1179469E-14
   3.360000     -3.4503501E-14
   3.420000     -3.2970466E-14
   3.480000     -2.6316480E-14
   3.540000     -1.4574288E-14
   3.600000      1.9863814E-15
   3.660000      2.2593686E-14
   3.720000      4.5393475E-14
   3.780000      6.6863622E-14
   3.840000      8.1756481E-14
   3.900000      8.4047230E-14
   3.960000      6.8943434E-14
   4.020000      3.5356121E-14
   4.080000     -1.2307236E-14
   4.140000     -6.4208255E-14
   4.200000     -1.0753769E-13
   4.260000     -1.3077443E-13
   4.320000     -1.2807549E-13
   4.380000     -1.0175254E-13
   4.440000     -6.1459003E-14
   4.500000     -2.0220559E-14
   4.560000      1.0941036E-14
   4.620000      2.7223835E-14
   4.680000      3.1072845E-14
   4.740000      2.9712791E-14
   4.800000      3.0888280E-14
   4.860000      3.9622317E-14
   4.920000      5.8223358E-14
   4.980000      8.9627985E-14
   5.040000      1.4156304E-13
   5.100000      2.2750362E-13
   5.160000      3.6116338E-13
   5.220000      5.4434029E-13
   5.280000      7.5209966E-13
   5.340000      9.2247206E-13
   5.400000      9.5821300E-13
   5.460000      7.4502714E-13
   5.520000      1.8491771E-13
   5.580000     -7.6282638E-13
   5.640000     -2.0445538E-12
   5.700000     -3.4909608E-12
   5.760000     -4.8199799E-12
   5.820000     -5.6664322E-12
   5.880000     -5.6351698E-12
   5.940000     -4.3705248E-12
   6.000000     -1.6335946E-12
   6.060000      2.6203586E-12
   6.120000      8.1712328E-12
   6.180000      1.4477343E-11
   6.240000      2.0642141E-11
   6.300000      2.5416875E-11
   6.360000      2.7252724E-11
   6.420000      2.4412184E-11
   6.480000      1.5139459E-11
   6.540000     -2.1259893E-12
   6.600000     -2.8525286E-11
   6.660000     -6.4589653E-11
   6.720000     -1.1012875E-10
   6.780000     -1.6422926E-10
   6.840000     -2.2536896E-10
   6.900000     -2.9162089E-10
   6.960000     -3.6089720E-10
   7.020000     -4.3117390E-10
   7.080000     -5.0064997E-10
   7.140000     -5.6782323E-10
   7.200000     -6.3149863E-10
   7.260000     -6.9076755E-10
   7.320000     -7.4499845E-10
   7.380000     -7.9385787E-10
   7.440000     -8.3734902E-10
   7.500000     -8.7582924E-10
   7.560000     -9.0996377E-10
   7.620000     -9.4059716E-10
   7.680000     -9.6856589E-10
   7.740000     -9.9451014E-10
   7.800000     -1.0187555E-09
   7.860000     -1.0413090E-09
   7.920000     -1.0619592E-09
   7.980000     -1.0804150E-09
   8.040000     -1.0963919E-09
   8.100000     -1.1095758E-09
   8.160000     -1.1194573E-09
   8.220000     -1.1251120E-09
   8.280000     -1.1250538E-09
   8.340000     -1.1172860E-09
   8.400000     -1.0996054E-09
   8.460000     -1.0701076E-09
   8.520000     -1.0277464E-09
   8.580000     -9.7275399E-10
   8.640000     -9.0676555E-10
   8.700000     -8.3259688E-10
   8.760000     -7.5374457E-10
   8.820000     -6.7377648E-10
   8.880000     -5.9580291E-10
   8.940000     -5.2216548E-10
   9.000000     -4.5438264E-10
   9.060000     -3.9328793E-10
   9.120000     -3.3924122E-10
   9.180000     -2.9229688E-10
   9.240000     -2.5226665E-10
   9.300000     -2.1868557E-10
   9.360000     -1.9074002E-10
   9.420000     -1.6722926E-10
   9.480000     -1.4660849E-10
   9.540000     -1.2712130E-10
   9.600000     -1.0699660E-10
   9.660000     -8.4670715E-11
   9.720000     -5.8996377E-11
   9.780000     -2.9409097E-11
   9.840000      3.9749098E-12
   9.900000      4.0352804E-11
   9.960000      7.8339189E-11
   10.02000      1.1617989E-10
   10.08000      1.5204732E-10
   10.14000      1.8436261E-10
   10.20000      2.1207881E-10
   10.26000      2.3487326E-10
   10.32000      2.5322580E-10
   10.38000      2.6838823E-10
   10.44000      2.8225933E-10
   10.50000      2.9716971E-10
   10.56000      3.1556838E-10
   10.62000      3.3961045E-10
   10.68000      3.7069073E-10
   10.74000      4.0903109E-10
   10.80000      4.5347762E-10
   10.86000      5.0164661E-10
   10.92000      5.5046168E-10
   10.98000      5.9697230E-10
   11.04000      6.3920419E-10
   11.10000      6.7674044E-10
   11.16000      7.1081013E-10
   11.22000      7.4384576E-10
   11.28000      7.7868156E-10
   11.34000      8.1769697E-10
   11.40000      8.6220348E-10
   11.46000      9.1223168E-10
   11.52000      9.6667985E-10
   11.58000      1.0236438E-09
   11.64000      1.0807345E-09
   11.70000      1.1352944E-09
   11.76000      1.1845701E-09
   11.82000      1.2259772E-09
   11.88000      1.2575382E-09
   11.94000      1.2784093E-09
   12.00000      1.2892484E-09
   12.06000      1.2921368E-09
   12.12000      1.2899205E-09
   12.18000      1.2851319E-09
   12.24000      1.2789338E-09
   12.30000      1.2706233E-09
   12.36000      1.2580433E-09
   12.42000      1.2388314E-09
   12.48000      1.2119918E-09
   12.54000      1.1790411E-09
   12.60000      1.1441084E-09
   12.66000      1.1128368E-09
   12.72000      1.0905191E-09
   12.78000      1.0803032E-09
   12.84000      1.0823078E-09
   12.90000      1.0940702E-09
   12.96000      1.1121065E-09
   13.02000      1.1338198E-09
   13.08000      1.1588360E-09
   13.14000      1.1891380E-09
   13.20000      1.2279769E-09
   13.26000      1.2781249E-09
   13.32000      1.3403291E-09
   13.38000      1.4126660E-09
   13.44000      1.4910112E-09
   13.50000      1.5702810E-09
   13.56000      1.6457629E-09
   13.62000      1.7138809E-09
   13.68000      1.7721044E-09
   13.74000      1.8181746E-09
   13.80000      1.8491824E-09
   13.86000      1.8610864E-09
   13.92000      1.8490437E-09
   13.98000      1.8085341E-09
   14.04000      1.7369000E-09
   14.10000      1.6347204E-09
   14.16000      1.5064766E-09
   14.22000      1.3601847E-09
   14.28000      1.2060203E-09
   14.34000      1.0542918E-09
   14.40000      9.1336250E-10
   14.46000      7.8817114E-10
   14.52000      6.7983669E-10
   14.58000      5.8647154E-10
   14.64000      5.0488813E-10
   14.70000      4.3252649E-10
   14.76000      3.6882111E-10
   14.82000      3.1545069E-10
   14.88000      2.7539937E-10
   14.94000      2.5130820E-10
   15.00000      2.4394584E-10
   15.06000      2.5158906E-10
   15.12000      2.7066496E-10
   15.18000      2.9735725E-10
   15.24000      3.2933636E-10
   15.30000      3.6662923E-10
   15.36000      4.1101081E-10
   15.42000      4.6403784E-10
   15.48000      5.2461263E-10
   15.54000      5.8736327E-10
   15.60000      6.4290995E-10
   15.66000      6.8028477E-10
   15.72000      6.9071471E-10
   15.78000      6.7116868E-10
   15.84000      6.2594291E-10
   15.90000      5.6526672E-10
   15.96000      5.0121163E-10
   16.02000      4.4250553E-10
   16.08000      3.9055595E-10
   16.14000      3.3865188E-10
   16.20000      2.7501054E-10
   16.26000      1.8859748E-10
   16.32000      7.5278575E-11
   16.38000     -5.8464865E-11
   16.44000     -1.9608867E-10
   16.50000     -3.1582700E-10
   16.56000     -3.9796622E-10
   16.62000     -4.3162232E-10
   16.68000     -4.1831036E-10
   16.74000     -3.7098291E-10
   16.80000     -3.0912106E-10
   16.86000     -2.5201502E-10
   16.92000     -2.1292090E-10
   16.98000     -1.9616676E-10
   17.04000     -1.9788210E-10
   17.10000     -2.0951792E-10
   17.16000     -2.2234933E-10
   17.22000     -2.3104033E-10
   17.28000     -2.3501945E-10
   17.34000     -2.3748653E-10
   17.40000     -2.4286020E-10
   17.46000     -2.5401695E-10
   17.52000     -2.7061453E-10
   17.58000     -2.8922151E-10
   17.64000     -3.0514954E-10
   17.70000     -3.1512579E-10
   17.76000     -3.1955022E-10
   17.82000     -3.2321434E-10
   17.88000     -3.3398367E-10
   17.94000     -3.5983030E-10
   18.00000     -4.0537299E-10
   18.06000     -4.6938753E-10
   18.12000     -5.4441912E-10
   18.18000     -6.1877403E-10
   18.24000     -6.8015832E-10
   18.30000     -7.1952422E-10
   18.36000     -7.3360956E-10
   18.42000     -7.2524292E-10
   18.48000     -7.0146322E-10
   18.54000     -6.7040634E-10
   18.60000     -6.3834915E-10
   18.66000     -6.0809791E-10
   18.72000     -5.7920863E-10
   18.78000     -5.4967486E-10
   18.84000     -5.1810467E-10
   18.90000     -4.8527993E-10
   18.96000     -4.5436130E-10
   19.02000     -4.2967332E-10
   19.08000     -4.1465387E-10
   19.14000     -4.0991655E-10
   19.20000     -4.1229695E-10
   19.26000     -4.1530426E-10
   19.32000     -4.1077891E-10
   19.38000     -3.9105627E-10
   19.44000     -3.5076583E-10
   19.50000     -2.8762451E-10
   19.56000     -2.0208055E-10
   19.62000     -9.6184026E-11
   19.68000      2.7655567E-11
   19.74000      1.6743111E-10
   19.80000      3.2157707E-10
   19.86000      4.8846616E-10
   19.92000      6.6580158E-10
   19.98000      8.5031648E-10
   20.04000      1.0379358E-09
   20.10000      1.2242561E-09
   20.16000      1.4050325E-09
   20.22000      1.5764272E-09
   20.28000      1.7349804E-09
   20.34000      1.8774788E-09
   20.40000      2.0009634E-09
   20.46000      2.1030191E-09
   20.52000      2.1823048E-09
   20.58000      2.2391171E-09
   20.64000      2.2757520E-09
   20.70000      2.2964890E-09
   20.76000      2.3071591E-09
   20.82000      2.3143492E-09
   20.88000      2.3243774E-09
   20.94000      2.3422093E-09
   21.00000      2.3705393E-09
   21.06000      2.4092806E-09
   21.12000      2.4556726E-09
   21.18000      2.5050653E-09
   21.24000      2.5522011E-09
   21.30000      2.5926044E-09
   21.36000      2.6235822E-09
   21.42000      2.6444620E-09
   21.48000      2.6559688E-09
   21.54000      2.6590006E-09
   21.60000      2.6533149E-09
   21.66000      2.6367049E-09
   21.72000      2.6050755E-09
   21.78000      2.5535165E-09
   21.84000      2.4780751E-09
   21.90000      2.3776463E-09
   21.96000      2.2552478E-09
   22.02000      2.1180795E-09
   22.08000      1.9761210E-09
   22.14000      1.8395645E-09
   22.20000      1.7158750E-09
   22.26000      1.6075470E-09
   22.32000      1.5114617E-09
   22.38000      1.4201930E-09
   22.44000      1.3248347E-09
   22.50000      1.2182901E-09
   22.56000      1.0977631E-09
   22.62000      9.6554131E-10
   22.68000      8.2788809E-10
   22.74000      6.9262807E-10
   22.80000      5.6645955E-10
   22.86000      4.5300627E-10
   22.92000      3.5218808E-10
   22.98000      2.6091351E-10
   23.04000      1.7462970E-10
   23.10000      8.9066914E-11
   23.16000      1.5758189E-12
   23.22000     -8.8321093E-11
   23.28000     -1.7926133E-10
   23.34000     -2.6908104E-10
   23.40000     -3.5615688E-10
   23.46000     -4.4052215E-10
   23.52000     -5.2427634E-10
   23.58000     -6.1106825E-10
   23.64000     -7.0484257E-10
   23.70000     -8.0841828E-10
   23.76000     -9.2259772E-10
   23.82000     -1.0462753E-09
   23.88000     -1.1775053E-09
   23.94000     -1.3149657E-09
   24.00000     -1.4590070E-09
   24.06000     -1.6116788E-09
   24.12000     -1.7756452E-09
   24.18000     -1.9524882E-09
   24.24000     -2.1412159E-09
   24.30000     -2.3376925E-09
   24.36000     -2.5352855E-09
   24.42000     -2.7264913E-09
   24.48000     -2.9049327E-09
   24.54000     -3.0670237E-09
   24.60000     -3.2127505E-09
   24.66000     -3.3453289E-09
   24.72000     -3.4698444E-09
   24.78000     -3.5912961E-09
   24.84000     -3.7126844E-09
   24.90000     -3.8338253E-09
   24.96000     -3.9513779E-09
   25.02000     -4.0601158E-09
   25.08000     -4.1549404E-09
   25.14000     -4.2327537E-09
   25.20000     -4.2933275E-09
   25.26000     -4.3387911E-09
   25.32000     -4.3720596E-09
   25.38000     -4.3950883E-09
   25.44000     -4.4079154E-09
   25.50000     -4.4089594E-09
   25.56000     -4.3963384E-09
   25.62000     -4.3693671E-09
   25.68000     -4.3293689E-09
   25.74000     -4.2793911E-09
   25.80000     -4.2230730E-09
   25.86000     -4.1633972E-09
   25.92000     -4.1020023E-09
   25.98000     -4.0393098E-09
   26.04000     -3.9751744E-09
   26.10000     -3.9094883E-09
   26.16000     -3.8422807E-09
   26.22000     -3.7732608E-09
   26.28000     -3.7011161E-09
   26.34000     -3.6230345E-09
   26.40000     -3.5347907E-09
   26.46000     -3.4314627E-09
   26.52000     -3.3086385E-09
   26.58000     -3.1638450E-09
   26.64000     -2.9978930E-09
   26.70000     -2.8157665E-09
   26.76000     -2.6266209E-09
   26.82000     -2.4425304E-09
   26.88000     -2.2759357E-09
   26.94000     -2.1362920E-09
   27.00000     -2.0269704E-09
   27.06000     -1.9436628E-09
   27.12000     -1.8751838E-09
   27.18000     -1.8066937E-09
   27.24000     -1.7243700E-09
   27.30000     -1.6198926E-09
   27.36000     -1.4931421E-09
   27.42000     -1.3521912E-09
   27.48000     -1.2107022E-09
   27.54000     -1.0837465E-09
   27.60000     -9.8352559E-10
   27.66000     -9.1636548E-10
   27.72000     -8.8185470E-10
   27.78000     -8.7427565E-10
   27.84000     -8.8577490E-10
   27.90000     -9.1016467E-10
   27.96000     -9.4597963E-10
   28.02000     -9.9755459E-10
   28.08000     -1.0734958E-09
   28.14000     -1.1828871E-09
   28.20000     -1.3305715E-09
   28.26000     -1.5134323E-09
   28.32000     -1.7194105E-09
   28.38000     -1.9300030E-09
   28.44000     -2.1255553E-09
   28.50000     -2.2914430E-09
   28.56000     -2.4227766E-09
   28.62000     -2.5258093E-09
   28.68000     -2.6155353E-09
   28.74000     -2.7104228E-09
   28.80000     -2.8262592E-09
   28.86000     -2.9712772E-09
   28.92000     -3.1441119E-09
   28.98000     -3.3350458E-09
   29.04000     -3.5298351E-09
   29.10000     -3.7146233E-09
   29.16000     -3.8802073E-09
   29.22000     -4.0242560E-09
   29.28000     -4.1508561E-09
   29.34000     -4.2677204E-09
   29.40000     -4.3822168E-09
   29.46000     -4.4977764E-09
   29.52000     -4.6120765E-09
   29.58000     -4.7176565E-09
   29.64000     -4.8046704E-09
   29.70000     -4.8646287E-09
   29.76000     -4.8936108E-09
   29.82000     -4.8936943E-09
   29.88000     -4.8720827E-09
   29.94000     -4.8383124E-09
   30.00000     -4.8006390E-09
   30.06000     -4.7629540E-09
   30.12000     -4.7233444E-09
   30.18000     -4.6748023E-09
   30.24000     -4.6078017E-09
   30.30000     -4.5138173E-09
   30.36000     -4.3885193E-09
   30.42000     -4.2334829E-09
   30.48000     -4.0558197E-09
   30.54000     -3.8659143E-09
   30.60000     -3.6741854E-09
   30.66000     -3.4881489E-09
   30.72000     -3.3108540E-09
   30.78000     -3.1411382E-09
   30.84000     -2.9753500E-09
   30.90000     -2.8096541E-09
   30.96000     -2.6419398E-09
   31.02000     -2.4727029E-09
   31.08000     -2.3047764E-09
   31.14000     -2.1421858E-09
   31.20000     -1.9885595E-09
   31.26000     -1.8454877E-09
   31.32000     -1.7111921E-09
   31.38000     -1.5799113E-09
   31.44000     -1.4424321E-09
   31.50000     -1.2880303E-09
   31.56000     -1.1076067E-09
   31.62000     -8.9714997E-10
   31.68000     -6.6020905E-10
   31.74000     -4.0814066E-10
   31.80000     -1.5764480E-10
   31.86000      7.3787108E-11
   31.92000      2.7294897E-10
   31.98000      4.3467033E-10
   32.04000      5.6290850E-10
   32.10000      6.6889405E-10
   32.16000      7.6710616E-10
   32.22000      8.7050150E-10
   32.28000      9.8649122E-10
   32.34000      1.1147800E-09
   32.40000      1.2475975E-09
   32.46000      1.3722369E-09
   32.52000      1.4752344E-09
   32.58000      1.5470105E-09
   32.64000      1.5854924E-09
   32.70000      1.5973682E-09
   32.76000      1.5963320E-09
   32.82000      1.5988085E-09
   32.88000      1.6187465E-09
   32.94000      1.6635348E-09
   33.00000      1.7326308E-09
   33.06000      1.8192445E-09
   33.12000      1.9140487E-09
   33.18000      2.0091151E-09
   33.24000      2.1004638E-09
   33.30000      2.1885505E-09
   33.36000      2.2770754E-09
   33.42000      2.3710558E-09
   33.48000      2.4749873E-09
   33.54000      2.5914157E-09
   33.60000      2.7198828E-09
   33.66000      2.8562865E-09
   33.72000      2.9930425E-09
   33.78000      3.1205747E-09
   33.84000      3.2302301E-09
   33.90000      3.3178138E-09
   33.96000      3.3861451E-09
   34.02000      3.4450098E-09
   34.08000      3.5078886E-09
   34.14000      3.5864407E-09
   34.20000      3.6850349E-09
   34.26000      3.7978314E-09
   34.32000      3.9098440E-09
   34.38000      4.0015999E-09
   34.44000      4.0554284E-09
   34.50000      4.0608561E-09
   34.56000      4.0171950E-09
   34.62000      3.9327706E-09
   34.68000      3.8215382E-09
   34.74000      3.6985852E-09
   34.80000      3.5760408E-09
   34.86000      3.4604806E-09
   34.92000      3.3523453E-09
   34.98000      3.2473206E-09
   35.04000      3.1391201E-09
   35.10000      3.0226694E-09
   35.16000      2.8964833E-09
   35.22000      2.7632627E-09
   35.28000      2.6284894E-09
   35.34000      2.4977647E-09
   35.40000      2.3743325E-09
   35.46000      2.2581319E-09
   35.52000      2.1468578E-09
   35.58000      2.0382938E-09
   35.64000      1.9324240E-09
   35.70000      1.8319872E-09
   35.76000      1.7411507E-09
   35.82000      1.6631765E-09
   35.88000      1.5985718E-09
   35.94000      1.5448302E-09
   36.00000      1.4978231E-09
   36.06000      1.4538837E-09
   36.12000      1.4113187E-09
   36.18000      1.3706246E-09
   36.24000      1.3336072E-09
   36.30000      1.3022224E-09
   36.36000      1.2778744E-09
   36.42000      1.2612884E-09
   36.48000      1.2524941E-09
   36.54000      1.2504049E-09
   36.60000      1.2520160E-09
   36.66000      1.2518869E-09
   36.72000      1.2427454E-09
   36.78000      1.2174818E-09
   36.84000      1.1718213E-09
   36.90000      1.1062605E-09
   36.96000      1.0259862E-09
   37.02000      9.3849384E-10
   37.08000      8.4991025E-10
   37.14000      7.6183027E-10
   37.20000      6.7030070E-10
   37.26000      5.6753968E-10
   37.32000      4.4565837E-10
   37.38000      3.0075306E-10
   37.44000      1.3564469E-10
   37.50000     -3.9827756E-11
   37.56000     -2.1108632E-10
   37.62000     -3.6290110E-10
   37.68000     -4.8395943E-10
   37.74000     -5.7042315E-10
   37.80000     -6.2722055E-10
   37.86000     -6.6645783E-10
   37.92000     -7.0330081E-10
   37.98000     -7.5069162E-10
   38.04000     -8.1489326E-10
   38.10000     -8.9367203E-10
   38.16000     -9.7786557E-10
   38.22000     -1.0555777E-09
   38.28000     -1.1170439E-09
   38.34000     -1.1580005E-09
   38.40000     -1.1802893E-09
   38.46000     -1.1899076E-09
   38.52000     -1.1939032E-09
   38.58000     -1.1977631E-09
   38.64000     -1.2042372E-09
   38.70000     -1.2134626E-09
   38.76000     -1.2235826E-09
   38.82000     -1.2311693E-09
   38.88000     -1.2314268E-09
   38.94000     -1.2187206E-09
   39.00000     -1.1879183E-09
   39.06000     -1.1363489E-09
   39.12000     -1.0654169E-09
   39.18000     -9.8073316E-10
   39.24000     -8.9027991E-10
   39.30000     -8.0126228E-10
   39.36000     -7.1715167E-10
   39.42000     -6.3640393E-10
   39.48000     -5.5343380E-10
   39.54000     -4.6122148E-10
   39.60000     -3.5419243E-10
   39.66000     -2.3012312E-10
   39.72000     -9.0595649E-11
   39.78000      5.9668472E-11
   39.84000      2.1394644E-10
   39.90000      3.6471243E-10
   39.96000      5.0490556E-10
   40.02000      6.2939026E-10
   40.08000      7.3640144E-10
   40.14000      8.2829449E-10
   40.20000      9.1083324E-10
   40.26000      9.9080755E-10
   40.32000      1.0727441E-09
   40.38000      1.1562156E-09
   40.44000      1.2351947E-09
   40.50000      1.2999728E-09
   40.56000      1.3408654E-09
   40.62000      1.3520416E-09
   40.68000      1.3338258E-09
   40.74000      1.2926675E-09
   40.80000      1.2390804E-09
   40.86000      1.1845837E-09
   40.92000      1.1387610E-09
   40.98000      1.1071586E-09
   41.04000      1.0903159E-09
   41.10000      1.0840113E-09
   41.16000      1.0807609E-09
   41.22000      1.0724447E-09
   41.28000      1.0534822E-09
   41.34000      1.0234452E-09
   41.40000      9.8780950E-10
   41.46000      9.5609198E-10
   41.52000      9.3778896E-10
   41.58000      9.3773911E-10
   41.64000      9.5304908E-10
   41.70000      9.7312691E-10
   41.76000      9.8294839E-10
   41.82000      9.6816921E-10
   41.88000      9.1994229E-10
   41.94000      8.3760898E-10
   42.00000      7.2853690E-10
   42.06000      6.0557087E-10
   42.12000      4.8326776E-10
   42.18000      3.7412368E-10
   42.24000      2.8565705E-10
   42.30000      2.1884980E-10
   42.36000      1.6825152E-10
   42.42000      1.2387498E-10
   42.48000      7.4618686E-11
   42.54000      1.2339779E-11
   42.60000     -6.4829371E-11
   42.66000     -1.5132315E-10
   42.72000     -2.3580113E-10
   42.78000     -3.0506170E-10
   42.84000     -3.4860043E-10
   42.90000     -3.6193754E-10
   42.96000     -3.4750472E-10
   43.02000     -3.1307942E-10
   43.08000     -2.6876967E-10
   43.14000     -2.2387869E-10
   43.20000     -1.8459632E-10
   43.26000     -1.5281953E-10
   43.32000     -1.2599548E-10
   43.38000     -9.7888218E-11
   43.44000     -6.0330886E-11
   43.50000     -5.9294726E-12
   43.56000      6.8825834E-11
   43.62000      1.6120966E-10
   43.68000      2.6199992E-10
   43.74000      3.5795852E-10
   43.80000      4.3637832E-10
   43.86000      4.8978410E-10
   43.92000      5.1855253E-10
   43.98000      5.3013549E-10
   44.04000      5.3529414E-10
   44.10000      5.4327509E-10
   44.16000      5.5830590E-10
   44.22000      5.7891031E-10
   44.28000      5.9993166E-10
   44.34000      6.1578914E-10
   44.40000      6.2314204E-10
   44.46000      6.2184280E-10
   44.52000      6.1423716E-10
   44.58000      6.0371169E-10
   44.64000      5.9347227E-10
   44.70000      5.8599708E-10
   44.76000      5.8299354E-10
   44.82000      5.8545135E-10
   44.88000      5.9361022E-10
   44.94000      6.0700922E-10
   45.00000      6.2488625E-10
   45.06000      6.4692518E-10
   45.12000      6.7396894E-10
   45.18000      7.0820599E-10
   45.24000      7.5264656E-10
   45.30000      8.1021706E-10
   45.36000      8.8307617E-10
   45.42000      9.7251551E-10
   45.48000      1.0792088E-09
   45.54000      1.2031196E-09
   45.60000      1.3425383E-09
   45.66000      1.4925124E-09
   45.72000      1.6438243E-09
   45.78000      1.7839105E-09
   45.84000      1.9003079E-09
   45.90000      1.9856630E-09
   45.96000      2.0419766E-09
   46.02000      2.0815480E-09
   46.08000      2.1233537E-09
   46.14000      2.1858237E-09
   46.20000      2.2789306E-09
   46.26000      2.3991098E-09
   46.32000      2.5294045E-09
   46.38000      2.6449418E-09
   46.44000      2.7215838E-09
   46.50000      2.7443985E-09
   46.56000      2.7128748E-09
   46.62000      2.6412341E-09
   46.68000      2.5539719E-09
   46.74000      2.4782083E-09
   46.80000      2.4352016E-09
   46.86000      2.4334916E-09
   46.92000      2.4657258E-09
   46.98000      2.5103335E-09
   47.04000      2.5379121E-09
   47.10000      2.5206288E-09
   47.16000      2.4416460E-09
   47.22000      2.3011761E-09
   47.28000      2.1167044E-09
   47.34000      1.9170281E-09
   47.40000      1.7322316E-09
   47.46000      1.5834184E-09
   47.52000      1.4761157E-09
   47.58000      1.3996696E-09
   47.64000      1.3324422E-09
   47.70000      1.2503723E-09
   47.76000      1.1354420E-09
   47.82000      9.8107533E-10
   47.88000      7.9304829E-10
   47.94000      5.8625454E-10
   48.00000      3.7896705E-10
   48.06000      1.8670647E-10
   48.12000      1.7602192E-11
   48.18000     -1.2952528E-10
   48.24000     -2.6397476E-10
   48.30000     -3.9935927E-10
   48.36000     -5.4845395E-10
   48.42000     -7.1843348E-10
   48.48000     -9.0815550E-10
   48.54000     -1.1084411E-09
   48.60000     -1.3051726E-09
   48.66000     -1.4839621E-09
   48.72000     -1.6346263E-09
   48.78000     -1.7539749E-09
   48.84000     -1.8462522E-09
   48.90000     -1.9215103E-09
   48.96000     -1.9927364E-09
   49.02000     -2.0726014E-09
   49.08000     -2.1704332E-09
   49.14000     -2.2898086E-09
   49.20000     -2.4271856E-09
   49.26000     -2.5721079E-09
   49.32000     -2.7093914E-09
   49.38000     -2.8231242E-09
   49.44000     -2.9014626E-09
   49.50000     -2.9405367E-09
   49.56000     -2.9458291E-09
   49.62000     -2.9302791E-09
   49.68000     -2.9097229E-09
   49.74000     -2.8974405E-09
   49.80000     -2.8999143E-09
   49.86000     -2.9152867E-09
   49.92000     -2.9347971E-09
   49.98000     -2.9463214E-09
   50.04000     -2.9385407E-09
   50.10000     -2.9043696E-09
   50.16000     -2.8428107E-09
   50.22000     -2.7590301E-09
   50.28000     -2.6628879E-09
   50.34000     -2.5664006E-09
   50.40000     -2.4807605E-09
   50.46000     -2.4136380E-09
   50.52000     -2.3675120E-09
   50.58000     -2.3395474E-09
   50.64000     -2.3230835E-09
   50.70000     -2.3102162E-09
   50.76000     -2.2945357E-09
   50.82000     -2.2730324E-09
   50.88000     -2.2465674E-09
   50.94000     -2.2188973E-09
   51.00000     -2.1948174E-09
   51.06000     -2.1782514E-09
   51.12000     -2.1710429E-09
   51.18000     -2.1728435E-09
   51.24000     -2.1820425E-09
   51.30000     -2.1972990E-09
   51.36000     -2.2190505E-09
   51.42000     -2.2504365E-09
   51.48000     -2.2973554E-09
   51.54000     -2.3677444E-09
   51.60000     -2.4704800E-09
   51.66000     -2.6143616E-09
   51.72000     -2.8074596E-09
   51.78000     -3.0568115E-09
   51.84000     -3.3682510E-09
   51.90000     -3.7462060E-09
   51.96000     -4.1935615E-09
   52.02000     -4.7119171E-09
   52.08000     -5.3025175E-09
   52.14000     -5.9677734E-09
   52.20000     -6.7128383E-09
   52.26000     -7.5464905E-09
   52.32000     -8.4808134E-09
   52.38000     -9.5296988E-09
   52.44000     -1.0706758E-08
   52.50000     -1.2023317E-08
   52.56000     -1.3486941E-08
   52.62000     -1.5100587E-08
   52.68000     -1.6862245E-08
   52.74000     -1.8765240E-08
   52.80000     -2.0799510E-08
   52.86000     -2.2954120E-08
   52.92000     -2.5220467E-08
   52.98000     -2.7594952E-08
   53.04000     -3.0079452E-08
   53.10000     -3.2678692E-08
   53.16000     -3.5395058E-08
   53.22000     -3.8222950E-08
   53.28000     -4.1145093E-08
   53.34000     -4.4132381E-08
   53.40000     -4.7146866E-08
   53.46000     -5.0146074E-08
   53.52000     -5.3086492E-08
   53.58000     -5.5925039E-08
   53.64000     -5.8618813E-08
   53.70000     -6.1124112E-08
   53.76000     -6.3395476E-08
   53.82000     -6.5384413E-08
   53.88000     -6.7037305E-08
   53.94000     -6.8292174E-08
   54.00000     -6.9075689E-08
   54.06000     -6.9302430E-08
   54.12000     -6.8877732E-08
   54.18000     -6.7703986E-08
   54.24000     -6.5687367E-08
   54.30000     -6.2741982E-08
   54.36000     -5.8789233E-08
   54.42000     -5.3753261E-08
   54.48000     -4.7555375E-08
   54.54000     -4.0110891E-08
   54.60000     -3.1330035E-08
   54.66000     -2.1122174E-08
   54.72000     -9.4011385E-09
   54.78000      3.9102952E-09
   54.84000      1.8877357E-08
   54.90000      3.5550880E-08
   54.96000      5.3965120E-08
   55.02000      7.4136338E-08
   55.08000      9.6063559E-08
   55.14000      1.1973205E-07
   55.20000      1.4511863E-07
   55.26000      1.7219550E-07
   55.32000      2.0092948E-07
   55.38000      2.3127599E-07
   55.44000      2.6316965E-07
   55.50000      2.9651594E-07
   55.56000      3.3118738E-07