  -2.400000      0.0000000E+00
  -2.340000      0.0000000E+00
  -2.280000      0.0000000E+00
  -2.220000      0.0000000E+00
  -2.160000      0.0000000E+00
  -2.100000     -2.1942369E-21
  -2.040000     -1.4874845E-20
  -1.980000     -4.3658386E-20
  -1.920000     -4.4486332E-20
  -1.860000      1.6222594E-19
  -1.800000      9.4018393E-19
  -1.740000      2.6916236E-18
  -1.680000      5.3803735E-18
  -1.620000      7.7792300E-18
  -1.560000      6.7990119E-18
  -1.500000     -2.5208536E-18
  -1.440000     -2.5776291E-17
  -1.380000     -6.6282294E-17
  -1.320000     -1.2021380E-16
  -1.260000     -1.6999046E-16
  -1.200000     -1.7767920E-16
  -1.140000     -8.3637694E-17
  -1.080000      1.8024538E-16
  -1.020000      6.5294546E-16
 -0.9600000      1.2820348E-15
 -0.9000000      1.8583274E-15
 -0.8400000      1.9954472E-15
 -0.7800000      1.2132493E-15
 -0.7200000     -8.4391756E-16
 -0.6600000     -4.0977159E-15
 -0.6000000     -7.7743267E-15
 -0.5400000     -1.0387639E-14
 -0.4800000     -1.0118635E-14
 -0.4200000     -5.5721923E-15
 -0.3600000      3.3455900E-15
 -0.3000000      1.4862503E-14
 -0.2400000      2.5496620E-14
 -0.1800000      3.1066902E-14
 -0.1200000      2.8262355E-14
 -5.9999999E-02  1.6118239E-14
  0.0000000E+00 -3.3034675E-15
  5.9999999E-02 -2.5396950E-14
  0.1200000     -4.4457456E-14
  0.1800000     -5.5411408E-14
  0.2400000     -5.5075410E-14
  0.3000000     -4.2569647E-14
  0.3600000     -1.9101443E-14
  0.4200000      1.2296726E-14
  0.4800000      4.6653209E-14
  0.5400000      7.6772159E-14
  0.6000000      9.3609894E-14
  0.6600000      8.8196696E-14
  0.7200000      5.5204810E-14
  0.7800000     -3.0251060E-15
  0.8400000     -7.4162539E-14
  0.9000000     -1.3729084E-13
  0.9600000     -1.6857446E-13
   1.020000     -1.4955277E-13
   1.080000     -7.4775472E-14
   1.140000      4.4561682E-14
   1.200000      1.8260335E-13
   1.260000      3.0548150E-13
   1.320000      3.7971560E-13
   1.380000      3.7929534E-13
   1.440000      2.8997662E-13
   1.500000      1.1148104E-13
   1.560000     -1.4065146E-13
   1.620000     -4.3275878E-13
   1.680000     -7.1190769E-13
   1.740000     -9.0953937E-13
   1.800000     -9.5326720E-13
   1.860000     -7.8689984E-13
   1.920000     -3.9376667E-13
   1.980000      1.8557905E-13
   2.040000      8.5050548E-13
   2.100000      1.4571790E-12
   2.160000      1.8525207E-12
   2.220000      1.9152295E-12
   2.280000      1.5901724E-12
   2.340000      9.0440383E-13
   2.400000     -4.0020836E-14
   2.460000     -1.0922080E-12
   2.520000     -2.0859534E-12
   2.580000     -2.8663391E-12
   2.640000     -3.2983204E-12
   2.700000     -3.2543874E-12
   2.760000     -2.5887020E-12
   2.820000     -1.1139233E-12
   2.880000      1.3994100E-12
   2.940000      5.1849614E-12
   3.000000      1.0399736E-11
   3.060000      1.7012369E-11
   3.120000      2.4688656E-11
   3.180000      3.2711334E-11
   3.240000      3.9967907E-11
   3.300000      4.5023631E-11
   3.360000      4.6270987E-11
   3.420000      4.2120401E-11
   3.480000      3.1179861E-11
   3.540000      1.2370766E-11
   3.600000     -1.5054513E-11
   3.660000     -5.1596463E-11
   3.720000     -9.7662281E-11
   3.780000     -1.5373285E-10
   3.840000     -2.2047808E-10
   3.900000     -2.9876912E-10
   3.960000     -3.8956618E-10
   4.020000     -4.9369930E-10
   4.080000     -6.1159294E-10
   4.140000     -7.4300582E-10
   4.200000     -8.8685409E-10
   4.260000     -1.0411685E-09
   4.320000     -1.2032010E-09
   4.380000     -1.3696666E-09
   4.440000     -1.5370758E-09
   4.500000     -1.7021065E-09
   4.560000     -1.8619570E-09
   4.620000     -2.0146278E-09
   4.680000     -2.1590849E-09
   4.740000     -2.2952682E-09
   4.800000     -2.4239224E-09
   4.860000     -2.5462736E-09
   4.920000     -2.6636044E-09
   4.980000     -2.7768381E-09
   5.040000     -2.8862446E-09
   5.100000     -2.9913694E-09
   5.160000     -3.0912057E-09
   5.220000     -3.1845451E-09
   5.280000     -3.2703651E-09
   5.340000     -3.3480947E-09
   5.400000     -3.4176506E-09
   5.460000     -3.4792373E-09
   5.520000     -3.5330208E-09
   5.580000     -3.5788328E-09
   5.640000     -3.6160548E-09
   5.700000     -3.6437331E-09
   5.760000     -3.6608636E-09
   5.820000     -3.6667118E-09
   5.880000     -3.6610288E-09
   5.940000     -3.6440826E-09
   6.000000     -3.6165362E-09
   6.060000     -3.5792580E-09
   6.120000     -3.5331593E-09
   6.180000     -3.4791068E-09
   6.240000     -3.4178784E-09
   6.300000     -3.3500940E-09
   6.360000     -3.2760856E-09
   6.420000     -3.1957252E-09
   6.480000     -3.1083025E-09
   6.540000     -3.0125620E-09
   6.600000     -2.9069434E-09
   6.660000     -2.7899862E-09
   6.720000     -2.6607727E-09
   6.780000     -2.5192748E-09
   6.840000     -2.3665201E-09
   6.900000     -2.2045943E-09
   6.960000     -2.0365474E-09
   7.020000     -1.8662640E-09
   7.080000     -1.6982905E-09
   7.140000     -1.5375279E-09
   7.200000     -1.3886982E-09
   7.260000     -1.2555882E-09
   7.320000     -1.1402322E-09
   7.380000     -1.0423319E-09
   7.440000     -9.5921271E-10
   7.500000     -8.8645030E-10
   7.560000     -8.1902524E-10
   7.620000     -7.5260559E-10
   7.680000     -6.8446615E-10
   7.740000     -6.1369010E-10
   7.800000     -5.4062044E-10
   7.860000     -4.6587378E-10
   7.920000     -3.8942935E-10
   7.980000     -3.1024971E-10
   8.040000     -2.2660455E-10
   8.100000     -1.3690535E-10
   8.160000     -4.0601213E-11
   8.220000      6.1331967E-11
   8.280000      1.6655466E-10
   8.340000      2.7208791E-10
   8.400000      3.7523690E-10
   8.460000      4.7428589E-10
   8.520000      5.6869465E-10
   8.580000      6.5880668E-10
   8.640000      7.4532225E-10
   8.700000      8.2886020E-10
   8.760000      9.0981572E-10
   8.820000      9.8849018E-10
   8.880000      1.0652843E-09
   8.940000      1.1407041E-09
   9.000000      1.2150648E-09
   9.060000      1.2880033E-09
   9.120000      1.3580825E-09
   9.180000      1.4227899E-09
   9.240000      1.4790711E-09
   9.300000      1.5242791E-09
   9.360000      1.5571957E-09
   9.420000      1.5787109E-09
   9.480000      1.5918658E-09
   9.540000      1.6012061E-09
   9.600000      1.6116616E-09
   9.660000      1.6273225E-09
   9.720000      1.6504887E-09
   9.780000      1.6812477E-09
   9.840000      1.7176414E-09
   9.900000      1.7563233E-09
   9.960000      1.7934981E-09
   10.02000      1.8259031E-09
   10.08000      1.8516023E-09
   10.14000      1.8704103E-09
   10.20000      1.8838358E-09
   10.26000      1.8945532E-09
   10.32000      1.9055397E-09
   10.38000      1.9191444E-09
   10.44000      1.9363897E-09
   10.50000      1.9567330E-09
   10.56000      1.9783293E-09
   10.62000      1.9986293E-09
   10.68000      2.0150208E-09
   10.74000      2.0252444E-09
   10.80000      2.0274835E-09
   10.86000      2.0202562E-09
   10.92000      2.0023512E-09
   10.98000      1.9730260E-09
   11.04000      1.9324584E-09
   11.10000      1.8822202E-09
   11.16000      1.8254073E-09
   11.22000      1.7661757E-09
   11.28000      1.7087134E-09
   11.34000      1.6560162E-09
   11.40000      1.6090056E-09
   11.46000      1.5664268E-09
   11.52000      1.5256285E-09
   11.58000      1.4839052E-09
   11.64000      1.4398179E-09
   11.70000      1.3939164E-09
   11.76000      1.3485770E-09
   11.82000      1.3070716E-09
   11.88000      1.2723073E-09
   11.94000      1.2457598E-09
   12.00000      1.2269723E-09
   12.06000      1.2137046E-09
   12.12000      1.2025644E-09
   12.18000      1.1898392E-09
   12.24000      1.1722909E-09
   12.30000      1.1477865E-09
   12.36000      1.1157278E-09
   12.42000      1.0772524E-09
   12.48000      1.0351389E-09
   12.54000      9.9333164E-10
   12.60000      9.5607289E-10
   12.66000      9.2678737E-10
   12.72000      9.0703089E-10
   12.78000      8.9588403E-10
   12.84000      8.9007518E-10
   12.90000      8.8486668E-10
   12.96000      8.7543622E-10
   13.02000      8.5827018E-10
   13.08000      8.3206525E-10
   13.14000      7.9782814E-10
   13.20000      7.5818912E-10
   13.26000      7.1626099E-10
   13.32000      6.7453770E-10
   13.38000      6.3427164E-10
   13.44000      5.9552108E-10
   13.50000      5.5774058E-10
   13.56000      5.2054644E-10
   13.62000      4.8423004E-10
   13.68000      4.4974380E-10
   13.74000      4.1816173E-10
   13.80000      3.8988993E-10
   13.86000      3.6403841E-10
   13.92000      3.3830405E-10
   13.98000      3.0948724E-10
   14.04000      2.7448147E-10
   14.10000      2.3136301E-10
   14.16000      1.8015717E-10
   14.22000      1.2297614E-10
   14.28000      6.3456664E-11
   14.34000      5.6731091E-12
   14.40000     -4.7122351E-11
   14.46000     -9.3524466E-11
   14.52000     -1.3442712E-10
   14.58000     -1.7273401E-10
   14.64000     -2.1238331E-10
   14.70000     -2.5696648E-10
   14.76000     -3.0837910E-10
   14.82000     -3.6597517E-10
   14.88000     -4.2656276E-10
   14.94000     -4.8530269E-10
   15.00000     -5.3723420E-10
   15.06000     -5.7889077E-10
   15.12000     -6.0940269E-10
   15.18000     -6.3067174E-10
   15.24000     -6.4656219E-10
   15.30000     -6.6144917E-10
   15.36000     -6.7870098E-10
   15.42000     -6.9965689E-10
   15.48000     -7.2340528E-10
   15.54000     -7.4731044E-10
   15.60000     -7.6795265E-10
   15.66000     -7.8205936E-10
   15.72000     -7.8712925E-10
   15.78000     -7.8167972E-10
   15.84000     -7.6525275E-10
   15.90000     -7.3837586E-10
   15.96000     -7.0259409E-10
   16.02000     -6.6053751E-10
   16.08000     -6.1587013E-10
   16.14000     -5.7296351E-10
   16.20000     -5.3625043E-10
   16.26000     -5.0937377E-10
   16.32000     -4.9437149E-10
   16.38000     -4.9116322E-10
   16.44000     -4.9751836E-10
   16.50000     -5.0953536E-10
   16.56000     -5.2250682E-10
   16.62000     -5.3194493E-10
   16.68000     -5.3451377E-10
   16.74000     -5.2866489E-10
   16.80000     -5.1486349E-10
   16.86000     -4.9540388E-10
   16.92000     -4.7390697E-10
   16.98000     -4.5464790E-10
   17.04000     -4.4187692E-10
   17.10000     -4.3925535E-10
   17.16000     -4.4947068E-10
   17.22000     -4.7402832E-10
   17.28000     -5.1317856E-10
   17.34000     -5.6593386E-10
   17.40000     -6.3015337E-10
   17.46000     -7.0270684E-10
   17.52000     -7.7974144E-10
   17.58000     -8.5706692E-10
   17.64000     -9.3064040E-10
   17.70000     -9.9709241E-10
   17.76000     -1.0542138E-09
   17.82000     -1.1013158E-09
   17.88000     -1.1393945E-09
   17.94000     -1.1710503E-09
   18.00000     -1.2001509E-09
   18.06000     -1.2312527E-09
   18.12000     -1.2688494E-09
   18.18000     -1.3165631E-09
   18.24000     -1.3764394E-09
   18.30000     -1.4485078E-09
   18.36000     -1.5307243E-09
   18.42000     -1.6193034E-09
   18.48000     -1.7093251E-09
   18.54000     -1.7954159E-09
   18.60000     -1.8722885E-09
   18.66000     -1.9350213E-09
   18.72000     -1.9790982E-09
   18.78000     -2.0003661E-09
   18.84000     -1.9951052E-09
   18.90000     -1.9603492E-09
   18.96000     -1.8944202E-09
   19.02000     -1.7974957E-09
   19.08000     -1.6719435E-09
   19.14000     -1.5222211E-09
   19.20000     -1.3543048E-09
   19.26000     -1.1748063E-09
   19.32000     -9.9005815E-10
   19.38000     -8.0543811E-10
   19.44000     -6.2506916E-10
   19.50000     -4.5185194E-10
   19.56000     -2.8765357E-10
   19.62000     -1.3345162E-10
   19.68000      1.0677185E-11
   19.74000      1.4569097E-10
   19.80000      2.7368885E-10
   19.86000      3.9780715E-10
   19.92000      5.2179533E-10
   19.98000      6.4929712E-10
   20.04000      7.8300783E-10
   20.10000      9.2396435E-10
   20.16000      1.0712213E-09
   20.22000      1.2220610E-09
   20.28000      1.3727128E-09
   20.34000      1.5193726E-09
   20.40000      1.6591859E-09
   20.46000      1.7908469E-09
   20.52000      1.9145938E-09
   20.58000      2.0316084E-09
   20.64000      2.1430759E-09
   20.70000      2.2493147E-09
   20.76000      2.3493667E-09
   20.82000      2.4412441E-09
   20.88000      2.5227533E-09
   20.94000      2.5925460E-09
   21.00000      2.6509510E-09
   21.06000      2.7002283E-09
   21.12000      2.7441087E-09
   21.18000      2.7867750E-09
   21.24000      2.8316363E-09
   21.30000      2.8803222E-09
   21.36000      2.9322413E-09
   21.42000      2.9848579E-09
   21.48000      3.0346166E-09
   21.54000      3.0782246E-09
   21.60000      3.1138641E-09
   21.66000      3.1418854E-09
   21.72000      3.1646714E-09
   21.78000      3.1856393E-09
   21.84000      3.2076972E-09
   21.90000      3.2317418E-09
   21.96000      3.2558454E-09
   22.02000      3.2755667E-09
   22.08000      3.2853626E-09
   22.14000      3.2805989E-09
   22.20000      3.2593570E-09
   22.26000      3.2232828E-09
   22.32000      3.1771150E-09
   22.38000      3.1270886E-09
   22.44000      3.0788767E-09
   22.50000      3.0358982E-09
   22.56000      2.9986202E-09
   22.62000      2.9650282E-09
   22.68000      2.9319587E-09
   22.74000      2.8966789E-09
   22.80000      2.8580756E-09
   22.86000      2.8170308E-09
   22.92000      2.7759279E-09
   22.98000      2.7375384E-09
   23.04000      2.7037417E-09
   23.10000      2.6745339E-09
   23.16000      2.6476499E-09
   23.22000      2.6188793E-09
   23.28000      2.5829288E-09
   23.34000      2.5344993E-09
   23.40000      2.4692282E-09
   23.46000      2.3842315E-09
   23.52000      2.2782038E-09
   23.58000      2.1512103E-09
   23.64000      2.0044262E-09
   23.70000      1.8400262E-09
   23.76000      1.6612604E-09
   23.82000      1.4725713E-09
   23.88000      1.2795242E-09
   23.94000      1.0883658E-09
   24.00000      9.0522573E-10
   24.06000      7.3515960E-10
   24.12000      5.8135746E-10
   24.18000      4.4480217E-10
   24.24000      3.2451031E-10
   24.30000      2.1827709E-10
   24.36000      1.2368057E-10
   24.42000      3.9018368E-11
   24.48000     -3.6130616E-11
   24.54000     -1.0092135E-10
   24.60000     -1.5386885E-10
   24.66000     -1.9391723E-10
   24.72000     -2.2159444E-10
   24.78000     -2.3979471E-10
   24.84000     -2.5379102E-10
   24.90000     -2.7032879E-10
   24.96000     -2.9602470E-10
   25.02000     -3.3563741E-10
   25.08000     -3.9091433E-10
   25.14000     -4.6054319E-10
   25.20000     -5.4129484E-10
   25.26000     -6.2991867E-10
   25.32000     -7.2499484E-10
   25.38000     -8.2792839E-10
   25.44000     -9.4261909E-10
   25.50000     -1.0738909E-09
   25.56000     -1.2252823E-09
   25.62000     -1.3970584E-09
   25.68000     -1.5852221E-09
   25.74000     -1.7819293E-09
   25.80000     -1.9772008E-09
   25.86000     -2.1613815E-09
   25.92000     -2.3275388E-09
   25.98000     -2.4730162E-09
   26.04000     -2.5996276E-09
   26.10000     -2.7124234E-09
   26.16000     -2.8174518E-09
   26.22000     -2.9192830E-09
   26.28000     -3.0191638E-09
   26.34000     -3.1144525E-09
   26.40000     -3.1995013E-09
   26.46000     -3.2676293E-09
   26.52000     -3.3134255E-09
   26.58000     -3.3345506E-09
   26.64000     -3.3324437E-09
   26.70000     -3.3117966E-09
   26.76000     -3.2791005E-09
   26.82000     -3.2408383E-09
   26.88000     -3.2019238E-09
   26.94000     -3.1648013E-09
   27.00000     -3.1293541E-09
   27.06000     -3.0935352E-09
   27.12000     -3.0544631E-09
   27.18000     -3.0096490E-09
   27.24000     -2.9580201E-09
   27.30000     -2.9004488E-09
   27.36000     -2.8396407E-09
   27.42000     -2.7794231E-09
   27.48000     -2.7236811E-09
   27.54000     -2.6753177E-09
   27.60000     -2.6355984E-09
   27.66000     -2.6040803E-09
   27.72000     -2.5790974E-09
   27.78000     -2.5585749E-09
   27.84000     -2.5408733E-09
   27.90000     -2.5254239E-09
   27.96000     -2.5130307E-09
   28.02000     -2.5058111E-09
   28.08000     -2.5067806E-09
   28.14000     -2.5190925E-09
   28.20000     -2.5449944E-09
   28.26000     -2.5846667E-09
   28.32000     -2.6352762E-09
   28.38000     -2.6906530E-09
   28.44000     -2.7419129E-09
   28.50000     -2.7790756E-09
   28.56000     -2.7933511E-09
   28.62000     -2.7794584E-09
   28.68000     -2.7372533E-09
   28.74000     -2.6721150E-09
   28.80000     -2.5939249E-09
   28.86000     -2.5148996E-09
   28.92000     -2.4468778E-09
   28.98000     -2.3987954E-09
   29.04000     -2.3750162E-09
   29.10000     -2.3749409E-09
   29.16000     -2.3939686E-09
   29.22000     -2.4255038E-09
   29.28000     -2.4633799E-09
   29.34000     -2.5039035E-09
   29.40000     -2.5468021E-09
   29.46000     -2.5947118E-09
   29.52000     -2.6513556E-09
   29.58000     -2.7191032E-09
   29.64000     -2.7968856E-09
   29.70000     -2.8793645E-09
   29.76000     -2.9577876E-09
   29.82000     -3.0222971E-09
   29.88000     -3.0648657E-09
   29.94000     -3.0817489E-09
   30.00000     -3.0745102E-09
   30.06000     -3.0492007E-09
   30.12000     -3.0139582E-09
   30.18000     -2.9758798E-09
   30.24000     -2.9382781E-09
   30.30000     -2.8993090E-09
   30.36000     -2.8524669E-09
   30.42000     -2.7887892E-09
   30.48000     -2.7000169E-09
   30.54000     -2.5816056E-09
   30.60000     -2.4345415E-09
   30.66000     -2.2653472E-09
   30.72000     -2.0843176E-09
   30.78000     -1.9026620E-09
   30.84000     -1.7295934E-09
   30.90000     -1.5703512E-09
   30.96000     -1.4257231E-09
   31.02000     -1.2930111E-09
   31.08000     -1.1678760E-09
   31.14000     -1.0462535E-09
   31.20000     -9.2566804E-10
   31.26000     -8.0562257E-10
   31.32000     -6.8716238E-10
   31.38000     -5.7197785E-10
   31.44000     -4.6147988E-10
   31.50000     -3.5617365E-10
   31.56000     -2.5547339E-10
   31.62000     -1.5793961E-10
   31.68000     -6.1807011E-11
   31.74000      3.4391299E-11
   31.80000      1.3133378E-10
   31.86000      2.2877067E-10
   31.92000      3.2585881E-10
   31.98000      4.2191742E-10
   32.04000      5.1733889E-10
   32.10000      6.1424771E-10
   32.16000      7.1653239E-10
   32.22000      8.2910884E-10
   32.28000      9.5661523E-10
   32.34000      1.1020244E-09
   32.40000      1.2657264E-09
   32.46000      1.4454328E-09
   32.52000      1.6368832E-09
   32.58000      1.8349783E-09
   32.64000      2.0348174E-09
   32.70000      2.2322406E-09
   32.76000      2.4237912E-09
   32.82000      2.6063374E-09
   32.88000      2.7767404E-09
   32.94000      2.9318821E-09
   33.00000      3.0691025E-09
   33.06000      3.1868426E-09
   33.12000      3.2851462E-09
   33.18000      3.3657475E-09
   33.24000      3.4316623E-09
   33.30000      3.4864456E-09
   33.36000      3.5334033E-09
   33.42000      3.5750436E-09
   33.48000      3.6129151E-09
   33.54000      3.6478098E-09
   33.60000      3.6801593E-09
   33.66000      3.7104062E-09
   33.72000      3.7391898E-09
   33.78000      3.7672980E-09
   33.84000      3.7954768E-09
   33.90000      3.8242747E-09
   33.96000      3.8540966E-09
   34.02000      3.8855212E-09
   34.08000      3.9197676E-09
   34.14000      3.9590278E-09
   34.20000      4.0063415E-09
   34.26000      4.0648587E-09
   34.32000      4.1366093E-09
   34.38000      4.2212296E-09
   34.44000      4.3152490E-09
   34.50000      4.4124122E-09
   34.56000      4.5050959E-09
   34.62000      4.5863668E-09
   34.68000      4.6518434E-09
   34.74000      4.7005191E-09
   34.80000      4.7341064E-09
   34.86000      4.7551101E-09
   34.92000      4.7644675E-09
   34.98000      4.7598183E-09
   35.04000      4.7352589E-09
   35.10000      4.6827986E-09
   35.16000      4.5949853E-09
   35.22000      4.4676698E-09
   35.28000      4.3017794E-09
   35.34000      4.1033883E-09
   35.40000      3.8820240E-09
   35.46000      3.6478522E-09
   35.52000      3.4087688E-09
   35.58000      3.1684453E-09
   35.64000      2.9259788E-09
   35.70000      2.6772011E-09
   35.76000      2.4170943E-09
   35.82000      2.1423816E-09
   35.88000      1.8533218E-09
   35.94000      1.5540733E-09
   36.00000      1.2515340E-09
   36.06000      9.5315722E-10
   36.12000      6.6461520E-10
   36.18000      3.8820541E-10
   36.24000      1.2256261E-10
   36.30000     -1.3631389E-10
   36.36000     -3.9323259E-10
   36.42000     -6.5197731E-10
   36.48000     -9.1419078E-10
   36.54000     -1.1793245E-09
   36.60000     -1.4455254E-09
   36.66000     -1.7109535E-09
   36.72000     -1.9749040E-09
   36.78000     -2.2382578E-09
   36.84000     -2.5031064E-09
   36.90000     -2.7717351E-09
   36.96000     -3.0453873E-09
   37.02000     -3.3232777E-09
   37.08000     -3.6022203E-09
   37.14000     -3.8770112E-09
   37.20000     -4.1414485E-09
   37.26000     -4.3896500E-09
   37.32000     -4.6172124E-09
   37.38000     -4.8218047E-09
   37.44000     -5.0029954E-09
   37.50000     -5.1614166E-09
   37.56000     -5.2976561E-09
   37.62000     -5.4113967E-09
   37.68000     -5.5011986E-09
   37.74000     -5.5650076E-09
   37.80000     -5.6010956E-09
   37.86000     -5.6088947E-09
   37.92000     -5.5892508E-09
   37.98000     -5.5439222E-09
   38.04000     -5.4745937E-09
   38.10000     -5.3819824E-09
   38.16000     -5.2656053E-09
   38.22000     -5.1244351E-09
   38.28000     -4.9581921E-09
   38.34000     -4.7685949E-09
   38.40000     -4.5598347E-09
   38.46000     -4.3378514E-09
   38.52000     -4.1085571E-09
   38.58000     -3.8757193E-09
   38.64000     -3.6394499E-09
   38.70000     -3.3960743E-09
   38.76000     -3.1395837E-09
   38.82000     -2.8641902E-09
   38.88000     -2.5669855E-09
   38.94000     -2.2496156E-09
   39.00000     -1.9182294E-09
   39.06000     -1.5816477E-09
   39.12000     -1.2484108E-09
   39.18000     -9.2382113E-10
   39.24000     -6.0811861E-10
   39.30000     -2.9650032E-10
   39.36000      1.9001151E-11
   39.42000      3.4646447E-10
   39.48000      6.9096090E-10
   39.54000      1.0524815E-09
   39.60000      1.4256155E-09
   39.66000      1.8010285E-09
   39.72000      2.1681543E-09
   39.78000      2.5181037E-09
   39.84000      2.8457792E-09
   39.90000      3.1505194E-09
   39.96000      3.4351606E-09
   40.02000      3.7039620E-09
   40.08000      3.9602184E-09
   40.14000      4.2044501E-09
   40.20000      4.4337982E-09
   40.26000      4.6428101E-09
   40.32000      4.8252939E-09
   40.38000      4.9765529E-09
   40.44000      5.0951932E-09
   40.50000      5.1838374E-09
   40.56000      5.2484710E-09
   40.62000      5.2966014E-09
   40.68000      5.3348592E-09
   40.74000      5.3668505E-09
   40.80000      5.3920428E-09
   40.86000      5.4060920E-09
   40.92000      5.4025295E-09
   40.98000      5.3752056E-09
   41.04000      5.3206008E-09
   41.10000      5.2391482E-09
   41.16000      5.1350808E-09
   41.22000      5.0149023E-09
   41.28000      4.8851017E-09
   41.34000      4.7500173E-09
   41.40000      4.6106372E-09
   41.46000      4.4647179E-09
   41.52000      4.3080353E-09
   41.58000      4.1362078E-09
   41.64000      3.9463726E-09
   41.70000      3.7381920E-09
   41.76000      3.5140157E-09
   41.82000      3.2783332E-09
   41.88000      3.0368275E-09
   41.94000      2.7953331E-09
   42.00000      2.5588971E-09
   42.06000      2.3310647E-09
   42.12000      2.1134914E-09
   42.18000      1.9059925E-09
   42.24000      1.7071060E-09
   42.30000      1.5151007E-09
   42.36000      1.3291774E-09
   42.42000      1.1504523E-09
   42.48000      9.8232877E-10
   42.54000      8.3005702E-10
   42.60000      6.9958173E-10
   42.66000      5.9604943E-10
   42.72000      5.2245142E-10
   42.78000      4.7879578E-10
   42.84000      4.6199677E-10
   42.90000      4.6645254E-10
   42.96000      4.8514004E-10
   43.02000      5.1099425E-10
   43.08000      5.3831273E-10
   43.14000      5.6390670E-10
   43.20000      5.8770339E-10
   43.26000      6.1256078E-10
   43.32000      6.4323047E-10
   43.38000      6.8468137E-10
   43.44000      7.4026996E-10
   43.50000      8.1037188E-10
   43.56000      8.9197666E-10
   43.62000      9.7941510E-10
   43.68000      1.0659685E-09
   43.74000      1.1457838E-09
   43.80000      1.2154241E-09
   43.86000      1.2745487E-09
   43.92000      1.3255494E-09
   43.98000      1.3723387E-09
   44.04000      1.4187482E-09
   44.10000      1.4671035E-09
   44.16000      1.5174525E-09
   44.22000      1.5677042E-09
   44.28000      1.6146293E-09
   44.34000      1.6553715E-09
   44.40000      1.6889170E-09
   44.46000      1.7169512E-09
   44.52000      1.7437383E-09
   44.58000      1.7750108E-09
   44.64000      1.8162449E-09
   44.70000      1.8709314E-09
   44.76000      1.9394444E-09
   44.82000      2.0188746E-09
   44.88000      2.1038244E-09
   44.94000      2.1878694E-09
   45.00000      2.2652253E-09
   45.06000      2.3321889E-09
   45.12000      2.3880296E-09
   45.18000      2.4351401E-09
   45.24000      2.4783768E-09
   45.30000      2.5236435E-09
   45.36000      2.5759790E-09
   45.42000      2.6376199E-09
   45.48000      2.7066704E-09
   45.54000      2.7769651E-09
   45.60000      2.8393794E-09
   45.66000      2.8843310E-09
   45.72000      2.9047043E-09
   45.78000      2.8981748E-09
   45.84000      2.8680622E-09
   45.90000      2.8223350E-09
   45.96000      2.7710612E-09
   46.02000      2.7231366E-09
   46.08000      2.6833558E-09
   46.14000      2.6507452E-09
   46.20000      2.6186506E-09
   46.26000      2.5765226E-09
   46.32000      2.5128402E-09
   46.38000      2.4182951E-09
   46.44000      2.2882884E-09
   46.50000      2.1239890E-09
   46.56000      1.9316557E-09
   46.62000      1.7204804E-09
   46.68000      1.4997230E-09
   46.74000      1.2761506E-09
   46.80000      1.0526749E-09
   46.86000      8.2859702E-10
   46.92000      6.0124444E-10
   46.98000      3.6825987E-10
   47.04000      1.2961375E-10
   47.10000     -1.1139641E-10
   47.16000     -3.4844788E-10
   47.22000     -5.7359578E-10
   47.28000     -7.7924983E-10
   47.34000     -9.6010266E-10
   47.40000     -1.1144862E-09
   47.46000     -1.2448207E-09
   47.52000     -1.3570342E-09
   47.58000     -1.4590469E-09
   47.64000     -1.5586562E-09
   47.70000     -1.6613724E-09
   47.76000     -1.7688745E-09
   47.82000     -1.8786486E-09
   47.88000     -1.9850130E-09
   47.94000     -2.0812216E-09
   48.00000     -2.1618867E-09
   48.06000     -2.2248046E-09
   48.12000     -2.2715023E-09
   48.18000     -2.3063573E-09
   48.24000     -2.3347302E-09
   48.30000     -2.3609095E-09
   48.36000     -2.3866569E-09
   48.42000     -2.4108016E-09
   48.48000     -2.4298676E-09
   48.54000     -2.4393578E-09
   48.60000     -2.4351898E-09
   48.66000     -2.4148787E-09
   48.72000     -2.3782456E-09
   48.78000     -2.3275903E-09
   48.84000     -2.2673372E-09
   48.90000     -2.2031741E-09
   48.96000     -2.1407631E-09
   49.02000     -2.0842115E-09
   49.08000     -2.0346638E-09
   49.14000     -1.9894777E-09
   49.20000     -1.9424033E-09
   49.26000     -1.8849358E-09
   49.32000     -1.8086391E-09
   49.38000     -1.7078546E-09
   49.44000     -1.5819765E-09
   49.50000     -1.4365005E-09
   49.56000     -1.2823523E-09
   49.62000     -1.1335121E-09
   49.68000     -1.0035082E-09
   49.74000     -9.0179075E-10
   49.80000     -8.3113039E-10
   49.86000     -7.8694967E-10
   49.92000     -7.5891243E-10
   49.98000     -7.3434664E-10
   50.04000     -7.0241446E-10
   50.10000     -6.5763861E-10
   50.16000     -6.0157984E-10
   50.22000     -5.4209975E-10
   50.28000     -4.9050158E-10
   50.34000     -4.5758630E-10
   50.40000     -4.5000839E-10
   50.46000     -4.6814558E-10
   50.52000     -5.0610038E-10
   50.58000     -5.5369076E-10
   50.64000     -5.9965105E-10
   50.70000     -6.3496197E-10
   50.76000     -6.5531341E-10
   50.82000     -6.6207162E-10
   50.88000     -6.6161332E-10
   50.94000     -6.6333483E-10
   51.00000     -6.7695050E-10
   51.06000     -7.0982231E-10
   51.12000     -7.6502521E-10
   51.18000     -8.4066487E-10
   51.24000     -9.3065627E-10
   51.30000     -1.0267931E-09
   51.36000     -1.1215618E-09
   51.42000     -1.2109028E-09
   51.48000     -1.2960821E-09
   51.54000     -1.3840600E-09
   51.60000     -1.4861973E-09
   51.66000     -1.6156668E-09
   51.72000     -1.7843726E-09
   51.78000     -2.0003486E-09
   51.84000     -2.2664441E-09
   51.90000     -2.5806597E-09
   51.96000     -2.9379543E-09
   52.02000     -3.3328931E-09
   52.08000     -3.7623127E-09
   52.14000     -4.2272776E-09
   52.20000     -4.7339026E-09
   52.26000     -5.2929683E-09
   52.32000     -5.9185519E-09
   52.38000     -6.6260650E-09
   52.44000     -7.4301618E-09
   52.50000     -8.3429770E-09
   52.56000     -9.3731751E-09
   52.62000     -1.0526133E-08
   52.68000     -1.1805340E-08
   52.74000     -1.3214714E-08
   52.80000     -1.4761147E-08
   52.86000     -1.6456333E-08
   52.92000     -1.8317117E-08
   52.98000     -2.0364020E-08
   53.04000     -2.2618313E-08
   53.10000     -2.5098583E-08
   53.16000     -2.7817945E-08
   53.22000     -3.0782854E-08
   53.28000     -3.3993839E-08
   53.34000     -3.7447819E-08
   53.40000     -4.1140986E-08
   53.46000     -4.5071125E-08
   53.52000     -4.9238437E-08
   53.58000     -5.3644374E-08
   53.64000     -5.8288872E-08
   53.70000     -6.3166702E-08
   53.76000     -6.8264136E-08
   53.82000     -7.3556969E-08
   53.88000     -7.9010476E-08
   53.94000     -8.4581181E-08
   54.00000     -9.0219672E-08
   54.06000     -9.5873418E-08
   54.12000     -1.0148850E-07
   54.18000     -1.0700963E-07
   54.24000     -1.1237842E-07
   54.30000     -1.1753043E-07
   54.36000     -1.2239185E-07
   54.42000     -1.2687681E-07
   54.48000     -1.3088572E-07
   54.54000     -1.3430544E-07
   54.60000     -1.3701064E-07
   54.66000     -1.3886653E-07
   54.72000     -1.3973167E-07
   54.78000     -1.3946067E-07
   54.84000     -1.3790580E-07
   54.90000     -1.3491771E-07
   54.96000     -1.3034538E-07
   55.02000     -1.2403611E-07
   55.08000     -1.1583575E-07
   55.14000     -1.0558986E-07
   55.20000     -9.3145346E-08
   55.26000     -7.8352592E-08
   55.32000     -6.1067816E-08
   55.38000     -4.1155541E-08
   55.44000     -1.8491402E-08
   55.50000      7.0347972E-09
   55.56000      3.5515892E-08