  -2.400000      0.0000000E+00
  -2.340000      0.0000000E+00
  -2.280000      0.0000000E+00
  -2.220000      0.0000000E+00
  -2.160000      0.0000000E+00
  -2.100000      0.0000000E+00
  -2.040000      0.0000000E+00
  -1.980000      0.0000000E+00
  -1.920000     -2.1963390E-26
  -1.860000     -2.2868232E-25
  -1.800000     -1.0979422E-24
  -1.740000     -2.8927068E-24
  -1.680000     -2.6500303E-24
  -1.620000      1.1650928E-23
  -1.560000      6.1746768E-23
  -1.500000      1.5302887E-22
  -1.440000      2.0151154E-22
  -1.380000     -5.3511079E-23
  -1.320000     -1.0014306E-21
  -1.260000     -2.7333872E-21
  -1.200000     -4.1426546E-21
  -1.140000     -2.0673671E-21
  -1.080000      8.0873061E-21
  -1.020000      2.8433112E-20
 -0.9600000      5.1135944E-20
 -0.9000000      5.1426988E-20
 -0.8400000     -9.5827953E-21
 -0.7800000     -1.6169701E-19
 -0.7200000     -3.8067795E-19
 -0.6600000     -5.4181984E-19
 -0.6000000     -4.1694421E-19
 -0.5400000      2.3472778E-19
 -0.4800000      1.4687259E-18
 -0.4200000      2.9213726E-18
 -0.3600000      3.7043468E-18
 -0.3000000      2.6210082E-18
 -0.2400000     -1.2123129E-18
 -0.1800000     -7.5115932E-18
 -0.1200000     -1.4196984E-17
 -5.9999999E-02 -1.7566678E-17
  0.0000000E+00 -1.3603469E-17
  5.9999999E-02 -1.3675460E-19
  0.1200000      2.1110864E-17
  0.1800000      4.3869276E-17
  0.2400000      5.8874348E-17
  0.3000000      5.7273430E-17
  0.3600000      3.4279678E-17
  0.4200000     -8.9206358E-18
  0.4800000     -6.5960150E-17
  0.5400000     -1.2765958E-16
  0.6000000     -1.8321331E-16
  0.6600000     -2.1796392E-16
  0.7200000     -2.0885340E-16
  0.7800000     -1.2313016E-16
  0.8400000      7.2008084E-17
  0.9000000      3.8495787E-16
  0.9600000      7.6679405E-16
   1.020000      1.0885085E-15
   1.080000      1.1529641E-15
   1.140000      7.5786653E-16
   1.200000     -1.9791850E-16
   1.260000     -1.6034610E-15
   1.320000     -3.0803467E-15
   1.380000     -4.0373080E-15
   1.440000     -3.8507693E-15
   1.500000     -2.1269033E-15
   1.560000      1.0535544E-15
   1.620000      5.0237918E-15
   1.680000      8.6319603E-15
   1.740000      1.0552307E-14
   1.800000      9.7124432E-15
   1.860000      5.6861673E-15
   1.920000     -1.0902748E-15
   1.980000     -9.3493201E-15
   2.040000     -1.7244105E-14
   2.100000     -2.2722755E-14
   2.160000     -2.3916341E-14
   2.220000     -1.9482324E-14
   2.280000     -8.9140214E-15
   2.340000      7.1453480E-15
   2.400000      2.6596487E-14
   2.460000      4.5713826E-14
   2.520000      5.9349742E-14
   2.580000      6.1759781E-14
   2.640000      4.8133572E-14
   2.700000      1.6595827E-14
   2.760000     -2.9926216E-14
   2.820000     -8.2806713E-14
   2.880000     -1.2856075E-13
   2.940000     -1.5172655E-13
   3.000000     -1.3934891E-13
   3.060000     -8.5841050E-14
   3.120000      3.4677906E-15
   3.180000      1.1166670E-13
   3.240000      2.1325589E-13
   3.300000      2.8033316E-13
   3.360000      2.9027946E-13
   3.420000      2.3255370E-13
   3.480000      1.1239162E-13
   3.540000     -4.9750795E-14
   3.600000     -2.2268800E-13
   3.660000     -3.7133019E-13
   3.720000     -4.6373040E-13
   3.780000     -4.7666482E-13
   3.840000     -3.9910111E-13
   3.900000     -2.3392529E-13
   3.960000      1.3440736E-15
   4.020000      2.7462378E-13
   4.080000      5.4087355E-13
   4.140000      7.4669627E-13
   4.200000      8.3904877E-13
   4.260000      7.7760888E-13
   4.320000      5.4810182E-13
   4.380000      1.7212257E-13
   4.440000     -2.9115377E-13
   4.500000     -7.5398086E-13
   4.560000     -1.1187684E-12
   4.620000     -1.3017146E-12
   4.680000     -1.2542149E-12
   4.740000     -9.7525666E-13
   4.800000     -5.1099186E-13
   4.860000      5.7836182E-14
   4.920000      6.3584305E-13
   4.980000      1.1334979E-12
   5.040000      1.4820595E-12
   5.100000      1.6398806E-12
   5.160000      1.5908674E-12
   5.220000      1.3388649E-12
   5.280000      9.0261614E-13
   5.340000      3.1448390E-13
   5.400000     -3.7684526E-13
   5.460000     -1.1025009E-12
   5.520000     -1.7729357E-12
   5.580000     -2.2848234E-12
   5.640000     -2.5367642E-12
   5.700000     -2.4514635E-12
   5.760000     -1.9985890E-12
   5.820000     -1.2107862E-12
   5.880000     -1.8618123E-13
   5.940000      9.2597013E-13
   6.000000      1.9549425E-12
   6.060000      2.7471673E-12
   6.120000      3.2043558E-12
   6.180000      3.3112569E-12
   6.240000      3.1456654E-12
   6.300000      2.8677544E-12
   6.360000      2.6908079E-12
   6.420000      2.8395298E-12
   6.480000      3.5044281E-12
   6.540000      4.8011890E-12
   6.600000      6.7429582E-12
   6.660000      9.2315756E-12
   6.720000      1.2071280E-11
   6.780000      1.5005068E-11
   6.840000      1.7769453E-11
   6.900000      2.0158361E-11
   6.960000      2.2082579E-11
   7.020000      2.3609560E-11
   7.080000      2.4971232E-11
   7.140000      2.6534703E-11
   7.200000      2.8740413E-11
   7.260000      3.2020636E-11
   7.320000      3.6714982E-11
   7.380000      4.2997030E-11
   7.440000      5.0820313E-11
   7.500000      5.9885930E-11
   7.560000      6.9633042E-11
   7.620000      7.9257621E-11
   7.680000      8.7769791E-11
   7.740000      9.4100026E-11
   7.800000      9.7253282E-11
   7.860000      9.6489178E-11
   7.920000      9.1484771E-11
   7.980000      8.2426031E-11
   8.040000      6.9987023E-11
   8.100000      5.5190592E-11
   8.160000      3.9189409E-11
   8.220000      2.3039817E-11
   8.280000      7.5447582E-12
   8.340000     -6.7899536E-12
   8.400000     -1.9695910E-11
   8.460000     -3.1038588E-11
   8.520000     -4.0747780E-11
   8.580000     -4.8834287E-11
   8.640000     -5.5487545E-11
   8.700000     -6.1189942E-11
   8.760000     -6.6756885E-11
   8.820000     -7.3235792E-11
   8.880000     -8.1663447E-11
   8.940000     -9.2756192E-11
   9.000000     -1.0665176E-10
   9.060000     -1.2280998E-10
   9.120000     -1.4011496E-10
   9.180000     -1.5713772E-10
   9.240000     -1.7245487E-10
   9.300000     -1.8490935E-10
   9.360000     -1.9374261E-10
   9.420000     -1.9859839E-10
   9.480000     -1.9945531E-10
   9.540000     -1.9656064E-10
   9.600000     -1.9040647E-10
   9.660000     -1.8173704E-10
   9.720000     -1.7153769E-10
   9.780000     -1.6095676E-10
   9.840000     -1.5115034E-10
   9.900000     -1.4309211E-10
   9.960000     -1.3742039E-10
   10.02000     -1.3438260E-10
   10.08000     -1.3388833E-10
   10.14000     -1.3562625E-10
   10.20000     -1.3917115E-10
   10.26000     -1.4402436E-10
   10.32000     -1.4958333E-10
   10.38000     -1.5508829E-10
   10.44000     -1.5961525E-10
   10.50000     -1.6215476E-10
   10.56000     -1.6175793E-10
   10.62000     -1.5768012E-10
   10.68000     -1.4944793E-10
   10.74000     -1.3682164E-10
   10.80000     -1.1969914E-10
   10.86000     -9.8056140E-11
   10.92000     -7.2006026E-11
   10.98000     -4.1985953E-11
   11.04000     -8.9789660E-12
   11.10000      2.5374815E-11
   11.16000      5.8893501E-11
   11.22000      8.9196241E-11
   11.28000      1.1413576E-10
   11.34000      1.3210259E-10
   11.40000      1.4202077E-10
   11.46000      1.4300658E-10
   11.52000      1.3385223E-10
   11.58000      1.1261905E-10
   11.64000      7.6600851E-11
   11.70000      2.2744348E-11
   11.76000     -5.1624705E-11
   11.82000     -1.4809619E-10
   11.88000     -2.6682773E-10
   11.94000     -4.0671885E-10
   12.00000     -5.6600208E-10
   12.06000     -7.4292567E-10
   12.12000     -9.3614816E-10
   12.18000     -1.1446203E-09
   12.24000     -1.3670088E-09
   12.30000     -1.6009795E-09
   12.36000     -1.8427442E-09
   12.42000     -2.0871642E-09
   12.48000     -2.3284110E-09
   12.54000     -2.5609002E-09
   12.60000     -2.7800700E-09
   12.66000     -2.9826421E-09
   12.72000     -3.1662575E-09
   12.78000     -3.3286838E-09
   12.84000     -3.4669843E-09
   12.90000     -3.5770455E-09
   12.96000     -3.6536878E-09
   13.02000     -3.6913053E-09
   13.08000     -3.6847834E-09
   13.14000     -3.6303620E-09
   13.20000     -3.5261862E-09
   13.26000     -3.3724468E-09
   13.32000     -3.1711695E-09
   13.38000     -2.9257781E-09
   13.44000     -2.6405738E-09
   13.50000     -2.3202371E-09
   13.56000     -1.9694424E-09
   13.62000     -1.5926933E-09
   13.68000     -1.1944875E-09
   13.74000     -7.7986995E-10
   13.80000     -3.5528730E-10
   13.86000      7.0512936E-11
   13.92000      4.8593207E-10
   13.98000      8.7668905E-10
   14.04000      1.2268694E-09
   14.10000      1.5206854E-09
   14.16000      1.7444676E-09
   14.22000      1.8882726E-09
   14.28000      1.9466242E-09
   14.34000      1.9182433E-09
   14.40000      1.8050390E-09
   14.46000      1.6109005E-09
   14.52000      1.3408600E-09
   14.58000      1.0009489E-09
   14.64000      5.9869609E-10
   14.70000      1.4388959E-10
   14.76000     -3.5091652E-10
   14.82000     -8.7056107E-10
   14.88000     -1.3982440E-09
   14.94000     -1.9171404E-09
   15.00000     -2.4122910E-09
   15.06000     -2.8723348E-09
   15.12000     -3.2907341E-09
   15.18000     -3.6662886E-09
   15.24000     -4.0028896E-09
   15.30000     -4.3085833E-09
   15.36000     -4.5940944E-09
   15.42000     -4.8710191E-09
   15.48000     -5.1499272E-09
   15.54000     -5.4386469E-09
   15.60000     -5.7409721E-09
   15.66000     -6.0559704E-09
   15.72000     -6.3779657E-09
   15.78000     -6.6971575E-09
   15.84000     -7.0007138E-09
   15.90000     -7.2741058E-09
   15.96000     -7.5024316E-09
   16.02000     -7.6715008E-09
   16.08000     -7.7685440E-09
   16.14000     -7.7825710E-09
   16.20000     -7.7045028E-09
   16.26000     -7.5273041E-09
   16.32000     -7.2463435E-09
   16.38000     -6.8600605E-09
   16.44000     -6.3708425E-09
   16.50000     -5.7858447E-09
   16.56000     -5.1173803E-09
   16.62000     -4.3825867E-09
   16.68000     -3.6022674E-09
   16.74000     -2.7990656E-09
   16.80000     -1.9953770E-09
   16.86000     -1.2114975E-09
   16.92000     -4.6446871E-10
   16.98000      2.3212160E-10
   17.04000      8.6742119E-10
   17.10000      1.4320013E-09
   17.16000      1.9164919E-09
   17.22000      2.3107554E-09
   17.28000      2.6040465E-09
   17.34000      2.7862881E-09
   17.40000      2.8501832E-09
   17.46000      2.7935418E-09
   17.52000      2.6210318E-09
   17.58000      2.3447022E-09
   17.64000      1.9830015E-09
   17.70000      1.5585028E-09
   17.76000      1.0949752E-09
   17.82000      6.1460731E-10
   17.88000      1.3606505E-10
   17.94000     -3.2627387E-10
   18.00000     -7.6198614E-10
   18.06000     -1.1635584E-09
   18.12000     -1.5251561E-09
   18.18000     -1.8416737E-09
   18.24000     -2.1083666E-09
   18.30000     -2.3211542E-09
   18.36000     -2.4774889E-09
   18.42000     -2.5775120E-09
   18.48000     -2.6251108E-09
   18.54000     -2.6284530E-09
   18.60000     -2.5996665E-09
   18.66000     -2.5535587E-09
   18.72000     -2.5055875E-09
   18.78000     -2.4695699E-09
   18.84000     -2.4557563E-09
   18.90000     -2.4698013E-09
   18.96000     -2.5128630E-09
   19.02000     -2.5826938E-09
   19.08000     -2.6752760E-09
   19.14000     -2.7864409E-09
   19.20000     -2.9129874E-09
   19.26000     -3.0530465E-09
   19.32000     -3.2056977E-09
   19.38000     -3.3700682E-09
   19.44000     -3.5442573E-09
   19.50000     -3.7244605E-09
   19.56000     -3.9045842E-09
   19.62000     -4.0764858E-09
   19.68000     -4.2307584E-09
   19.74000     -4.3577875E-09
   19.80000     -4.4486796E-09
   19.86000     -4.4957376E-09
   19.92000     -4.4923603E-09
   19.98000     -4.4325548E-09
   20.04000     -4.3104835E-09
   20.10000     -4.1205004E-09
   20.16000     -3.8579171E-09
   20.22000     -3.5203791E-09
   20.28000     -3.1093834E-09
   20.34000     -2.6313220E-09
   20.40000     -2.0975395E-09
   20.46000     -1.5232317E-09
   20.52000     -9.2539759E-10
   20.58000     -3.2034603E-10
   20.64000      2.7865990E-10
   20.70000      8.6313046E-10
   20.76000      1.4301836E-09
   20.82000      1.9824544E-09
   20.88000      2.5272422E-09
   20.94000      3.0751564E-09
   21.00000      3.6385617E-09
   21.06000      4.2300576E-09
   21.12000      4.8611422E-09
   21.18000      5.5410809E-09
   21.24000      6.2759367E-09
   21.30000      7.0677104E-09
   21.36000      7.9136582E-09
   21.42000      8.8059506E-09
   21.48000      9.7318891E-09
   21.54000      1.0674824E-08
   21.60000      1.1615660E-08
   21.66000      1.2534614E-08
   21.72000      1.3412764E-08
   21.78000      1.4232986E-08
   21.84000      1.4980241E-08
   21.90000      1.5641447E-08
   21.96000      1.6205423E-08
   22.02000      1.6663321E-08
   22.08000      1.7009631E-08
   22.14000      1.7243417E-08
   22.20000      1.7369221E-08
   22.26000      1.7396982E-08
   22.32000      1.7340652E-08
   22.38000      1.7215681E-08
   22.44000      1.7035902E-08
   22.50000      1.6810695E-08
   22.56000      1.6543243E-08
   22.62000      1.6230398E-08
   22.68000      1.5864254E-08
   22.74000      1.5434978E-08
   22.80000      1.4934077E-08
   22.86000      1.4357057E-08
   22.92000      1.3704530E-08
   22.98000      1.2981350E-08
   23.04000      1.2193999E-08
   23.10000      1.1347181E-08
   23.16000      1.0441015E-08
   23.22000      9.4701562E-09
   23.28000      8.4255385E-09
   23.34000      7.2984783E-09
   23.40000      6.0858314E-09
   23.46000      4.7943303E-09
   23.52000      3.4423335E-09
   23.58000      2.0579773E-09
   23.64000      6.7397143E-10
   23.70000     -6.7950795E-10
   23.76000     -1.9816255E-09
   23.82000     -3.2251817E-09
   23.88000     -4.4169473E-09
   23.94000     -5.5738836E-09
   24.00000     -6.7164394E-09
   24.06000     -7.8610976E-09
   24.12000     -9.0145749E-09
   24.18000     -1.0171498E-08
   24.24000     -1.1316169E-08
   24.30000     -1.2427596E-08
   24.36000     -1.3485875E-08
   24.42000     -1.4477559E-08
   24.48000     -1.5398106E-08
   24.54000     -1.6250581E-08
   24.60000     -1.7041286E-08
   24.66000     -1.7774065E-08
   24.72000     -1.8445643E-08
   24.78000     -1.9043952E-08
   24.84000     -1.9550381E-08
   24.90000     -1.9945430E-08
   24.96000     -2.0215982E-08
   25.02000     -2.0361657E-08
   25.08000     -2.0397962E-08
   25.14000     -2.0354792E-08
   25.20000     -2.0270409E-08
   25.26000     -2.0182556E-08
   25.32000     -2.0119311E-08
   25.38000     -2.0092507E-08
   25.44000     -2.0095738E-08
   25.50000     -2.0107469E-08
   25.56000     -2.0098071E-08
   25.62000     -2.0038378E-08
   25.68000     -1.9906912E-08
   25.74000     -1.9693525E-08
   25.80000     -1.9398593E-08
   25.86000     -1.9028546E-08
   25.92000     -1.8589720E-08
   25.98000     -1.8083155E-08
   26.04000     -1.7502369E-08
   26.10000     -1.6835108E-08
   26.16000     -1.6068427E-08
   26.22000     -1.5195248E-08
   26.28000     -1.4219941E-08
   26.34000     -1.3160596E-08
   26.40000     -1.2046852E-08
   26.46000     -1.0913512E-08
   26.52000     -9.7917319E-09
   26.58000     -8.7005114E-09
   26.64000     -7.6412654E-09
   26.70000     -6.5974461E-09
   26.76000     -5.5395701E-09
   26.82000     -4.4342903E-09
   26.88000     -3.2547671E-09
   26.94000     -1.9891613E-09
   27.00000     -6.4466926E-10
   27.06000      7.5396078E-10
   27.12000      2.1706570E-09
   27.18000      3.5666754E-09
   27.24000      4.9086601E-09
   27.30000      6.1734786E-09
   27.36000      7.3485054E-09
   27.42000      8.4277101E-09
   27.48000      9.4054435E-09
   27.54000      1.0270536E-08
   27.60000      1.1003153E-08
   27.66000      1.1575715E-08
   27.72000      1.1957711E-08
   27.78000      1.2122746E-08
   27.84000      1.2055361E-08
   27.90000      1.1755197E-08
   27.96000      1.1236977E-08
   28.02000      1.0526207E-08
   28.08000      9.6519459E-09
   28.14000      8.6389775E-09
   28.20000      7.5019395E-09
   28.26000      6.2432264E-09
   28.32000      4.8552704E-09
   28.38000      3.3263172E-09
   28.44000      1.6477227E-09
   28.50000     -1.7965829E-10
   28.56000     -2.1420088E-09
   28.62000     -4.2130242E-09
   28.68000     -6.3580061E-09
   28.74000     -8.5400877E-09
   28.80000     -1.0726454E-08
   28.86000     -1.2892492E-08
   28.92000     -1.5022534E-08
   28.98000     -1.7107096E-08
   29.04000     -1.9137701E-08
   29.10000     -2.1101380E-08
   29.16000     -2.2977099E-08
   29.22000     -2.4735789E-08
   29.28000     -2.6344402E-08
   29.34000     -2.7772863E-08
   29.40000     -2.9001505E-08
   29.46000     -3.0026204E-08
   29.52000     -3.0858956E-08
   29.58000     -3.1523271E-08
   29.64000     -3.2045644E-08
   29.70000     -3.2445900E-08
   29.76000     -3.2729822E-08
   29.82000     -3.2886771E-08
   29.88000     -3.2893176E-08
   29.94000     -3.2720752E-08
   30.00000     -3.2346495E-08
   30.06000     -3.1760898E-08
   30.12000     -3.0971510E-08
   30.18000     -3.0000550E-08
   30.24000     -2.8877542E-08
   30.30000     -2.7629520E-08
   30.36000     -2.6272341E-08
   30.42000     -2.4806202E-08
   30.48000     -2.3217067E-08
   30.54000     -2.1483684E-08
   30.60000     -1.9587967E-08
   30.66000     -1.7525261E-08
   30.72000     -1.5310913E-08
   30.78000     -1.2980721E-08
   30.84000     -1.0584788E-08
   30.90000     -8.1766025E-09
   30.96000     -5.8009104E-09
   31.02000     -3.4844658E-09
   31.08000     -1.2329863E-09
   31.14000      9.6447017E-10
   31.20000      3.1249978E-09
   31.26000      5.2587636E-09
   31.32000      7.3579556E-09
   31.38000      9.3918651E-09
   31.44000      1.1310212E-08
   31.50000      1.3054013E-08
   31.56000      1.4570534E-08
   31.62000      1.5827281E-08
   31.68000      1.6820005E-08
   31.74000      1.7571647E-08
   31.80000      1.8122215E-08
   31.86000      1.8512859E-08
   31.92000      1.8769695E-08
   31.98000      1.8893187E-08
   32.04000      1.8857126E-08
   32.10000      1.8617829E-08
   32.16000      1.8130510E-08
   32.22000      1.7367036E-08
   32.28000      1.6328690E-08
   32.34000      1.5049318E-08
   32.40000      1.3587636E-08
   32.46000      1.2011417E-08
   32.52000      1.0379178E-08
   32.58000      8.7258423E-09
   32.64000      7.0573867E-09
   32.70000      5.3562328E-09
   32.76000      3.5952370E-09
   32.82000      1.7550633E-09
   32.88000     -1.6151060E-10
   32.94000     -2.1237154E-09
   33.00000     -4.0777088E-09
   33.06000     -5.9607514E-09
   33.12000     -7.7197209E-09
   33.18000     -9.3273416E-09
   33.24000     -1.0790176E-08
   33.30000     -1.2145209E-08
   33.36000     -1.3445876E-08
   33.42000     -1.4742108E-08
   33.48000     -1.6061186E-08
   33.54000     -1.7395971E-08
   33.60000     -1.8704579E-08
   33.66000     -1.9921712E-08
   33.72000     -2.0977783E-08
   33.78000     -2.1819512E-08
   33.84000     -2.2425130E-08
   33.90000     -2.2809356E-08
   33.96000     -2.3016712E-08
   34.02000     -2.3105752E-08
   34.08000     -2.3129664E-08
   34.14000     -2.3119805E-08
   34.20000     -2.3077634E-08
   34.26000     -2.2977412E-08
   34.32000     -2.2778506E-08
   34.38000     -2.2442718E-08
   34.44000     -2.1950427E-08
   34.50000     -2.1309843E-08
   34.56000     -2.0556030E-08
   34.62000     -1.9739986E-08
   34.68000     -1.8911557E-08
   34.74000     -1.8102144E-08
   34.80000     -1.7313313E-08
   34.86000     -1.6515440E-08
   34.92000     -1.5657154E-08
   34.98000     -1.4682644E-08
   35.04000     -1.3551212E-08
   35.10000     -1.2252581E-08
   35.16000     -1.0812928E-08
   35.22000     -9.2895656E-09
   35.28000     -7.7559923E-09
   35.34000     -6.2822165E-09
   35.40000     -4.9167381E-09
   35.46000     -3.6759600E-09
   35.52000     -2.5442344E-09
   35.58000     -1.4841398E-09
   35.64000     -4.5316556E-10
   35.70000      5.7904681E-10
   35.76000      1.6187464E-09
   35.82000      2.6452360E-09
   35.88000      3.6177232E-09
   35.94000      4.4890722E-09
   36.00000      5.2213931E-09
   36.06000      5.7979479E-09
   36.12000      6.2273555E-09
   36.18000      6.5388952E-09
   36.24000      6.7708670E-09
   36.30000      6.9563248E-09
   36.36000      7.1112800E-09
   36.42000      7.2294570E-09
   36.48000      7.2852573E-09
   36.54000      7.2436821E-09
   36.60000      7.0735542E-09
   36.66000      6.7593429E-09
   36.72000      6.3074865E-09
   36.78000      5.7451621E-09
   36.84000      5.1121147E-09
   36.90000      4.4485771E-09
   36.96000      3.7835570E-09
   37.02000      3.1275242E-09
   37.08000      2.4718114E-09
   37.14000      1.7945889E-09
   37.20000      1.0709111E-09
   37.26000      2.8294900E-10
   37.32000     -5.7339572E-10
   37.38000     -1.4877842E-09
   37.44000     -2.4405939E-09
   37.50000     -3.4116063E-09
   37.56000     -4.3885775E-09
   37.62000     -5.3721814E-09
   37.68000     -6.3753607E-09
   37.74000     -7.4174067E-09
   37.80000     -8.5152330E-09
   37.86000     -9.6754240E-09
   37.92000     -1.0890298E-08
   37.98000     -1.2139592E-08
   38.04000     -1.3397126E-08
   38.10000     -1.4639817E-08
   38.16000     -1.5855425E-08
   38.22000     -1.7045870E-08
   38.28000     -1.8224618E-08
   38.34000     -1.9408903E-08
   38.40000     -2.0609665E-08
   38.46000     -2.1823142E-08
   38.52000     -2.3027617E-08
   38.58000     -2.4187058E-08
   38.64000     -2.5260706E-08
   38.70000     -2.6215140E-08
   38.76000     -2.7034206E-08
   38.82000     -2.7722567E-08
   38.88000     -2.8301230E-08
   38.94000     -2.8796457E-08
   39.00000     -2.9226493E-08
   39.06000     -2.9591599E-08
   39.12000     -2.9871725E-08
   39.18000     -3.0033114E-08
   39.24000     -3.0041409E-08
   39.30000     -2.9875988E-08
   39.36000     -2.9539716E-08
   39.42000     -2.9060054E-08
   39.48000     -2.8480782E-08
   39.54000     -2.7847440E-08
   39.60000     -2.7191819E-08
   39.66000     -2.6521358E-08
   39.72000     -2.5817402E-08
   39.78000     -2.5043143E-08
   39.84000     -2.4158549E-08
   39.90000     -2.3137179E-08
   39.96000     -2.1978870E-08
   40.02000     -2.0713658E-08
   40.08000     -1.9395126E-08
   40.14000     -1.8085084E-08
   40.20000     -1.6834733E-08
   40.26000     -1.5669041E-08
   40.32000     -1.4580195E-08
   40.38000     -1.3532956E-08
   40.44000     -1.2480293E-08
   40.50000     -1.1383710E-08
   40.56000     -1.0230639E-08
   40.62000     -9.0421963E-09
   40.68000     -7.8680724E-09
   40.74000     -6.7702453E-09
   40.80000     -5.8014407E-09
   40.86000     -4.9862856E-09
   40.92000     -4.3121724E-09
   40.98000     -3.7332737E-09
   41.04000     -3.1863945E-09
   41.10000     -2.6130944E-09
   41.16000     -1.9802726E-09
   41.22000     -1.2918896E-09
   41.28000     -5.8754213E-10
   41.34000      7.1863945E-11
   41.40000      6.2659394E-10
   41.46000      1.0410088E-09
   41.52000      1.3189290E-09
   41.58000      1.5059113E-09
   41.64000      1.6774671E-09
   41.70000      1.9171895E-09
   41.76000      2.2923701E-09
   41.82000      2.8355263E-09
   41.88000      3.5380634E-09
   41.94000      4.3578603E-09
   42.00000      5.2376361E-09
   42.06000      6.1272969E-09
   42.12000      7.0023907E-09
   42.18000      7.8725151E-09
   42.24000      8.7772030E-09
   42.30000      9.7710924E-09
   42.36000      1.0903632E-08
   42.42000      1.2200095E-08
   42.48000      1.3650115E-08
   42.54000      1.5207451E-08
   42.60000      1.6801190E-08
   42.66000      1.8354939E-08
   42.72000      1.9808095E-08
   42.78000      2.1132374E-08
   42.84000      2.2338275E-08
   42.90000      2.3469200E-08
   42.96000      2.4585084E-08
   43.02000      2.5740810E-08
   43.08000      2.6966450E-08
   43.14000      2.8255743E-08
   43.20000      2.9566353E-08
   43.26000      3.0831465E-08
   43.32000      3.1978583E-08
   43.38000      3.2949259E-08
   43.44000      3.3713437E-08
   43.50000      3.4274311E-08
   43.56000      3.4662627E-08
   43.62000      3.4922959E-08
   43.68000      3.5096733E-08
   43.74000      3.5207616E-08
   43.80000      3.5253951E-08
   43.86000      3.5210455E-08
   43.92000      3.5038244E-08
   43.98000      3.4699543E-08
   44.04000      3.4171762E-08
   44.10000      3.3455997E-08
   44.16000      3.2576967E-08
   44.22000      3.1574633E-08
   44.28000      3.0490742E-08
   44.34000      2.9355331E-08
   44.40000      2.8178107E-08
   44.46000      2.6947641E-08
   44.52000      2.5638284E-08
   44.58000      2.4221931E-08
   44.64000      2.2680251E-08
   44.70000      2.1013111E-08
   44.76000      1.9240661E-08
   44.82000      1.7398927E-08
   44.88000      1.5530901E-08
   44.94000      1.3676424E-08
   45.00000      1.1864167E-08
   45.06000      1.0108014E-08
   45.12000      8.4085254E-09
   45.18000      6.7584875E-09
   45.24000      5.1503011E-09
   45.30000      3.5825252E-09
   45.36000      2.0633137E-09
   45.42000      6.0967120E-10
   45.48000     -7.5703160E-10
   45.54000     -2.0174733E-09
   45.60000     -3.1602536E-09
   45.66000     -4.1850003E-09
   45.72000     -5.1015987E-09
   45.78000     -5.9259571E-09
   45.84000     -6.6740204E-09
   45.90000     -7.3563515E-09
   45.96000     -7.9752214E-09
   46.02000     -8.5250687E-09
   46.08000     -8.9957961E-09
   46.14000     -9.3773300E-09
   46.20000     -9.6634913E-09
   46.26000     -9.8536947E-09
   46.32000     -9.9519610E-09
   46.38000     -9.9638857E-09
   46.44000     -9.8930295E-09
   46.50000     -9.7383728E-09
   46.56000     -9.4940189E-09
   46.62000     -9.1514076E-09
   46.68000     -8.7032195E-09
   46.74000     -8.1474480E-09
   46.80000     -7.4899562E-09
   46.86000     -6.7443997E-09
   46.92000     -5.9294152E-09
   46.98000     -5.0641029E-09
   47.04000     -4.1635322E-09
   47.10000     -3.2360370E-09
   47.16000     -2.2833415E-09
   47.22000     -1.3033981E-09
   47.28000     -2.9468888E-10
   47.34000      7.3985196E-10
   47.40000      1.7909770E-09
   47.46000      2.8441589E-09
   47.52000      3.8831756E-09
   47.58000      4.8948836E-09
   47.64000      5.8733334E-09
   47.70000      6.8215709E-09
   47.76000      7.7502493E-09
   47.82000      8.6732674E-09
   47.88000      9.6016501E-09
   47.94000      1.0537618E-08
   48.00000      1.1470903E-08
   48.06000      1.2378884E-08
   48.12000      1.3231043E-08
   48.18000      1.3996875E-08
   48.24000      1.4655026E-08
   48.30000      1.5200705E-08
   48.36000      1.5648583E-08
   48.42000      1.6029666E-08
   48.48000      1.6382609E-08
   48.54000      1.6742002E-08
   48.60000      1.7127521E-08
   48.66000      1.7537731E-08
   48.72000      1.7950915E-08
   48.78000      1.8332784E-08
   48.84000      1.8648489E-08
   48.90000      1.8874731E-08
   48.96000      1.9007700E-08
   49.02000      1.9064094E-08
   49.08000      1.9074916E-08
   49.14000      1.9074305E-08
   49.20000      1.9087370E-08
   49.26000      1.9121304E-08
   49.32000      1.9162878E-08
   49.38000      1.9183233E-08
   49.44000      1.9148414E-08
   49.50000      1.9032115E-08
   49.56000      1.8826400E-08
   49.62000      1.8546793E-08
   49.68000      1.8229935E-08
   49.74000      1.7924462E-08
   49.80000      1.7677879E-08
   49.86000      1.7523471E-08
   49.92000      1.7471244E-08
   49.98000      1.7505586E-08
   50.04000      1.7590272E-08
   50.10000      1.7679179E-08
   50.16000      1.7729441E-08
   50.22000      1.7713090E-08
   50.28000      1.7623684E-08
   50.34000      1.7475998E-08
   50.40000      1.7298953E-08
   50.46000      1.7124099E-08
   50.52000      1.6973360E-08
   50.58000      1.6850104E-08
   50.64000      1.6736461E-08
   50.70000      1.6597749E-08
   50.76000      1.6392429E-08
   50.82000      1.6084181E-08
   50.88000      1.5651986E-08
   50.94000      1.5094944E-08
   51.00000      1.4430455E-08
   51.06000      1.3686659E-08
   51.12000      1.2891807E-08
   51.18000      1.2064077E-08
   51.24000      1.1204892E-08
   51.30000      1.0297593E-08
   51.36000      9.3114938E-09
   51.42000      8.2098373E-09
   51.48000      6.9590591E-09
   51.54000      5.5365366E-09
   51.60000      3.9345847E-09
   51.66000      2.1597562E-09
   51.72000      2.2800337E-10
   51.78000     -1.8424522E-09
   51.84000     -4.0381098E-09
   51.90000     -6.3549082E-09
   51.96000     -8.7995344E-09
   52.02000     -1.1387387E-08
   52.08000     -1.4138243E-08
   52.14000     -1.7071082E-08
   52.20000     -2.0199382E-08
   52.26000     -2.3527777E-08
   52.32000     -2.7050504E-08
   52.38000     -3.0751714E-08
   52.44000     -3.4607449E-08
   52.50000     -3.8588801E-08
   52.56000     -4.2665366E-08
   52.62000     -4.6808097E-08
   52.68000     -5.0990536E-08
   52.74000     -5.5188131E-08
   52.80000     -5.9375669E-08
   52.86000     -6.3523601E-08
   52.92000     -6.7593945E-08
   52.98000     -7.1536483E-08
   53.04000     -7.5285520E-08
   53.10000     -7.8757616E-08
   53.16000     -8.1850800E-08
   53.22000     -8.4445610E-08
   53.28000     -8.6408562E-08
   53.34000     -8.7597442E-08
   53.40000     -8.7867377E-08
   53.46000     -8.7075620E-08
   53.52000     -8.5083634E-08
   53.58000     -8.1755360E-08
   53.64000     -7.6952581E-08
   53.70000     -7.0528998E-08
   53.76000     -6.2325519E-08
   53.82000     -5.2168577E-08
   53.88000     -3.9872443E-08
   53.94000     -2.5245354E-08
   54.00000     -8.0980280E-09
   54.06000      1.1747144E-08
   54.12000      3.4448146E-08
   54.18000      6.0138063E-08
   54.24000      8.8923052E-08
   54.30000      1.2088306E-07
   54.36000      1.5607382E-07
   54.42000      1.9452804E-07
   54.48000      2.3625395E-07
   54.54000      2.8123063E-07
   54.60000      3.2940002E-07
   54.66000      3.8065821E-07
   54.72000      4.3484692E-07
   54.78000      4.9174758E-07
   54.84000      5.5107859E-07
   54.90000      6.1249636E-07
   54.96000      6.7559932E-07
   55.02000      7.3993408E-07
   55.08000      8.0500314E-07
   55.14000      8.7027138E-07
   55.20000      9.3516985E-07
   55.26000      9.9909630E-07
   55.32000      1.0614125E-06
   55.38000      1.1214397E-06
   55.44000      1.1784571E-06
   55.50000      1.2317050E-06
   55.56000      1.2803940E-06