 -0.750000000       0.00000000    
 -0.689999998       0.00000000    
 -0.629999995       0.00000000    
 -0.569999993       0.00000000    
 -0.509999990       0.00000000    
 -0.449999988       0.00000000    
 -0.389999986       0.00000000    
 -0.330000013       0.00000000    
 -0.270000011      -1.37612018E-27
 -0.209999993      -1.11266604E-26
 -0.150000006      -3.32734073E-26
  -9.00000036E-02   4.78600255E-27
  -2.99999993E-02   4.13092461E-25
   2.99999993E-02   1.74599570E-24
   9.00000036E-02   3.90365728E-24
  0.150000006       3.28260977E-24
  0.209999993      -1.21424271E-23
  0.270000011      -6.64393233E-23
  0.330000013      -1.87341263E-22
  0.389999986      -3.64761129E-22
  0.449999988      -4.51586139E-22
  0.509999990      -1.53063155E-23
  0.569999993       1.73703365E-21
  0.629999995       5.64090487E-21
  0.689999998       1.14145173E-20
  0.750000000       1.55227405E-20
  0.810000002       9.10676660E-21
  0.870000005      -2.10663353E-20
  0.930000007      -8.44523230E-20
  0.990000010      -1.69411294E-19
   1.04999995      -2.22794170E-19
   1.11000001      -1.44788971E-19
   1.16999996       1.74795102E-19
   1.23000002       7.63533252E-19
   1.28999996       1.44112823E-18
   1.35000002       1.74527665E-18
   1.40999997       1.03095749E-18
   1.47000003      -1.17316017E-18
   1.52999997      -4.61906009E-18
   1.59000003      -7.89696923E-18
   1.64999998      -8.54612734E-18
   1.71000004      -4.06799153E-18
   1.76999998       6.27630776E-18
   1.83000004       1.97082961E-17
   1.88999999       2.95658802E-17
   1.95000005       2.74872382E-17
   2.00999999       8.09461577E-18
   2.06999993      -2.57570626E-17
   2.13000011      -6.05944805E-17
   2.19000006      -7.59796892E-17
   2.25000000      -5.46587582E-17
   2.30999994       4.75144952E-18
   2.36999989       8.01657591E-17
   2.43000007       1.31044970E-16
   2.49000001       1.18018120E-16
   2.54999995       2.97388205E-17
   2.60999990      -9.85778532E-17
   2.67000008      -1.91182165E-16
   2.73000002      -1.68276489E-16
   2.78999996      -2.54551418E-19
   2.84999990       2.50264752E-16
   2.91000009       4.32167062E-16
   2.97000003       3.71293954E-16
   3.02999997      -2.12216247E-17
   3.08999991      -6.51763901E-16
   3.15000010      -1.22503929E-15
   3.21000004      -1.34441228E-15
   3.26999998      -7.13381471E-16
   3.32999992       6.48322088E-16
   3.39000010       2.29746443E-15
   3.45000005       3.46647344E-15
   3.50999999       3.37567045E-15
   3.56999993       1.64511523E-15
   3.63000011      -1.39409871E-15
   3.69000006      -4.68408712E-15
   3.75000000      -6.79882049E-15
   3.80999994      -6.56931352E-15
   3.86999989      -3.69998137E-15
   3.93000007       9.49466971E-16
   3.99000001       5.62304601E-15
   4.05000019       8.41942703E-15
   4.11000013       8.21060715E-15
   4.17000008       5.25947363E-15
   4.23000002       1.15829500E-15
   4.28999996      -1.97169640E-15
   4.34999990      -2.67266445E-15
   4.40999985      -1.10640418E-15
   4.46999979       8.26556614E-16
   4.53000021       4.30134871E-16
   4.59000015      -4.13140489E-15
   4.65000010      -1.22976631E-14
   4.71000004      -2.06304852E-14
   4.76999998      -2.39128480E-14
   4.82999992      -1.75746767E-14
   4.88999987      -4.07644029E-16
   4.94999981       2.38273062E-14
   5.01000023       4.69639349E-14
   5.07000017       5.92806579E-14
   5.13000011       5.36004617E-14
   5.19000006       2.88331608E-14
   5.25000000      -8.79206054E-15
   5.30999994      -4.76111494E-14
   5.36999989      -7.48990374E-14
   5.42999983      -8.18697662E-14
   5.48999977      -6.70461814E-14
   5.55000019      -3.64434028E-14
   5.61000013      -5.09153887E-16
   5.67000008       3.06602955E-14
   5.73000002       5.14556591E-14
   5.78999996       6.21954067E-14
   5.84999990       6.72077750E-14
   5.90999985       7.06558089E-14
   5.96999979       7.24665418E-14
   6.03000021       6.68106588E-14
   6.09000015       4.43937184E-14
   6.15000010      -2.10644325E-15
   6.21000004      -7.18727446E-14
   6.26999998      -1.52184702E-13
   6.32999992      -2.19472024E-13
   6.38999987      -2.45703550E-13
   6.44999981      -2.08342485E-13
   6.51000023      -1.00386374E-13
   6.57000017       6.34047326E-14
   6.63000011       2.46923033E-13
   6.69000006       4.00451536E-13
   6.75000000       4.73952203E-13
   6.80999994       4.32207818E-13
   6.86999989       2.67332678E-13
   6.92999983       4.71125316E-15
   6.98999977      -2.99883436E-13
   7.05000019      -5.71868507E-13
   7.11000013      -7.35561080E-13
   7.17000008      -7.33580026E-13
   7.23000002      -5.42756866E-13
   7.28999996      -1.82112450E-13
   7.34999990       2.89369277E-13
   7.40999985       7.84385469E-13
   7.46999979       1.20469997E-12
   7.53000021       1.45904252E-12
   7.59000015       1.47687364E-12
   7.65000010       1.21595008E-12
   7.71000004       6.65023646E-13
   7.76999998      -1.54616811E-13
   7.82999992      -1.18524602E-12
   7.88999987      -2.32598901E-12
   7.94999981      -3.42734716E-12
   8.01000023      -4.29434439E-12
   8.06999969      -4.70533595E-12
   8.13000011      -4.44863504E-12
   8.18999958      -3.37134335E-12
   8.25000000      -1.42765183E-12
   8.31000042       1.28870655E-12
   8.36999989       4.53940574E-12
   8.43000031       7.96652327E-12
   8.48999977       1.11402276E-11
   8.55000019       1.36154464E-11
   8.60999966       1.49837972E-11
   8.67000008       1.49127880E-11
   8.72999954       1.31716842E-11
   8.78999996       9.64799161E-12
   8.85000038       4.35720904E-12
   8.90999985      -2.55700149E-12
   8.97000027      -1.08408300E-11
   9.02999973      -2.01755643E-11
   9.09000015      -3.02521862E-11
   9.14999962      -4.08649711E-11
   9.21000004      -5.20016426E-11
   9.27000046      -6.39023556E-11
   9.32999992      -7.70651043E-11
   9.39000034      -9.21891660E-11
   9.44999981      -1.10065665E-10
   9.51000023      -1.31437958E-10
   9.56999969      -1.56859303E-10
   9.63000011      -1.86571564E-10
   9.68999958      -2.20419696E-10
   9.75000000      -2.57807775E-10
   9.81000042      -2.97697256E-10
   9.86999989      -3.38645861E-10
   9.93000031      -3.78886283E-10
   9.98999977      -4.16441437E-10
   10.0500002      -4.49268733E-10
   10.1099997      -4.75420758E-10
   10.1700001      -4.93204366E-10
   10.2299995      -5.01318709E-10
   10.2900000      -4.98956765E-10
   10.3500004      -4.85858076E-10
   10.4099998      -4.62307248E-10
   10.4700003      -4.29075914E-10
   10.5299997      -3.87313071E-10
   10.5900002      -3.38392481E-10
   10.6499996      -2.83737783E-10
   10.7100000      -2.24654198E-10
   10.7700005      -1.62201905E-10
   10.8299999      -9.71429534E-11
   10.8900003      -2.99787278E-11
   10.9499998       3.89311430E-11
   11.0100002       1.09204229E-10
   11.0699997       1.80282081E-10
   11.1300001       2.51346804E-10
   11.1899996       3.21347227E-10
   11.2500000       3.89137000E-10
   11.3100004       4.53685395E-10
   11.3699999       5.14290943E-10
   11.4300003       5.70722525E-10
   11.4899998       6.23236129E-10
   11.5500002       6.72461309E-10
   11.6099997       7.19197701E-10
   11.6700001       7.64195984E-10
   11.7299995       8.07993672E-10
   11.7900000       8.50846060E-10
   11.8500004       8.92746488E-10
   11.9099998       9.33488398E-10
   11.9700003       9.72715242E-10
   12.0299997       1.00992337E-09
   12.0900002       1.04443243E-09
   12.1499996       1.07537579E-09
   12.2100000       1.10177523E-09
   12.2700005       1.12273213E-09
   12.3299999       1.13771048E-09
   12.3900003       1.14681853E-09
   12.4499998       1.15097087E-09
   12.5100002       1.15183363E-09
   12.5699997       1.15152610E-09
   12.6300001       1.15214549E-09
   12.6899996       1.15525378E-09
   12.7500000       1.16148213E-09
   12.8100004       1.17036902E-09
   12.8699999       1.18045840E-09
   12.9300003       1.18959687E-09
   12.9899998       1.19531696E-09
   13.0500002       1.19519428E-09
   13.1099997       1.18711718E-09
   13.1700001       1.16947541E-09
   13.2299995       1.14131582E-09
   13.2900000       1.10251097E-09
   13.3500004       1.05394216E-09
   13.4099998       9.97638860E-10
   13.4700003       9.36781541E-10
   13.5299997       8.75487849E-10
   13.5900002       8.18362100E-10
   13.6499996       7.69877495E-10
   13.7100000       7.33722139E-10
   13.7700005       7.12262527E-10
   13.8299999       7.06238679E-10
   13.8900003       7.14729109E-10
   13.9499998       7.35342676E-10
   14.0100002       7.64538821E-10
   14.0699997       7.97969191E-10
   14.1300001       8.30765678E-10
   14.1899996       8.57753923E-10
   14.2500000       8.73626116E-10
   14.3100004       8.73134953E-10
   14.3699999       8.51367976E-10
   14.4300003       8.04120048E-10
   14.4899998       7.28323624E-10
   14.5500002       6.22438656E-10
   14.6099997       4.86684359E-10
   14.6700001       3.23024524E-10
   14.7299995       1.34904088E-10
   14.7900000      -7.31646341E-11
   14.8500004      -2.95995228E-10
   14.9099998      -5.27941191E-10
   14.9700003      -7.62876762E-10
   15.0299997      -9.94046623E-10
   15.0900002      -1.21401134E-09
   15.1499996      -1.41493206E-09
   15.2100000      -1.58930502E-09
   15.2700005      -1.73103232E-09
   15.3299999      -1.83649862E-09
   15.3900003      -1.90524263E-09
   15.4499998      -1.93992244E-09
   15.5100002      -1.94552929E-09
   15.5699997      -1.92811411E-09
   15.6300001      -1.89346139E-09
   15.6899996      -1.84614790E-09
   15.7500000      -1.78921411E-09
   15.8100004      -1.72441084E-09
   15.8699999      -1.65274128E-09
   15.9300003      -1.57495228E-09
   15.9899998      -1.49171364E-09
   16.0499992      -1.40342316E-09
   16.1100006      -1.30978339E-09
   16.1700001      -1.20942756E-09
   16.2299995      -1.09988141E-09
   16.2900009      -9.78034653E-10
   16.3500004      -8.41098580E-10
   16.4099998      -6.87805313E-10
   16.4699993      -5.19436549E-10
   16.5300007      -3.40237366E-10
   16.5900002      -1.56922156E-10
   16.6499996       2.27079328E-11
   16.7099991       1.91644672E-10
   16.7700005       3.45400569E-10
   16.8299999       4.82940188E-10
   16.8899994       6.06476591E-10
   16.9500008       7.20286830E-10
   17.0100002       8.29135205E-10
   17.0699997       9.37039335E-10
   17.1299992       1.04687248E-09
   17.1900005       1.16078835E-09
   17.2500000       1.28096167E-09
   17.3099995       1.40994771E-09
   17.3700008       1.55019142E-09
   17.4300003       1.70274694E-09
   17.4899998       1.86578863E-09
   17.5499992       2.03370076E-09
   17.6100006       2.19729945E-09
   17.6700001       2.34520736E-09
   17.7299995       2.46585086E-09
   17.7900009       2.54929389E-09
   17.8500004       2.58828647E-09
   17.9099998       2.57835020E-09
   17.9699993       2.51719467E-09
   18.0300007       2.40402076E-09
   18.0900002       2.23917707E-09
   18.1499996       2.02434070E-09
   18.2099991       1.76303883E-09
   18.2700005       1.46113110E-09
   18.3299999       1.12689413E-09
   18.3899994       7.70532804E-10
   18.4500008       4.03197892E-10
   18.5100002       3.57834942E-11
   18.5699997      -3.22134291E-10
   18.6299992      -6.62893906E-10
   18.6900005      -9.80714954E-10
   18.7500000      -1.27110200E-09
   18.8099995      -1.52999491E-09
   18.8700008      -1.75311954E-09
   18.9300003      -1.93594496E-09
   18.9899998      -2.07438755E-09
   19.0499992      -2.16600560E-09
   19.1100006      -2.21110663E-09
   19.1700001      -2.21313035E-09
   19.2299995      -2.17794960E-09
   19.2900009      -2.11225837E-09
   19.3500004      -2.02169614E-09
   19.4099998      -1.90953386E-09
   19.4699993      -1.77651494E-09
   19.5300007      -1.62190750E-09
   19.5900002      -1.44526968E-09
   19.6499996      -1.24815625E-09
   19.7099991      -1.03509201E-09
   19.7700005      -8.13535572E-10
   19.8299999      -5.92983496E-10
   19.8899994      -3.83629767E-10
   19.9500008      -1.95009231E-10
   20.0100002      -3.49107826E-11
   20.0699997       9.13065873E-11
   20.1299992       1.80941234E-10
   20.1900005       2.33693953E-10
   20.2500000       2.50967969E-10
   20.3099995       2.34904124E-10
   20.3700008       1.87490010E-10
   20.4300003       1.10121731E-10
   20.4899998       3.82702550E-12
   20.5499992      -1.29982497E-10
   20.6100006      -2.88684632E-10
   20.6700001      -4.68091177E-10
   20.7299995      -6.62875532E-10
   20.7900009      -8.67647398E-10
   20.8500004      -1.07813880E-09
   20.9099998      -1.29185995E-09
   20.9699993      -1.50784563E-09
   21.0300007      -1.72559178E-09
   21.0900002      -1.94370320E-09
   21.1499996      -2.15889129E-09
   21.2099991      -2.36575270E-09
   21.2700005      -2.55735366E-09
   21.3299999      -2.72630363E-09
   21.3899994      -2.86585933E-09
   21.4500008      -2.97069880E-09
   21.5100002      -3.03720138E-09
   21.5699997      -3.06325187E-09
   21.6299992      -3.04767567E-09
   21.6900005      -2.98946512E-09
   21.7500000      -2.88699331E-09
   21.8099995      -2.73749112E-09
   21.8700008      -2.53705279E-09
   21.9300003      -2.28133845E-09
   21.9899998      -1.96687067E-09
   22.0499992      -1.59256675E-09
   22.1100006      -1.16098986E-09
   22.1700001      -6.78909706E-10
   22.2299995      -1.57056937E-10
   22.2900009       3.90697780E-10
   22.3500004       9.48318535E-10
   22.4099998       1.49836610E-09
   22.4699993       2.02242800E-09
   22.5300007       2.50136245E-09
   22.5900002       2.91564284E-09
   22.6499996       3.24602767E-09
   22.7099991       3.47463214E-09
   22.7700005       3.58631236E-09
   22.8299999       3.57019525E-09
   22.8899994       3.42116713E-09
   22.9500008       3.14110138E-09
   23.0100002       2.73955525E-09
   23.0699997       2.23363328E-09
   23.1299992       1.64684844E-09
   23.1900005       1.00709197E-09
   23.2500000       3.44198753E-10
   23.3099995      -3.12177645E-10
   23.3700008      -9.33776279E-10
   23.4300003      -1.49387669E-09
   23.4899998      -1.96683936E-09
   23.5499992      -2.32788699E-09
   23.6100006      -2.55389576E-09
   23.6700001      -2.62540345E-09
   23.7299995      -2.52928767E-09
   23.7900009      -2.26105890E-09
   23.8500004      -1.82574278E-09
   23.9099998      -1.23692789E-09
   23.9699993      -5.14380316E-10
   24.0300007       3.18751386E-10
   24.0900002       1.23805211E-09
   24.1499996       2.21865548E-09
   24.2099991       3.23488569E-09
   24.2700005       4.25944835E-09
   24.3299999       5.26305399E-09
   24.3899994       6.21504270E-09
   24.4500008       7.08505077E-09
   24.5100002       7.84522225E-09
   24.5699997       8.47232062E-09
   24.6299992       8.94919072E-09
   24.6900005       9.26537336E-09
   24.7500000       9.41700673E-09
   24.8099995       9.40632372E-09
   24.8700008       9.24107013E-09
   24.9300003       8.93395313E-09
   24.9899998       8.50213056E-09
   25.0499992       7.96655897E-09
   25.1100006       7.35104910E-09
   25.1700001       6.68098021E-09
   25.2299995       5.98176175E-09
   25.2900009       5.27732436E-09
   25.3500004       4.58892213E-09
   25.4099998       3.93448518E-09
   25.4699993       3.32853700E-09
   25.5300007       2.78247669E-09
   25.5900002       2.30491715E-09
   25.6499996       1.90183136E-09
   25.7099991       1.57648916E-09
   25.7700005       1.32941469E-09
   25.8299999       1.15872922E-09
   25.8899994       1.06110110E-09
   25.9500008       1.03318853E-09
   26.0100002       1.07308196E-09
   26.0699997       1.18107379E-09
   26.1299992       1.35926204E-09
   26.1900005       1.60997571E-09
   26.2500000       1.93358485E-09
   26.3099995       2.32661423E-09
   26.3700008       2.78100143E-09
   26.4300003       3.28484595E-09
   26.4899998       3.82430931E-09
   26.5499992       4.38579129E-09
   26.6100006       4.95741048E-09
   26.6700001       5.52919621E-09
   26.7299995       6.09204687E-09
   26.7900009       6.63613653E-09
   26.8500004       7.14966397E-09
   26.9099998       7.61865149E-09
   26.9699993       8.02793743E-09
   27.0300007       8.36296277E-09
   27.0900002       8.61165894E-09
   27.1499996       8.76579254E-09
   27.2099991       8.82150175E-09
   27.2700005       8.77911521E-09
   27.3299999       8.64259952E-09
   27.3899994       8.41890380E-09
   27.4500008       8.11731127E-09
   27.5100002       7.74875897E-09
   27.5699997       7.32505034E-09
   27.6299992       6.85805679E-09
   27.6900005       6.35910924E-09
   27.7500000       5.83876281E-09
   27.8099995       5.30693089E-09
   27.8700008       4.77308149E-09
   27.9300003       4.24610169E-09
   27.9899998       3.73357523E-09
   28.0499992       3.24062754E-09
   28.1100006       2.76890688E-09
   28.1700001       2.31638464E-09
   28.2299995       1.87836791E-09
   28.2900009       1.44952161E-09
   28.3500004       1.02612385E-09
   28.4099998       6.07573158E-10
   28.4699993       1.96480929E-10
   28.5300007      -2.02637768E-10
   28.5900002      -5.85381021E-10
   28.6499996      -9.49186507E-10
   28.7099991      -1.29398781E-09
   28.7700005      -1.62162150E-09
   28.8299999      -1.93443594E-09
   28.8899994      -2.23388397E-09
   28.9500008      -2.51977328E-09
   29.0100002      -2.79043055E-09
   29.0699997      -3.04355852E-09
   29.1299992      -3.27730110E-09
   29.1900005      -3.49102192E-09
   29.2500000      -3.68553077E-09
   29.3099995      -3.86272836E-09
   29.3700008      -4.02485822E-09
   29.4300003      -4.17363566E-09
   29.4899998      -4.30954916E-09
   29.5499992      -4.43158443E-09
   29.6100006      -4.53753612E-09
   29.6700001      -4.62488092E-09
   29.7299995      -4.69196193E-09
   29.7900009      -4.73904826E-09
   29.8500004      -4.76886886E-09
   29.9099998      -4.78640549E-09
   29.9699993      -4.79810103E-09
   30.0300007      -4.81091034E-09
   30.0900002      -4.83164264E-09
   30.1499996      -4.86681984E-09
   30.2099991      -4.92289498E-09
   30.2700005      -5.00643393E-09
   30.3299999      -5.12389020E-09
   30.3899994      -5.28089261E-09
   30.4500008      -5.48129853E-09
   30.5100002      -5.72643533E-09
   30.5699997      -6.01480510E-09
   30.6299992      -6.34225117E-09
   30.6900005      -6.70233868E-09
   30.7500000      -7.08670189E-09
   30.8099995      -7.48534390E-09
   30.8700008      -7.88711940E-09
   30.9300003      -8.28062507E-09
   30.9899998      -8.65550476E-09
   31.0499992      -9.00373021E-09
   31.1100006      -9.32029565E-09
   31.1700001      -9.60291402E-09
   31.2299995      -9.85085968E-09
   31.2900009      -1.00635846E-08
   31.3500004      -1.02398703E-08
   31.4099998      -1.03779092E-08
   31.4699993      -1.04760209E-08
   31.5300007      -1.05332676E-08
   31.5900002      -1.05492601E-08
   31.6499996      -1.05230740E-08
   31.7099991      -1.04519495E-08
   31.7700005      -1.03307984E-08
   31.8299999      -1.01531983E-08
   31.8899994      -9.91366456E-09
   31.9500008      -9.61012514E-09
   32.0099983      -9.24528898E-09
   32.0699997      -8.82617623E-09
   32.1300011      -8.36212877E-09
   32.1899986      -7.86249466E-09
   32.2500000      -7.33528571E-09
   32.3100014      -6.78734935E-09
   32.3699989      -6.22553031E-09
   32.4300003      -5.65757219E-09
   32.4900017      -5.09168263E-09
   32.5499992      -4.53462423E-09
   32.6100006      -3.98926936E-09
   32.6699982      -3.45306939E-09
   32.7299995      -2.91849944E-09
   32.7900009      -2.37546294E-09
   32.8499985      -1.81458937E-09
   32.9099998      -1.22996235E-09
   32.9700012      -6.20278773E-10
   33.0299988       1.15985008E-11
   33.0900002       6.59902355E-10
   33.1500015       1.31703848E-09
   33.2099991       1.97392480E-09
   33.2700005       2.61974553E-09
   33.3300018       3.24172844E-09
   33.3899994       3.82550436E-09
   33.4500008       4.35615766E-09
   33.5099983       4.81964246E-09
   33.5699997       5.20408561E-09
   33.6300011       5.50070434E-09
   33.6899986       5.70434544E-09
   33.7500000       5.81377657E-09
   33.8100014       5.83171156E-09
   33.8699989       5.76434989E-09
   33.9300003       5.62021629E-09
   33.9900017       5.40843681E-09
   34.0499992       5.13701970E-09
   34.1100006       4.81194906E-09
   34.1699982       4.43758541E-09
   34.2299995       4.01815603E-09
   34.2900009       3.55939989E-09
   34.3499985       3.06923087E-09
   34.4099998       2.55675880E-09
   34.4700012       2.02994399E-09
   34.5299988       1.49297263E-09
   34.5900002       9.44639145E-10
   34.6500015       3.78507253E-10
   34.7099991      -2.15250151E-10
   34.7700005      -8.47114157E-10
   34.8300018      -1.52551827E-09
   34.8899994      -2.25477859E-09
   34.9500008      -3.03380721E-09
   35.0099983      -3.85557453E-09
   35.0699997      -4.70739403E-09
   35.1300011      -5.57226887E-09
   35.1899986      -6.43136078E-09
   35.2500000      -7.26708116E-09
   35.3100014      -8.06568412E-09
   35.3699989      -8.81810003E-09
   35.4300003      -9.51841450E-09
   35.4900017      -1.01606323E-08
   35.5499992      -1.07355307E-08
   35.6100006      -1.12296110E-08
   35.6699982      -1.16272094E-08
   35.7299995      -1.19151098E-08
   35.7900009      -1.20875168E-08
   35.8499985      -1.21488526E-08
   35.9099998      -1.21128760E-08
   35.9700012      -1.19984422E-08
   36.0299988      -1.18238450E-08
   36.0900002      -1.16022214E-08
   36.1500015      -1.13397141E-08
   36.2099991      -1.10365841E-08
   36.2700005      -1.06901039E-08
   36.3300018      -1.02975912E-08
   36.3899994      -9.85831417E-09
   36.4500008      -9.37394606E-09
   36.5099983      -8.84797124E-09
   36.5699997      -8.28471691E-09
   36.6300011      -7.68851915E-09
   36.6899986      -7.06325753E-09
   36.7500000      -6.41231690E-09
   36.8100014      -5.73907588E-09
   36.8699989      -5.04793052E-09
   36.9300003      -4.34561764E-09
   36.9900017      -3.64225938E-09
   37.0499992      -2.95139335E-09
   37.1100006      -2.28856711E-09
   37.1699982      -1.66876535E-09
   37.2299995      -1.10364506E-09
   37.2900009      -5.99769512E-10
   37.3499985      -1.58551436E-10
   37.4099998       2.22312710E-10
   37.4700012       5.46925727E-10
   37.5299988       8.19919632E-10
   37.5900002       1.04633291E-09
   37.6500015       1.23218991E-09
   37.7099991       1.38475897E-09
   37.7700005       1.51166712E-09
   37.8300018       1.61892255E-09
   37.8899994       1.70882197E-09
   37.9500008       1.77902826E-09
   38.0099983       1.82354198E-09
   38.0699997       1.83517634E-09
   38.1300011       1.80824544E-09
   38.1899986       1.74005921E-09
   38.2500000       1.63060521E-09
   38.3100014       1.48093426E-09
   38.3699989       1.29154187E-09
   38.4300003       1.06193798E-09
   38.4900017       7.91732679E-10
   38.5499992       4.82532125E-10
   38.6100006       1.39406445E-10
   38.6699982      -2.29012212E-10
   38.7299995      -6.11872830E-10
   38.7900009      -9.98106486E-10
   38.8499985      -1.37801015E-09
   38.9099998      -1.74375203E-09
   38.9700012      -2.08890460E-09
   39.0299988      -2.40772358E-09
   39.0900002      -2.69492983E-09
   39.1500015      -2.94628277E-09
   39.2099991      -3.15958459E-09
   39.2700005      -3.33538885E-09
   39.3300018      -3.47681617E-09
   39.3899994      -3.58839580E-09
   39.4500008      -3.67438902E-09
   39.5099983      -3.73732112E-09
   39.5699997      -3.77729847E-09
   39.6300011      -3.79229181E-09
   39.6899986      -3.77916454E-09
   39.7500000      -3.73499232E-09
   39.8100014      -3.65824526E-09
   39.8699989      -3.54954177E-09
   39.9300003      -3.41183792E-09
   39.9900017      -3.25004379E-09
   40.0499992      -3.07013193E-09
   40.1100006      -2.87791324E-09
   40.1699982      -2.67776845E-09
   40.2299995      -2.47168885E-09
   40.2900009      -2.25893415E-09
   40.3499985      -2.03643302E-09
   40.4099998      -1.79980819E-09
   40.4700012      -1.54469471E-09
   40.5299988      -1.26792954E-09
   40.5900002      -9.68255476E-10
   40.6500015      -6.46344089E-10
   40.7099991      -3.04154368E-10
   40.7700005       5.61613742E-11
   40.8300018       4.33435898E-10
   40.8899994       8.28302815E-10
   40.9500008       1.24324018E-09
   41.0099983       1.68165082E-09
   41.0699997       2.14614015E-09
   41.1300011       2.63654587E-09
   41.1899986       3.14851478E-09
   41.2500000       3.67332320E-09
   41.3100014       4.19920410E-09
   41.3699989       4.71379069E-09
   41.4300003       5.20675858E-09
   41.4900017       5.67158764E-09
   41.5499992       6.10573236E-09
   41.6100006       6.50916432E-09
   41.6699982       6.88197499E-09
   41.7299995       7.22207139E-09
   41.7900009       7.52389084E-09
   41.8499985       7.77852538E-09
   41.9099998       7.97505706E-09
   41.9700012       8.10245560E-09
   42.0299988       8.15138179E-09
   42.0900002       8.11540612E-09
   42.1500015       7.99151323E-09
   42.2099991       7.77994291E-09
   42.2700005       7.48351159E-09
   42.3300018       7.10655090E-09
   42.3899994       6.65366917E-09
   42.4500008       6.12862117E-09
   42.5099983       5.53371793E-09
   42.5699997       4.87011986E-09
   42.6300011       4.13905132E-09
   42.6899986       3.34355432E-09
   42.7500000       2.49003129E-09
   42.8100014       1.58879820E-09
   42.8699989       6.53263721E-10
   42.9300003      -3.02027681E-10
   42.9900017      -1.26369359E-09
   43.0499992      -2.22117125E-09
   43.1100006      -3.16707038E-09
   43.1699982      -4.09618783E-09
   43.2299995      -5.00379560E-09
   43.2900009      -5.88410343E-09
   43.3499985      -6.72963640E-09
   43.4099998      -7.53175922E-09
   43.4700012      -8.28200797E-09
   43.5299988      -8.97352859E-09
   43.5900002      -9.60194058E-09
   43.6500015      -1.01652589E-08
   43.7099991      -1.06629017E-08
   43.7700005      -1.10942073E-08
   43.8300018      -1.14569882E-08
   43.8899994      -1.17466668E-08
   43.9500008      -1.19563044E-08
   44.0099983      -1.20776020E-08
   44.0699997      -1.21026300E-08
   44.1300011      -1.20257919E-08
   44.1899986      -1.18453904E-08
   44.2500000      -1.15642056E-08
   44.3100014      -1.11888152E-08
   44.3699989      -1.07278497E-08
   44.4300003      -1.01898667E-08
   44.4900017      -9.58174873E-09
   44.5499992      -8.90842422E-09
   44.6100006      -8.17413337E-09
   44.6699982      -7.38476169E-09
   44.7299995      -6.55013954E-09
   44.7900009      -5.68505021E-09
   44.8499985      -4.80810369E-09
   44.9099998      -3.93852684E-09
   44.9700012      -3.09192050E-09
   45.0299988      -2.27668639E-09
   45.0900002      -1.49276169E-09
   45.1500015      -7.33476446E-10
   45.2099991       9.97590205E-12
   45.2700005       7.43157758E-10
   45.3300018       1.46431922E-09
   45.3899994       2.16336704E-09
   45.4500008       2.82426593E-09
   45.5099983       3.42972428E-09
   45.5699997       3.96602129E-09
   45.6300011       4.42589299E-09
   45.6899986       4.80848206E-09
   45.7500000       5.11686737E-09
   45.8100014       5.35480904E-09
   45.8699989       5.52446666E-09
   45.9300003       5.62601077E-09
   45.9900017       5.65880187E-09
   46.0499992       5.62294744E-09
   46.1100006       5.52007284E-09
   46.1699982       5.35296918E-09
   46.2299995       5.12472997E-09
   46.2900009       4.83841900E-09
   46.3499985       4.49786830E-09
   46.4099998       4.10922407E-09
   46.4700012       3.68205666E-09
   46.5299988       3.22886762E-09
   46.5900002       2.76271783E-09
   46.6500015       2.29396568E-09
   46.7099991       1.82786619E-09
   46.7700005       1.36452816E-09
   46.8300018       9.01519526E-10
   46.8899994       4.37965358E-10
   46.9500008      -2.18729340E-11
   47.0099983      -4.67325734E-10
   47.0699997      -8.83014439E-10
   47.1300011      -1.25282362E-09
   47.1899986      -1.56454605E-09
   47.2500000      -1.81350213E-09
   47.3100014      -2.00398587E-09
   47.3699989      -2.14817431E-09
   47.4300003      -2.26280816E-09
   47.4900017      -2.36444242E-09
   47.5499992      -2.46442622E-09
   47.6100006      -2.56508548E-09
   47.6699982      -2.65858291E-09
   47.7299995      -2.72937295E-09
   47.7900009      -2.75993850E-09
   47.8499985      -2.73798761E-09
   47.9099998      -2.66226308E-09
   47.9700012      -2.54429211E-09
   48.0299988      -2.40497178E-09
   48.0900002      -2.26719732E-09
   48.1500015      -2.14763274E-09
   48.2099991      -2.05117701E-09
   48.2700005      -1.97038119E-09
   48.3300018      -1.88974192E-09
   48.3899994      -1.79261639E-09
   48.4500008      -1.66761804E-09
   48.5099983      -1.51201940E-09
   48.5699997      -1.33137690E-09
   48.6300011      -1.13627585E-09
   48.6899986      -9.37975475E-10
   48.7500000      -7.44630801E-10
   48.8100014      -5.59080726E-10
   48.8699989      -3.78482662E-10
   48.9300003      -1.95652369E-10
   48.9900017      -1.74740593E-12
   49.0499992       2.10337178E-10
   49.1100006       4.42872017E-10
   49.1699982       6.91734892E-10
   49.2299995       9.47320999E-10
   49.2900009       1.19788102E-09
   49.3499985       1.43398893E-09
   49.4099998       1.65204006E-09
   49.4700012       1.85494731E-09
   49.5299988       2.04955364E-09
   49.5900002       2.24202235E-09
   49.6500015       2.43358422E-09
   49.7099991       2.61882160E-09
   49.7700005       2.78727486E-09
   49.8300018       2.92736990E-09
   49.8899994       3.03057490E-09
   49.9500008       3.09384340E-09
   50.0099983       3.11958148E-09
   50.0699997       3.11376236E-09
   50.1300011       3.08355252E-09
   50.1899986       3.03560932E-09
   50.2500000       2.97541125E-09
   50.3100014       2.90724400E-09
   50.3699989       2.83430679E-09
   50.4300003       2.75874079E-09
   50.4900017       2.68180522E-09
   50.5499992       2.60446864E-09
   50.6100006       2.52830912E-09