  -2.400000      0.0000000E+00
  -2.340000      0.0000000E+00
  -2.280000      0.0000000E+00
  -2.220000      0.0000000E+00
  -2.160000      0.0000000E+00
  -2.100000      0.0000000E+00
  -2.040000      0.0000000E+00
  -1.980000      0.0000000E+00
  -1.920000      7.7070254E-27
  -1.860000      8.6234428E-26
  -1.800000      4.5463193E-25
  -1.740000      1.3997683E-24
  -1.680000      2.2388151E-24
  -1.620000     -1.3087332E-24
  -1.560000     -1.9250538E-23
  -1.500000     -6.1153678E-23
  -1.440000     -1.1157201E-22
  -1.380000     -9.1746669E-23
  -1.320000      1.4910437E-22
  -1.260000      7.3363095E-22
  -1.200000      1.5028390E-21
  -1.140000      1.7286354E-21
  -1.080000      1.4685284E-22
  -1.020000     -4.2672951E-21
 -0.9600000     -1.0755556E-20
 -0.9000000     -1.5316861E-20
 -0.8400000     -1.0981767E-20
 -0.7800000      8.7880953E-21
 -0.7200000      4.4082061E-20
 -0.6600000      8.3150076E-20
 -0.6000000      1.0224028E-19
 -0.5400000      7.3159666E-20
 -0.4800000     -2.3982947E-20
 -0.4200000     -1.8931214E-19
 -0.3600000     -3.9749422E-19
 -0.3000000     -5.9454837E-19
 -0.2400000     -6.8864999E-19
 -0.1800000     -5.3551523E-19
 -0.1200000      5.5372595E-20
 -5.9999999E-02  1.2444242E-18
  0.0000000E+00  2.9819423E-18
  5.9999999E-02  4.7700317E-18
  0.1200000      5.5298000E-18
  0.1800000      3.8061235E-18
  0.2400000     -1.5465883E-18
  0.3000000     -1.0339713E-17
  0.3600000     -2.0198166E-17
  0.4200000     -2.6589468E-17
  0.4800000     -2.4213328E-17
  0.5400000     -9.5338894E-18
  0.6000000      1.6616978E-17
  0.6600000      4.7882591E-17
  0.7200000      7.3754911E-17
  0.7800000      8.3276302E-17
  0.8400000      6.9401340E-17
  0.9000000      3.1707987E-17
  0.9600000     -2.4015563E-17
   1.020000     -8.8770072E-17
   1.080000     -1.5348397E-16
   1.140000     -2.0955181E-16
   1.200000     -2.4596275E-16
   1.260000     -2.4537150E-16
   1.320000     -1.8365630E-16
   1.380000     -3.6755453E-17
   1.440000      2.0531998E-16
   1.500000      5.2235606E-16
   1.560000      8.5363663E-16
   1.620000      1.1002378E-15
   1.680000      1.1421380E-15
   1.740000      8.6743977E-16
   1.800000      2.0849580E-16
   1.860000     -8.2031155E-16
   1.920000     -2.0889471E-15
   1.980000     -3.3323803E-15
   2.040000     -4.1628057E-15
   2.100000     -4.1339163E-15
   2.160000     -2.8675445E-15
   2.220000     -2.2524033E-16
   2.280000      3.5296858E-15
   2.340000      7.6597308E-15
   2.400000      1.1041694E-14
   2.460000      1.2434828E-14
   2.520000      1.0867061E-14
   2.580000      6.0080191E-15
   2.640000     -1.6194981E-15
   2.700000     -1.0683570E-14
   2.760000     -1.9331425E-14
   2.820000     -2.5608161E-14
   2.880000     -2.7850193E-14
   2.940000     -2.4941957E-14
   3.000000     -1.6428323E-14
   3.060000     -2.5718921E-15
   3.120000      1.5534057E-14
   3.180000      3.5765363E-14
   3.240000      5.4788890E-14
   3.300000      6.8134199E-14
   3.360000      7.0752235E-14
   3.420000      5.8162784E-14
   3.480000      2.8045798E-14
   3.540000     -1.8134603E-14
   3.600000     -7.4061918E-14
   3.660000     -1.2864613E-13
   3.720000     -1.6763331E-13
   3.780000     -1.7672977E-13
   3.840000     -1.4570849E-13
   3.900000     -7.2466745E-14
   3.960000      3.4299176E-14
   4.020000      1.5505360E-13
   4.080000      2.6268937E-13
   4.140000      3.2876756E-13
   4.200000      3.3124035E-13
   4.260000      2.6133493E-13
   4.320000      1.2720958E-13
   4.380000     -4.7113091E-14
   4.440000     -2.2741089E-13
   4.500000     -3.7769009E-13
   4.560000     -4.6852040E-13
   4.620000     -4.8262105E-13
   4.680000     -4.1642051E-13
   4.740000     -2.7821080E-13
   4.800000     -8.4942287E-14
   4.860000      1.4014519E-13
   4.920000      3.6811545E-13
   4.980000      5.6420011E-13
   5.040000      6.8947929E-13
   5.100000      7.0683894E-13
   5.160000      5.9166214E-13
   5.220000      3.4453503E-13
   5.280000      5.0335468E-16
   5.340000     -3.7118502E-13
   5.400000     -6.8044246E-13
   5.460000     -8.4134457E-13
   5.520000     -8.0159387E-13
   5.580000     -5.6553178E-13
   5.640000     -2.0021040E-13
   5.700000      1.8078559E-13
   5.760000      4.5268710E-13
   5.820000      5.2266037E-13
   5.880000      3.6477662E-13
   5.940000      3.2681648E-14
   6.000000     -3.5620115E-13
   6.060000     -6.5986610E-13
   6.120000     -7.5952948E-13
   6.180000     -5.9756383E-13
   6.240000     -1.9147482E-13
   6.300000      3.7937801E-13
   6.360000      1.0053380E-12
   6.420000      1.5795271E-12
   6.480000      2.0165449E-12
   6.540000      2.2502931E-12
   6.600000      2.2178444E-12
   6.660000      1.8465464E-12
   6.720000      1.0625396E-12
   6.780000     -1.7116598E-13
   6.840000     -1.7961056E-12
   6.900000     -3.6043113E-12
   6.960000     -5.2200765E-12
   7.020000     -6.1406154E-12
   7.080000     -5.8379473E-12
   7.140000     -3.8995218E-12
   7.200000     -1.6681226E-13
   7.260000      5.1721908E-12
   7.320000      1.1567226E-11
   7.380000      1.8172739E-11
   7.440000      2.3978030E-11
   7.500000      2.7964579E-11
   7.560000      2.9252559E-11
   7.620000      2.7209381E-11
   7.680000      2.1510104E-11
   7.740000      1.2154452E-11
   7.800000     -5.4780708E-13
   7.860000     -1.6012304E-11
   7.920000     -3.3431816E-11
   7.980000     -5.1845594E-11
   8.040000     -7.0229801E-11
   8.100000     -8.7609649E-11
   8.160000     -1.0318730E-10
   8.220000     -1.1647064E-10
   8.280000     -1.2737990E-10
   8.340000     -1.3630266E-10
   8.400000     -1.4406788E-10
   8.460000     -1.5181952E-10
   8.520000     -1.6079289E-10
   8.580000     -1.7202867E-10
   8.640000     -1.8609114E-10
   8.700000     -2.0287327E-10
   8.760000     -2.2155966E-10
   8.820000     -2.4077432E-10
   8.880000     -2.5887975E-10
   8.940000     -2.7433680E-10
   9.000000     -2.8601216E-10
   9.060000     -2.9334288E-10
   9.120000     -2.9632824E-10
   9.180000     -2.9539055E-10
   9.240000     -2.9119449E-10
   9.300000     -2.8451472E-10
   9.360000     -2.7619676E-10
   9.420000     -2.6719110E-10
   9.480000     -2.5859187E-10
   9.540000     -2.5160435E-10
   9.600000     -2.4740612E-10
   9.660000     -2.4692717E-10
   9.720000     -2.5062677E-10
   9.780000     -2.5835675E-10
   9.840000     -2.6937033E-10
   9.900000     -2.8247713E-10
   9.960000     -2.9628880E-10
   10.02000     -3.0947020E-10
   10.08000     -3.2091901E-10
   10.14000     -3.2983272E-10
   10.20000     -3.3567288E-10
   10.26000     -3.3807682E-10
   10.32000     -3.3678652E-10
   10.38000     -3.3165362E-10
   10.44000     -3.2273956E-10
   10.50000     -3.1047440E-10
   10.56000     -2.9578603E-10
   10.62000     -2.8009300E-10
   10.68000     -2.6508779E-10
   10.74000     -2.5232311E-10
   10.80000     -2.4272082E-10
   10.86000     -2.3619565E-10
   10.92000     -2.3157871E-10
   10.98000     -2.2692027E-10
   11.04000     -2.2008587E-10
   11.10000     -2.0941857E-10
   11.16000     -1.9419759E-10
   11.22000     -1.7471748E-10
   11.28000     -1.5200012E-10
   11.34000     -1.2733606E-10
   11.40000     -1.0192704E-10
   11.46000     -7.6825067E-11
   11.52000     -5.3174236E-11
   11.58000     -3.2571404E-11
   11.64000     -1.7282013E-11
   11.70000     -1.0124404E-11
   11.76000     -1.4021967E-11
   11.82000     -3.1404802E-11
   11.88000     -6.3713534E-11
   11.94000     -1.1118429E-10
   12.00000     -1.7293303E-10
   12.06000     -2.4721741E-10
   12.12000     -3.3172082E-10
   12.18000     -4.2378151E-10
   12.24000     -5.2060550E-10
   12.30000     -6.1955757E-10
   12.36000     -7.1856943E-10
   12.42000     -8.1657209E-10
   12.48000     -9.1375690E-10
   12.54000     -1.0114753E-09
   12.60000     -1.1117318E-09
   12.66000     -1.2164200E-09
   12.72000     -1.3265825E-09
   12.78000     -1.4419587E-09
   12.84000     -1.5609212E-09
   12.90000     -1.6807050E-09
   12.96000     -1.7977199E-09
   13.02000     -1.9077662E-09
   13.08000     -2.0061290E-09
   13.14000     -2.0876696E-09
   13.20000     -2.1470812E-09
   13.26000     -2.1793889E-09
   13.32000     -2.1805964E-09
   13.38000     -2.1482685E-09
   13.44000     -2.0818287E-09
   13.50000     -1.9824689E-09
   13.56000     -1.8527418E-09
   13.62000     -1.6960106E-09
   13.68000     -1.5159312E-09
   13.74000     -1.3160601E-09
   13.80000     -1.0995844E-09
   13.86000     -8.6913271E-10
   13.92000     -6.2666100E-10
   13.98000     -3.7345491E-10
   14.04000     -1.1030518E-10
   14.10000      1.6213443E-10
   14.16000      4.4288273E-10
   14.22000      7.3019402E-10
   14.28000      1.0212780E-09
   14.34000      1.3122490E-09
   14.40000      1.5983115E-09
   14.46000      1.8741504E-09
   14.52000      2.1344917E-09
   14.58000      2.3747833E-09
   14.64000      2.5918967E-09
   14.70000      2.7846740E-09
   14.76000      2.9541158E-09
   14.82000      3.1030791E-09
   14.88000      3.2355367E-09
   14.94000      3.3556589E-09
   15.00000      3.4670660E-09
   15.06000      3.5724805E-09
   15.12000      3.6737440E-09
   15.18000      3.7718744E-09
   15.24000      3.8667771E-09
   15.30000      3.9564290E-09
   15.36000      4.0357424E-09
   15.42000      4.0956869E-09
   15.48000      4.1232848E-09
   15.54000      4.1027888E-09
   15.60000      4.0178265E-09
   15.66000      3.8538270E-09
   15.72000      3.5999372E-09
   15.78000      3.2499266E-09
   15.84000      2.8020830E-09
   15.90000      2.2585447E-09
   15.96000      1.6246263E-09
   16.02000      9.0847779E-10
   16.08000      1.2102601E-10
   16.14000     -7.2411549E-10
   16.20000     -1.6110910E-09
   16.26000     -2.5226758E-09
   16.32000     -3.4413583E-09
   16.38000     -4.3502624E-09
   16.44000     -5.2336269E-09
   16.50000     -6.0767973E-09
   16.56000     -6.8659167E-09
   16.62000     -7.5875946E-09
   16.68000     -8.2287865E-09
   16.74000     -8.7769738E-09
   16.80000     -9.2206793E-09
   16.86000     -9.5503125E-09
   16.92000     -9.7592974E-09
   16.98000     -9.8454009E-09
   17.04000     -9.8119868E-09
   17.10000     -9.6688204E-09
   17.16000     -9.4320747E-09
   17.22000     -9.1233865E-09
   17.28000     -8.7681506E-09
   17.34000     -8.3934975E-09
   17.40000     -8.0264142E-09
   17.46000     -7.6922930E-09
   17.52000     -7.4138198E-09
   17.58000     -7.2099224E-09
   17.64000     -7.0945032E-09
   17.70000     -7.0749131E-09
   17.76000     -7.1504824E-09
   17.82000     -7.3116264E-09
   17.88000     -7.5400068E-09
   17.94000     -7.8100140E-09
   18.00000     -8.0914271E-09
   18.06000     -8.3528411E-09
   18.12000     -8.5652339E-09
   18.18000     -8.7050100E-09
   18.24000     -8.7559355E-09
   18.30000     -8.7096570E-09
   18.36000     -8.5647880E-09
   18.42000     -8.3250020E-09
   18.48000     -7.9968672E-09
   18.54000     -7.5882038E-09
   18.60000     -7.1075386E-09
   18.66000     -6.5646208E-09
   18.72000     -5.9714811E-09
   18.78000     -5.3431681E-09
   18.84000     -4.6974922E-09
   18.90000     -4.0535793E-09
   18.96000     -3.4296737E-09
   19.02000     -2.8410099E-09
   19.08000     -2.2985314E-09
   19.14000     -1.8088637E-09
   19.20000     -1.3754156E-09
   19.26000     -1.0000952E-09
   19.32000     -6.8500344E-10
   19.38000     -4.3355425E-10
   19.44000     -2.5069338E-10
   19.50000     -1.4210851E-10
   19.56000     -1.1255780E-10
   19.62000     -1.6369792E-10
   19.68000     -2.9203115E-10
   19.74000     -4.8769272E-10
   19.80000     -7.3462486E-10
   19.86000     -1.0122071E-09
   19.92000     -1.2978167E-09
   19.98000     -1.5693895E-09
   20.04000     -1.8070995E-09
   20.10000     -1.9937967E-09
   20.16000     -2.1145372E-09
   20.22000     -2.1560107E-09
   20.28000     -2.1066118E-09
   20.34000     -1.9573778E-09
   20.40000     -1.7033702E-09
   20.46000     -1.3447362E-09
   20.52000     -8.8687657E-10
   20.58000     -3.3968803E-10
   20.64000      2.8363614E-10
   20.70000      9.6763919E-10
   20.76000      1.6951800E-09
   20.82000      2.4477842E-09
   20.88000      3.2062744E-09
   20.94000      3.9520440E-09
   21.00000      4.6688515E-09
   21.06000      5.3445461E-09
   21.12000      5.9720513E-09
   21.18000      6.5492434E-09
   21.24000      7.0779067E-09
   21.30000      7.5622975E-09
   21.36000      8.0078228E-09
   21.42000      8.4200433E-09
   21.48000      8.8038732E-09
   21.54000      9.1628127E-09
   21.60000      9.4982227E-09
   21.66000      9.8089412E-09
   21.72000      1.0091496E-08
   21.78000      1.0340865E-08
   21.84000      1.0551333E-08
   21.90000      1.0716811E-08
   21.96000      1.0830338E-08
   22.02000      1.0883133E-08
   22.08000      1.0864120E-08
   22.14000      1.0760927E-08
   22.20000      1.0562614E-08
   22.26000      1.0263470E-08
   22.32000      9.8663637E-09
   22.38000      9.3840544E-09
   22.44000      8.8376249E-09
   22.50000      8.2523250E-09
   22.56000      7.6522024E-09
   22.62000      7.0552817E-09
   22.68000      6.4707684E-09
   22.74000      5.8989618E-09
   22.80000      5.3335829E-09
   22.86000      4.7655235E-09
   22.92000      4.1866617E-09
   22.98000      3.5924572E-09
   23.04000      2.9824860E-09
   23.10000      2.3588296E-09
   23.16000      1.7230724E-09
   23.22000      1.0733453E-09
   23.28000      4.0297729E-10
   23.34000     -2.9825759E-10
   23.40000     -1.0404442E-09
   23.46000     -1.8287195E-09
   23.52000     -2.6593434E-09
   23.58000     -3.5183580E-09
   23.64000     -4.3834691E-09
   23.70000     -5.2284261E-09
   23.76000     -6.0282392E-09
   23.82000     -6.7634494E-09
   23.88000     -7.4223099E-09
   23.94000     -8.0006934E-09
   24.00000     -8.5003187E-09
   24.06000     -8.9262100E-09
   24.12000     -9.2842418E-09
   24.18000     -9.5793826E-09
   24.24000     -9.8150208E-09
   24.30000     -9.9935074E-09
   24.36000     -1.0117645E-08
   24.42000     -1.0192446E-08
   24.48000     -1.0226126E-08
   24.54000     -1.0229503E-08
   24.60000     -1.0213685E-08
   24.66000     -1.0186961E-08
   24.72000     -1.0152537E-08
   24.78000     -1.0108532E-08
   24.84000     -1.0050634E-08
   24.90000     -9.9763353E-09
   24.96000     -9.8886535E-09
   25.02000     -9.7974509E-09
   25.08000     -9.7175974E-09
   25.14000     -9.6648760E-09
   25.20000     -9.6515373E-09
   25.26000     -9.6833803E-09
   25.32000     -9.7592245E-09
   25.38000     -9.8723758E-09
   25.44000     -1.0012932E-08
   25.50000     -1.0169860E-08
   25.56000     -1.0332353E-08
   25.62000     -1.0490570E-08
   25.68000     -1.0635971E-08
   25.74000     -1.0761213E-08
   25.80000     -1.0859410E-08
   25.86000     -1.0922735E-08
   25.92000     -1.0940966E-08
   25.98000     -1.0901053E-08
   26.04000     -1.0788566E-08
   26.10000     -1.0591059E-08
   26.16000     -1.0302067E-08
   26.22000     -9.9238946E-09
   26.28000     -9.4675690E-09
   26.34000     -8.9497183E-09
   26.40000     -8.3876550E-09
   26.46000     -7.7947560E-09
   26.52000     -7.1780182E-09
   26.58000     -6.5384622E-09
   26.64000     -5.8737744E-09
   26.70000     -5.1818301E-09
   26.76000     -4.4638107E-09
   26.82000     -3.7262051E-09
   26.88000     -2.9815008E-09
   26.94000     -2.2475728E-09
   27.00000     -1.5457339E-09
   27.06000     -8.9754387E-10
   27.12000     -3.2096734E-10
   27.18000      1.7290916E-10
   27.24000      5.8112964E-10
   27.30000      9.0718488E-10
   27.36000      1.1567381E-09
   27.42000      1.3324287E-09
   27.48000      1.4299957E-09
   27.54000      1.4373838E-09
   27.60000      1.3370668E-09
   27.66000      1.1103579E-09
   27.72000      7.4179657E-10
   27.78000      2.2205954E-10
   27.84000     -4.5114479E-10
   27.90000     -1.2738191E-09
   27.96000     -2.2373383E-09
   28.02000     -3.3305383E-09
   28.08000     -4.5420450E-09
   28.14000     -5.8626259E-09
   28.20000     -7.2869315E-09
   28.26000     -8.8136449E-09
   28.32000     -1.0443336E-08
   28.38000     -1.2174271E-08
   28.44000     -1.3997640E-08
   28.50000     -1.5894351E-08
   28.56000     -1.7835047E-08
   28.62000     -1.9783592E-08
   28.68000     -2.1702609E-08
   28.74000     -2.3558803E-08
   28.80000     -2.5326093E-08
   28.86000     -2.6985882E-08
   28.92000     -2.8525147E-08
   28.98000     -2.9933759E-08
   29.04000     -3.1202191E-08
   29.10000     -3.2320067E-08
   29.16000     -3.3275427E-08
   29.22000     -3.4054576E-08
   29.28000     -3.4642664E-08
   29.34000     -3.5025426E-08
   29.40000     -3.5192034E-08
   29.46000     -3.5138296E-08
   29.52000     -3.4868577E-08
   29.58000     -3.4395029E-08
   29.64000     -3.3733670E-08
   29.70000     -3.2898580E-08
   29.76000     -3.1896597E-08
   29.82000     -3.0724991E-08
   29.88000     -2.9373371E-08
   29.94000     -2.7829280E-08
   30.00000     -2.6085281E-08
   30.06000     -2.4144924E-08
   30.12000     -2.2025521E-08
   30.18000     -1.9757096E-08
   30.24000     -1.7378083E-08
   30.30000     -1.4929254E-08
   30.36000     -1.2447385E-08
   30.42000     -9.9601039E-09
   30.48000     -7.4828259E-09
   30.54000     -5.0183755E-09
   30.60000     -2.5592921E-09
   30.66000     -9.2301715E-11
   30.72000      2.3962210E-09
   30.78000      4.9152091E-09
   30.84000      7.4655420E-09
   30.90000      1.0038994E-08
   30.96000      1.2619324E-08
   31.02000      1.5184762E-08
   31.08000      1.7710940E-08
   31.14000      2.0173538E-08
   31.20000      2.2550269E-08
   31.26000      2.4821967E-08
   31.32000      2.6972730E-08
   31.38000      2.8989042E-08
   31.44000      3.0858061E-08
   31.50000      3.2565595E-08
   31.56000      3.4094715E-08
   31.62000      3.5425849E-08
   31.68000      3.6538886E-08
   31.74000      3.7416839E-08
   31.80000      3.8049780E-08
   31.86000      3.8437445E-08
   31.92000      3.8589132E-08
   31.98000      3.8520543E-08
   32.04000      3.8248388E-08
   32.10000      3.7784574E-08
   32.16000      3.7132040E-08
   32.22000      3.6283883E-08
   32.28000      3.5226350E-08
   32.34000      3.3944929E-08
   32.40000      3.2431622E-08
   32.46000      3.0691147E-08
   32.52000      2.8743946E-08
   32.58000      2.6624958E-08
   32.64000      2.4378606E-08
   32.70000      2.2051497E-08
   32.76000      1.9685197E-08
   32.82000      1.7311107E-08
   32.88000      1.4948682E-08
   32.94000      1.2607036E-08
   33.00000      1.0288956E-08
   33.06000      7.9958031E-09
   33.12000      5.7318066E-09
   33.18000      3.5066063E-09
   33.24000      1.3354481E-09
   33.30000     -7.6296980E-10
   33.36000     -2.7704186E-09
   33.42000     -4.6736610E-09
   33.48000     -6.4680079E-09
   33.54000     -8.1583469E-09
   33.60000     -9.7567421E-09
   33.66000     -1.1276886E-08
   33.72000     -1.2727078E-08
   33.78000     -1.4104270E-08
   33.84000     -1.5391652E-08
   33.90000     -1.6561092E-08
   33.96000     -1.7579884E-08
   34.02000     -1.8419623E-08
   34.08000     -1.9064123E-08
   34.14000     -1.9513744E-08
   34.20000     -1.9784830E-08
   34.26000     -1.9904697E-08
   34.32000     -1.9904013E-08
   34.38000     -1.9809072E-08
   34.44000     -1.9636186E-08
   34.50000     -1.9389562E-08
   34.56000     -1.9062979E-08
   34.62000     -1.8644506E-08
   34.68000     -1.8122838E-08
   34.74000     -1.7493456E-08
   34.80000     -1.6762904E-08
   34.86000     -1.5950006E-08
   34.92000     -1.5083652E-08
   34.98000     -1.4197778E-08
   35.04000     -1.3325006E-08
   35.10000     -1.2490924E-08
   35.16000     -1.1710792E-08
   35.22000     -1.0989791E-08
   35.28000     -1.0326753E-08
   35.34000     -9.7201491E-09
   35.40000     -9.1742134E-09
   35.46000     -8.7029015E-09
   35.52000     -8.3300247E-09
   35.58000     -8.0851326E-09
   35.64000     -7.9963396E-09
   35.70000     -8.0824671E-09
   35.76000     -8.3473495E-09
   35.82000     -8.7784642E-09
   35.88000     -9.3505053E-09
   35.94000     -1.0032672E-08
   36.00000     -1.0797017E-08
   36.06000     -1.1624818E-08
   36.12000     -1.2508810E-08
   36.18000     -1.3450773E-08
   36.24000     -1.4455835E-08
   36.30000     -1.5526028E-08
   36.36000     -1.6655740E-08
   36.42000     -1.7830606E-08
   36.48000     -1.9029931E-08
   36.54000     -2.0231132E-08
   36.60000     -2.1414113E-08
   36.66000     -2.2563786E-08
   36.72000     -2.3670035E-08
   36.78000     -2.4725781E-08
   36.84000     -2.5724594E-08
   36.90000     -2.6659373E-08
   36.96000     -2.7522825E-08
   37.02000     -2.8309341E-08
   37.08000     -2.9017160E-08
   37.14000     -2.9649446E-08
   37.20000     -3.0213631E-08
   37.26000     -3.0719232E-08
   37.32000     -3.1175066E-08
   37.38000     -3.1587028E-08
   37.44000     -3.1957036E-08
   37.50000     -3.2283335E-08
   37.56000     -3.2561701E-08
   37.62000     -3.2787053E-08
   37.68000     -3.2955203E-08
   37.74000     -3.3064349E-08
   37.80000     -3.3115938E-08
   37.86000     -3.3114286E-08
   37.92000     -3.3064488E-08
   37.98000     -3.2968938E-08
   38.04000     -3.2823742E-08
   38.10000     -3.2617063E-08
   38.16000     -3.2331219E-08
   38.22000     -3.1948808E-08
   38.28000     -3.1460850E-08
   38.34000     -3.0873469E-08
   38.40000     -3.0209492E-08
   38.46000     -2.9503344E-08
   38.52000     -2.8790728E-08
   38.58000     -2.8097103E-08
   38.64000     -2.7429842E-08
   38.70000     -2.6777323E-08
   38.76000     -2.6115185E-08
   38.82000     -2.5417009E-08
   38.88000     -2.4665134E-08
   38.94000     -2.3857776E-08
   39.00000     -2.3010493E-08
   39.06000     -2.2152152E-08
   39.12000     -2.1317112E-08
   39.18000     -2.0536000E-08
   39.24000     -1.9827466E-08
   39.30000     -1.9193051E-08
   39.36000     -1.8616854E-08
   39.42000     -1.8070637E-08
   39.48000     -1.7523339E-08
   39.54000     -1.6952084E-08
   39.60000     -1.6350493E-08
   39.66000     -1.5730633E-08
   39.72000     -1.5117278E-08
   39.78000     -1.4536495E-08
   39.84000     -1.4003308E-08
   39.90000     -1.3513755E-08
   39.96000     -1.3044601E-08
   40.02000     -1.2560578E-08
   40.08000     -1.2025737E-08
   40.14000     -1.1414251E-08
   40.20000     -1.0716908E-08
   40.26000     -9.9418918E-09
   40.32000     -9.1106553E-09
   40.38000     -8.2509528E-09
   40.44000     -7.3889996E-09
   40.50000     -6.5423005E-09
   40.56000     -5.7144303E-09
   40.62000     -4.8931375E-09
   40.68000     -4.0530606E-09
   40.74000     -3.1632998E-09
   40.80000     -2.1981907E-09
   40.86000     -1.1476280E-09
   40.92000     -2.2620213E-11
   40.98000      1.1468347E-09
   41.04000      2.3213085E-09
   41.10000      3.4653129E-09
   41.16000      4.5590598E-09
   41.22000      5.6039515E-09
   41.28000      6.6200330E-09
   41.34000      7.6370856E-09
   41.40000      8.6833492E-09
   41.46000      9.7761017E-09
   41.52000      1.0916861E-08
   41.58000      1.2091877E-08
   41.64000      1.3276926E-08
   41.70000      1.4444669E-08
   41.76000      1.5572594E-08
   41.82000      1.6649555E-08
   41.88000      1.7679000E-08
   41.94000      1.8677408E-08
   42.00000      1.9667795E-08
   42.06000      2.0670019E-08
   42.12000      2.1691374E-08
   42.18000      2.2721320E-08
   42.24000      2.3732785E-08
   42.30000      2.4689713E-08
   42.36000      2.5557711E-08
   42.42000      2.6313467E-08
   42.48000      2.6949589E-08
   42.54000      2.7473874E-08
   42.60000      2.7904605E-08
   42.66000      2.8264594E-08
   42.72000      2.8576213E-08
   42.78000      2.8858077E-08
   42.84000      2.9122912E-08
   42.90000      2.9375991E-08
   42.96000      2.9614366E-08
   43.02000      2.9827930E-08
   43.08000      3.0003157E-08
   43.14000      3.0129023E-08
   43.20000      3.0202905E-08
   43.26000      3.0233593E-08
   43.32000      3.0239381E-08
   43.38000      3.0241690E-08
   43.44000      3.0256956E-08
   43.50000      3.0290614E-08
   43.56000      3.0335965E-08
   43.62000      3.0378217E-08
   43.68000      3.0401534E-08
   43.74000      3.0395647E-08
   43.80000      3.0359349E-08
   43.86000      3.0299994E-08
   43.92000      3.0230165E-08
   43.98000      3.0163370E-08
   44.04000      3.0110332E-08
   44.10000      3.0076365E-08
   44.16000      3.0059546E-08
   44.22000      3.0049424E-08
   44.28000      3.0026651E-08
   44.34000      2.9964571E-08
   44.40000      2.9833558E-08
   44.46000      2.9607790E-08
   44.52000      2.9272790E-08
   44.58000      2.8830907E-08
   44.64000      2.8302212E-08
   44.70000      2.7719713E-08
   44.76000      2.7119970E-08
   44.82000      2.6532069E-08
   44.88000      2.5968777E-08
   44.94000      2.5422993E-08
   45.00000      2.4870793E-08
   45.06000      2.4279924E-08
   45.12000      2.3620787E-08
   45.18000      2.2875991E-08
   45.24000      2.2045278E-08
   45.30000      2.1144276E-08
   45.36000      2.0197888E-08
   45.42000      1.9230942E-08
   45.48000      1.8259723E-08
   45.54000      1.7287313E-08
   45.60000      1.6304265E-08
   45.66000      1.5293962E-08
   45.72000      1.4240434E-08
   45.78000      1.3135753E-08
   45.84000      1.1984516E-08
   45.90000      1.0804150E-08
   45.96000      9.6212158E-09
   46.02000      8.4650180E-09
   46.08000      7.3604487E-09
   46.14000      6.3220313E-09
   46.20000      5.3507483E-09
   46.26000      4.4345141E-09
   46.32000      3.5522876E-09
   46.38000      2.6808058E-09
   46.44000      1.8020918E-09
   46.50000      9.0945718E-10
   46.56000      1.0002765E-11
   46.62000     -8.7733648E-10
   46.68000     -1.7276398E-09
   46.74000     -2.5177309E-09
   46.80000     -3.2330199E-09
   46.86000     -3.8709911E-09
   46.92000     -4.4401700E-09
   46.98000     -4.9551687E-09
   47.04000     -5.4299201E-09
   47.10000     -5.8718066E-09
   47.16000     -6.2788494E-09
   47.22000     -6.6407306E-09
   47.28000     -6.9428099E-09
   47.34000     -7.1712245E-09
   47.40000     -7.3170279E-09
   47.46000     -7.3780670E-09
   47.52000     -7.3585067E-09
   47.58000     -7.2668800E-09
   47.64000     -7.1138286E-09
   47.70000     -6.9103216E-09
   47.76000     -6.6664287E-09
   47.82000     -6.3902363E-09
   47.88000     -6.0865739E-09
   47.94000     -5.7557590E-09
   48.00000     -5.3931251E-09
   48.06000     -4.9901949E-09
   48.12000     -4.5377835E-09
   48.18000     -4.0303112E-09
   48.24000     -3.4697929E-09
   48.30000     -2.8678211E-09
   48.36000     -2.2445696E-09
   48.42000     -1.6250055E-09
   48.48000     -1.0335718E-09
   48.54000     -4.8903920E-10
   48.60000     -9.7361377E-13
   48.66000      4.3141646E-10
   48.72000      8.1798601E-10
   48.78000      1.1743331E-09
   48.84000      1.5171628E-09
   48.90000      1.8593209E-09
   48.96000      2.2057629E-09
   49.02000      2.5518163E-09
   49.08000      2.8846858E-09
   49.14000      3.1881238E-09
   49.20000      3.4488745E-09
   49.26000      3.6625176E-09
   49.32000      3.8363175E-09
   49.38000      3.9877990E-09
   49.44000      4.1395118E-09
   49.50000      4.3120281E-09
   49.56000      4.5178190E-09
   49.62000      4.7581166E-09
   49.68000      5.0235167E-09
   49.74000      5.2977285E-09
   49.80000      5.5629674E-09
   49.86000      5.8053375E-09
   49.92000      6.0188112E-09
   49.98000      6.2068972E-09
   50.04000      6.3815375E-09
   50.10000      6.5593651E-09
   50.16000      6.7561268E-09
   50.22000      6.9808079E-09
   50.28000      7.2313502E-09
   50.34000      7.4935906E-09
   50.40000      7.7440356E-09
   50.46000      7.9557525E-09
   50.52000      8.1054905E-09
   50.58000      8.1796907E-09
   50.64000      8.1774436E-09
   50.70000      8.1093923E-09
   50.76000      7.9928419E-09
   50.82000      7.8444460E-09
   50.88000      7.6726510E-09
   50.94000      7.4723303E-09
   51.00000      7.2236368E-09
   51.06000      6.8958275E-09
   51.12000      6.4550676E-09
   51.18000      5.8735452E-09
   51.24000      5.1365348E-09
   51.30000      4.2447788E-09
   51.36000      3.2115823E-09
   51.42000      2.0562567E-09
   51.48000      7.9689588E-10
   51.54000     -5.5477523E-10
   51.60000     -1.9952462E-09
   51.66000     -3.5282171E-09
   51.72000     -5.1620495E-09
   51.78000     -6.9066717E-09
   51.84000     -8.7701588E-09
   51.90000     -1.0754869E-08
   51.96000     -1.2853599E-08
   52.02000     -1.5047117E-08
   52.08000     -1.7304766E-08
   52.14000     -1.9588665E-08
   52.20000     -2.1860043E-08
   52.26000     -2.4084505E-08
   52.32000     -2.6233206E-08
   52.38000     -2.8278956E-08
   52.44000     -3.0189181E-08
   52.50000     -3.1919356E-08
   52.56000     -3.3410075E-08
   52.62000     -3.4588368E-08
   52.68000     -3.5371404E-08
   52.74000     -3.5669736E-08
   52.80000     -3.5388620E-08
   52.86000     -3.4427977E-08
   52.92000     -3.2683023E-08
   52.98000     -3.0046792E-08
   53.04000     -2.6413778E-08
   53.10000     -2.1682247E-08
   53.16000     -1.5753184E-08
   53.22000     -8.5261460E-09
   53.28000      1.0528536E-10
   53.34000      1.0254951E-08
   53.40000      2.2040794E-08
   53.46000      3.5578015E-08
   53.52000      5.0972027E-08
   53.58000      6.8314002E-08
   53.64000      8.7679382E-08
   53.70000      1.0912714E-07
   53.76000      1.3269747E-07
   53.82000      1.5840710E-07
   53.88000      1.8624442E-07
   53.94000      2.1616688E-07
   54.00000      2.4810214E-07
   54.06000      2.8195058E-07
   54.12000      3.1758591E-07
   54.18000      3.5485166E-07
   54.24000      3.9355413E-07
   54.30000      4.3345676E-07
   54.36000      4.7427963E-07
   54.42000      5.1570498E-07
   54.48000      5.5738531E-07
   54.54000      5.9894853E-07
   54.60000      6.3999749E-07
   54.66000      6.8010525E-07
   54.72000      7.1881044E-07
   54.78000      7.5561894E-07
   54.84000      7.9001086E-07
   54.90000      8.2145010E-07
   54.96000      8.4939137E-07
   55.02000      8.7328129E-07
   55.08000      8.9255821E-07
   55.14000      9.0665441E-07
   55.20000      9.1500698E-07
   55.26000      9.1707358E-07
   55.32000      9.1234926E-07
   55.38000      9.0037668E-07
   55.44000      8.8074802E-07
   55.50000      8.5310336E-07
   55.56000      8.1713165E-07