  -2.400000      0.0000000E+00
  -2.340000      0.0000000E+00
  -2.280000      0.0000000E+00
  -2.220000      0.0000000E+00
  -2.160000      0.0000000E+00
  -2.100000     -3.4255685E-22
  -2.040000     -2.6471082E-21
  -1.980000     -1.9015638E-21
  -1.920000      6.1512556E-20
  -1.860000      4.0762145E-19
  -1.800000      1.4590911E-18
  -1.740000      3.4414882E-18
  -1.680000      5.0886695E-18
  -1.620000      1.6589887E-18
  -1.560000     -1.5868461E-17
  -1.500000     -5.6717856E-17
  -1.440000     -1.1796804E-16
  -1.380000     -1.6567243E-16
  -1.320000     -1.2147216E-16
  -1.260000      1.2294363E-16
  -1.200000      6.4173339E-16
  -1.140000      1.3623336E-15
  -1.080000      1.9522384E-15
  -1.020000      1.8031843E-15
 -0.9600000      2.2273269E-16
 -0.9000000     -3.1276069E-15
 -0.8400000     -7.6717172E-15
 -0.7800000     -1.1554060E-14
 -0.7200000     -1.1882419E-14
 -0.6600000     -5.8386256E-15
 -0.6000000      7.5241157E-15
 -0.5400000      2.5561789E-14
 -0.4800000      4.1544571E-14
 -0.4200000      4.6333749E-14
 -0.3600000      3.2245684E-14
 -0.3000000     -2.2493398E-15
 -0.2400000     -4.9411681E-14
 -0.1800000     -9.3052160E-14
 -0.1200000     -1.1406463E-13
 -5.9999999E-02 -9.8878703E-14
  0.0000000E+00 -4.6828498E-14
  5.9999999E-02  2.7882981E-14
  0.1200000      1.0164175E-13
  0.1800000      1.5222017E-13
  0.2400000      1.6916564E-13
  0.3000000      1.5731097E-13
  0.3600000      1.3031618E-13
  0.4200000      9.7332583E-14
  0.4800000      5.1384756E-14
  0.5400000     -3.0946383E-14
  0.6000000     -1.7424553E-13
  0.6600000     -3.7872605E-13
  0.7200000     -5.9857252E-13
  0.7800000     -7.4048780E-13
  0.8400000     -6.9140727E-13
  0.9000000     -3.6969722E-13
  0.9600000      2.2079255E-13
   1.020000      9.6128942E-13
   1.080000      1.6342483E-12
   1.140000      1.9875596E-12
   1.200000      1.8266226E-12
   1.260000      1.0982155E-12
   1.320000     -7.0466568E-14
   1.380000     -1.3978809E-12
   1.440000     -2.5328793E-12
   1.500000     -3.1665408E-12
   1.560000     -3.1276030E-12
   1.620000     -2.4251692E-12
   1.680000     -1.2256820E-12
   1.740000      2.1999052E-13
   1.800000      1.6625151E-12
   1.860000      2.9131938E-12
   1.920000      3.8528768E-12
   1.980000      4.3958595E-12
   2.040000      4.4402789E-12
   2.100000      3.8468642E-12
   2.160000      2.4753665E-12
   2.220000      2.7680833E-13
   2.280000     -2.5958389E-12
   2.340000     -5.7177076E-12
   2.400000     -8.4166433E-12
   2.460000     -9.9125300E-12
   2.520000     -9.5421700E-12
   2.580000     -6.9972678E-12
   2.640000     -2.4866055E-12
   2.700000      3.2462806E-12
   2.760000      9.0683875E-12
   2.820000      1.3724318E-11
   2.880000      1.6140490E-11
   2.940000      1.5672874E-11
   3.000000      1.2232916E-11
   3.060000      6.2774673E-12
   3.120000     -1.3017315E-12
   3.180000     -9.3278545E-12
   3.240000     -1.6475210E-11
   3.300000     -2.1373467E-11
   3.360000     -2.2700690E-11
   3.420000     -1.9305692E-11
   3.480000     -1.0386254E-11
   3.540000      4.2934740E-12
   3.600000      2.4213496E-11
   3.660000      4.8031093E-11
   3.720000      7.3714160E-11
   3.780000      9.8889376E-11
   3.840000      1.2133425E-10
   3.900000      1.3947248E-10
   3.960000      1.5271362E-10
   4.020000      1.6152443E-10
   4.080000      1.6721485E-10
   4.140000      1.7152292E-10
   4.200000      1.7614871E-10
   4.260000      1.8238626E-10
   4.320000      1.9094304E-10
   4.380000      2.0194793E-10
   4.440000      2.1507993E-10
   4.500000      2.2972495E-10
   4.560000      2.4509739E-10
   4.620000      2.6031483E-10
   4.680000      2.7445990E-10
   4.740000      2.8667183E-10
   4.800000      2.9628416E-10
   4.860000      3.0298294E-10
   4.920000      3.0693098E-10
   4.980000      3.0880415E-10
   5.040000      3.0971678E-10
   5.100000      3.1105232E-10
   5.160000      3.1424446E-10
   5.220000      3.2055619E-10
   5.280000      3.3089012E-10
   5.340000      3.4564387E-10
   5.400000      3.6461592E-10
   5.460000      3.8697456E-10
   5.520000      4.1131040E-10
   5.580000      4.3578938E-10
   5.640000      4.5839499E-10
   5.700000      4.7720317E-10
   5.760000      4.9059340E-10
   5.820000      4.9729137E-10
   5.880000      4.9618104E-10
   5.940000      4.8590765E-10
   6.000000      4.6439580E-10
   6.060000      4.2847148E-10
   6.120000      3.7377584E-10
   6.180000      2.9507180E-10
   6.240000      1.8690074E-10
   6.300000      4.4402017E-11
   6.360000     -1.3596976E-10
   6.420000     -3.5606465E-10
   6.480000     -6.1609551E-10
   6.540000     -9.1505514E-10
   6.600000     -1.2512668E-09
   6.660000     -1.6228062E-09
   6.720000     -2.0276185E-09
   6.780000     -2.4633169E-09
   6.840000     -2.9268141E-09
   6.900000     -3.4139984E-09
   6.960000     -3.9196113E-09
   7.020000     -4.4373412E-09
   7.080000     -4.9600057E-09
   7.140000     -5.4796390E-09
   7.200000     -5.9873675E-09
   7.260000     -6.4731291E-09
   7.320000     -6.9254211E-09
   7.380000     -7.3313409E-09
   7.440000     -7.6770998E-09
   7.500000     -7.9490157E-09
   7.560000     -8.1347942E-09
   7.620000     -8.2247977E-09
   7.680000     -8.2130285E-09
   7.740000     -8.0976426E-09
   7.800000     -7.8809679E-09
   7.860000     -7.5691435E-09
   7.920000     -7.1714799E-09
   7.980000     -6.6996515E-09
   8.040000     -6.1667702E-09
   8.100000     -5.5863816E-09
   8.160000     -4.9714561E-09
   8.220000     -4.3335175E-09
   8.280000     -3.6820709E-09
   8.340000     -3.0244667E-09
   8.400000     -2.3662348E-09
   8.460000     -1.7117926E-09
   8.520000     -1.0653215E-09
   8.580000     -4.3155765E-10
   8.640000      1.8371114E-10
   8.700000      7.7355783E-10
   8.760000      1.3302320E-09
   8.820000      1.8457874E-09
   8.880000      2.3128812E-09
   8.940000      2.7256062E-09
   9.000000      3.0802296E-09
   9.060000      3.3757339E-09
   9.120000      3.6140544E-09
   9.180000      3.7999364E-09
   9.240000      3.9403667E-09
   9.300000      4.0436410E-09
   9.360000      4.1182200E-09
   9.420000      4.1716417E-09
   9.480000      4.2097437E-09
   9.540000      4.2363912E-09
   9.600000      4.2537063E-09
   9.660000      4.2626125E-09
   9.720000      4.2633772E-09
   9.780000      4.2558708E-09
   9.840000      4.2394079E-09
   9.900000      4.2122816E-09
   9.960000      4.1713126E-09
   10.02000      4.1117616E-09
   10.08000      4.0278398E-09
   10.14000      3.9137857E-09
   10.20000      3.7652050E-09
   10.26000      3.5802292E-09
   10.32000      3.3600913E-09
   10.38000      3.1089253E-09
   10.44000      2.8328819E-09
   10.50000      2.5388711E-09
   10.56000      2.2333433E-09
   10.62000      1.9214415E-09
   10.68000      1.6067017E-09
   10.74000      1.2912906E-09
   10.80000      9.7661734E-10
   10.86000      6.6408523E-10
   10.92000      3.5572745E-10
   10.98000      5.4505497E-11
   11.04000     -2.3587152E-10
   11.10000     -5.1161403E-10
   11.16000     -7.6984552E-10
   11.22000     -1.0096044E-09
   11.28000     -1.2324637E-09
   11.34000     -1.4424639E-09
   11.40000     -1.6452865E-09
   11.46000     -1.8469132E-09
   11.52000     -2.0522617E-09
   11.58000     -2.2643365E-09
   11.64000     -2.4842350E-09
   11.70000     -2.7119762E-09
   11.76000     -2.9477418E-09
   11.82000     -3.1929397E-09
   11.88000     -3.4505954E-09
   11.94000     -3.7249077E-09
   12.00000     -4.0202255E-09
   12.06000     -4.3399635E-09
   12.12000     -4.6859987E-09
   12.18000     -5.0588334E-09
   12.24000     -5.4584439E-09
   12.30000     -5.8854046E-09
   12.36000     -6.3417578E-09
   12.42000     -6.8312076E-09
   12.48000     -7.3584889E-09
   12.54000     -7.9280715E-09
   12.60000     -8.5426057E-09
   12.66000     -9.2016146E-09
   12.72000     -9.9008277E-09
   12.78000     -1.0632414E-08
   12.84000     -1.1386033E-08
   12.90000     -1.2150402E-08
   12.96000     -1.2914884E-08
   13.02000     -1.3670626E-08
   13.08000     -1.4410938E-08
   13.14000     -1.5130929E-08
   13.20000     -1.5826753E-08
   13.26000     -1.6494917E-08
   13.32000     -1.7132063E-08
   13.38000     -1.7735299E-08
   13.44000     -1.8302810E-08
   13.50000     -1.8834267E-08
   13.56000     -1.9330587E-08
   13.62000     -1.9792923E-08
   13.68000     -2.0221126E-08
   13.74000     -2.0612244E-08
   13.80000     -2.0959590E-08
   13.86000     -2.1252752E-08
   13.92000     -2.1478579E-08
   13.98000     -2.1622837E-08
   14.04000     -2.1672161E-08
   14.10000     -2.1615914E-08
   14.16000     -2.1447651E-08
   14.22000     -2.1166032E-08
   14.28000     -2.0775117E-08
   14.34000     -2.0284023E-08
   14.40000     -1.9706105E-08
   14.46000     -1.9057854E-08
   14.52000     -1.8357849E-08
   14.58000     -1.7625908E-08
   14.64000     -1.6882492E-08
   14.70000     -1.6148153E-08
   14.76000     -1.5442753E-08
   14.82000     -1.4784275E-08
   14.88000     -1.4187330E-08
   14.94000     -1.3661714E-08
   15.00000     -1.3211445E-08
   15.06000     -1.2834646E-08
   15.12000     -1.2524317E-08
   15.18000     -1.2269767E-08
   15.24000     -1.2058324E-08
   15.30000     -1.1876980E-08
   15.36000     -1.1713777E-08
   15.42000     -1.1558839E-08
   15.48000     -1.1405064E-08
   15.54000     -1.1248406E-08
   15.60000     -1.1087728E-08
   15.66000     -1.0924209E-08
   15.72000     -1.0760441E-08
   15.78000     -1.0599402E-08
   15.84000     -1.0443534E-08
   15.90000     -1.0294017E-08
   15.96000     -1.0150263E-08
   16.02000     -1.0009612E-08
   16.08000     -9.8672821E-09
   16.14000     -9.7167172E-09
   16.20000     -9.5504467E-09
   16.26000     -9.3614236E-09
   16.32000     -9.1444843E-09
   16.38000     -8.8974481E-09
   16.44000     -8.6214049E-09
   16.50000     -8.3200931E-09
   16.56000     -7.9986711E-09
   16.62000     -7.6624866E-09
   16.68000     -7.3163773E-09
   16.74000     -6.9646782E-09
   16.80000     -6.6116974E-09
   16.86000     -6.2621419E-09
   16.92000     -5.9210525E-09
   16.98000     -5.5931242E-09
   17.04000     -5.2816298E-09
   17.10000     -4.9873505E-09
   17.16000     -4.7078599E-09
   17.22000     -4.4373074E-09
   17.28000     -4.1667128E-09
   17.34000     -3.8847179E-09
   17.40000     -3.5787877E-09
   17.46000     -3.2368122E-09
   17.52000     -2.8488909E-09
   17.58000     -2.4088531E-09
   17.64000     -1.9149657E-09
   17.70000     -1.3694573E-09
   17.76000     -7.7693380E-10
   17.82000     -1.4226099E-10
   17.88000      5.3123705E-10
   17.94000      1.2425689E-09
   18.00000      1.9926509E-09
   18.06000      2.7830338E-09
   18.12000      3.6144809E-09
   18.18000      4.4860284E-09
   18.24000      5.3947931E-09
   18.30000      6.3363492E-09
   18.36000      7.3052697E-09
   18.42000      8.2954719E-09
   18.48000      9.3002495E-09
   18.54000      1.0312132E-08
   18.60000      1.1322812E-08
   18.66000      1.2323347E-08
   18.72000      1.3304684E-08
   18.78000      1.4258456E-08
   18.84000      1.5177909E-08
   18.90000      1.6058772E-08
   18.96000      1.6899929E-08
   19.02000      1.7703680E-08
   19.08000      1.8475605E-08
   19.14000      1.9224037E-08
   19.20000      1.9959383E-08
   19.26000      2.0693465E-08
   19.32000      2.1438950E-08
   19.38000      2.2208766E-08
   19.44000      2.3015236E-08
   19.50000      2.3868838E-08
   19.56000      2.4776773E-08
   19.62000      2.5741778E-08
   19.68000      2.6761715E-08
   19.74000      2.7830099E-08
   19.80000      2.8937324E-08
   19.86000      3.0071863E-08
   19.92000      3.1220907E-08
   19.98000      3.2370082E-08
   20.04000      3.3502719E-08
   20.10000      3.4599147E-08
   20.16000      3.5636628E-08
   20.22000      3.6589789E-08
   20.28000      3.7431406E-08
   20.34000      3.8132949E-08
   20.40000      3.8665071E-08
   20.46000      3.8998454E-08
   20.52000      3.9105664E-08
   20.58000      3.8964110E-08
   20.64000      3.8559431E-08
   20.70000      3.7887915E-08
   20.76000      3.6956770E-08
   20.82000      3.5781838E-08
   20.88000      3.4383699E-08
   20.94000      3.2783973E-08
   21.00000      3.1003388E-08
   21.06000      2.9062400E-08
   21.12000      2.6983594E-08
   21.18000      2.4794256E-08
   21.24000      2.2527603E-08
   21.30000      2.0221798E-08
   21.36000      1.7917090E-08
   21.42000      1.5652020E-08
   21.48000      1.3459714E-08
   21.54000      1.1364908E-08
   21.60000      9.3819450E-09
   21.66000      7.5139184E-09
   21.72000      5.7532477E-09
   21.78000      4.0840078E-09
   21.84000      2.4859450E-09
   21.90000      9.3937813E-10
   21.96000     -5.7047816E-10
   22.02000     -2.0513358E-09
   22.08000     -3.5046488E-09
   22.14000     -4.9290221E-09
   22.20000     -6.3246470E-09
   22.26000     -7.6967090E-09
   22.32000     -9.0561878E-09
   22.38000     -1.0417594E-08
   22.44000     -1.1794471E-08
   22.50000     -1.3194311E-08
   22.56000     -1.4614709E-08
   22.62000     -1.6042131E-08
   22.68000     -1.7453848E-08
   22.74000     -1.8822670E-08
   22.80000     -2.0123249E-08
   22.86000     -2.1338229E-08
   22.92000     -2.2462208E-08
   22.98000     -2.3502126E-08
   23.04000     -2.4473621E-08
   23.10000     -2.5394360E-08
   23.16000     -2.6276556E-08
   23.22000     -2.7121258E-08
   23.28000     -2.7916442E-08
   23.34000     -2.8639560E-08
   23.40000     -2.9263550E-08
   23.46000     -2.9764212E-08
   23.52000     -3.0126582E-08
   23.58000     -3.0348438E-08
   23.64000     -3.0440216E-08
   23.70000     -3.0421660E-08
   23.76000     -3.0316283E-08
   23.82000     -3.0145376E-08
   23.88000     -2.9923225E-08
   23.94000     -2.9654995E-08
   24.00000     -2.9337995E-08
   24.06000     -2.8965857E-08
   24.12000     -2.8534075E-08
   24.18000     -2.8044647E-08
   24.24000     -2.7507733E-08
   24.30000     -2.6939432E-08
   24.36000     -2.6356407E-08
   24.42000     -2.5769461E-08
   24.48000     -2.5178661E-08
   24.54000     -2.4571873E-08
   24.60000     -2.3927219E-08
   24.66000     -2.3218524E-08
   24.72000     -2.2421959E-08
   24.78000     -2.1522061E-08
   24.84000     -2.0515744E-08
   24.90000     -1.9413550E-08
   24.96000     -1.8237824E-08
   25.02000     -1.7018010E-08
   25.08000     -1.5783838E-08
   25.14000     -1.4557918E-08
   25.20000     -1.3349896E-08
   25.26000     -1.2154222E-08
   25.32000     -1.0952727E-08
   25.38000     -9.7214592E-09
   25.44000     -8.4395273E-09
   25.50000     -7.0968054E-09
   25.56000     -5.6977534E-09
   25.62000     -4.2601802E-09
   25.68000     -2.8097551E-09
   25.74000     -1.3725883E-09
   25.80000      3.1368567E-11
   25.86000      1.3919722E-09
   25.92000      2.7087006E-09
   25.98000      3.9869916E-09
   26.04000      5.2323492E-09
   26.10000      6.4439072E-09
   26.16000      7.6092119E-09
   26.22000      8.7017789E-09
   26.28000      9.6824317E-09
   26.34000      1.0504491E-08
   26.40000      1.1121720E-08
   26.46000      1.1496852E-08
   26.52000      1.1608087E-08
   26.58000      1.1451501E-08
   26.64000      1.1038612E-08
   26.70000      1.0390035E-08
   26.76000      9.5275263E-09
   26.82000      8.4670999E-09
   26.88000      7.2153870E-09
   26.94000      5.7701413E-09
   27.00000      4.1243866E-09
   27.06000      2.2725783E-09
   27.12000      2.1666095E-10
   27.18000     -2.0300048E-09
   27.24000     -4.4421427E-09
   27.30000     -6.9857462E-09
   27.36000     -9.6240038E-09
   27.42000     -1.2324079E-08
   27.48000     -1.5062462E-08
   27.54000     -1.7827048E-08
   27.60000     -2.0615163E-08
   27.66000     -2.3428212E-08
   27.72000     -2.6264743E-08
   27.78000     -2.9114178E-08
   27.84000     -3.1953082E-08
   27.90000     -3.4744904E-08
   27.96000     -3.7442970E-08
   28.02000     -3.9995811E-08
   28.08000     -4.2353495E-08
   28.14000     -4.4473584E-08
   28.20000     -4.6325496E-08
   28.26000     -4.7892346E-08
   28.32000     -4.9169678E-08
   28.38000     -5.0161358E-08
   28.44000     -5.0873620E-08
   28.50000     -5.1309154E-08
   28.56000     -5.1463235E-08
   28.62000     -5.1323394E-08
   28.68000     -5.0872892E-08
   28.74000     -5.0096833E-08
   28.80000     -4.8988760E-08
   28.86000     -4.7555400E-08
   28.92000     -4.5817952E-08
   28.98000     -4.3809489E-08
   29.04000     -4.1569329E-08
   29.10000     -3.9135976E-08
   29.16000     -3.6540598E-08
   29.22000     -3.3802660E-08
   29.28000     -3.0928955E-08
   29.34000     -2.7916318E-08
   29.40000     -2.4757544E-08
   29.46000     -2.1449013E-08
   29.52000     -1.7997907E-08
   29.58000     -1.4426692E-08
   29.64000     -1.0773165E-08
   29.70000     -7.0856720E-09
   29.76000     -3.4147316E-09
   29.82000      1.9634294E-10
   29.88000      3.7187609E-09
   29.94000      7.1410011E-09
   30.00000      1.0466003E-08
   30.06000      1.3703692E-08
   30.12000      1.6861277E-08
   30.18000      1.9934575E-08
   30.24000      2.2903214E-08
   30.30000      2.5731403E-08
   30.36000      2.8374206E-08
   30.42000      3.0787401E-08
   30.48000      3.2937876E-08
   30.54000      3.4811166E-08
   30.60000      3.6413475E-08
   30.66000      3.7767229E-08
   30.72000      3.8901284E-08
   30.78000      3.9838845E-08
   30.84000      4.0587082E-08
   30.90000      4.1132171E-08
   30.96000      4.1441698E-08
   31.02000      4.1474046E-08
   31.08000      4.1191761E-08
   31.14000      4.0574502E-08
   31.20000      3.9627050E-08
   31.26000      3.8379564E-08
   31.32000      3.6879797E-08
   31.38000      3.5179912E-08
   31.44000      3.3322276E-08
   31.50000      3.1329058E-08
   31.56000      2.9199073E-08
   31.62000      2.6912847E-08
   31.68000      2.4444031E-08
   31.74000      2.1773293E-08
   31.80000      1.8900090E-08
   31.86000      1.5848496E-08
   31.92000      1.2665303E-08
   31.98000      9.4110328E-09
   32.04000      6.1467551E-09
   32.10000      2.9207650E-09
   32.16000     -2.4071123E-10
   32.22000     -3.3359264E-09
   32.28000     -6.3823635E-09
   32.34000     -9.4054684E-09
   32.40000     -1.2424945E-08
   32.46000     -1.5443085E-08
   32.52000     -1.8438971E-08
   32.58000     -2.1370532E-08
   32.64000     -2.4183725E-08
   32.70000     -2.6825713E-08
   32.76000     -2.9257469E-08
   32.82000     -3.1461536E-08
   32.88000     -3.3442390E-08
   32.94000     -3.5219486E-08
   33.00000     -3.6815639E-08
   33.06000     -3.8244867E-08
   33.12000     -3.9504016E-08
   33.18000     -4.0570946E-08
   33.24000     -4.1409923E-08
   33.30000     -4.1982382E-08
   33.36000     -4.2259451E-08
   33.42000     -4.2232024E-08
   33.48000     -4.1914994E-08
   33.54000     -4.1344091E-08
   33.60000     -4.0566285E-08
   33.66000     -3.9626837E-08
   33.72000     -3.8557360E-08
   33.78000     -3.7368846E-08
   33.84000     -3.6052057E-08
   33.90000     -3.4585039E-08
   33.96000     -3.2945135E-08
   34.02000     -3.1121267E-08
   34.08000     -2.9122354E-08
   34.14000     -2.6979105E-08
   34.20000     -2.4738821E-08
   34.26000     -2.2455147E-08
   34.32000     -2.0176296E-08
   34.38000     -1.7935600E-08
   34.44000     -1.5747320E-08
   34.50000     -1.3608833E-08
   34.56000     -1.1508202E-08
   34.62000     -9.4345092E-09
   34.68000     -7.3874045E-09
   34.74000     -5.3826463E-09
   34.80000     -3.4517484E-09
   34.86000     -1.6358055E-09
   34.92000      2.4438184E-11
   34.98000      1.4988897E-09
   35.04000      2.7752316E-09
   35.10000      3.8604226E-09
   35.16000      4.7760960E-09
   35.22000      5.5495279E-09
   35.28000      6.2033783E-09
   35.34000      6.7477681E-09
   35.40000      7.1773476E-09
   35.46000      7.4741786E-09
   35.52000      7.6152240E-09
   35.58000      7.5816766E-09
   35.64000      7.3668440E-09
   35.70000      6.9799193E-09
   35.76000      6.4444641E-09
   35.82000      5.7922955E-09
   35.88000      5.0549978E-09
   35.94000      4.2560400E-09
   36.00000      3.4061953E-09
   36.06000      2.5037623E-09
   36.12000      1.5394100E-09
   36.18000      5.0387766E-10
   36.24000     -6.0419852E-10
   36.30000     -1.7730732E-09
   36.36000     -2.9771146E-09
   36.42000     -4.1807611E-09
   36.48000     -5.3459135E-09
   36.54000     -6.4403105E-09
   36.60000     -7.4441484E-09
   36.66000     -8.3528242E-09
   36.72000     -9.1750225E-09
   36.78000     -9.9269988E-09
   36.84000     -1.0625158E-08
   36.90000     -1.1279635E-08
   36.96000     -1.1891124E-08
   37.02000     -1.2452007E-08
   37.08000     -1.2951200E-08
   37.14000     -1.3380808E-08
   37.20000     -1.3742040E-08
   37.26000     -1.4048196E-08
   37.32000     -1.4323706E-08
   37.38000     -1.4599668E-08
   37.44000     -1.4907620E-08
   37.50000     -1.5273786E-08
   37.56000     -1.5715671E-08
   37.62000     -1.6241904E-08
   37.68000     -1.6854873E-08
   37.74000     -1.7554740E-08
   37.80000     -1.8342940E-08
   37.86000     -1.9223647E-08
   37.92000     -2.0202570E-08
   37.98000     -2.1283578E-08
   38.04000     -2.2464599E-08
   38.10000     -2.3734609E-08
   38.16000     -2.5073112E-08
   38.22000     -2.6452629E-08
   38.28000     -2.7843472E-08
   38.34000     -2.9219166E-08
   38.40000     -3.0560503E-08
   38.46000     -3.1856736E-08
   38.52000     -3.3103408E-08
   38.58000     -3.4297667E-08
   38.64000     -3.5432876E-08
   38.70000     -3.6494587E-08
   38.76000     -3.7459511E-08
   38.82000     -3.8297937E-08
   38.88000     -3.8978865E-08
   38.94000     -3.9476038E-08
   39.00000     -3.9772790E-08
   39.06000     -3.9863952E-08
   39.12000     -3.9754337E-08
   39.18000     -3.9454275E-08
   39.24000     -3.8974054E-08
   39.30000     -3.8319321E-08
   39.36000     -3.7489237E-08
   39.42000     -3.6478085E-08
   39.48000     -3.5279673E-08
   39.54000     -3.3892722E-08
   39.60000     -3.2325133E-08
   39.66000     -3.0595359E-08
   39.72000     -2.8730168E-08
   39.78000     -2.6759569E-08
   39.84000     -2.4710429E-08
   39.90000     -2.2600918E-08
   39.96000     -2.0437398E-08
   40.02000     -1.8214635E-08
   40.08000     -1.5919170E-08
   40.14000     -1.3534775E-08
   40.20000     -1.1048502E-08
   40.26000     -8.4556602E-09
   40.32000     -5.7623804E-09
   40.38000     -2.9851006E-09
   40.44000     -1.4714450E-10
   40.50000      2.7265008E-09
   40.56000      5.6144867E-09
   40.62000      8.5026377E-09
   40.68000      1.1384427E-08
   40.74000      1.4258194E-08
   40.80000      1.7122158E-08
   40.86000      1.9969180E-08
   40.92000      2.2783397E-08
   40.98000      2.5540155E-08
   41.04000      2.8209431E-08
   41.10000      3.0761509E-08
   41.16000      3.3172967E-08
   41.22000      3.5430816E-08
   41.28000      3.7533500E-08
   41.34000      3.9488587E-08
   41.40000      4.1308166E-08
   41.46000      4.3003727E-08
   41.52000      4.4582197E-08
   41.58000      4.6044374E-08
   41.64000      4.7385978E-08
   41.70000      4.8600644E-08
   41.76000      4.9683564E-08
   41.82000      5.0634551E-08
   41.88000      5.1459384E-08
   41.94000      5.2169295E-08
   42.00000      5.2778816E-08
   42.06000      5.3302877E-08
   42.12000      5.3754146E-08
   42.18000      5.4141381E-08
   42.24000      5.4469282E-08
   42.30000      5.4739637E-08
   42.36000      5.4953240E-08
   42.42000      5.5111766E-08
   42.48000      5.5218756E-08
   42.54000      5.5279340E-08
   42.60000      5.5298742E-08
   42.66000      5.5280136E-08
   42.72000      5.5222817E-08
   42.78000      5.5121323E-08
   42.84000      5.4966055E-08
   42.90000      5.4744998E-08
   42.96000      5.4445970E-08
   43.02000      5.4058539E-08
   43.08000      5.3574986E-08
   43.14000      5.2990224E-08
   43.20000      5.2301001E-08
   43.26000      5.1504859E-08
   43.32000      5.0599368E-08
   43.38000      4.9581807E-08
   43.44000      4.8449351E-08
   43.50000      4.7199659E-08
   43.56000      4.5831676E-08
   43.62000      4.4346486E-08
   43.68000      4.2747981E-08
   43.74000      4.1042959E-08
   43.80000      3.9240447E-08
   43.86000      3.7350329E-08
   43.92000      3.5381682E-08
   43.98000      3.3341689E-08
   44.04000      3.1235803E-08
   44.10000      2.9069239E-08
   44.16000      2.6849209E-08
   44.22000      2.4586708E-08
   44.28000      2.2296694E-08
   44.34000      1.9996172E-08
   44.40000      1.7700803E-08
   44.46000      1.5421422E-08
   44.52000      1.3162033E-08
   44.58000      1.0920228E-08
   44.64000      8.6899563E-09
   44.70000      6.4655468E-09
   44.76000      4.2455102E-09
   44.82000      2.0348854E-09
   44.88000     -1.5439727E-10
   44.94000     -2.3049023E-09
   45.00000     -4.3961084E-09
   45.06000     -6.4070327E-09
   45.12000     -8.3183869E-09
   45.18000     -1.0113845E-08
   45.24000     -1.1780260E-08
   45.30000     -1.3306914E-08
   45.36000     -1.4684126E-08
   45.42000     -1.5901826E-08
   45.48000     -1.6948720E-08
   45.54000     -1.7812580E-08
   45.60000     -1.8481739E-08
   45.66000     -1.8947382E-08
   45.72000     -1.9205887E-08
   45.78000     -1.9260337E-08
   45.84000     -1.9120693E-08
   45.90000     -1.8802414E-08
   45.96000     -1.8323847E-08
   46.02000     -1.7702900E-08
   46.08000     -1.6953773E-08
   46.14000     -1.6084503E-08
   46.20000     -1.5096091E-08
   46.26000     -1.3983776E-08
   46.32000     -1.2740412E-08
   46.38000     -1.1361331E-08
   46.44000     -9.8492468E-09
   46.50000     -8.2175733E-09
   46.56000     -6.4908297E-09
   46.62000     -4.7017679E-09
   46.68000     -2.8860427E-09
   46.74000     -1.0760961E-09
   46.80000      7.0386491E-10
   46.86000      2.4404405E-09
   46.92000      4.1307238E-09
   46.98000      5.7795448E-09
   47.04000      7.3952520E-09
   47.10000      8.9851371E-09
   47.16000      1.0551499E-08
   47.22000      1.2089169E-08
   47.28000      1.3585091E-08
   47.34000      1.5020179E-08
   47.40000      1.6373043E-08
   47.46000      1.7624492E-08
   47.52000      1.8761220E-08
   47.58000      1.9777158E-08
   47.64000      2.0671948E-08
   47.70000      2.1447095E-08
   47.76000      2.2101542E-08
   47.82000      2.2628736E-08
   47.88000      2.3016538E-08
   47.94000      2.3250053E-08
   48.00000      2.3316165E-08
   48.06000      2.3207804E-08
   48.12000      2.2926329E-08
   48.18000      2.2481260E-08
   48.24000      2.1887663E-08
   48.30000      2.1162295E-08
   48.36000      2.0319723E-08
   48.42000      1.9369416E-08
   48.48000      1.8314472E-08
   48.54000      1.7152137E-08
   48.60000      1.5876092E-08
   48.66000      1.4480023E-08
   48.72000      1.2961648E-08
   48.78000      1.1326023E-08
   48.84000      9.5870147E-09
   48.90000      7.7663449E-09
   48.96000      5.8904419E-09
   49.02000      3.9861869E-09
   49.08000      2.0770126E-09
   49.14000      1.8057290E-10
   49.20000     -1.6915664E-09
   49.26000     -3.5325904E-09
   49.32000     -5.3383502E-09
   49.38000     -7.1054376E-09
   49.44000     -8.8299528E-09
   49.50000     -1.0507048E-08
   49.56000     -1.2131049E-08
   49.62000     -1.3695901E-08
   49.68000     -1.5195779E-08
   49.74000     -1.6625689E-08
   49.80000     -1.7981847E-08
   49.86000     -1.9261535E-08
   49.92000     -2.0462277E-08
   49.98000     -2.1580487E-08
   50.04000     -2.2610104E-08
   50.10000     -2.3541942E-08
   50.16000     -2.4364256E-08
   50.22000     -2.5064532E-08
   50.28000     -2.5631955E-08
   50.34000     -2.6059649E-08
   50.40000     -2.6345933E-08
   50.46000     -2.6494261E-08
   50.52000     -2.6512003E-08
   50.58000     -2.6408637E-08
   50.64000     -2.6193918E-08
   50.70000     -2.5876382E-08
   50.76000     -2.5462425E-08
   50.82000     -2.4955964E-08
   50.88000     -2.4358714E-08
   50.94000     -2.3670996E-08
   51.00000     -2.2892982E-08
   51.06000     -2.2026008E-08
   51.12000     -2.1073609E-08
   51.18000     -2.0041989E-08
   51.24000     -1.8939883E-08
   51.30000     -1.7778023E-08
   51.36000     -1.6568563E-08
   51.42000     -1.5324643E-08
   51.48000     -1.4060106E-08
   51.54000     -1.2789182E-08
   51.60000     -1.1526011E-08
   51.66000     -1.0284078E-08
   51.72000     -9.0758752E-09
   51.78000     -7.9131643E-09
   51.84000     -6.8079751E-09
   51.90000     -5.7741034E-09
   51.96000     -4.8285189E-09
   52.02000     -3.9919681E-09
   52.08000     -3.2882985E-09
   52.14000     -2.7424700E-09
   52.20000     -2.3777160E-09
   52.26000     -2.2126663E-09
   52.32000     -2.2593241E-09
   52.38000     -2.5226043E-09
   52.44000     -3.0017122E-09
   52.50000     -3.6930943E-09
   52.56000     -4.5941553E-09
   52.62000     -5.7065872E-09
   52.68000     -7.0381359E-09
   52.74000     -8.6020409E-09
   52.80000     -1.0414133E-08
   52.86000     -1.2488301E-08
   52.92000     -1.4831669E-08
   52.98000     -1.7440817E-08
   53.04000     -2.0300051E-08
   53.10000     -2.3382041E-08
   53.16000     -2.6650429E-08
   53.22000     -3.0063504E-08
   53.28000     -3.3577834E-08
   53.34000     -3.7150805E-08
   53.40000     -4.0741167E-08
   53.46000     -4.4307214E-08
   53.52000     -4.7802700E-08
   53.58000     -5.1171344E-08
   53.64000     -5.4341285E-08
   53.70000     -5.7221044E-08
   53.76000     -5.9698152E-08
   53.82000     -6.1640826E-08
   53.88000     -6.2901989E-08
   53.94000     -6.3324300E-08
   54.00000     -6.2744562E-08
   54.06000     -6.0996513E-08
   54.12000     -5.7911699E-08
   54.18000     -5.3318853E-08
   54.24000     -4.7042800E-08
   54.30000     -3.8903654E-08
   54.36000     -2.8717295E-08
   54.42000     -1.6297337E-08
   54.48000     -1.4588606E-09
   54.54000      1.5976253E-08
   54.60000      3.6172949E-08
   54.66000      5.9276321E-08
   54.72000      8.5405617E-08
   54.78000      1.1464970E-07
   54.84000      1.4706430E-07
   54.90000      1.8267089E-07
   54.96000      2.2145652E-07
   55.02000      2.6337366E-07
   55.08000      3.0833965E-07
   55.14000      3.5623503E-07
   55.20000      4.0690117E-07
   55.26000      4.6013670E-07
   55.32000      5.1569407E-07
   55.38000      5.7327634E-07
   55.44000      6.3253509E-07
   55.50000      6.9307072E-07
   55.56000      7.5443546E-07