 -0.750000000       0.00000000    
 -0.689999998       0.00000000    
 -0.629999995       0.00000000    
 -0.569999993       0.00000000    
 -0.509999990       0.00000000    
 -0.449999988       0.00000000    
 -0.389999986       0.00000000    
 -0.330000013       0.00000000    
 -0.270000011       7.70724962E-27
 -0.209999993       8.62377195E-26
 -0.150000006       4.54651059E-25
  -9.00000036E-02   1.39982441E-24
  -2.99999993E-02   2.23886042E-24
   2.99999993E-02  -1.30897258E-24
   9.00000036E-02  -1.92513473E-23
  0.150000006      -6.11535260E-23
  0.209999993      -1.11563701E-22
  0.270000011      -9.17167806E-23
  0.330000013       1.49156899E-22
  0.389999986       7.33641753E-22
  0.449999988       1.50261720E-21
  0.509999990       1.72791588E-21
  0.569999993       1.45662320E-22
  0.629999995      -4.26790259E-21
  0.689999998      -1.07529085E-20
  0.750000000      -1.53075782E-20
  0.810000002      -1.09657839E-20
  0.870000005       8.80065969E-21
  0.930000007       4.40660600E-20
  0.990000010       8.30727990E-20
   1.04999995       1.02091697E-19
   1.11000001       7.30019332E-20
   1.16999996      -2.39782421E-20
   1.23000002      -1.88900742E-19
   1.28999996      -3.96527328E-19
   1.35000002      -5.93259570E-19
   1.40999997      -6.87905111E-19
   1.47000003      -5.36728445E-19
   1.52999997       5.09538701E-20
   1.59000003       1.23706970E-18
   1.64999998       2.97483761E-18
   1.71000004       4.76951928E-18
   1.76999998       5.54312257E-18
   1.83000004       3.83628129E-18
   1.88999999      -1.50719825E-18
   1.95000005      -1.03127701E-17
   2.00999999      -2.02148847E-17
   2.06999993      -2.66750908E-17
   2.13000011      -2.43638869E-17
   2.19000006      -9.69644854E-18
   2.25000000       1.65437413E-17
   2.30999994       4.80139435E-17
   2.36999989       7.41526391E-17
   2.43000007       8.38723885E-17
   2.49000001       6.99572849E-17
   2.54999995       3.18577959E-17
   2.60999990      -2.46175617E-17
   2.67000008      -9.02288017E-17
   2.73000002      -1.55465076E-16
   2.78999996      -2.11234559E-16
   2.84999990      -2.46248968E-16
   2.91000009      -2.43356483E-16
   2.97000003      -1.79221293E-16
   3.02999997      -3.10097372E-17
   3.08999991       2.10053729E-16
   3.15000010       5.23202722E-16
   3.21000004       8.48397200E-16
   3.26999998       1.08877912E-15
   3.32999992       1.12730048E-15
   3.39000010       8.54831156E-16
   3.45000005       2.04866843E-16
   3.50999999      -8.09816119E-16
   3.56999993      -2.06373458E-15
   3.63000011      -3.29823724E-15
   3.69000006      -4.13141294E-15
   3.75000000      -4.11958878E-15
   3.80999994      -2.88185406E-15
   3.86999989      -2.71295309E-16
   3.93000007       3.46091225E-15
   3.99000001       7.58896967E-15
   4.05000019       1.09960326E-14
   4.11000013       1.24385289E-14
   4.17000008       1.09314252E-14
   4.23000002       6.12412910E-15
   4.28999996      -1.48171653E-15
   4.34999990      -1.05684148E-14
   4.40999985      -1.92838756E-14
   4.46999979      -2.56577274E-14
   4.53000021      -2.79978829E-14
   4.59000015      -2.51557859E-14
   4.65000010      -1.66502097E-14
   4.71000004      -2.73479580E-15
   4.76999998       1.54843738E-14
   4.82999992       3.58519671E-14
   4.88999987       5.49963111E-14
   4.94999981       6.84153661E-14
   5.01000023       7.10466977E-14
   5.07000017       5.84171586E-14
   5.13000011       2.82254807E-14
   5.19000006      -1.80492743E-14
   5.25000000      -7.40924656E-14
   5.30999994      -1.28832979E-13
   5.36999989      -1.68035047E-13
   5.42999983      -1.77391711E-13
   5.48999977      -1.46604679E-13
   5.55000019      -7.34399114E-14
   5.61000013       3.35594860E-14
   5.67000008       1.54958362E-13
   5.73000002       2.63612076E-13
   5.78999996       3.30852804E-13
   5.84999990       3.34232099E-13
   5.90999985       2.64514837E-13
   5.96999979       1.29513140E-13
   6.03000021      -4.67961953E-14
   6.09000015      -2.29827089E-13
   6.15000010      -3.82842331E-13
   6.21000004      -4.75476646E-13
   6.26999998      -4.89621310E-13
   6.32999992      -4.21295431E-13
   6.38999987      -2.79009210E-13
   6.44999981      -8.05795318E-14
   6.51000023       1.49427196E-13
   6.57000017       3.80635519E-13
   6.63000011       5.77126725E-13
   6.69000006       6.99458124E-13
   6.75000000       7.10804787E-13
   6.80999994       5.87638228E-13
   6.86999989       3.32232776E-13
   6.92999983      -1.84187314E-14
   6.98999977      -3.93277696E-13
   7.05000019      -7.01035638E-13
   7.11000013      -8.55448958E-13
   7.17000008      -8.04973709E-13
   7.23000002      -5.55729779E-13
   7.28999996      -1.77289715E-13
   7.34999990       2.13966215E-13
   7.40999985       4.90744598E-13
   7.46999979       5.58453999E-13
   7.53000021       3.90521301E-13
   7.59000015       4.12343567E-14
   7.65000010      -3.70010825E-13
   7.71000004      -6.97939048E-13
   7.76999998      -8.19328654E-13
   7.82999992      -6.71304158E-13
   7.88999987      -2.66094004E-13
   7.94999981       3.20931297E-13
   8.01000023       9.81117314E-13
   8.06999969       1.60403310E-12
   8.13000011       2.09550021E-12
   8.18999958       2.37637405E-12
   8.25000000       2.36925757E-12
   8.31000042       1.98983885E-12
   8.36999989       1.15977659E-12
   8.43000031      -1.52363311E-13
   8.48999977      -1.87250562E-12
   8.55000019      -3.77027229E-12
   8.60999966      -5.44649395E-12
   8.67000008      -6.38029777E-12
   8.72999954      -6.03607529E-12
   8.78999996      -4.00632912E-12
   8.85000038      -1.49215601E-13
   8.90999985       5.32259566E-12
   8.97000027       1.18310483E-11
   9.02999973       1.85046683E-11
   9.09000015       2.43131331E-11
   9.14999962       2.82284057E-11
   9.21000004       2.93744265E-11
   9.27000046       2.71377122E-11
   9.32999992       2.12276915E-11
   9.39000034       1.16900864E-11
   9.44999981      -1.11540107E-12
   9.51000023      -1.65615924E-11
   9.56999969      -3.38175703E-11
   9.63000011      -5.19276046E-11
   9.68999958      -6.99059005E-11
   9.75000000      -8.68463981E-11
   9.81000042      -1.02042118E-10
   9.86999989      -1.15101324E-10
   9.93000031      -1.26039526E-10
   9.98999977      -1.35319436E-10
   10.0500002      -1.43810741E-10
   10.1099997      -1.52651475E-10
   10.1700001      -1.63016420E-10
   10.2299995      -1.75831877E-10
   10.2900000      -1.91506824E-10
   10.3500004      -2.09764789E-10
   10.4099998      -2.29642708E-10
   10.4700003      -2.49675169E-10
   10.5299997      -2.68216754E-10
   10.5900002      -2.83802176E-10
   10.6499996      -2.95426877E-10
   10.7100000      -3.02664421E-10
   10.7700005      -3.05606235E-10
   10.8299999      -3.04684750E-10
   10.8900003      -3.00483305E-10
   10.9499998      -2.93627123E-10
   11.0100002      -2.84791607E-10
   11.0699997      -2.74791606E-10
   11.1300001      -2.64663957E-10
   11.1899996      -2.55656774E-10
   11.2500000      -2.49086196E-10
   11.3100004      -2.46094950E-10
   11.3699999      -2.47399906E-10
   11.4300003      -2.53127824E-10
   11.4899998      -2.62800393E-10
   11.5500002      -2.75467482E-10
   11.6099997      -2.89927027E-10
   11.6700001      -3.04946318E-10
   11.7299995      -3.19410165E-10
   11.7900000      -3.32364691E-10
   11.8500004      -3.42974649E-10
   11.9099998      -3.50450141E-10
   11.9700003      -3.54011320E-10
   12.0299997      -3.52943175E-10
   12.0900002      -3.46753876E-10
   12.1499996      -3.35394434E-10
   12.2100000      -3.19450799E-10
   12.2700005      -3.00198227E-10
   12.3299999      -2.79438361E-10
   12.3900003      -2.59116006E-10
   12.4499998      -2.40815812E-10
   12.5100002      -2.25317071E-10
   12.5699997      -2.12390952E-10
   12.6300001      -2.00940778E-10
   12.6899996      -1.89439076E-10
   12.7500000      -1.76479234E-10
   12.8100004      -1.61205299E-10
   12.8699999      -1.43453055E-10
   12.9300003      -1.23592220E-10
   12.9899998      -1.02224139E-10
   13.0500002      -7.99614749E-11
   13.1099997      -5.74543225E-11
   13.1700001      -3.56616091E-11
   13.2299995      -1.61969726E-11
   13.2900000      -1.50509206E-12
   13.3500004       5.30379863E-12
   13.4099998       9.59260449E-13
   13.4700003      -1.73014311E-11
   13.5299997      -5.11572659E-11
   13.5900002      -1.00913639E-10
   13.6499996      -1.65545591E-10
   13.7100000      -2.42980219E-10
   13.7700005      -3.30470873E-10
   13.8299999      -4.24962426E-10
   13.8900003      -5.23435073E-10
   13.9499998      -6.23263219E-10
   14.0100002      -7.22592430E-10
   14.0699997      -8.20651047E-10
   14.1300001      -9.17852072E-10
   14.1899996      -1.01557074E-09
   14.2500000      -1.11561171E-09
   14.3100004      -1.21953347E-09
   14.3699999      -1.32807210E-09
   14.4300003      -1.44085222E-09
   14.4899998      -1.55641111E-09
   14.5500002      -1.67239822E-09
   14.6099997      -1.78575210E-09
   14.6700001      -1.89273797E-09
   14.7299995      -1.98889594E-09
   14.7900000      -2.06907957E-09
   14.8500004      -2.12776929E-09
   14.9099998      -2.15970375E-09
   14.9700003      -2.16067897E-09
   15.0299997      -2.12823692E-09
   15.0900002      -2.06198947E-09
   15.1499996      -1.96347916E-09
   15.2100000      -1.83566651E-09
   15.2700005      -1.68225522E-09
   15.3299999      -1.50706658E-09
   15.3900003      -1.31356603E-09
   15.4499998      -1.10455411E-09
   15.5100002      -8.81989370E-10
   15.5699997      -6.46947218E-10
   15.6300001      -3.99760364E-10
   15.6899996      -1.40387479E-10
   15.7500000       1.31021319E-10
   15.8100004       4.13494378E-10
   15.8699999       7.04737602E-10
   15.9300003       1.00092556E-09
   15.9899998       1.29684596E-09
   16.0499992       1.58635005E-09
   16.1100006       1.86299953E-09
   16.1700001       2.12080997E-09
   16.2299995       2.35500441E-09
   16.2900009       2.56269539E-09
   16.3500004       2.74334933E-09
   16.4099998       2.89887470E-09
   16.4699993       3.03321634E-09
   16.5300007       3.15150839E-09
   16.5900002       3.25903282E-09
   16.6499996       3.36034156E-09
   16.7099991       3.45880347E-09
   16.7700005       3.55657748E-09
   16.8299999       3.65472030E-09
   16.8899994       3.75301656E-09
   16.9500008       3.84929244E-09
   17.0100002       3.93835409E-09
   17.0699997       4.01107503E-09
   17.1299992       4.05426182E-09
   17.1900005       4.05168832E-09
   17.2500000       3.98616606E-09
   17.3099995       3.84204801E-09
   17.3700008       3.60735530E-09
   17.4300003       3.27496208E-09
   17.4899998       2.84271318E-09
   17.5499992       2.31282771E-09
   17.6100006       1.69111425E-09
   17.6700001       9.86374094E-10
   17.7299995       2.10051490E-10
   17.7900009      -6.24089058E-10
   17.8500004      -1.50050439E-09
   17.9099998      -2.40269671E-09
   17.9699993      -3.31412719E-09
   18.0300007      -4.21891322E-09
   18.0900002      -5.10207787E-09
   18.1499996      -5.94937033E-09
   18.2099991      -6.74687595E-09
   18.2700005      -7.48071649E-09
   18.3299999      -8.13704482E-09
   18.3899994      -8.70238992E-09
   18.4500008      -9.16430754E-09
   18.5100002      -9.51224610E-09
   18.5699997      -9.73860992E-09
   18.6299992      -9.83993775E-09
   18.6900005      -9.81805925E-09
   18.7500000      -9.68095470E-09
   18.8099995      -9.44302148E-09
   18.8700008      -9.12455711E-09
   18.9300003      -8.75050521E-09
   18.9899998      -8.34873504E-09
   19.0499992      -7.94817989E-09
   19.1100006      -7.57707674E-09
   19.1700001      -7.26133242E-09
   19.2299995      -7.02289427E-09
   19.2900009      -6.87801505E-09
   19.3500004      -6.83549262E-09
   19.4099998      -6.89520308E-09
   19.4699993      -7.04737957E-09
   19.5300007      -7.27302574E-09
   19.5900002      -7.54563789E-09
   19.6499996      -7.83406762E-09
   19.7099991      -8.10608025E-09
   19.7700005      -8.33200176E-09
   19.8299999      -8.48776693E-09
   19.8899994      -8.55681925E-09
   19.9500008      -8.53053006E-09
   20.0100002      -8.40720471E-09
   20.0699997      -8.19012325E-09
   20.1299992      -7.88538035E-09
   20.1900005      -7.50034168E-09
   20.2500000      -7.04317804E-09
   20.3099995      -6.52344889E-09
   20.3700008      -5.95311223E-09
   20.4300003      -5.34715694E-09
   20.4899998      -4.72319828E-09
   20.5499992      -4.09995282E-09
   20.6100006      -3.49507601E-09
   20.6700001      -2.92317415E-09
   20.7299995      -2.39472908E-09
   20.7900009      -1.91624094E-09
   20.8500004      -1.49140023E-09
   20.9099998      -1.12275333E-09
   20.9699993      -8.13248580E-10
   21.0300007      -5.67178304E-10
   21.0900002      -3.90236898E-10
   21.1499996      -2.88616658E-10
   21.2099991      -2.67265848E-10
   21.2700005      -3.27681715E-10
   21.3299999      -4.65859573E-10
   21.3899994      -6.71138201E-10
   21.4500008      -9.26505261E-10
   21.5100002      -1.21042387E-09
   21.5699997      -1.49960855E-09
   21.6299992      -1.77174719E-09
   21.6900005      -2.00721861E-09
   21.7500000      -2.18942176E-09
   21.8099995      -2.30408825E-09
   21.8700008      -2.33847253E-09
   21.9300003      -2.28126229E-09
   21.9899998      -2.12349183E-09
   22.0499992      -1.86003302E-09
   22.1100006      -1.49084234E-09
   22.1700001      -1.02130782E-09
   22.2299995      -4.61591904E-10
   22.2900009       1.74563239E-10
   22.3500004       8.70951422E-10
   22.4099998       1.60960745E-09
   22.4699993       2.37128739E-09
   22.5300007       3.13620818E-09
   22.5900002       3.88539378E-09
   22.6499996       4.60249616E-09
   22.7099991       5.27550581E-09
   22.7700005       5.89765881E-09
   22.8299999       6.46721521E-09
   22.8899994       6.98630975E-09
   22.9500008       7.45946238E-09
   23.0100002       7.89227883E-09
   23.0699997       8.29053803E-09
   23.1299992       8.65948824E-09
   23.1900005       9.00311026E-09
   23.2500000       9.32333410E-09
   23.3099995       9.61949365E-09
   23.3700008       9.88836568E-09
   23.4300003       1.01248459E-08
   23.4899998       1.03228874E-08
   23.5499992       1.04760645E-08
   23.6100006       1.05773843E-08
   23.6700001       1.06185762E-08
   23.7299995       1.05896421E-08
   23.7900009       1.04796092E-08
   23.8500004       1.02788293E-08
   23.9099998       9.98228522E-09
   23.9699993       9.59258273E-09
   24.0300007       9.12119713E-09
   24.0900002       8.58712390E-09
   24.1499996       8.01320343E-09
   24.2099991       7.42131601E-09
   24.2700005       6.82806389E-09
   24.3299999       6.24229957E-09
   24.3899994       5.66507996E-09
   24.4500008       5.09178388E-09
   24.5100002       4.51543913E-09
   24.5699997       3.93001010E-09
   24.6299992       3.33249583E-09
   24.6900005       2.72313105E-09
   24.7500000       2.10370699E-09
   24.8099995       1.47479928E-09
   24.8700008       8.33264679E-10
   24.9300003       1.71415965E-10
   24.9899998      -5.21342913E-10
   25.0499992      -1.25471999E-09
   25.1100006      -2.03296779E-09
   25.1700001      -2.85143131E-09
   25.2299995      -3.69572328E-09
   25.2900009      -4.54392479E-09
   25.3500004      -5.37094458E-09
   25.4099998      -6.15337603E-09
   25.4699993      -6.87322332E-09
   25.5300007      -7.51958673E-09
   25.5900002      -8.08833622E-09
   25.6499996      -8.58045102E-09
   25.7099991      -8.99987818E-09
   25.7700005      -9.35157463E-09
   25.8299999      -9.64012425E-09
   25.8899994      -9.86918636E-09
   25.9500008      -1.00418740E-08
   26.0100002      -1.01619149E-08
   26.0699997      -1.02350466E-08
   26.1299992      -1.02697850E-08
   26.1900005      -1.02767483E-08
   26.2500000      -1.02664250E-08
   26.3099995      -1.02461994E-08
   26.3700008      -1.02182085E-08
   26.4300003      -1.01794635E-08
   26.4899998      -1.01246300E-08
   26.5499992      -1.00504449E-08
   26.6100006      -9.95966509E-09
   26.6700001      -9.86254367E-09
   26.7299995      -9.77500836E-09
   26.7900009      -9.71431557E-09
   26.8500004      -9.69415392E-09
   26.9099998      -9.72118386E-09
   26.9699993      -9.79412373E-09
   27.0300007      -9.90512650E-09
   27.0900002      -1.00423989E-08
   27.1499996      -1.01928608E-08
   27.2099991      -1.03441646E-08
   27.2700005      -1.04859446E-08
   27.3299999      -1.06103304E-08
   27.3899994      -1.07117009E-08
   27.4500008      -1.07855032E-08
   27.5100002      -1.08263150E-08
   27.5699997      -1.08258575E-08
   27.6299992      -1.07721547E-08
   27.6900005      -1.06508127E-08
   27.7500000      -1.04484696E-08
   27.8099995      -1.01572040E-08
   27.8700008      -9.77788872E-09
   27.9300003      -9.32077970E-09
   27.9899998      -8.80281004E-09
   28.0499992      -8.24265989E-09
   28.1100006      -7.65567432E-09
   28.1700001      -7.05060899E-09
   28.2299995      -6.42923670E-09
   28.2900009      -5.78852966E-09
   28.3500004      -5.12430054E-09
   28.4099998      -4.43499193E-09
   28.4699993      -3.72463527E-09
   28.5300007      -3.00440006E-09
   28.5900002      -2.29239405E-09
   28.6499996      -1.61152269E-09
   28.7099991      -9.85590831E-10
   28.7700005      -4.34494773E-10
   28.8299999       2.99374241E-11
   28.8899994       4.05693590E-10
   28.9500008       6.98830771E-10
   29.0100002       9.18575049E-10
   29.0699997       1.07110509E-09
   29.1299992       1.15457877E-09
   29.1900005       1.15744814E-09
   29.2500000       1.06061815E-09
   29.3099995       8.42336700E-10
   29.3700008       4.83728779E-10
   29.4300003      -2.70091467E-11
   29.4899998      -6.92826352E-10
   29.5499992      -1.50844348E-09
   29.6100006      -2.46271559E-09
   29.6700001      -3.54192187E-09
   29.7299995      -4.73326756E-09
   29.7900009      -6.02789418E-09
   29.8500004      -7.42254347E-09
   29.9099998      -8.91902818E-09
   29.9699993      -1.05211218E-08
   30.0300007      -1.22295063E-08
   30.0900002      -1.40364751E-08
   30.1499996      -1.59225682E-08
   30.2099991      -1.78567721E-08
   30.2700005      -1.98004351E-08
   30.3299999      -2.17134577E-08
   30.3899994      -2.35603501E-08
   30.4500008      -2.53140708E-08
   30.5100002      -2.69566502E-08
   30.5699997      -2.84770749E-08
   30.6299992      -2.98677776E-08
   30.6900005      -3.11211821E-08
   30.7500000      -3.22272200E-08
   30.8099995      -3.31721957E-08
   30.8700008      -3.39390773E-08
   30.9300003      -3.45092097E-08
   30.9899998      -3.48654190E-08
   31.0499992      -3.49959066E-08
   31.1100006      -3.48977238E-08
   31.1700001      -3.45783384E-08
   31.2299995      -3.40539472E-08
   31.2900009      -3.33445875E-08
   31.3500004      -3.24674296E-08
   31.4099998      -3.14309112E-08
   31.4699993      -3.02321794E-08
   31.5300007      -2.88592226E-08
   31.5900002      -2.72970802E-08
   31.6499996      -2.55359041E-08
   31.7099991      -2.35779467E-08
   31.7700005      -2.14410321E-08
   31.8299999      -1.91574685E-08
   31.8899994      -1.67689205E-08
   31.9500008      -1.43189691E-08
   32.0099983      -1.18455796E-08
   32.0699997      -9.37539024E-09
   32.1300011      -6.92109436E-09
   32.1899986      -4.48222881E-09
   32.2500000      -2.04882999E-09
   32.3100014       3.93219207E-10
   32.3699989       2.85661828E-09
   32.4300003       5.34819655E-09
   32.4900017       7.86646481E-09
   32.5499992       1.04013944E-08
   32.6100006       1.29360433E-08
   32.6699982       1.54492668E-08
   32.7299995       1.79186603E-08
   32.7900009       2.03230073E-08
   32.8499985       2.26437518E-08
   32.9099998       2.48652903E-08
   32.9700012       2.69741172E-08
   33.0299988       2.89571904E-08
   33.0900002       3.08001162E-08
   33.1500015       3.24859037E-08
   33.2099991       3.39949864E-08
   33.2700005       3.53067087E-08
   33.3300018       3.64021098E-08
   33.3899994       3.72671032E-08
   33.4500008       3.78950560E-08
   33.5099983       3.82877126E-08
   33.5699997       3.84540435E-08
   33.6300011       3.84070447E-08
   33.6899986       3.81593708E-08
   33.7500000       3.77189728E-08
   33.8100014       3.70862843E-08
   33.8699989       3.62538977E-08
   33.9300003       3.52094354E-08
   33.9900017       3.39408750E-08
   34.0499992       3.24429337E-08
   34.1100006       3.07224468E-08
   34.1699982       2.88008071E-08
   34.2299995       2.67124953E-08
   34.2900009       2.45000980E-08
   34.3499985       2.22074856E-08
   34.4099998       1.98733456E-08
   34.4700012       1.75269932E-08
   34.5299988       1.51873127E-08
   34.5900002       1.28645175E-08
   34.6500015       1.05636682E-08
   34.7099991       8.28855651E-09
   34.7700005       6.04492101E-09
   34.8300018       3.84231225E-09
   34.8899994       1.69430869E-09
   34.9500008      -3.82991361E-10
   35.0099983      -2.37394260E-09
   35.0699997      -4.26705515E-09
   35.1300011      -6.05815886E-09
   35.1899986      -7.75156117E-09
   35.2500000      -9.35813649E-09
   35.3100014      -1.08904139E-08
   35.3699989      -1.23560877E-08
   35.4300003      -1.37523433E-08
   35.4900017      -1.50633994E-08
   35.5499992      -1.62625593E-08
   35.6100006      -1.73183565E-08
   35.6699982      -1.82027762E-08
   35.7299995      -1.88987688E-08
   35.7900009      -1.94045988E-08
   35.8499985      -1.97338128E-08
   35.9099998      -1.99110719E-08
   35.9700012      -1.99653467E-08
   36.0299988      -1.99226005E-08
   36.0900002      -1.97999821E-08
   36.1500015      -1.96030552E-08
   36.2099991      -1.93266310E-08
   36.2700005      -1.89589162E-08
   36.3300018      -1.84876789E-08
   36.3899994      -1.79066983E-08
   36.4500008      -1.72205237E-08
   36.5099983      -1.64461085E-08
   36.5699997      -1.56108406E-08
   36.6300011      -1.47475898E-08
   36.6899986      -1.38883900E-08
   36.7500000      -1.30587621E-08
   36.8100014      -1.22745050E-08
   36.8699989      -1.15419185E-08
   36.9300003      -1.08613571E-08
   36.9900017      -1.02328812E-08
   37.0499992      -9.66204805E-09
   37.1100006      -9.16371690E-09
   37.1699982      -8.76226824E-09
   37.2299995      -8.48777404E-09
   37.2900009      -8.36910541E-09
   37.3499985      -8.42619396E-09
   37.4099998      -8.66422489E-09
   37.4700012      -9.07199471E-09
   37.5299988      -9.62521618E-09
   37.5900002      -1.02936717E-08
   37.6500015      -1.10495622E-08
   37.7099991      -1.18739685E-08
   37.7700005      -1.27591333E-08
   37.8300018      -1.37060523E-08
   37.8899994      -1.47187817E-08
   37.9500008      -1.57980971E-08
   38.0099983      -1.69371610E-08
   38.0699997      -1.81207209E-08
   38.1300011      -1.93277234E-08
   38.1899986      -2.05357473E-08
   38.2500000      -2.17251106E-08
   38.3100014      -2.28809842E-08
   38.3699989      -2.39930777E-08
   38.4300003      -2.50536605E-08
   38.4900017      -2.60554724E-08
   38.5499992      -2.69908362E-08
   38.6100006      -2.78525079E-08
   38.6699982      -2.86356787E-08
   38.7299995      -2.93399314E-08
   38.7900009      -2.99699394E-08
   38.8499985      -3.05343697E-08
   38.9099998      -3.10434380E-08
   38.9700012      -3.15060191E-08
   39.0299988      -3.19274882E-08
   39.0900002      -3.23088294E-08
   39.1500015      -3.26470904E-08
   39.2099991      -3.29368248E-08
   39.2700005      -3.31719789E-08
   39.3300018      -3.33479022E-08
   39.3899994      -3.34629924E-08
   39.4500008      -3.35195161E-08
   39.5099983      -3.35229124E-08
   39.5699997      -3.34792496E-08
   39.6300011      -3.33913448E-08
   39.6899986      -3.32550378E-08
   39.7500000      -3.30577414E-08
   39.8100014      -3.27809744E-08
   39.8699989      -3.24068417E-08
   39.9300003      -3.19263833E-08
   39.9900017      -3.13460973E-08
   40.0499992      -3.06892751E-08
   40.1100006      -2.99906802E-08
   40.1699982      -2.92861397E-08
   40.2299995      -2.86011730E-08
   40.2900009      -2.79432477E-08
   40.3499985      -2.73008531E-08
   40.4099998      -2.66495572E-08
   40.4700012      -2.59624642E-08
   40.5299988      -2.52209702E-08
   40.5900002      -2.44221159E-08
   40.6500015      -2.35804656E-08
   40.7099991      -2.27244232E-08
   40.7700005      -2.18884750E-08
   40.8300018      -2.11036735E-08
   40.8899994      -2.03889563E-08
   40.9500008      -1.97457624E-08
   41.0099983      -1.91578255E-08
   41.0699997      -1.85967242E-08
   41.1300011      -1.80318818E-08
   41.1899986      -1.74417103E-08
   41.2500000      -1.68216125E-08
   41.3100014      -1.61852771E-08
   41.3699989      -1.55583333E-08
   41.4300003      -1.49666981E-08
   41.4900017      -1.44244661E-08
   41.5499992      -1.39264245E-08
   41.6100006      -1.34481901E-08
   41.6699982      -1.29535724E-08
   41.7299995      -1.24058639E-08
   41.7900009      -1.17785683E-08
   41.8499985      -1.10620659E-08
   41.9099998      -1.02647411E-08
   41.9700012      -9.40918898E-09
   42.0299988      -8.52517257E-09
   42.0900002      -7.64123698E-09
   42.1500015      -6.77669254E-09
   42.2099991      -5.93569105E-09
   42.2700005      -5.10515941E-09
   42.3300018      -4.25796909E-09
   42.3899994      -3.36131611E-09
   42.4500008      -2.38819142E-09
   42.5099983      -1.32793454E-09
   42.5699997      -1.91524185E-10
   42.6300011       9.91030258E-10
   42.6899986       2.18057750E-09
   42.7500000       3.34216477E-09
   42.8100014       4.45649162E-09
   42.8699989       5.52508217E-09
   42.9300003       6.56765309E-09
   42.9900017       7.61339258E-09
   43.0499992       8.68995809E-09
   43.1100006       9.81421611E-09
   43.1699982       1.09873621E-08
   43.2299995       1.21952120E-08
   43.2900009       1.34128859E-08
   43.3499985       1.46122332E-08
   43.4099998       1.57700040E-08
   43.4700012       1.68745959E-08
   43.5299988       1.79292972E-08
   43.5900002       1.89505549E-08
   43.6500015       1.99613073E-08
   43.7099991       2.09812718E-08
   43.7700005       2.20177121E-08
   43.8300018       2.30603998E-08
   43.8899994       2.40829507E-08
   43.9500008       2.50501095E-08
   44.0099983       2.59279602E-08
   44.0699997       2.66930993E-08
   44.1300011       2.73375704E-08
   44.1899986       2.78686709E-08
   44.2500000       2.83048216E-08
   44.3100014       2.86698167E-08
   44.3699989       2.89874489E-08
   44.4300003       2.92773539E-08
   44.4900017       2.95520977E-08
   44.5499992       2.98154106E-08
   44.6100006       3.00620293E-08
   44.6699982       3.02798782E-08
   44.7299995       3.04548742E-08
   44.7900009       3.05772438E-08
   44.8499985       3.06469836E-08
   44.9099998       3.06758245E-08
   44.9700012       3.06842658E-08
   45.0299988       3.06945900E-08
   45.0900002       3.07227808E-08
   45.1500015       3.07730268E-08
   45.2099991       3.08371924E-08
   45.2700005       3.08992547E-08
   45.3300018       3.09425268E-08
   45.3899994       3.09562864E-08
   45.4500008       3.09392760E-08
   45.5099983       3.08992441E-08
   45.5699997       3.08495416E-08
   45.6300011       3.08045571E-08
   45.6899986       3.07755563E-08
   45.7500000       3.07675982E-08
   45.8100014       3.07775210E-08
   45.8699989       3.07928723E-08
   45.9300003       3.07921582E-08
   45.9900017       3.07471240E-08
   46.0499992       3.06276107E-08
   46.1100006       3.04084580E-08
   46.1699982       3.00767482E-08
   46.2299995       2.96367180E-08
   46.2900009       2.91100797E-08
   46.3499985       2.85307795E-08
   46.4099998       2.79354104E-08
   46.4700012       2.73522680E-08
   46.5299988       2.67928151E-08
   46.5900002       2.62486051E-08
   46.6500015       2.56947956E-08
   46.7099991       2.50990304E-08
   46.7700005       2.44324792E-08
   46.8300018       2.36791511E-08
   46.8899994       2.28402843E-08
   46.9500008       2.19325198E-08
   47.0099983       2.09808650E-08
   47.0699997       2.00093293E-08
   47.1300011       1.90327167E-08
   47.1899986       1.80525674E-08
   47.2500000       1.70583530E-08
   47.3100014       1.60331748E-08
   47.3699989       1.49615715E-08
   47.4300003       1.38365808E-08
   47.4900017       1.26637048E-08
   47.5499992       1.14606777E-08
   47.6100006       1.02534425E-08
   47.6699982       9.06976183E-09
   47.7299995       7.93242272E-09
   47.7900009       6.85388635E-09
   47.8499985       5.83375837E-09
   47.9099998       4.85970242E-09
   47.9700012       3.91162613E-09
   48.0299988       2.96812130E-09
   48.0900002       2.01344741E-09
   48.1500015       1.04299158E-09
   48.2099991       6.54008930E-11
   48.2700005      -8.99510078E-10
   48.3300018      -1.82655036E-09
   48.3899994      -2.69272538E-09
   48.4500008      -3.48388585E-09
   48.5099983      -4.19800195E-09
   48.5699997      -4.84388041E-09
   48.6300011      -5.43596457E-09
   48.6899986      -5.98741545E-09
   48.7500000      -6.50428511E-09
   48.8100014      -6.98299640E-09
   48.8699989      -7.41181427E-09
   48.9300003      -7.77529330E-09
   48.9900017      -8.05959477E-09
   49.0499992      -8.25651636E-09
   49.1100006      -8.36499758E-09
   49.1699982      -8.39017300E-09
   49.2299995      -8.34102565E-09
   49.2900009      -8.22794544E-09
   49.3499985      -8.06099187E-09
   49.4099998      -7.84890375E-09
   49.4700012      -7.59835306E-09
   49.5299988      -7.31303373E-09
   49.5900002      -6.99269043E-09
   49.6500015      -6.63277788E-09
   49.7099991      -6.22555474E-09
   49.7700005      -5.76291059E-09
   49.8300018      -5.24032773E-09
   49.8899994      -4.66058703E-09
   49.9500008      -4.03566425E-09
   50.0099983      -3.38583939E-09
   50.0699997      -2.73611933E-09
   50.1300011      -2.11108264E-09
   50.1899986      -1.52977786E-09
   50.2500000      -1.00214947E-09
   50.3100014      -5.27851984E-10
   50.3699989      -9.75672390E-11
   50.4300003       3.03640169E-10
   50.4900017       6.91745661E-10
   50.5499992       1.07900822E-09
   50.6100006       1.47021673E-09