 -0.750000000       0.00000000    
 -0.689999998       0.00000000    
 -0.629999995       0.00000000    
 -0.569999993       0.00000000    
 -0.509999990       0.00000000    
 -0.449999988       0.00000000    
 -0.389999986       0.00000000    
 -0.330000013       0.00000000    
 -0.270000011       1.50612575E-26
 -0.209999993       1.61970425E-25
 -0.150000006       8.47285029E-25
  -9.00000036E-02   2.78783089E-24
  -2.99999993E-02   6.09278890E-24
   2.99999993E-02   7.73449087E-24
   9.00000036E-02  -1.56628313E-24
  0.150000006      -3.73888799E-23
  0.209999993      -1.14592106E-22
  0.270000011      -2.33114178E-22
  0.330000013      -3.58556088E-22
  0.389999986      -3.87241191E-22
  0.449999988      -6.23619158E-23
  0.509999990       1.17384441E-21
  0.569999993       4.25462125E-21
  0.629999995       1.00442215E-20
  0.689999998       1.77054052E-20
  0.750000000       2.16608165E-20
  0.810000002       8.66023366E-21
  0.870000005      -4.07825310E-20
  0.930000007      -1.40630255E-19
  0.990000010      -2.74438003E-19
   1.04999995      -3.65557195E-19
   1.11000001      -2.67238068E-19
   1.16999996       1.91673981E-19
   1.23000002       1.08260633E-18
   1.28999996       2.20128167E-18
   1.35000002       2.94180064E-18
   1.40999997       2.37788928E-18
   1.47000003      -3.25264167E-19
   1.52999997      -5.21406227E-18
   1.59000003      -1.08774019E-17
   1.64999998      -1.43334982E-17
   1.71000004      -1.19475205E-17
   1.76999998      -1.39334128E-18
   1.83000004       1.60919286E-17
   1.88999999       3.45627129E-17
   1.95000005       4.46956588E-17
   2.00999999       3.78933093E-17
   2.06999993       1.16339082E-17
   2.13000011      -2.70215802E-17
   2.19000006      -6.28421685E-17
   2.25000000      -7.95394444E-17
   2.30999994      -6.95189652E-17
   2.36999989      -4.00984305E-17
   2.43000007      -1.03522729E-17
   2.49000001       2.28018953E-18
   2.54999995      -1.23915864E-18
   2.60999990       6.10439026E-18
   2.67000008       6.51641306E-17
   2.73000002       1.98704599E-16
   2.78999996       3.75535207E-16
   2.84999990       4.96995205E-16
   2.91000009       4.27564868E-16
   2.97000003       6.90850858E-17
   3.02999997      -5.52933949E-16
   3.08999991      -1.24361578E-15
   3.15000010      -1.67960111E-15
   3.21000004      -1.54297173E-15
   3.26999998      -6.98156001E-16
   3.32999992       6.80025367E-16
   3.39000010       2.11516896E-15
   3.45000005       3.00404089E-15
   3.50999999       2.89586271E-15
   3.56999993       1.74130196E-15
   3.63000011      -3.18559397E-17
   3.69000006      -1.68518984E-15
   3.75000000      -2.52078784E-15
   3.80999994      -2.24765232E-15
   3.86999989      -1.16407484E-15
   3.93000007      -3.61357953E-17
   3.99000001       2.92343099E-16
   4.05000019      -6.26488438E-16
   4.11000013      -2.53191891E-15
   4.17000008      -4.47968621E-15
   4.23000002      -5.21693648E-15
   4.28999996      -3.74525824E-15
   4.34999990       1.82974760E-16
   4.40999985       5.85627822E-15
   4.46999979       1.17696770E-14
   4.53000021       1.60876646E-14
   4.59000015       1.72179064E-14
   4.65000010       1.42921004E-14
   4.71000004       7.41325353E-15
   4.76999998      -2.37470155E-15
   4.82999992      -1.33529653E-14
   4.88999987      -2.35320728E-14
   4.94999981      -3.10697513E-14
   5.01000023      -3.45783684E-14
   5.07000017      -3.32356789E-14
   5.13000011      -2.66996576E-14
   5.19000006      -1.49464791E-14
   5.25000000       1.76260219E-15
   5.30999994       2.26098454E-14
   5.36999989       4.56592839E-14
   5.42999983       6.73062883E-14
   5.48999977       8.22548613E-14
   5.55000019       8.44825444E-14
   5.61000013       6.92386347E-14
   5.67000008       3.54825795E-14
   5.73000002      -1.23581794E-14
   5.78999996      -6.44672033E-14
   5.84999990      -1.08076735E-13
   5.90999985      -1.31674226E-13
   5.96999979      -1.29337310E-13
   6.03000021      -1.03190846E-13
   6.09000015      -6.26404175E-14
   6.15000010      -2.05167101E-14
   6.21000004       1.21561213E-14
   6.26999998       3.02677398E-14
   6.32999992       3.56488046E-14
   6.38999987       3.47539380E-14
   6.44999981       3.46846101E-14
   6.51000023       4.02762981E-14
   6.57000017       5.43461895E-14
   6.63000011       8.10571228E-14
   6.69000006       1.29810848E-13
   6.75000000       2.15682520E-13
   6.80999994       3.53283863E-13
   6.86999989       5.44102252E-13
   6.92999983       7.61520946E-13
   6.98999977       9.40824025E-13
   7.05000019       9.81702675E-13
   7.11000013       7.67462699E-13
   7.17000008       1.99278053E-13
   7.23000002      -7.62320545E-13
   7.28999996      -2.06048806E-12
   7.34999990      -3.52153159E-12
   7.40999985      -4.85900079E-12
   7.46999979      -5.70462601E-12
   7.53000021      -5.66243493E-12
   7.59000015      -4.37854614E-12
   7.65000010      -1.61806983E-12
   7.71000004       2.65849972E-12
   7.76999998       8.22589566E-12
   7.82999992       1.45385110E-11
   7.88999987       2.06978427E-11
   7.94999981       2.54552837E-11
   8.01000023       2.72639359E-11
   8.06999969       2.43895616E-11
   8.13000011       1.50806919E-11
   8.18999958      -2.21777653E-12
   8.25000000      -2.86402343E-11
   8.31000042      -6.47101608E-11
   8.36999989      -1.10229832E-10
   8.43000031      -1.64281352E-10
   8.48999977      -2.25344146E-10
   8.55000019      -2.91501712E-10
   8.60999966      -3.60685981E-10
   8.67000008      -4.30898817E-10
   8.72999954      -5.00364472E-10
   8.78999996      -5.67596414E-10
   8.85000038      -6.31398378E-10
   8.90999985      -6.90840662E-10
   8.97000027      -7.45254636E-10
   9.02999973      -7.94263766E-10
   9.09000015      -8.37835468E-10
   9.14999962      -8.76309136E-10
   9.21000004      -9.10354181E-10
   9.27000046      -9.40836853E-10
   9.32999992      -9.68621294E-10
   9.39000034      -9.94369365E-10
   9.44999981      -1.01841546E-09
   9.51000023      -1.04076492E-09
   9.56999969      -1.06120446E-09
   9.63000011      -1.07945575E-09
   9.68999958      -1.09527121E-09
   9.75000000      -1.10839726E-09
   9.81000042      -1.11839515E-09
   9.86999989      -1.12440124E-09
   9.93000031      -1.12496079E-09
   9.98999977      -1.11806664E-09
   10.0500002      -1.10146514E-09
   10.1099997      -1.07317455E-09
   10.1700001      -1.03206177E-09
   10.2299995      -9.78278014E-10
   10.2900000      -9.13393861E-10
   10.3500004      -8.40181480E-10
   10.4099998      -7.62119423E-10
   10.4700003      -6.82790824E-10
   10.5299997      -6.05363648E-10
   10.5900002      -5.32284605E-10
   10.6499996      -4.65214867E-10
   10.7100000      -4.05137951E-10
   10.7700005      -3.52522456E-10
   10.8299999      -3.07437853E-10
   10.8900003      -2.69581829E-10
   10.9499998      -2.38246367E-10
   11.0100002      -2.12288395E-10
   11.0699997      -1.90166716E-10
   11.1300001      -1.70068987E-10
   11.1899996      -1.50107898E-10
   11.2500000      -1.28541525E-10
   11.3100004      -1.03974440E-10
   11.3699999      -7.55162322E-11
   11.4300003      -4.28915306E-11
   11.4899998      -6.49842116E-12
   11.5500002       3.25988958E-11
   11.6099997       7.27665636E-11
   11.6700001       1.12002567E-10
   11.7299995       1.48231899E-10
   11.7900000       1.79648810E-10
   11.8500004       2.05037612E-10
   11.9099998       2.24008673E-10
   11.9700003       2.37114134E-10
   12.0299997       2.45839155E-10
   12.0900002       2.52479704E-10
   12.1499996       2.59908345E-10
   12.2100000       2.71216549E-10
   12.2700005       2.89229918E-10
   12.3299999       3.15943355E-10
   12.3900003       3.51998791E-10
   12.4499998       3.96390670E-10
   12.5100002       4.46571530E-10
   12.5699997       4.99024211E-10
   12.6300001       5.50188228E-10
   12.6899996       5.97457805E-10
   12.7500000       6.39897801E-10
   12.8100004       6.78406109E-10
   12.8699999       7.15265069E-10
   12.9300003       7.53276053E-10
   12.9899998       7.94833477E-10
   13.0500002       8.41285874E-10
   13.1099997       8.92758811E-10
   13.1700001       9.48368495E-10
   13.2299995       1.00658348E-09
   13.2900000       1.06548126E-09
   13.3500004       1.12280096E-09
   13.4099998       1.17591137E-09
   13.4700003       1.22193322E-09
   13.5299997       1.25819677E-09
   13.5900002       1.28298305E-09
   13.6499996       1.29622890E-09
   13.7100000       1.29975652E-09
   13.7700005       1.29673461E-09
   13.8299999       1.29044586E-09
   13.8900003       1.28285460E-09
   13.9499998       1.27368904E-09
   14.0100002       1.26060895E-09
   14.0699997       1.24054456E-09
   14.1300001       1.21168786E-09
   14.1899996       1.17520538E-09
   14.2500000       1.13577281E-09
   14.3100004       1.10052822E-09
   14.3699999       1.07679143E-09
   14.4300003       1.06952114E-09
   14.4899998       1.07965992E-09
   14.5500002       1.10413156E-09
   14.6099997       1.13748755E-09
   14.6700001       1.17442600E-09
   14.7299995       1.21201260E-09
   14.7900000       1.25061062E-09
   14.8500004       1.29317579E-09
   14.9099998       1.34335332E-09
   14.9700003       1.40334466E-09
   15.0299997       1.47254009E-09
   15.0900002       1.54746282E-09
   15.1499996       1.62290181E-09
   15.2100000       1.69356507E-09
   15.2700005       1.75541781E-09
   15.3299999       1.80611925E-09
   15.3900003       1.84447724E-09
   15.4499998       1.86933136E-09
   15.5100002       1.87852267E-09
   15.5699997       1.86853621E-09
   15.6300001       1.83507098E-09
   15.6899996       1.77437565E-09
   15.7500000       1.68486314E-09
   15.8100004       1.56838242E-09
   15.8699999       1.43062995E-09
   15.9300003       1.28045474E-09
   15.9899998       1.12818921E-09
   16.0499992       9.83475967E-10
   16.1100006       8.53276061E-10
   16.1700001       7.40724704E-10
   16.2299995       6.45233589E-10
   16.2900009       5.63794122E-10
   16.3500004       4.92964225E-10
   16.4099998       4.30732977E-10
   16.4699993       3.77493009E-10
   16.5300007       3.35733830E-10
   16.5900002       3.08646414E-10
   16.6499996       2.98342628E-10
   16.7099991       3.04583136E-10
   16.7700005       3.24666793E-10
   16.8299999       3.54546059E-10
   16.8899994       3.90583510E-10
   16.9500008       4.30980779E-10
   17.0100002       4.76018336E-10
   17.0699997       5.26827304E-10
   17.1299992       5.83216198E-10
   17.1900005       6.41689091E-10
   17.2500000       6.94872770E-10
   17.3099995       7.33003214E-10
   17.3700008       7.47125695E-10
   17.4300003       7.32695460E-10
   17.4899998       6.91843360E-10
   17.5499992       6.32978892E-10
   17.6100006       5.67548786E-10
   17.6700001       5.05155473E-10
   17.7299995       4.49192156E-10
   17.7900009       3.95142308E-10
   17.8500004       3.32622430E-10
   17.9099998       2.50550691E-10
   17.9699993       1.43285286E-10
   18.0300007       1.49584355E-11
   18.0900002      -1.20113267E-10
   18.1499996      -2.41387021E-10
   18.2099991      -3.28933686E-10
   18.2700005      -3.70384085E-10
   18.3299999      -3.65157404E-10
   18.3899994      -3.24338639E-10
   18.4500008      -2.66429656E-10
   18.5100002      -2.10859913E-10
   18.5699997      -1.71894207E-10
   18.6299992      -1.55163521E-10
   18.6900005      -1.57763358E-10
   18.7500000      -1.71351947E-10
   18.8099995      -1.86596169E-10
   18.8700008      -1.97042452E-10
   18.9300003      -2.01020880E-10
   18.9899998      -2.01190273E-10
   19.0499992      -2.02334580E-10
   19.1100006      -2.08639980E-10
   19.1700001      -2.21733423E-10
   19.2299995      -2.40295034E-10
   19.2900009      -2.61296096E-10
   19.3500004      -2.82176837E-10
   19.4099998      -3.02852243E-10
   19.4699993      -3.26499550E-10
   19.5300007      -3.58616609E-10
   19.5900002      -4.04634576E-10
   19.6499996      -4.67073547E-10
   19.7099991      -5.43518897E-10
   19.7700005      -6.26404872E-10
   19.8299999      -7.04834191E-10
   19.8899994      -7.67768515E-10
   19.9500008      -8.07320211E-10
   20.0100002      -8.20836898E-10
   20.0699997      -8.11022249E-10
   20.1299992      -7.84202092E-10
   20.1900005      -7.47622020E-10
   20.2500000      -7.06994907E-10
   20.3099995      -6.65283273E-10
   20.3700008      -6.23050445E-10
   20.4300003      -5.79964576E-10
   20.4899998      -5.36543643E-10
   20.5499992      -4.95181285E-10
   20.6100006      -4.59894761E-10
   20.6700001      -4.34868280E-10
   20.7299995      -4.22453517E-10
   20.7900009      -4.21563090E-10
   20.8500004      -4.27235858E-10
   20.9099998      -4.31644581E-10
   20.9699993      -4.26171598E-10
   21.0300007      -4.03705291E-10
   21.0900002      -3.60221880E-10
   21.1499996      -2.95066332E-10
   21.2099991      -2.09966114E-10
   21.2700005      -1.07392116E-10
   21.3299999       1.08614090E-11
   21.3899994       1.44201623E-10
   21.4500008       2.92714603E-10
   21.5100002       4.56008481E-10
   21.5699997       6.32132902E-10
   21.6299992       8.17177714E-10
   21.6900005       1.00572795E-09
   21.7500000       1.19188226E-09
   21.8099995       1.37028555E-09
   21.8700008       1.53671131E-09
   21.9300003       1.68805525E-09
   21.9899998       1.82194870E-09
   22.0499992       1.93637595E-09
   22.1100006       2.02960249E-09
   22.1700001       2.10049178E-09
   22.2299995       2.14905871E-09
   22.2900009       2.17700324E-09
   22.3500004       2.18798579E-09
   22.4099998       2.18750751E-09
   22.4699993       2.18234697E-09
   22.5300007       2.17958984E-09
   22.5900002       2.18538099E-09
   22.6499996       2.20365148E-09
   22.7099991       2.23519048E-09
   22.7700005       2.27744112E-09
   22.8299999       2.32522779E-09
   22.8899994       2.37227926E-09
   22.9500008       2.41305975E-09
   23.0100002       2.44422460E-09
   23.0699997       2.46511811E-09
   23.1299992       2.47712495E-09
   23.1900005       2.48216292E-09
   23.2500000       2.48098586E-09
   23.3099995       2.47203835E-09
   23.3700008       2.45137932E-09
   23.4300003       2.41376319E-09
   23.4899998       2.35451947E-09
   23.5499992       2.27156738E-09
   23.6100006       2.16681806E-09
   23.6700001       2.04638639E-09
   23.7299995       1.91939753E-09
   23.7900009       1.79566084E-09
   23.8500004       1.68291792E-09
   23.9099998       1.58462288E-09
   23.9699993       1.49909718E-09
   24.0300007       1.42044287E-09
   24.0900002       1.34091804E-09
   24.1499996       1.25387767E-09
   24.2099991       1.15614607E-09
   24.2700005       1.04893572E-09
   24.3299999       9.37065647E-10
   24.3899994       8.26939350E-10
   24.4500008       7.24194205E-10
   24.5100002       6.31945551E-10
   24.5699997       5.50165247E-10
   24.6299992       4.76204631E-10
   24.6900005       4.06051776E-10
   24.7500000       3.35755451E-10
   24.8099995       2.62533190E-10
   24.8700008       1.85288548E-10
   24.9300003       1.04477246E-10
   24.9899998       2.14355738E-11
   25.0499992      -6.25762636E-11
   25.1100006      -1.47260676E-10
   25.1700001      -2.33730313E-10
   25.2299995      -3.24289040E-10
   25.2900009      -4.21611412E-10
   25.3500004      -5.27712318E-10
   25.4099998      -6.43263665E-10
   25.4699993      -7.67673536E-10
   25.5300007      -8.99928854E-10
   25.5900002      -1.03972553E-09
   25.6499996      -1.18817378E-09
   25.7099991      -1.34753642E-09
   25.7700005      -1.51998314E-09
   25.8299999      -1.70591241E-09
   25.8899994      -1.90270355E-09
   25.9500008      -2.10459850E-09
   26.0100002      -2.30389152E-09
   26.0699997      -2.49299204E-09
   26.1299992      -2.66655209E-09
   26.1900005      -2.82285195E-09
   26.2500000      -2.96397906E-09
   26.3099995      -3.09480086E-09
   26.3700008      -3.22113181E-09
   26.4300003      -3.34771322E-09
   26.4899998      -3.47664630E-09
   26.5499992      -3.60676600E-09
   26.6100006      -3.73416853E-09
   26.6700001      -3.85371468E-09
   26.7299995      -3.96093913E-09
   26.7900009      -4.05357481E-09
   26.8500004      -4.13200674E-09
   26.9099998      -4.19842427E-09
   26.9699993      -4.25509317E-09
   27.0300007      -4.30265734E-09
   27.0900002      -4.33941105E-09
   27.1499996      -4.36199699E-09
   27.2099991      -4.36719683E-09
   27.2700005      -4.35386704E-09
   27.3299999      -4.32398028E-09
   27.3899994      -4.28221414E-09
   27.4500008      -4.23433200E-09
   27.5100002      -4.18520729E-09
   27.5699997      -4.13745083E-09
   27.6299992      -4.09118028E-09
   27.6900005      -4.04479561E-09
   27.7500000      -3.99614120E-09
   27.8099995      -3.94335720E-09
   27.8700008      -3.88505272E-09
   27.9300003      -3.81988396E-09
   27.9899998      -3.74593956E-09
   28.0499992      -3.66037534E-09
   28.1100006      -3.55957197E-09
   28.1700001      -3.43987994E-09
   28.2299995      -3.29881433E-09
   28.2900009      -3.13643889E-09
   28.3500004      -2.95652902E-09
   28.4099998      -2.76699308E-09
   28.4699993      -2.57906874E-09
   28.5300007      -2.40510767E-09
   28.5900002      -2.25533636E-09
   28.6499996      -2.13459606E-09
   28.7099991      -2.04036121E-09
   28.7700005      -1.96306926E-09
   28.8299999      -1.88895677E-09
   28.8899994      -1.80455439E-09
   28.9500008      -1.70123904E-09
   29.0100002      -1.57816404E-09
   29.0699997      -1.44252543E-09
   29.1299992      -1.30716704E-09
   29.1900005      -1.18649990E-09
   29.2500000      -1.09222664E-09
   29.3099995      -1.03029218E-09
   29.3700008      -9.99961891E-10
   29.4300003      -9.95197924E-10
   29.4899998      -1.00779551E-09
   29.5499992      -1.03119857E-09
   29.6100006      -1.06364673E-09
   29.6700001      -1.10941234E-09
   29.7299995      -1.17743748E-09
   29.7900009      -1.27760147E-09
   29.8500004      -1.41587042E-09
   29.9099998      -1.59024627E-09
   29.9699993      -1.78936188E-09
   30.0300007      -1.99465422E-09
   30.0900002      -2.18559881E-09
   30.1499996      -2.34614084E-09
   30.2099991      -2.46986231E-09
   30.2700005      -2.56185761E-09
   30.3299999      -2.63660804E-09
   30.3899994      -2.71271272E-09
   30.4500008      -2.80650259E-09
   30.5100002      -2.92685831E-09
   30.5699997      -3.07293568E-09
   30.6299992      -3.23534199E-09
   30.6900005      -3.40005935E-09
   30.7500000      -3.55354768E-09
   30.8099995      -3.68719233E-09
   30.8700008      -3.79962195E-09
   30.9300003      -3.89621979E-09
   30.9899998      -3.98614253E-09
   31.0499992      -4.07803924E-09
   31.1100006      -4.17610613E-09
   31.1700001      -4.27799529E-09
   31.2299995      -4.37536363E-09
   31.2900009      -4.45682513E-09
   31.3500004      -4.51211468E-09
   31.4099998      -4.53579974E-09
   31.4699993      -4.52909088E-09
   31.5300007      -4.49909932E-09
   31.5900002      -4.45590853E-09
   31.6499996      -4.40866410E-09
   31.7099991      -4.36218928E-09
   31.7700005      -4.31536762E-09
   31.8299999      -4.26180913E-09
   31.8899994      -4.19248947E-09
   31.9500008      -4.09933953E-09
   32.0099983      -3.97847755E-09
   32.0699997      -3.83192900E-09
   32.1300011      -3.66724096E-09
   32.1899986      -3.49516593E-09
   32.2500000      -3.32630612E-09
   32.3100014      -3.16796456E-09
   32.3699989      -3.02234193E-09
   32.4300003      -2.88664648E-09
   32.4900017      -2.75492318E-09
   32.5499992      -2.62078581E-09
   32.6100006      -2.47998688E-09
   32.6699982      -2.33195618E-09
   32.7299995      -2.17989071E-09
   32.7900009      -2.02949391E-09
   32.8499985      -1.88679850E-09
   32.9099998      -1.75569381E-09
   32.9700012      -1.63584168E-09
   33.0299988      -1.52166124E-09
   33.0900002      -1.40293666E-09
   33.1500015      -1.26724553E-09
   33.2099991      -1.10379383E-09
   33.2700005      -9.07550590E-10
   33.3300018      -6.82149115E-10
   33.3899994      -4.40195380E-10
   33.4500008      -2.00471223E-10
   33.5099983       1.72574125E-11
   33.5699997       1.98075917E-10
   33.6300011       3.36298656E-10
   33.6899986       4.36818387E-10
   33.7500000       5.13011078E-10
   33.8100014       5.82035364E-10
   33.8699989       6.59186594E-10
   33.9300003       7.53129448E-10
   33.9900017       8.63407901E-10
   34.0499992       9.80874715E-10
   34.1100006       1.09086107E-09
   34.1699982       1.17816989E-09
   34.2299995       1.23241817E-09
   34.2900009       1.25202226E-09
   34.3499985       1.24537636E-09
   34.4099998       1.22861388E-09
   34.4700012       1.22058663E-09
   34.5299988       1.23685884E-09
   34.5900002       1.28502209E-09
   34.6500015       1.36314171E-09
   34.7099991       1.46179380E-09
   34.7700005       1.56861046E-09
   34.8300018       1.67326997E-09
   34.8899994       1.77093884E-09
   34.9500008       1.86312676E-09
   35.0099983       1.95617456E-09
   35.0699997       2.05843698E-09
   35.1300011       2.17733098E-09
   35.1899986       2.31700747E-09
   35.2500000       2.47691312E-09
   35.3100014       2.65135114E-09
   35.3699989       2.83026313E-09
   35.4300003       3.00147085E-09
   35.4900017       3.15422888E-09
   35.5499992       3.28313576E-09
   35.6100006       3.39078254E-09
   35.6699982       3.48755957E-09
   35.7299995       3.58805363E-09
   35.7900009       3.70508602E-09
   35.8499985       3.84377730E-09
   35.9099998       3.99827726E-09
   35.9700012       4.15271861E-09
   36.0299988       4.28606661E-09
   36.0900002       4.37882131E-09
   36.1500015       4.41886661E-09
   36.2099991       4.40436354E-09
   36.2700005       4.34301617E-09
   36.3300018       4.24852287E-09
   36.3899994       4.13586232E-09
   36.4500008       4.01708755E-09
   36.5099983       3.89879284E-09
   36.5699997       3.78167897E-09
   36.6300011       3.66203468E-09
   36.6899986       3.53448115E-09
   36.7500000       3.39499917E-09
   36.8100014       3.24313376E-09
   36.8699989       3.08252179E-09
   36.9300003       2.91953883E-09
   36.9900017       2.76074474E-09
   37.0499992       2.61043942E-09
   37.1100006       2.46961362E-09
   37.1699982       2.33680386E-09
   37.2299995       2.21023178E-09
   37.2900009       2.08983075E-09
   37.3499985       1.97783456E-09
   37.4099998       1.87755567E-09
   37.4700012       1.79114168E-09
   37.5299988       1.71779169E-09
   37.5900002       1.65361447E-09
   37.6500015       1.59325908E-09
   37.7099991       1.53235591E-09
   37.7700005       1.46935153E-09
   37.8300018       1.40579925E-09
   37.8899994       1.34515687E-09
   37.9500008       1.29096711E-09
   38.0099983       1.24544464E-09
   38.0699997       1.20895360E-09
   38.1300011       1.18016397E-09
   38.1899986       1.15634080E-09
   38.2500000       1.13346543E-09
   38.3100014       1.10641396E-09
   38.3699989       1.06969378E-09
   38.4300003       1.01895814E-09
   38.4900017       9.52821821E-10
   38.5499992       8.73950357E-10
   38.6100006       7.88465904E-10
   38.6699982       7.03516301E-10
   38.7299995       6.23923635E-10
   38.7900009       5.49515711E-10
   38.8499985       4.74569384E-10
   38.9099998       3.89830918E-10
   38.9700012       2.86348389E-10
   39.0299988       1.59509267E-10
   39.0900002       1.16080817E-11
   39.1500015      -1.48079909E-10
   39.2099991      -3.05752590E-10
   39.2700005      -4.47199777E-10
   39.3300018      -5.62205116E-10
   39.3899994      -6.47775111E-10
   39.4500008      -7.09082015E-10
   39.5099983      -7.57687690E-10
   39.5699997      -8.07522826E-10
   39.6300011      -8.69965988E-10
   39.6899986      -9.49846646E-10
   39.7500000      -1.04395670E-09
   39.8100014      -1.14266707E-09
   39.8699989      -1.23389954E-09
   39.9300003      -1.30765543E-09
   39.9900017      -1.35914680E-09
   40.0499992      -1.38939726E-09
   40.1100006      -1.40350598E-09
   40.1699982      -1.40783740E-09
   40.2299995      -1.40761147E-09
   40.2900009      -1.40573764E-09
   40.3499985      -1.40277268E-09
   40.4099998      -1.39729628E-09
   40.4700012      -1.38612966E-09
   40.5299988      -1.36445066E-09
   40.5900002      -1.32636979E-09
   40.6500015      -1.26643285E-09
   40.7099991      -1.18182264E-09
   40.7700005      -1.07424758E-09
   40.8300018      -9.50301504E-10
   40.8899994      -8.19706525E-10
   40.9500008      -6.91999680E-10
   41.0099983      -5.73147474E-10
   41.0699997      -4.63672628E-10
   41.1300011      -3.59073604E-10
   41.1899986      -2.52138144E-10
   41.2500000      -1.35917305E-10
   41.3100014      -6.08150422E-12
   41.3699989       1.38001527E-10
   41.4300003       2.93371688E-10
   41.4900017       4.54285887E-10
   41.5499992       6.13367968E-10
   41.6100006       7.63038355E-10
   41.6699982       8.97241392E-10
   41.7299995       1.01318332E-09
   41.7900009       1.11237086E-09
   41.8499985       1.20016119E-09
   41.9099998       1.28356170E-09
   41.9700012       1.36795086E-09
   42.0299988       1.45415402E-09
   42.0900002       1.53734836E-09
   42.1500015       1.60846725E-09
   42.2099991       1.65756076E-09
   42.2700005       1.67763481E-09
   42.3300018       1.66735237E-09
   42.3899994       1.63163516E-09
   42.4500008       1.58019320E-09
   42.5099983       1.52476931E-09
   42.5699997       1.47610135E-09
   42.6300011       1.44140022E-09
   42.6899986       1.42282097E-09
   42.7500000       1.41720935E-09
   42.8100014       1.41729639E-09
   42.8699989       1.41425971E-09
   42.9300003       1.40106726E-09
   42.9900017       1.37546285E-09
   43.0499992       1.34123956E-09
   43.1100006       1.30693345E-09
   43.1699982       1.28217292E-09
   43.2299995       1.27310584E-09
   43.2900009       1.27892441E-09
   43.3499985       1.29110966E-09
   43.4099998       1.29578626E-09
   43.4700012       1.27818622E-09
   43.5299988       1.22737920E-09
   43.5900002       1.13951559E-09
   43.6500015       1.01864761E-09
   43.7099991       8.75214790E-10
   43.7700005       7.22982396E-10
   43.8300018       5.75430426E-10
   43.8899994       4.42470810E-10
   43.9500008       3.28181538E-10
   44.0099983       2.30106378E-10
   44.0699997       1.40446335E-10
   44.1300011       4.90145216E-11
   44.1899986      -5.28373421E-11
   44.2500000      -1.68670480E-10
   44.3100014      -2.95190705E-10
   44.3699989      -4.23029778E-10
   44.4300003      -5.39772227E-10
   44.4900017      -6.33958774E-10
   44.5499992      -6.98472447E-10
   44.6100006      -7.32160443E-10
   44.6699982      -7.39444672E-10
   44.7299995      -7.28467398E-10
   44.7900009      -7.08619163E-10
   44.8499985      -6.88120838E-10
   44.9099998      -6.72013389E-10
   44.9700012      -6.60804189E-10
   45.0299988      -6.50136500E-10
   45.0900002      -6.31924013E-10
   45.1500015      -5.97062511E-10
   45.2099991      -5.39085943E-10
   45.2700005      -4.57361593E-10
   45.3300018      -3.58232888E-10
   45.3899994      -2.53254362E-10
   45.4500008      -1.55055316E-10
   45.5099983      -7.26657623E-11
   45.5699997      -8.51297331E-12
   45.6300011       4.15441639E-11
   45.6899986       8.53769000E-11
   45.7500000       1.30599878E-10
   45.8100014       1.81501217E-10
   45.8699989       2.38178727E-10
   45.9300003       2.97773473E-10
   45.9900017       3.56585289E-10
   46.0499992       4.11672335E-10
   46.1100006       4.61255339E-10
   46.1699982       5.04239983E-10
   46.2299995       5.39720713E-10
   46.2900009       5.67120240E-10
   46.3499985       5.86905913E-10
   46.4099998       6.01235728E-10
   46.4700012       6.13861240E-10
   46.5299988       6.29151287E-10
   46.5900002       6.50751841E-10
   46.6500015       6.80657641E-10
   46.7099991       7.19168336E-10
   46.7700005       7.65601083E-10
   46.8300018       8.19207535E-10
   46.8899994       8.79778694E-10
   46.9500008       9.47816603E-10
   47.0099983       1.02450226E-09
   47.0699997       1.11166709E-09
   47.1300011       1.21162769E-09
   47.1899986       1.32644606E-09
   47.2500000       1.45635548E-09
   47.3100014       1.59777747E-09
   47.3699989       1.74211146E-09
   47.4300003       1.87664018E-09
   47.4900017       1.98808126E-09
   47.5499992       2.06781103E-09
   47.6100006       2.11644791E-09
   47.6699982       2.14522089E-09
   47.7299995       2.17275575E-09
   47.7900009       2.21806795E-09
   47.8499985       2.29253860E-09
   47.9099998       2.39438647E-09
   47.9700012       2.50817167E-09
   48.0299988       2.60970001E-09
   48.0900002       2.67441491E-09
   48.1500015       2.68603739E-09
   48.2099991       2.64233502E-09
   48.2700005       2.55616572E-09
   48.3300018       2.45167953E-09
   48.3899994       2.35703324E-09
   48.4500008       2.29582842E-09
   48.5099983       2.27972174E-09
   48.5699997       2.30436625E-09
   48.6300011       2.35010522E-09
   48.6899986       2.38760656E-09
   48.7500000       2.38707498E-09
   48.8100014       2.32821118E-09
   48.8699989       2.20740337E-09
   48.9300003       2.03927430E-09
   48.9900017       1.85167215E-09
   49.0499992       1.67579339E-09
   49.1100006       1.53517887E-09
   49.1699982       1.43784762E-09
   49.2299995       1.37449152E-09
   49.2900009       1.32308986E-09
   49.3499985       1.25772281E-09
   49.4099998       1.15791321E-09
   49.4700012       1.01505182E-09
   49.5299988       8.34019520E-10
   49.5900002       6.30136721E-10
   49.6500015       4.23144270E-10
   49.7099991       2.30553840E-10
   49.7700005       6.24565052E-11
   49.8300018      -8.08882614E-11
   49.8899994      -2.08261908E-10
   49.9500008      -3.33906042E-10
   50.0099983      -4.72266781E-10
   50.0699997      -6.32680519E-10
   50.1300011      -8.15741585E-10
   50.1899986      -1.01265851E-09
   50.2500000      -1.20791910E-09
   50.3100014      -1.38435918E-09
   50.3699989      -1.52880386E-09
   50.4300003      -1.63625269E-09
   50.4900017      -1.71124692E-09
   50.5499992      -1.76619563E-09
   50.6100006      -1.81752136E-09