 -0.750000000       0.00000000    
 -0.689999998       0.00000000    
 -0.629999995       0.00000000    
 -0.569999993       0.00000000    
 -0.509999990       0.00000000    
 -0.449999988      -1.84746832E-21
 -0.389999986      -6.12371339E-21
 -0.330000013       1.82894965E-20
 -0.270000011       1.89871619E-19
 -0.209999993       6.93132530E-19
 -0.150000006       1.48672728E-18
  -9.00000036E-02   1.68047325E-18
  -2.99999993E-02  -9.81123784E-19
   2.99999993E-02  -9.47475504E-18
   9.00000036E-02  -2.46206157E-17
  0.150000006      -4.02251248E-17
  0.209999993      -3.91196674E-17
  0.270000011       4.57914614E-18
  0.330000013       1.11932254E-16
  0.389999986       2.74416758E-16
  0.449999988       4.27582179E-16
  0.509999990       4.42701902E-16
  0.569999993       1.59058110E-16
  0.629999995      -5.31543138E-16
  0.689999998      -1.56399742E-15
  0.750000000      -2.59589510E-15
  0.810000002      -3.00162960E-15
  0.870000005      -2.04039162E-15
  0.930000007       7.85574884E-16
  0.990000010       5.27636516E-15
   1.04999995       1.01985096E-14
   1.11000001       1.33405707E-14
   1.16999996       1.21497576E-14
   1.23000002       4.88799675E-15
   1.28999996      -8.09878101E-15
   1.35000002      -2.36630851E-14
   1.40999997      -3.63160497E-14
   1.47000003      -4.00460034E-14
   1.52999997      -3.09446716E-14
   1.59000003      -9.43998314E-15
   1.64999998       1.91800142E-14
   1.71000004       4.65890821E-14
   1.76999998       6.49546064E-14
   1.83000004       7.03512227E-14
   1.88999999       6.39504929E-14
   1.95000005       4.99686792E-14
   2.00999999       3.14282800E-14
   2.06999993       6.65264886E-15
   2.13000011      -3.03377149E-14
   2.19000006      -8.43892285E-14
   2.25000000      -1.51137241E-13
   2.30999994      -2.11638148E-13
   2.36999989      -2.35137891E-13
   2.43000007      -1.91649553E-13
   2.49000001      -6.98710702E-14
   2.54999995       1.09071010E-13
   2.60999990       2.91839984E-13
   2.67000008       4.10923384E-13
   2.73000002       4.14492686E-13
   2.78999996       2.93709393E-13
   2.84999990       9.17509206E-14
   2.91000009      -1.13248685E-13
   2.97000003      -2.45158684E-13
   3.02999997      -2.68046490E-13
   3.08999991      -2.03867942E-13
   3.15000010      -1.17536013E-13
   3.21000004      -7.54745726E-14
   3.26999998      -1.00602367E-13
   3.32999992      -1.51641435E-13
   3.39000010      -1.43147091E-13
   3.45000005       3.62776853E-16
   3.50999999       2.84781638E-13
   3.56999993       6.17439585E-13
   3.63000011       8.31819585E-13
   3.69000006       7.60703620E-13
   3.75000000       3.24001866E-13
   3.80999994      -4.14623929E-13
   3.86999989      -1.25558884E-12
   3.93000007      -1.93671142E-12
   3.99000001      -2.23814912E-12
   4.05000019      -2.06684127E-12
   4.11000013      -1.47794223E-12
   4.17000008      -6.24003561E-13
   4.23000002       3.38020275E-13
   4.28999996       1.32834813E-12
   4.34999990       2.36697315E-12
   4.40999985       3.52302085E-12
   4.46999979       4.81940312E-12
   4.53000021       6.14986707E-12
   4.59000015       7.26299229E-12
   4.65000010       7.83384382E-12
   4.71000004       7.59563419E-12
   4.76999998       6.46661544E-12
   4.82999992       4.60191390E-12
   4.88999987       2.33090045E-12
   4.94999981      -6.39993404E-15
   5.01000023      -2.26127971E-12
   5.07000017      -4.63322306E-12
   5.13000011      -7.71573257E-12
   5.19000006      -1.24122683E-11
   5.25000000      -1.97570762E-11
   5.30999994      -3.07104897E-11
   5.36999989      -4.59995930E-11
   5.42999983      -6.60457383E-11
   5.48999977      -9.09776143E-11
   5.55000019      -1.20694607E-10
   5.61000013      -1.54934759E-10
   5.67000008      -1.93315183E-10
   5.73000002      -2.35338304E-10
   5.78999996      -2.80379303E-10
   5.84999990      -3.27675942E-10
   5.90999985      -3.76335907E-10
   5.96999979      -4.25363689E-10
   6.03000021      -4.73702466E-10
   6.09000015      -5.20288923E-10
   6.15000010      -5.64121638E-10
   6.21000004      -6.04343964E-10
   6.26999998      -6.40326681E-10
   6.32999992      -6.71721123E-10
   6.38999987      -6.98444413E-10
   6.44999981      -7.20579596E-10
   6.51000023      -7.38208661E-10
   6.57000017      -7.51245954E-10
   6.63000011      -7.59355967E-10
   6.69000006      -7.62016228E-10
   6.75000000      -7.58716590E-10
   6.80999994      -7.49207807E-10
   6.86999989      -7.33665573E-10
   6.92999983      -7.12658599E-10
   6.98999977      -6.86899426E-10
   7.05000019      -6.56873611E-10
   7.11000013      -6.22525864E-10
   7.17000008      -5.83175785E-10
   7.23000002      -5.37736466E-10
   7.28999996      -4.85158080E-10
   7.34999990      -4.24897312E-10
   7.40999985      -3.57183616E-10
   7.46999979      -2.82946666E-10
   7.53000021      -2.03434214E-10
   7.59000015      -1.19706842E-10
   7.65000010      -3.22615233E-11
   7.71000004       5.90301003E-11
   7.76999998       1.54646046E-10
   7.82999992       2.54954863E-10
   7.88999987       3.59825669E-10
   7.94999981       4.68528494E-10
   8.01000023       5.79999604E-10
   8.06999969       6.93362312E-10
   8.13000011       8.08460410E-10
   8.18999958       9.26149435E-10
   8.25000000       1.04819398E-09
   8.31000042       1.17679344E-09
   8.36999989       1.31391498E-09
   8.43000031       1.46067858E-09
   8.48999977       1.61700442E-09
   8.55000019       1.78161541E-09
   8.60999966       1.95234784E-09
   8.67000008       2.12663287E-09
   8.72999954       2.30197772E-09
   8.78999996       2.47632870E-09
   8.85000038       2.64825517E-09
   8.90999985       2.81696821E-09
   8.97000027       2.98220404E-09
   9.02999973       3.14401238E-09
   9.09000015       3.30248073E-09
   9.14999962       3.45742657E-09
   9.21000004       3.60812402E-09
   9.27000046       3.75315468E-09
   9.32999992       3.89046750E-09
   9.39000034       4.01768396E-09
   9.44999981       4.13257384E-09
   9.51000023       4.23354507E-09
   9.56999969       4.31992442E-09
   9.63000011       4.39189352E-09
   9.68999958       4.45007053E-09
   9.75000000       4.49490978E-09
   9.81000042       4.52621274E-09
   9.86999989       4.54298865E-09
   9.93000031       4.54376625E-09
   9.98999977       4.52721327E-09
   10.0500002       4.49276705E-09
   10.1099997       4.44095205E-09
   10.1700001       4.37323777E-09
   10.2299995       4.29151692E-09
   10.2900000       4.19748947E-09
   10.3500004       4.09226786E-09
   10.4099998       3.97636279E-09
   10.4700003       3.84998611E-09
   10.5299997       3.71340936E-09
   10.5900002       3.56711216E-09
   10.6499996       3.41160056E-09
   10.7100000       3.24702065E-09
   10.7700005       3.07284109E-09
   10.8299999       2.88787017E-09
   10.8900003       2.69068101E-09
   10.9499998       2.48027221E-09
   11.0100002       2.25664221E-09
   11.0699997       2.02097583E-09
   11.1300001       1.77534942E-09
   11.1899996       1.52209656E-09
   11.2500000       1.26314759E-09
   11.3100004       9.99636596E-10
   11.3699999       7.31921912E-10
   11.4300003       4.59957183E-10
   11.4899998       1.83809301E-10
   11.5500002      -9.58985044E-11
   11.6099997      -3.77758325E-10
   11.6700001      -6.59585775E-10
   11.7299995      -9.38604749E-10
   11.7900000      -1.21172605E-09
   11.8500004      -1.47585733E-09
   11.9099998      -1.72821035E-09
   11.9700003      -1.96658112E-09
   12.0299997      -2.18957497E-09
   12.0900002      -2.39675457E-09
   12.1499996      -2.58869481E-09
   12.2100000      -2.76693779E-09
   12.2700005      -2.93384872E-09
   12.3299999      -3.09233772E-09
   12.3900003      -3.24543348E-09
   12.4499998      -3.39571260E-09
   12.5100002      -3.54469476E-09
   12.5699997      -3.69238218E-09
   12.6300001      -3.83715770E-09
   12.6899996      -3.97615763E-09
   12.7500000      -4.10605505E-09
   12.8100004      -4.22397939E-09
   12.8699999      -4.32823466E-09
   12.9300003      -4.41850823E-09
   12.9899998      -4.49553283E-09
   13.0500002      -4.56037297E-09
   13.1099997      -4.61367522E-09
   13.1700001      -4.65518957E-09
   13.2299995      -4.68370098E-09
   13.2900000      -4.69730521E-09
   13.3500004      -4.69385197E-09
   13.4099998      -4.67139527E-09
   13.4700003      -4.62857841E-09
   13.5299997      -4.56497506E-09
   13.5900002      -4.48142012E-09
   13.6499996      -4.38027259E-09
   13.7100000      -4.26550484E-09
   13.7700005      -4.14248413E-09
   13.8299999      -4.01746370E-09
   13.8900003      -3.89690813E-09
   13.9499998      -3.78689924E-09
   14.0100002      -3.69278386E-09
   14.0699997      -3.61909325E-09
   14.1300001      -3.56955998E-09
   14.1899996      -3.54700913E-09
   14.2500000      -3.55299745E-09
   14.3100004      -3.58727270E-09
   14.3699999      -3.64731489E-09
   14.4300003      -3.72825149E-09
   14.4899998      -3.82331189E-09
   14.5500002      -3.92472899E-09
   14.6099997      -4.02481559E-09
   14.6700001      -4.11687084E-09
   14.7299995      -4.19568869E-09
   14.7900000      -4.25763380E-09
   14.8500004      -4.30041913E-09
   14.9099998      -4.32278169E-09
   14.9700003      -4.32420677E-09
   15.0299997      -4.30476099E-09
   15.0900002      -4.26502167E-09
   15.1499996      -4.20606927E-09
   15.2100000      -4.12950785E-09
   15.2700005      -4.03748457E-09
   15.3299999      -3.93263377E-09
   15.3900003      -3.81784782E-09
   15.4499998      -3.69580233E-09
   15.5100002      -3.56825813E-09
   15.5699997      -3.43531670E-09
   15.6300001      -3.29492233E-09
   15.6899996      -3.14288062E-09
   15.7500000      -2.97352787E-09
   15.8100004      -2.78093260E-09
   15.8699999      -2.56028643E-09
   15.9300003      -2.30906694E-09
   15.9899998      -2.02765138E-09
   16.0499992      -1.71928538E-09
   16.1100006      -1.38954748E-09
   16.1700001      -1.04559916E-09
   16.2299995      -6.95494384E-10
   16.2900009      -3.47689350E-10
   16.3500004      -1.07251022E-11
   16.4099998       3.07052800E-10
   16.4699993       5.97884631E-10
   16.5300007       8.55156834E-10
   16.5900002       1.07407871E-09
   16.6499996       1.25233401E-09
   16.7099991       1.39053280E-09
   16.7700005       1.49232948E-09
   16.8299999       1.56413638E-09
   16.8899994       1.61444758E-09
   16.9500008       1.65285796E-09
   17.0100002       1.68893510E-09
   17.0699997       1.73112946E-09
   17.1299992       1.78591553E-09
   17.1900005       1.85729754E-09
   17.2500000       1.94671346E-09
   17.3099995       2.05325179E-09
   17.3700008       2.17401519E-09
   17.4300003       2.30445352E-09
   17.4899998       2.43857134E-09
   17.5499992       2.56903632E-09
   17.6100006       2.68732681E-09
   17.6700001       2.78407697E-09
   17.7299995       2.84972512E-09
   17.7900009       2.87543611E-09
   17.8500004       2.85414448E-09
   17.9099998       2.78150702E-09
   17.9699993       2.65656253E-09
   18.0300007       2.48198107E-09
   18.0900002       2.26386598E-09
   18.1499996       2.01115924E-09
   18.2099991       1.73475390E-09
   18.2700005       1.44646162E-09
   18.3299999       1.15801890E-09
   18.3899994       8.80321815E-10
   18.4500008       6.23015639E-10
   18.5100002       3.94444727E-10
   18.5699997       2.01805544E-10
   18.6299992       5.12440611E-11
   18.6900005      -5.23362291E-11
   18.7500000      -1.05817237E-10
   18.8099995      -1.08578938E-10
   18.8700008      -6.30226635E-11
   18.9300003       2.54492122E-11
   18.9899998       1.49144197E-10
   19.0499992       2.99315350E-10
   19.1100006       4.67512584E-10
   19.1700001       6.46600939E-10
   19.2299995       8.31183677E-10
   19.2900009       1.01746633E-09
   19.3500004       1.20283050E-09
   19.4099998       1.38542522E-09
   19.4699993       1.56393920E-09
   19.5300007       1.73748427E-09
   19.5900002       1.90539651E-09
   19.6499996       2.06679163E-09
   19.7099991       2.21989049E-09
   19.7700005       2.36132269E-09
   19.8299999       2.48569809E-09
   19.8899994       2.58564792E-09
   19.9500008       2.65237632E-09
   20.0100002       2.67658851E-09
   20.0699997       2.64960098E-09
   20.1299992       2.56446153E-09
   20.1900005       2.41695752E-09
   20.2500000       2.20641083E-09
   20.3099995       1.93614080E-09
   20.3700008       1.61346270E-09
   20.4300003       1.24917221E-09
   20.4899998       8.56599403E-10
   20.5499992       4.50485788E-10
   20.6100006       4.59859165E-11
   20.6700001      -3.41995959E-10
   20.7299995      -6.99142966E-10
   20.7900009      -1.01194042E-09
   20.8500004      -1.26803590E-09
   20.9099998      -1.45688905E-09
   20.9699993      -1.57063429E-09
   21.0300007      -1.60489133E-09
   21.0900002      -1.55923097E-09
   21.1499996      -1.43714596E-09
   21.2099991      -1.24558086E-09
   21.2700005      -9.94230365E-10
   21.3299999      -6.94814095E-10
   21.3899994      -3.60420804E-10
   21.4500008      -4.87786894E-12
   21.5100002       3.57963825E-10
   21.5699997       7.15085213E-10
   21.6299992       1.05524034E-09
   21.6900005       1.36983525E-09
   21.7500000       1.65357239E-09
   21.8099995       1.90473637E-09
   21.8700008       2.12507190E-09
   21.9300003       2.31926411E-09
   21.9899998       2.49409671E-09
   22.0499992       2.65739764E-09
   22.1100006       2.81696333E-09
   22.1700001       2.97966185E-09
   22.2299995       3.15087600E-09
   22.2900009       3.33427508E-09
   22.3500004       3.53172069E-09
   22.4099998       3.74299658E-09
   22.4699993       3.96516198E-09
   22.5300007       4.19159107E-09
   22.5900002       4.41112835E-09
   22.6499996       4.60798288E-09
   22.7099991       4.76285011E-09
   22.7700005       4.85532503E-09
   22.8299999       4.86712493E-09
   22.8899994       4.78522599E-09
   22.9500008       4.60400074E-09
   23.0100002       4.32580594E-09
   23.0699997       3.96003852E-09
   23.1299992       3.52121488E-09
   23.1900005       3.02688186E-09
   23.2500000       2.49607202E-09
   23.3099995       1.94868255E-09
   23.3700008       1.40571643E-09
   23.4300003       8.89968488E-10
   23.4899998       4.26531310E-10
   23.5499992       4.25019603E-11
   23.6100006      -2.34535752E-10
   23.6700001      -3.79305781E-10
   23.7299995      -3.72498532E-10
   23.7900009      -2.04444447E-10
   23.8500004       1.22254817E-10
   23.9099998       5.92045635E-10
   23.9699993       1.17807331E-09
   24.0300007       1.84580295E-09
   24.0900002       2.55759081E-09
   24.1499996       3.27689054E-09
   24.2099991       3.97099020E-09
   24.2700005       4.61180560E-09
   24.3299999       5.17502485E-09
   24.3899994       5.63849323E-09
   24.4500008       5.98095928E-09
   24.5100002       6.18204377E-09
   24.5699997       6.22380103E-09
   24.6299992       6.09359407E-09
   24.6900005       5.78746961E-09
   24.7500000       5.31295985E-09
   24.8099995       4.69025219E-09
   24.8700008       3.95105149E-09
   24.9300003       3.13509751E-09
   24.9899998       2.28502217E-09
   25.0499992       1.44084300E-09
   25.1100006       6.35583974E-10
   25.1700001      -1.06794171E-10
   25.2299995      -7.70752018E-10
   25.2900009      -1.34638722E-09
   25.3500004      -1.82584081E-09
   25.4099998      -2.20047558E-09
   25.4699993      -2.46002685E-09
   25.5300007      -2.59406008E-09
   25.5900002      -2.59509725E-09
   25.6499996      -2.46207055E-09
   25.7099991      -2.20259477E-09
   25.7700005      -1.83296134E-09
   25.8299999      -1.37557299E-09
   25.8899994      -8.54476156E-10
   25.9500008      -2.90367175E-10
   26.0100002       3.03283287E-10
   26.0699997       9.21642318E-10
   26.1299992       1.56690583E-09
   26.1900005       2.24415864E-09
   26.2500000       2.95611646E-09
   26.3099995       3.69862296E-09
   26.3700008       4.45853221E-09
   26.4300003       5.21474242E-09
   26.4899998       5.94195848E-09
   26.5499992       6.61575461E-09
   26.6100006       7.21710158E-09
   26.6700001       7.73482878E-09
   26.7299995       8.16543011E-09
   26.7900009       8.51063664E-09
   26.8500004       8.77396289E-09
   26.9099998       8.95759467E-09
   26.9699993       9.06064468E-09
   27.0300007       9.07916231E-09
   27.0900002       9.00766928E-09
   27.1499996       8.84158524E-09
   27.2099991       8.57981242E-09
   27.2700005       8.22675972E-09
   27.3299999       7.79324871E-09
   27.3899994       7.29590210E-09
   27.4500008       6.75493927E-09
   27.5100002       6.19070084E-09
   27.5699997       5.61974023E-09
   27.6299992       5.05163955E-09
   27.6900005       4.48770487E-09
   27.7500000       3.92216881E-09
   27.8099995       3.34568862E-09
   27.8700008       2.75000400E-09
   27.9300003       2.13206253E-09
   27.9899998       1.49603641E-09
   28.0499992       8.52400206E-10
   28.1100006       2.14401330E-10
   28.1700001      -4.06700951E-10
   28.2299995      -1.00572539E-09
   28.2900009      -1.58533231E-09
   28.3500004      -2.15471041E-09
   28.4099998      -2.72565015E-09
   28.4699993      -3.30747763E-09
   28.5300007      -3.90274213E-09
   28.5900002      -4.50523885E-09
   28.6499996      -5.10105735E-09
   28.7099991      -5.67223246E-09
   28.7700005      -6.20168450E-09
   28.8299999      -6.67777700E-09
   28.8899994      -7.09704739E-09
   28.9500008      -7.46438289E-09
   29.0100002      -7.79077780E-09
   29.0699997      -8.08956990E-09
   29.1299992      -8.37243430E-09
   29.1900005      -8.64639915E-09
   29.2500000      -8.91270879E-09
   29.3099995      -9.16776788E-09
   29.3700008      -9.40567446E-09
   29.4300003      -9.62140234E-09
   29.4899998      -9.81342030E-09
   29.5499992      -9.98479965E-09
   29.6100006      -1.01423723E-08
   29.6700001      -1.02942757E-08
   29.7299995      -1.04468096E-08
   29.7900009      -1.06018554E-08
   29.8500004      -1.07558771E-08
   29.9099998      -1.09008882E-08
   29.9699993      -1.10270211E-08
   30.0300007      -1.11256719E-08
   30.0900002      -1.11920819E-08
   30.1499996      -1.12264873E-08
   30.2099991      -1.12335687E-08
   30.2700005      -1.12205534E-08
   30.3299999      -1.11946834E-08
   30.3899994      -1.11608580E-08
   30.4500008      -1.11200533E-08
   30.5100002      -1.10688729E-08
   30.5699997      -1.10003509E-08
   30.6299992      -1.09058460E-08
   30.6900005      -1.07776490E-08
   30.7500000      -1.06116023E-08
   30.8099995      -1.04088631E-08
   30.8700008      -1.01759552E-08
   30.9300003      -9.92277460E-09
   30.9899998      -9.65892788E-09
   31.0499992      -9.38962952E-09
   31.1100006      -9.11279407E-09
   31.1700001      -8.81866402E-09
   31.2299995      -8.49242188E-09
   31.2900009      -8.11892953E-09
   31.3500004      -7.68780151E-09
   31.4099998      -7.19677473E-09
   31.4699993      -6.65206068E-09
   31.5300007      -6.06562667E-09
   31.5900002      -5.45065948E-09
   31.6499996      -4.81715290E-09
   31.7099991      -4.16939416E-09
   31.7700005      -3.50620888E-09
   31.8299999      -2.82362111E-09
   31.8899994      -2.11864659E-09
   31.9500008      -1.39263701E-09
   32.0099983      -6.52926102E-10
   32.0699997       8.77091108E-11
   32.1300011       8.13428602E-10
   32.1899986       1.50863588E-09
   32.2500000       2.16109730E-09
   32.3100014       2.76393064E-09
   32.3699989       3.31593819E-09
   32.4300003       3.82028897E-09
   32.4900017       4.28203828E-09
   32.5499992       4.70531880E-09
   32.6100006       5.09114706E-09
   32.6699982       5.43656586E-09
   32.7299995       5.73543124E-09
   32.7900009       5.98055117E-09
   32.8499985       6.16641271E-09
   32.9099998       6.29150465E-09
   32.9700012       6.35936459E-09
   33.0299988       6.37791242E-09
   33.0900002       6.35719166E-09
   33.1500015       6.30616626E-09
   33.2099991       6.22952134E-09
   33.2700005       6.12544593E-09
   33.3300018       5.98513150E-09
   33.3899994       5.79425441E-09
   33.4500008       5.53616086E-09
   33.5099983       5.19594368E-09
   33.5699997       4.76426054E-09
   33.6300011       4.23972768E-09
   33.6899986       3.62913144E-09
   33.7500000       2.94537350E-09
   33.8100014       2.20388219E-09
   33.8699989       1.41876344E-09
   33.9300003       6.00082206E-10
   33.9900017      -2.46795639E-10
   34.0499992      -1.11967269E-09
   34.1100006      -2.01651318E-09
   34.1699982      -2.93220892E-09
   34.2299995      -3.85639121E-09
   34.2900009      -4.77312856E-09
   34.3499985      -5.66265035E-09
   34.4099998      -6.50456355E-09
   34.4700012      -7.28159311E-09
   34.5299988      -7.98273803E-09
   34.5900002      -8.60493010E-09
   34.6500015      -9.15268217E-09
   34.7099991      -9.63573399E-09
   34.7700005      -1.00653219E-08
   34.8300018      -1.04501607E-08
   34.8899994      -1.07934337E-08
   34.9500008      -1.10918945E-08
   35.0099983      -1.13374989E-08
   35.0699997      -1.15211192E-08
   35.1300011      -1.16369820E-08
   35.1899986      -1.16861436E-08
   35.2500000      -1.16775238E-08
   35.3100014      -1.16259837E-08
   35.3699989      -1.15480283E-08
   35.4300003      -1.14567076E-08
   35.4900017      -1.13575744E-08
   35.5499992      -1.12471525E-08
   35.6100006      -1.11143699E-08
   35.6699982      -1.09442917E-08
   35.7299995      -1.07227365E-08
   35.7900009      -1.04401590E-08
   35.8499985      -1.00936353E-08
   35.9099998      -9.68657421E-09
   35.9700012      -9.22660615E-09
   36.0299988      -8.72263417E-09
   36.0900002      -8.18216428E-09
   36.1500015      -7.60975549E-09
   36.2099991      -7.00697145E-09
   36.2700005      -6.37370956E-09
   36.3300018      -5.71037706E-09
   36.3899994      -5.02020203E-09
   36.4500008      -4.31092140E-09
   36.5099983      -3.59525032E-09
   36.5699997      -2.88983371E-09
   36.6300011      -2.21277996E-09
   36.6899986      -1.58033298E-09
   36.7500000      -1.00357844E-09
   36.8100014      -4.86207574E-10
   36.8699989      -2.41480880E-11
   36.9300003       3.92670979E-10
   36.9900017       7.76858800E-10
   37.0499992       1.13945586E-09
   37.1100006       1.48648793E-09
   37.1699982       1.81725712E-09
   37.2299995       2.12480078E-09
   37.2900009       2.39816855E-09
   37.3499985       2.62553690E-09
   37.4099998       2.79701484E-09
   37.4700012       2.90625346E-09
   37.5299988       2.95056779E-09
   37.5900002       2.92987679E-09
   37.6500015       2.84515211E-09
   37.7099991       2.69710676E-09
   37.7700005       2.48560017E-09
   37.8300018       2.20986385E-09
   37.8899994       1.86934113E-09
   37.9500008       1.46476953E-09
   38.0099983       9.99156979E-10
   38.0699997       4.78424411E-10
   38.1300011      -8.83759593E-11
   38.1899986      -6.89254098E-10
   38.2500000      -1.30983657E-09
   38.3100014      -1.93423078E-09
   38.3699989      -2.54615018E-09
   38.4300003      -3.13020632E-09
   38.4900017      -3.67319175E-09
   38.5499992      -4.16508295E-09
   38.6100006      -4.59944793E-09
   38.6699982      -4.97301622E-09
   38.7299995      -5.28442934E-09
   38.7900009      -5.53248958E-09
   38.8499985      -5.71453773E-09
   38.9099998      -5.82565463E-09
   38.9700012      -5.85914650E-09
   39.0299988      -5.80828630E-09
   39.0900002      -5.66871750E-09
   39.1500015      -5.44056977E-09
   39.2099991      -5.12936538E-09
   39.2700005      -4.74523754E-09
   39.3300018      -4.30063585E-09
   39.3899994      -3.80729981E-09
   39.4500008      -3.27356475E-09
   39.5099983      -2.70292366E-09
   39.5699997      -2.09431028E-09
   39.6300011      -1.44399415E-09
   39.6899986      -7.48460682E-10
   39.7500000      -7.37218012E-12
   39.8100014       7.74322440E-10
   39.8699989       1.58584756E-09
   39.9300003       2.41191778E-09
   39.9900017       3.23564242E-09
   40.0499992       4.04219147E-09
   40.1100006       4.82202367E-09
   40.1699982       5.57248603E-09
   40.2299995       6.29706287E-09
   40.2900009       7.00239111E-09
   40.3499985       7.69402941E-09
   40.4099998       8.37253911E-09
   40.4700012       9.03136499E-09
   40.5299988       9.65734603E-09
   40.5900002       1.02336832E-08
   40.6500015       1.07442366E-08
   40.7099991       1.11776481E-08
   40.7700005       1.15298899E-08
   40.8300018       1.18045644E-08
   40.8899994       1.20110943E-08
   40.9500008       1.21616308E-08
   41.0099983       1.22677530E-08
   41.0699997       1.23379653E-08
   41.1300011       1.23765300E-08
   41.1899986       1.23837332E-08
   41.2500000       1.23572121E-08
   41.3100014       1.22937713E-08
   41.3699989       1.21910508E-08
   41.4300003       1.20485817E-08
   41.4900017       1.18680026E-08
   41.5499992       1.16524834E-08
   41.6100006       1.14056240E-08
   41.6699982       1.11301643E-08
   41.7299995       1.08268638E-08
   41.7900009       1.04938422E-08
   41.8499985       1.01266009E-08
   41.9099998       9.71883729E-09
   41.9700012       9.26397803E-09
   42.0299988       8.75708750E-09
   42.0900002       8.19658830E-09
   42.1500015       7.58508101E-09
   42.2099991       6.92878510E-09
   42.2700005       6.23560448E-09
   42.3300018       5.51246426E-09
   42.3899994       4.76298379E-09
   42.4500008       3.98653022E-09
   42.5099983       3.17911741E-09
   42.5699997       2.33579489E-09
   42.6300011       1.45346635E-09
   42.6899986       5.32951572E-10
   42.7500000      -4.20445456E-10
   42.8100014      -1.39779932E-09
   42.8699989      -2.38809972E-09
   42.9300003      -3.37954531E-09
   42.9900017      -4.36003944E-09
   43.0499992      -5.31698818E-09
   43.1100006      -6.23698249E-09
   43.1699982      -7.10597048E-09
   43.2299995      -7.91013299E-09
   43.2900009      -8.63714789E-09
   43.3499985      -9.27723232E-09
   43.4099998      -9.82348691E-09
   43.4700012      -1.02714921E-08
   43.5299988      -1.06184865E-08
   43.5900002      -1.08626175E-08
   43.6500015      -1.10025846E-08
   43.7099991      -1.10376766E-08
   43.7700005      -1.09680389E-08
   43.8300018      -1.07950369E-08
   43.8899994      -1.05217151E-08
   43.9500008      -1.01534532E-08
   44.0099983      -9.69867298E-09
   44.0699997      -9.16918275E-09
   44.1300011      -8.57956461E-09
   44.1899986      -7.94521604E-09
   44.2500000      -7.27933980E-09
   44.3100014      -6.58991262E-09
   44.3699989      -5.87804871E-09
   44.4300003      -5.13884846E-09
   44.4900017      -4.36480363E-09
   44.5499992      -3.55060825E-09
   44.6100006      -2.69742184E-09
   44.6699982      -1.81471260E-09
   44.7299995      -9.18811360E-10
   44.7900009      -2.87359476E-11
   44.8499985       8.38954184E-10
   44.9099998       1.67413383E-09
   44.9700012       2.47434717E-09
   45.0299988       3.24294924E-09
   45.0900002       3.98509981E-09
   45.1500015       4.70335415E-09
   45.2099991       5.39465494E-09
   45.2700005       6.04985217E-09
   45.3300018       6.65587407E-09
   45.3899994       7.19967552E-09
   45.4500008       7.67249198E-09
   45.5099983       8.07284284E-09
   45.5699997       8.40719849E-09
   45.6300011       8.68798722E-09
   45.6899986       8.92955310E-09
   45.7500000       9.14333498E-09
   45.8100014       9.33385103E-09
   45.8699989       9.49685397E-09
   45.9300003       9.62029745E-09
   45.9900017       9.68787273E-09
   46.0499992       9.68397718E-09
   46.1100006       9.59853175E-09
   46.1699982       9.43007183E-09
   46.2299995       9.18612919E-09
   46.2900009       8.88076723E-09
   46.3499985       8.53007087E-09
   46.4099998       8.14703860E-09
   46.4700012       7.73753328E-09
   46.5299988       7.29866834E-09
   46.5900002       6.82021994E-09
   46.6500015       6.28870822E-09
   46.7099991       5.69285952E-09
   46.7700005       5.02863928E-09
   46.8300018       4.30212976E-09
   46.8899994       3.52920537E-09
   46.9500008       2.73208034E-09
   47.0099983       1.93391436E-09
   47.0699997       1.15337906E-09
   47.1300011       4.01077976E-10
   47.1899986      -3.21004834E-10
   47.2500000      -1.01702036E-09
   47.3100014      -1.69285419E-09
   47.3699989      -2.35158071E-09
   47.4300003      -2.99048430E-09
   47.4900017      -3.60064933E-09
   47.5499992      -4.16908552E-09
   47.6100006      -4.68242423E-09
   47.6699982      -5.13072607E-09
   47.7299995      -5.51003509E-09
   47.7900009      -5.82287463E-09
   47.8499985      -6.07666539E-09
   47.9099998      -6.28075369E-09
   47.9700012      -6.44313047E-09
   48.0299988      -6.56793064E-09
   48.0900002      -6.65444722E-09
   48.1500015      -6.69786848E-09
   48.2099991      -6.69139899E-09
   48.2700005      -6.62901867E-09
   48.3300018      -6.50803100E-09
   48.3899994      -6.33063157E-09
   48.4500008      -6.10410611E-09
   48.5099983      -5.83966653E-09
   48.5699997      -5.55030599E-09
   48.6300011      -5.24833732E-09
   48.6899986      -4.94328267E-09
   48.7500000      -4.64067629E-09
   48.8100014      -4.34202008E-09
   48.8699989      -4.04578770E-09
   48.9300003      -3.74905706E-09
   48.9900017      -3.44916429E-09
   49.0499992      -3.14484327E-09
   49.1100006      -2.83653590E-09
   49.1699982      -2.52595123E-09
   49.2299995      -2.21527174E-09
   49.2900009      -1.90653449E-09
   49.3499985      -1.60158153E-09
   49.4099998      -1.30260847E-09
   49.4700012      -1.01295561E-09
   49.5299988      -7.37579442E-10
   49.5900002      -4.82757556E-10
   49.6500015      -2.54973903E-10
   49.7099991      -5.93886398E-11
   49.7700005       1.01422884E-10
   49.8300018       2.27856470E-10
   49.8899994       3.22598087E-10
   49.9500008       3.89201671E-10
   50.0099983       4.30616126E-10
   50.0699997       4.48358156E-10
   50.1300011       4.42684722E-10
   50.1899986       4.13625856E-10
   50.2500000       3.62341629E-10
   50.3100014       2.92156077E-10
   50.3699989       2.08804155E-10
   50.4300003       1.19779325E-10
   50.4900017       3.29998286E-11
   50.5499992      -4.47973499E-11
   50.6100006      -1.09508895E-10