  -2.400000      0.0000000E+00
  -2.340000      0.0000000E+00
  -2.280000      0.0000000E+00
  -2.220000      0.0000000E+00
  -2.160000      0.0000000E+00
  -2.100000      0.0000000E+00
  -2.040000      0.0000000E+00
  -1.980000      0.0000000E+00
  -1.920000     -3.7064722E-26
  -1.860000     -4.1082222E-25
  -1.800000     -2.1185094E-24
  -1.740000     -6.1520181E-24
  -1.680000     -7.5339798E-24
  -1.620000      1.9347211E-23
  -1.560000      1.3201219E-22
  -1.500000      3.8080330E-22
  -1.440000      6.5152580E-22
  -1.380000      4.0090280E-22
  -1.320000     -1.4532984E-21
  -1.260000     -5.9159109E-21
  -1.200000     -1.2067868E-20
  -1.140000     -1.4503643E-20
  -1.080000     -2.5452604E-21
  -1.020000      3.4740355E-20
 -0.9600000      9.5375547E-20
 -0.9000000      1.4783778E-19
 -0.8400000      1.2591836E-19
 -0.7800000     -4.4976647E-20
 -0.7200000     -3.8215517E-19
 -0.6600000     -7.6616183E-19
 -0.6000000     -9.1306636E-19
 -0.5400000     -4.7460030E-19
 -0.4800000      7.1395106E-19
 -0.4200000      2.3415380E-18
 -0.3600000      3.5122937E-18
 -0.3000000      3.0531048E-18
 -0.2400000      2.6602092E-19
 -0.1800000     -4.2216374E-18
 -0.1200000     -8.1728472E-18
 -5.9999999E-02 -8.6148189E-18
  0.0000000E+00 -3.8207989E-18
  5.9999999E-02  4.6489316E-18
  0.1200000      1.1577015E-17
  0.1800000      1.0689391E-17
  0.2400000     -3.0148035E-19
  0.3000000     -1.5189079E-17
  0.3600000     -1.9599080E-17
  0.4200000      1.1382152E-18
  0.4800000      4.8648629E-17
  0.5400000      1.0058128E-16
  0.6000000      1.1256587E-16
  0.6600000      3.9202114E-17
  0.7200000     -1.3121516E-16
  0.7800000     -3.4675996E-16
  0.8400000     -4.9112527E-16
  0.9000000     -4.2724667E-16
  0.9600000     -7.6271691E-17
   1.020000      5.0536188E-16
   1.080000      1.1019563E-15
   1.140000      1.4035700E-15
   1.200000      1.1510785E-15
   1.260000      2.9808127E-16
   1.320000     -9.0418692E-16
   1.380000     -1.9722353E-15
   1.440000     -2.4058063E-15
   1.500000     -1.9596476E-15
   1.560000     -8.1904740E-16
   1.620000      4.5015651E-16
   1.680000      1.1952468E-15
   1.740000      1.0823649E-15
   1.800000      3.8028328E-16
   1.860000     -9.0783330E-17
   1.920000      6.0185550E-16
   1.980000      2.8552039E-15
   2.040000      6.0275652E-15
   2.100000      8.4356884E-15
   2.160000      7.9946121E-15
   2.220000      3.2989579E-15
   2.280000     -5.3564297E-15
   2.340000     -1.5595776E-14
   2.400000     -2.3570615E-14
   2.460000     -2.5443557E-14
   2.520000     -1.9154686E-14
   2.580000     -5.6358349E-15
   2.640000      1.1204728E-14
   2.700000      2.5878207E-14
   2.760000      3.3573116E-14
   2.820000      3.2269262E-14
   2.880000      2.3664876E-14
   2.940000      1.2356116E-14
   3.000000      3.5240876E-15
   3.060000      1.6476194E-16
   3.120000      1.2475649E-15
   3.180000      1.8842705E-15
   3.240000     -4.2985681E-15
   3.300000     -2.1495042E-14
   3.360000     -4.8473846E-14
   3.420000     -7.7513049E-14
   3.480000     -9.6449853E-14
   3.540000     -9.3360019E-14
   3.600000     -6.2000454E-14
   3.660000     -5.5093056E-15
   3.720000      6.3607465E-14
   3.780000      1.2757834E-13
   3.840000      1.6995389E-13
   3.900000      1.8169650E-13
   3.960000      1.6380772E-13
   4.020000      1.2511066E-13
   4.080000      7.6287975E-14
   4.140000      2.3418022E-14
   4.200000     -3.5170427E-14
   4.260000     -1.0640986E-13
   4.320000     -1.9507628E-13
   4.380000     -2.9518887E-13
   4.440000     -3.8534312E-13
   4.500000     -4.3180550E-13
   4.560000     -3.9960911E-13
   4.620000     -2.6766995E-13
   4.680000     -4.1269739E-14
   4.740000      2.4429346E-13
   4.800000      5.3146609E-13
   4.860000      7.5703246E-13
   4.920000      8.7081237E-13
   4.980000      8.4874881E-13
   5.040000      6.9544338E-13
   5.100000      4.3637774E-13
   5.160000      1.0500606E-13
   5.220000     -2.6794699E-13
   5.280000     -6.5741862E-13
   5.340000     -1.0383561E-12
   5.400000     -1.3758625E-12
   5.460000     -1.6183883E-12
   5.520000     -1.7001739E-12
   5.580000     -1.5546891E-12
   5.640000     -1.1351827E-12
   5.700000     -4.3453742E-13
   5.760000      5.0362487E-13
   5.820000      1.5871283E-12
   5.880000      2.6897406E-12
   5.940000      3.6721550E-12
   6.000000      4.4016527E-12
   6.060000      4.7641530E-12
   6.120000      4.6663086E-12
   6.180000      4.0295297E-12
   6.240000      2.7803506E-12
   6.300000      8.4151902E-13
   6.360000     -1.8738010E-12
   6.420000     -5.4646830E-12
   6.480000     -1.0043141E-11
   6.540000     -1.5733503E-11
   6.600000     -2.2669337E-11
   6.660000     -3.0985423E-11
   6.720000     -4.0802514E-11
   6.780000     -5.2205310E-11
   6.840000     -6.5217637E-11
   6.900000     -7.9782340E-11
   6.960000     -9.5753898E-11
   7.020000     -1.1290936E-10
   7.080000     -1.3097746E-10
   7.140000     -1.4967957E-10
   7.200000     -1.6877086E-10
   7.260000     -1.8806977E-10
   7.320000     -2.0746577E-10
   7.380000     -2.2690200E-10
   7.440000     -2.4633556E-10
   7.500000     -2.6568353E-10
   7.560000     -2.8476543E-10
   7.620000     -3.0325290E-10
   7.680000     -3.2063543E-10
   7.740000     -3.3620884E-10
   7.800000     -3.4909137E-10
   7.860000     -3.5826939E-10
   7.920000     -3.6267145E-10
   7.980000     -3.6126488E-10
   8.040000     -3.5316297E-10
   8.100000     -3.3772776E-10
   8.160000     -3.1465133E-10
   8.220000     -2.8400135E-10
   8.280000     -2.4622387E-10
   8.340000     -2.0210256E-10
   8.400000     -1.5267979E-10
   8.460000     -9.9149557E-11
   8.520000     -4.2731749E-11
   8.580000      1.5461112E-11
   8.640000      7.4550643E-11
   8.700000      1.3399508E-10
   8.760000      1.9364588E-10
   8.820000      2.5373770E-10
   8.880000      3.1480157E-10
   8.940000      3.7750805E-10
   9.000000      4.4246931E-10
   9.060000      5.1004428E-10
   9.120000      5.8019534E-10
   9.180000      6.5243044E-10
   9.240000      7.2584133E-10
   9.300000      7.9921758E-10
   9.360000      8.7119911E-10
   9.420000      9.4042485E-10
   9.480000      1.0056506E-09
   9.540000      1.0658302E-09
   9.600000      1.1201741E-09
   9.660000      1.1682011E-09
   9.720000      1.2097942E-09
   9.780000      1.2452424E-09
   9.840000      1.2752395E-09
   9.900000      1.3008029E-09
   9.960000      1.3231013E-09
   10.02000      1.3432077E-09
   10.08000      1.3618352E-09
   10.14000      1.3791345E-09
   10.20000      1.3946173E-09
   10.26000      1.4072473E-09
   10.32000      1.4156744E-09
   10.38000      1.4185543E-09
   10.44000      1.4148658E-09
   10.50000      1.4041502E-09
   10.56000      1.3866309E-09
   10.62000      1.3632128E-09
   10.68000      1.3353945E-09
   10.74000      1.3051281E-09
   10.80000      1.2746499E-09
   10.86000      1.2462851E-09
   10.92000      1.2222173E-09
   10.98000      1.2042315E-09
   11.04000      1.1934636E-09
   11.10000      1.1902194E-09
   11.16000      1.1939265E-09
   11.22000      1.2032576E-09
   11.28000      1.2164039E-09
   11.34000      1.2314296E-09
   11.40000      1.2466083E-09
   11.46000      1.2606559E-09
   11.52000      1.2728276E-09
   11.58000      1.2828947E-09
   11.64000      1.2910589E-09
   11.70000      1.2978508E-09
   11.76000      1.3040273E-09
   11.82000      1.3104483E-09
   11.88000      1.3178952E-09
   11.94000      1.3268237E-09
   12.00000      1.3370960E-09
   12.06000      1.3477847E-09
   12.12000      1.3571468E-09
   12.18000      1.3628265E-09
   12.24000      1.3622619E-09
   12.30000      1.3531974E-09
   12.36000      1.3341552E-09
   12.42000      1.3047438E-09
   12.48000      1.2657365E-09
   12.54000      1.2189371E-09
   12.60000      1.1668974E-09
   12.66000      1.1125755E-09
   12.72000      1.0589988E-09
   12.78000      1.0089715E-09
   12.84000      9.6484354E-10
   12.90000      9.2834973E-10
   12.96000      9.0053331E-10
   13.02000      8.8175106E-10
   13.08000      8.7174012E-10
   13.14000      8.6969737E-10
   13.20000      8.7432683E-10
   13.26000      8.8383917E-10
   13.32000      8.9595226E-10
   13.38000      9.0798241E-10
   13.44000      9.1711089E-10
   13.50000      9.2082586E-10
   13.56000      9.1741842E-10
   13.62000      9.0630997E-10
   13.68000      8.8798185E-10
   13.74000      8.6340318E-10
   13.80000      8.3306567E-10
   13.86000      7.9594648E-10
   13.92000      7.4881762E-10
   13.98000      6.8623540E-10
   14.04000      6.0130428E-10
   14.10000      4.8700743E-10
   14.16000      3.3767816E-10
   14.22000      1.5014481E-10
   14.28000     -7.5764922E-11
   14.34000     -3.3740677E-10
   14.40000     -6.2997968E-10
   14.46000     -9.4732167E-10
   14.52000     -1.2825351E-09
   14.58000     -1.6282928E-09
   14.64000     -1.9768722E-09
   14.70000     -2.3200943E-09
   14.76000     -2.6493789E-09
   14.82000     -2.9560501E-09
   14.88000     -3.2319130E-09
   14.94000     -3.4699945E-09
   15.00000     -3.6652827E-09
   15.06000     -3.8152823E-09
   15.12000     -3.9202388E-09
   15.18000     -3.9829828E-09
   15.24000     -4.0084225E-09
   15.30000     -4.0028283E-09
   15.36000     -3.9730836E-09
   15.42000     -3.9260599E-09
   15.48000     -3.8682000E-09
   15.54000     -3.8052810E-09
   15.60000     -3.7422496E-09
   15.66000     -3.6830052E-09
   15.72000     -3.6300831E-09
   15.78000     -3.5842844E-09
   15.84000     -3.5443881E-09
   15.90000     -3.5070837E-09
   15.96000     -3.4671916E-09
   16.02000     -3.4181293E-09
   16.08000     -3.3525185E-09
   16.14000     -3.2628225E-09
   16.20000     -3.1419780E-09
   16.26000     -2.9840426E-09
   16.32000     -2.7849045E-09
   16.38000     -2.5430349E-09
   16.44000     -2.2601609E-09
   16.50000     -1.9416744E-09
   16.56000     -1.5966085E-09
   16.62000     -1.2371290E-09
   16.68000     -8.7763607E-10
   16.74000     -5.3367905E-10
   16.80000     -2.2089126E-10
   16.86000      4.5923831E-11
   16.92000      2.5354499E-10
   16.98000      3.9098835E-10
   17.04000      4.5013571E-10
   17.10000      4.2634229E-10
   17.16000      3.1895195E-10
   17.22000      1.3160019E-10
   17.28000     -1.2780944E-10
   17.34000     -4.4751741E-10
   17.40000     -8.1270118E-10
   17.46000     -1.2065718E-09
   17.52000     -1.6116433E-09
   17.58000     -2.0110005E-09
   17.64000     -2.3893887E-09
   17.70000     -2.7339713E-09
   17.76000     -3.0347020E-09
   17.82000     -3.2843503E-09
   17.88000     -3.4783358E-09
   17.94000     -3.6145373E-09
   18.00000     -3.6931869E-09
   18.06000     -3.7168368E-09
   18.12000     -3.6902845E-09
   18.18000     -3.6203012E-09
   18.24000     -3.5150776E-09
   18.30000     -3.3834129E-09
   18.36000     -3.2337835E-09
   18.42000     -3.0734510E-09
   18.48000     -2.9077409E-09
   18.54000     -2.7395428E-09
   18.60000     -2.5690468E-09
   18.66000     -2.3937161E-09
   18.72000     -2.2085254E-09
   18.78000     -2.0064808E-09
   18.84000     -1.7793889E-09
   18.90000     -1.5187714E-09
   18.96000     -1.2167880E-09
   19.02000     -8.6705920E-10
   19.08000     -4.6538010E-10
   19.14000     -1.0382972E-11
   19.20000      4.9579313E-10
   19.26000      1.0468759E-09
   19.32000      1.6320589E-09
   19.38000      2.2360660E-09
   19.44000      2.8398295E-09
   19.50000      3.4217196E-09
   19.56000      3.9590500E-09
   19.62000      4.4295043E-09
   19.68000      4.8122288E-09
   19.74000      5.0885829E-09
   19.80000      5.2427400E-09
   19.86000      5.2623887E-09
   19.92000      5.1396540E-09
   19.98000      4.8721303E-09
   20.04000      4.4637440E-09
   20.10000      3.9251868E-09
   20.16000      3.2737817E-09
   20.22000      2.5328619E-09
   20.28000      1.7308259E-09
   20.34000      9.0000851E-10
   20.40000      7.5390513E-11
   20.46000     -7.0689754E-10
   20.52000     -1.4112870E-09
   20.58000     -2.0045854E-09
   20.64000     -2.4576772E-09
   20.70000     -2.7469076E-09
   20.76000     -2.8550697E-09
   20.82000     -2.7720790E-09
   20.88000     -2.4954612E-09
   20.94000     -2.0307087E-09
   21.00000     -1.3913899E-09
   21.06000     -5.9879535E-10
   21.12000      3.1902092E-10
   21.18000      1.3287369E-09
   21.24000      2.3935109E-09
   21.30000      3.4746350E-09
   21.36000      4.5328985E-09
   21.42000      5.5297376E-09
   21.48000      6.4284289E-09
   21.54000      7.1955530E-09
   21.60000      7.8027025E-09
   21.66000      8.2281151E-09
   21.72000      8.4577829E-09
   21.78000      8.4857330E-09
   21.84000      8.3135037E-09
   21.90000      7.9491622E-09
   21.96000      7.4062858E-09
   22.02000      6.7031736E-09
   22.08000      5.8623071E-09
   22.14000      4.9098530E-09
   22.20000      3.8750425E-09
   22.26000      2.7893885E-09
   22.32000      1.6858517E-09
   22.38000      5.9801930E-10
   22.44000     -4.4080126E-10
   22.50000     -1.3988156E-09
   22.56000     -2.2474851E-09
   22.62000     -2.9636464E-09
   22.68000     -3.5314975E-09
   22.74000     -3.9437436E-09
   22.80000     -4.2014086E-09
   22.86000     -4.3123434E-09
   22.92000     -4.2890447E-09
   22.98000     -4.1466612E-09
   23.04000     -3.9018548E-09
   23.10000     -3.5726033E-09
   23.16000     -3.1784451E-09
   23.22000     -2.7404161E-09
   23.28000     -2.2801498E-09
   23.34000     -1.8181376E-09
   23.40000     -1.3716586E-09
   23.46000     -9.5308883E-10
   23.52000     -5.6913824E-10
   23.58000     -2.2119162E-10
   23.64000      9.3419210E-11
   23.70000      3.7956469E-10
   23.76000      6.4227396E-10
   23.82000      8.8487617E-10
   23.88000      1.1077226E-09
   23.94000      1.3078706E-09
   24.00000      1.4799401E-09
   24.06000      1.6179714E-09
   24.12000      1.7176407E-09
   24.18000      1.7779019E-09
   24.24000      1.8012593E-09
   24.30000      1.7924541E-09
   24.36000      1.7561268E-09
   24.42000      1.6945562E-09
   24.48000      1.6065782E-09
   24.54000      1.4882173E-09
   24.60000      1.3347301E-09
   24.66000      1.1431209E-09
   24.72000      9.1404140E-10
   24.78000      6.5235783E-10
   24.84000      3.6630129E-10
   24.90000      6.5654933E-11
   24.96000     -2.4032384E-10
   25.02000     -5.4460531E-10
   25.08000     -8.4327839E-10
   25.14000     -1.1354165E-09
   25.20000     -1.4219214E-09
   25.26000     -1.7035994E-09
   25.32000     -1.9790434E-09
   25.38000     -2.2431332E-09
   25.44000     -2.4869451E-09
   25.50000     -2.6994229E-09
   25.56000     -2.8704237E-09
   25.62000     -2.9940341E-09
   25.68000     -3.0707643E-09
   25.74000     -3.1076111E-09
   25.80000     -3.1158700E-09
   25.86000     -3.1075542E-09
   25.92000     -3.0918479E-09
   25.98000     -3.0729004E-09
   26.04000     -3.0495930E-09
   26.10000     -3.0170644E-09
   26.16000     -2.9691771E-09
   26.22000     -2.9009686E-09
   26.28000     -2.8103633E-09
   26.34000     -2.6987890E-09
   26.40000     -2.5706555E-09
   26.46000     -2.4318600E-09
   26.52000     -2.2876783E-09
   26.58000     -2.1406183E-09
   26.64000     -1.9889779E-09
   26.70000     -1.8267868E-09
   26.76000     -1.6453805E-09
   26.82000     -1.4361813E-09
   26.88000     -1.1936390E-09
   26.94000     -9.1709745E-10
   27.00000     -6.1076788E-10
   27.06000     -2.8183170E-10
   27.12000      6.2457158E-11
   27.18000      4.1740308E-10
   27.24000      7.8218504E-10
   27.30000      1.1594828E-09
   27.36000      1.5537561E-09
   27.42000      1.9689459E-09
   27.48000      2.4063751E-09
   27.54000      2.8633818E-09
   27.60000      3.3329337E-09
   27.66000      3.8042987E-09
   27.72000      4.2646966E-09
   27.78000      4.7016697E-09
   27.84000      5.1055489E-09
   27.90000      5.4711844E-09
   27.96000      5.7981437E-09
   28.02000      6.0891243E-09
   28.08000      6.3471473E-09
   28.14000      6.5727788E-09
   28.20000      6.7627299E-09
   28.26000      6.9105868E-09
   28.32000      7.0093584E-09
   28.38000      7.0546218E-09
   28.44000      7.0467676E-09
   28.50000      6.9913662E-09
   28.56000      6.8976407E-09
   28.62000      6.7758936E-09
   28.68000      6.6350103E-09
   28.74000      6.4808541E-09
   28.80000      6.3157093E-09
   28.86000      6.1384764E-09
   28.92000      5.9452083E-09
   28.98000      5.7298433E-09
   29.04000      5.4852261E-09
   29.10000      5.2044946E-09
   29.16000      4.8826356E-09
   29.22000      4.5176956E-09
   29.28000      4.1110981E-09
   29.34000      3.6668879E-09
   29.40000      3.1902601E-09
   29.46000      2.6861191E-09
   29.52000      2.1583892E-09
   29.58000      1.6103189E-09
   29.64000      1.0454546E-09
   29.70000      4.6861304E-10
   29.76000     -1.1372413E-10
   29.82000     -6.9375750E-10
   29.88000     -1.2631979E-09
   29.94000     -1.8141414E-09
   30.00000     -2.3396991E-09
   30.06000     -2.8343694E-09
   30.12000     -3.2942977E-09
   30.18000     -3.7175099E-09
   30.24000     -4.1039949E-09
   30.30000     -4.4553872E-09
   30.36000     -4.7741127E-09
   30.42000     -5.0621622E-09
   30.48000     -5.3199480E-09
   30.54000     -5.5457532E-09
   30.60000     -5.7360476E-09
   30.66000     -5.8865273E-09
   30.72000     -5.9934457E-09
   30.78000     -6.0547398E-09
   30.84000     -6.0706351E-09
   30.90000     -6.0436718E-09
   30.96000     -5.9782397E-09
   31.02000     -5.8797216E-09
   31.08000     -5.7533405E-09
   31.14000     -5.6028866E-09
   31.20000     -5.4297029E-09
   31.26000     -5.2324438E-09
   31.32000     -5.0079954E-09
   31.38000     -4.7534630E-09
   31.44000     -4.4685140E-09
   31.50000     -4.1569477E-09
   31.56000     -3.8265067E-09
   31.62000     -3.4866994E-09
   31.68000     -3.1453984E-09
   31.74000     -2.8057210E-09
   31.80000     -2.4647098E-09
   31.86000     -2.1145741E-09
   31.92000     -1.7460813E-09
   31.98000     -1.3527055E-09
   32.04000     -9.3381536E-10
   32.10000     -4.9565385E-10
   32.16000     -4.9837440E-11
   32.22000      3.8990330E-10
   32.28000      8.1141782E-10
   32.34000      1.2069160E-09
   32.40000      1.5739318E-09
   32.46000      1.9142432E-09
   32.52000      2.2311848E-09
   32.58000      2.5262794E-09
   32.64000      2.7963407E-09
   32.70000      3.0321141E-09
   32.76000      3.2191012E-09
   32.82000      3.3405019E-09
   32.88000      3.3814265E-09
   32.94000      3.3329530E-09
   33.00000      3.1945355E-09
   33.06000      2.9738043E-09
   33.12000      2.6837899E-09
   33.18000      2.3386124E-09
   33.24000      1.9493129E-09
   33.30000      1.5214191E-09
   33.36000      1.0551213E-09
   33.42000      5.4786764E-10
   33.48000     -1.7672825E-12
   33.54000     -5.9054711E-10
   33.60000     -1.2088160E-09
   33.66000     -1.8412448E-09
   33.72000     -2.4698417E-09
   33.78000     -3.0781266E-09
   33.84000     -3.6548919E-09
   33.90000     -4.1961039E-09
   33.96000     -4.7041682E-09
   34.02000     -5.1848073E-09
   34.08000     -5.6427627E-09
   34.14000     -6.0780798E-09
   34.20000     -6.4845262E-09
   34.26000     -6.8508546E-09
   34.32000     -7.1643980E-09
   34.38000     -7.4154838E-09
   34.44000     -7.6008169E-09
   34.50000     -7.7244220E-09
   34.56000     -7.7958262E-09
   34.62000     -7.8263103E-09
   34.68000     -7.8247986E-09
   34.74000     -7.7949709E-09
   34.80000     -7.7345748E-09
   34.86000     -7.6369968E-09
   34.92000     -7.4943474E-09
   34.98000     -7.3008968E-09
   35.04000     -7.0557689E-09
   35.10000     -6.7641444E-09
   35.16000     -6.4367631E-09
   35.22000     -6.0880105E-09
   35.28000     -5.7332668E-09
   35.34000     -5.3863674E-09
   35.40000     -5.0579581E-09
   35.46000     -4.7551914E-09
   35.52000     -4.4826782E-09
   35.58000     -4.2440815E-09
   35.64000     -4.0434736E-09
   35.70000     -3.8857051E-09
   35.76000     -3.7755346E-09
   35.82000     -3.7158576E-09
   35.88000     -3.7058381E-09
   35.94000     -3.7397299E-09
   36.00000     -3.8068340E-09
   36.06000     -3.8925245E-09
   36.12000     -3.9799217E-09
   36.18000     -4.0517074E-09
   36.24000     -4.0917953E-09
   36.30000     -4.0867412E-09
   36.36000     -4.0268722E-09
   36.42000     -3.9069739E-09
   36.48000     -3.7262646E-09
   36.54000     -3.4874459E-09
   36.60000     -3.1949436E-09
   36.66000     -2.8529206E-09
   36.72000     -2.4638787E-09
   36.78000     -2.0285540E-09
   36.84000     -1.5472267E-09
   36.90000     -1.0218798E-09
   36.96000     -4.5819348E-10
   37.02000      1.3360257E-10
   37.08000      7.3945811E-10
   37.14000      1.3435477E-09
   37.20000      1.9308410E-09
   37.26000      2.4893005E-09
   37.32000      3.0110821E-09
   37.38000      3.4925540E-09
   37.44000      3.9333017E-09
   37.50000      4.3344643E-09
   37.56000      4.6968025E-09
   37.62000      5.0189333E-09
   37.68000      5.2962301E-09
   37.74000      5.5208513E-09
   37.80000      5.6830962E-09
   37.86000      5.7737712E-09
   37.92000      5.7866991E-09
   37.98000      5.7202207E-09
   38.04000      5.5768559E-09
   38.10000      5.3610738E-09
   38.16000      5.0761169E-09
   38.22000      4.7213953E-09
   38.28000      4.2918131E-09
   38.34000      3.7794714E-09
   38.40000      3.1770435E-09
   38.46000      2.4812548E-09
   38.52000      1.6948865E-09
   38.58000      8.2645801E-10
   38.64000     -1.1212143E-10
   38.70000     -1.1087481E-09
   38.76000     -2.1537270E-09
   38.82000     -3.2407856E-09
   38.88000     -4.3663082E-09
   38.94000     -5.5273310E-09
   39.00000     -6.7192052E-09
   39.06000     -7.9337541E-09
   39.12000     -9.1584536E-09
   39.18000     -1.0376812E-08
   39.24000     -1.1569813E-08
   39.30000     -1.2718087E-08
   39.36000     -1.3804256E-08
   39.42000     -1.4814760E-08
   39.48000     -1.5740531E-08
   39.54000     -1.6576237E-08
   39.60000     -1.7318367E-08
   39.66000     -1.7962966E-08
   39.72000     -1.8504108E-08
   39.78000     -1.8933829E-08
   39.84000     -1.9243593E-08
   39.90000     -1.9426642E-08
   39.96000     -1.9480073E-08
   40.02000     -1.9405771E-08
   40.08000     -1.9209832E-08
   40.14000     -1.8900868E-08
   40.20000     -1.8488031E-08
   40.26000     -1.7979541E-08
   40.32000     -1.7382140E-08
   40.38000     -1.6701371E-08
   40.44000     -1.5942378E-08
   40.50000     -1.5110787E-08
   40.56000     -1.4213399E-08
   40.62000     -1.3258497E-08
   40.68000     -1.2255646E-08
   40.74000     -1.1214870E-08
   40.80000     -1.0145266E-08
   40.86000     -9.0534487E-09
   40.92000     -7.9424449E-09
   40.98000     -6.8117583E-09
   41.04000     -5.6589058E-09
   41.10000     -4.4821036E-09
   41.16000     -3.2831107E-09
   41.22000     -2.0690245E-09
   41.28000     -8.5216978E-10
   41.34000      3.5195605E-10
   41.40000      1.5278537E-09
   41.46000      2.6630125E-09
   41.52000      3.7495651E-09
   41.58000      4.7840945E-09
   41.64000      5.7658815E-09
   41.70000      6.6944681E-09
   41.76000      7.5675484E-09
   41.82000      8.3799838E-09
   41.88000      9.1242702E-09
   41.94000      9.7922968E-09
   42.00000      1.0377832E-08
   42.06000      1.0878900E-08
   42.12000      1.1299137E-08
   42.18000      1.1647441E-08
   42.24000      1.1935760E-08
   42.30000      1.2175614E-08
   42.36000      1.2374600E-08
   42.42000      1.2534323E-08
   42.48000      1.2650744E-08
   42.54000      1.2716904E-08
   42.60000      1.2726879E-08
   42.66000      1.2679226E-08
   42.72000      1.2578366E-08
   42.78000      1.2433389E-08
   42.84000      1.2254966E-08
   42.90000      1.2051926E-08
   42.96000      1.1829070E-08
   43.02000      1.1587052E-08
   43.08000      1.1324054E-08
   43.14000      1.1038212E-08
   43.20000      1.0729551E-08
   43.26000      1.0400618E-08
   43.32000      1.0055816E-08
   43.38000      9.6999528E-09
   43.44000      9.3367749E-09
   43.50000      8.9680787E-09
   43.56000      8.5935996E-09
   43.62000      8.2115710E-09
   43.68000      7.8196720E-09
   43.74000      7.4160376E-09
   43.80000      7.0000556E-09
   43.86000      6.5727646E-09
   43.92000      6.1368013E-09
   43.98000      5.6960303E-09
   44.04000      5.2550893E-09
   44.10000      4.8191140E-09
   44.16000      4.3937112E-09
   44.22000      3.9849861E-09
   44.28000      3.5992822E-09
   44.34000      3.2423810E-09
   44.40000      2.9182634E-09
   44.46000      2.6279496E-09
   44.52000      2.3690945E-09
   44.58000      2.1367783E-09
   44.64000      1.9253417E-09
   44.70000      1.7305257E-09
   44.76000      1.5509467E-09
   44.82000      1.3882411E-09
   44.88000      1.2458778E-09
   44.94000      1.1272968E-09
   45.00000      1.0342838E-09
   45.06000      9.6624220E-10
   45.12000      9.2046742E-10
   45.18000      8.9304275E-10
   45.24000      8.7983232E-10
   45.30000      8.7725194E-10
   45.36000      8.8280083E-10
   45.42000      8.9547303E-10
   45.48000      9.1603863E-10
   45.54000      9.4696639E-10
   45.60000      9.9171915E-10
   45.66000      1.0534481E-09
   45.72000      1.1335900E-09
   45.78000      1.2311870E-09
   45.84000      1.3435800E-09
   45.90000      1.4684411E-09
   45.96000      1.6062689E-09
   46.02000      1.7619810E-09
   46.08000      1.9444801E-09
   46.14000      2.1639890E-09
   46.20000      2.4280891E-09
   46.26000      2.7381191E-09
   46.32000      3.0875138E-09
   46.38000      3.4628020E-09
   46.44000      3.8468286E-09
   46.50000      4.2228687E-09
   46.56000      4.5781055E-09
   46.62000      4.9053819E-09
   46.68000      5.2029696E-09
   46.74000      5.4728204E-09
   46.80000      5.7181659E-09
   46.86000      5.9413163E-09
   46.92000      6.1422969E-09
   46.98000      6.3185972E-09
   47.04000      6.4660544E-09
   47.10000      6.5805668E-09
   47.16000      6.6601040E-09
   47.22000      6.7062831E-09
   47.28000      6.7248274E-09
   47.34000      6.7245232E-09
   47.40000      6.7148211E-09
   47.46000      6.7028223E-09
   47.52000      6.6906809E-09
   47.58000      6.6744308E-09
   47.64000      6.6447434E-09
   47.70000      6.5894450E-09
   47.76000      6.4970114E-09
   47.82000      6.3599028E-09
   47.88000      6.1766765E-09
   47.94000      5.9521867E-09
   48.00000      5.6958234E-09
   48.06000      5.4183369E-09
   48.12000      5.1283147E-09
   48.18000      4.8295044E-09
   48.24000      4.5199444E-09
   48.30000      4.1932280E-09
   48.36000      3.8414139E-09
   48.42000      3.4584093E-09
   48.48000      3.0424403E-09
   48.54000      2.5965956E-09
   48.60000      2.1272988E-09
   48.66000      1.6415003E-09
   48.72000      1.1439351E-09
   48.78000      6.3570837E-10
   48.84000      1.1475908E-10
   48.90000     -4.2216833E-10
   48.96000     -9.7708686E-10
   49.02000     -1.5490059E-09
   49.08000     -2.1335282E-09
   49.14000     -2.7237648E-09
   49.20000     -3.3119605E-09
   49.26000     -3.8910550E-09
   49.32000     -4.4556336E-09
   49.38000     -5.0021227E-09
   49.44000     -5.5284040E-09
   49.50000     -6.0331149E-09
   49.56000     -6.5148695E-09
   49.62000     -6.9715327E-09
   49.68000     -7.3996880E-09
   49.74000     -7.7944726E-09
   49.80000     -8.1499429E-09
   49.86000     -8.4599119E-09
   49.92000     -8.7189909E-09
   49.98000     -8.9233447E-09
   50.04000     -9.0706926E-09
   50.10000     -9.1594750E-09
   50.16000     -9.1874188E-09
   50.22000     -9.1501686E-09
   50.28000     -9.0405408E-09
   50.34000     -8.8487360E-09
   50.40000     -8.5633616E-09
   50.46000     -8.1727984E-09
   50.52000     -7.6663307E-09
   50.58000     -7.0346116E-09
   50.64000     -6.2693273E-09
   50.70000     -5.3621623E-09
   50.76000     -4.3033892E-09
   50.82000     -3.0804947E-09
   50.88000     -1.6772559E-09
   50.94000     -7.3571038E-11
   51.00000      1.7539062E-09
   51.06000      3.8306300E-09
   51.12000      6.1831145E-09
   51.18000      8.8386232E-09
   51.24000      1.1825946E-08
   51.30000      1.5177097E-08
   51.36000      1.8929253E-08
   51.42000      2.3126146E-08
   51.48000      2.7818380E-08
   51.54000      3.3062744E-08
   51.60000      3.8921069E-08
   51.66000      4.5459320E-08
   51.72000      5.2747051E-08
   51.78000      6.0857104E-08
   51.84000      6.9864910E-08
   51.90000      7.9847148E-08
   51.96000      9.0879887E-08
   52.02000      1.0303685E-07
   52.08000      1.1638831E-07
   52.14000      1.3100093E-07
   52.20000      1.4693767E-07
   52.26000      1.6425720E-07
   52.32000      1.8301195E-07
   52.38000      2.0324481E-07
   52.44000      2.2498531E-07
   52.50000      2.4824601E-07
   52.56000      2.7301957E-07
   52.62000      2.9927631E-07
   52.68000      3.2696201E-07
   52.74000      3.5599459E-07
   52.80000      3.8626010E-07
   52.86000      4.1760777E-07
   52.92000      4.4984446E-07
   52.98000      4.8272955E-07
   53.04000      5.1596930E-07
   53.10000      5.4921293E-07
   53.16000      5.8204881E-07
   53.22000      6.1400237E-07
   53.28000      6.4453604E-07
   53.34000      6.7304956E-07
   53.40000      6.9888085E-07
   53.46000      7.2130626E-07
   53.52000      7.3953998E-07
   53.58000      7.5273351E-07
   53.64000      7.5997696E-07
   53.70000      7.6030301E-07
   53.76000      7.5269458E-07
   53.82000      7.3609459E-07
   53.88000      7.0941792E-07
   53.94000      6.7156293E-07
   54.00000      6.2142294E-07
   54.06000      5.5789940E-07
   54.12000      4.7991500E-07
   54.18000      3.8642932E-07
   54.24000      2.7645484E-07
   54.30000      1.4907410E-07
   54.36000      3.4576479E-09
   54.42000     -1.6111662E-07
   54.48000     -3.4524214E-07
   54.54000     -5.4936072E-07
   54.60000     -7.7373954E-07
   54.66000     -1.0184499E-06
   54.72000     -1.2833499E-06
   54.78000     -1.5680718E-06
   54.84000     -1.8720121E-06
   54.90000     -2.1943226E-06
   54.96000     -2.5339011E-06
   55.02000     -2.8893858E-06
   55.08000     -3.2591481E-06
   55.14000     -3.6412921E-06
   55.20000     -4.0336577E-06
   55.26000     -4.4338290E-06
   55.32000     -4.8391462E-06
   55.38000     -5.2467190E-06
   55.44000     -5.6534464E-06
   55.50000     -6.0560415E-06
   55.56000     -6.4510577E-06