  -2.400000      0.0000000E+00
  -2.340000      0.0000000E+00
  -2.280000      0.0000000E+00
  -2.220000      0.0000000E+00
  -2.160000      0.0000000E+00
  -2.100000     -1.3499922E-21
  -2.040000     -4.4667184E-21
  -1.980000      1.1998099E-20
  -1.920000      1.2536207E-19
  -1.860000      4.4407470E-19
  -1.800000      9.0800464E-19
  -1.740000      9.1652036E-19
  -1.680000     -8.9207210E-19
  -1.620000     -6.0904543E-18
  -1.560000     -1.4683434E-17
  -1.500000     -2.2526444E-17
  -1.440000     -1.9671033E-17
  -1.380000      7.7957480E-18
  -1.320000      7.0425734E-17
  -1.260000      1.6293969E-16
  -1.200000      2.5059033E-16
  -1.140000      2.6231504E-16
  -1.080000      1.0163301E-16
  -1.020000     -3.1410420E-16
 -0.9600000     -9.8328116E-16
 -0.9000000     -1.7349092E-15
 -0.8400000     -2.1746694E-15
 -0.7800000     -1.7328510E-15
 -0.7200000      1.2246787E-16
 -0.6600000      3.5105727E-15
 -0.6000000      7.7302039E-15
 -0.5400000      1.1075461E-14
 -0.4800000      1.1161946E-14
 -0.4200000      5.8857016E-15
 -0.3600000     -5.2213538E-15
 -0.3000000     -1.9877839E-14
 -0.2400000     -3.2992323E-14
 -0.1800000     -3.8167410E-14
 -0.1200000     -3.0498089E-14
 -5.9999999E-02 -9.4695556E-15
  0.0000000E+00  1.9720152E-14
  5.9999999E-02  4.7622550E-14
  0.1200000      6.4579547E-14
  0.1800000      6.5436297E-14
  0.2400000      5.2129545E-14
  0.3000000      3.2133381E-14
  0.3600000      1.3123466E-14
  0.4200000     -3.0340197E-15
  0.4800000     -2.2602837E-14
  0.5400000     -5.5779905E-14
  0.6000000     -1.0717509E-13
  0.6600000     -1.6648819E-13
  0.7200000     -2.0655455E-13
  0.7800000     -1.9300666E-13
  0.8400000     -1.0308676E-13
  0.9000000      5.5763354E-14
  0.9600000      2.3941691E-13
   1.020000      3.7996302E-13
   1.080000      4.1496927E-13
   1.140000      3.1950844E-13
   1.200000      1.2317275E-13
   1.260000     -9.9704587E-14
   1.320000     -2.6430016E-13
   1.380000     -3.1702020E-13
   1.440000     -2.6143475E-13
   1.500000     -1.5232573E-13
   1.560000     -5.9540351E-14
   1.620000     -2.2024896E-14
   1.680000     -2.0489917E-14
   1.740000      1.1572878E-14
   1.800000      1.4082691E-13
   1.860000      3.7648796E-13
   1.920000      6.3794163E-13
   1.980000      7.7297636E-13
   2.040000      6.2510641E-13
   2.100000      1.1936257E-13
   2.160000     -6.7843300E-13
   2.220000     -1.5639214E-12
   2.280000     -2.2626146E-12
   2.340000     -2.5342022E-12
   2.400000     -2.2625619E-12
   2.460000     -1.4880253E-12
   2.520000     -3.6899487E-13
   2.580000      9.0224237E-13
   2.640000      2.1807783E-12
   2.700000      3.4024957E-12
   2.760000      4.5544393E-12
   2.820000      5.6060300E-12
   2.880000      6.4507553E-12
   2.940000      6.9047186E-12
   3.000000      6.7762996E-12
   3.060000      5.9770583E-12
   3.120000      4.6124124E-12
   3.180000      2.9905052E-12
   3.240000      1.5217183E-12
   3.300000      5.3365255E-13
   3.360000      7.0840049E-14
   3.420000     -2.3818491E-13
   3.480000     -1.1890036E-12
   3.540000     -3.8789224E-12
   3.600000     -9.5012175E-12
   3.660000     -1.9131951E-11
   3.720000     -3.3577880E-11
   3.780000     -5.3317233E-11
   3.840000     -7.8520392E-11
   3.900000     -1.0910770E-10
   3.960000     -1.4479973E-10
   4.020000     -1.8513710E-10
   4.080000     -2.2947595E-10
   4.140000     -2.7698338E-10
   4.200000     -3.2665526E-10
   4.260000     -3.7736356E-10
   4.320000     -4.2792356E-10
   4.380000     -4.7716614E-10
   4.440000     -5.2400834E-10
   4.500000     -5.6752525E-10
   4.560000     -6.0702654E-10
   4.620000     -6.4212402E-10
   4.680000     -6.7275768E-10
   4.740000     -6.9913769E-10
   4.800000     -7.2158540E-10
   4.860000     -7.4030221E-10
   4.920000     -7.5515472E-10
   4.980000     -7.6558049E-10
   5.040000     -7.7068701E-10
   5.100000     -7.6953133E-10
   5.160000     -7.6146628E-10
   5.220000     -7.4638867E-10
   5.280000     -7.2474815E-10
   5.340000     -6.9728606E-10
   5.400000     -6.6461381E-10
   5.460000     -6.2683647E-10
   5.520000     -5.8342653E-10
   5.580000     -5.3343635E-10
   5.640000     -4.7597098E-10
   5.700000     -4.1069687E-10
   5.760000     -3.3813419E-10
   5.820000     -2.5957558E-10
   5.880000     -1.7665987E-10
   5.940000     -9.0802608E-11
   6.000000     -2.7577222E-12
   6.060000      8.7485033E-11
   6.120000      1.8043764E-10
   6.180000      2.7664721E-10
   6.240000      3.7628956E-10
   6.300000      4.7905135E-10
   6.360000      5.8437372E-10
   6.420000      6.9193523E-10
   6.480000      8.0212292E-10
   6.540000      9.1623537E-10
   6.600000      1.0362855E-09
   6.660000      1.1644593E-09
   6.720000      1.3024386E-09
   6.780000      1.4508519E-09
   6.840000      1.6090512E-09
   6.900000      1.7752649E-09
   6.960000      1.9470292E-09
   7.020000      2.1217121E-09
   7.080000      2.2969484E-09
   7.140000      2.4708811E-09
   7.200000      2.6422022E-09
   7.260000      2.8100560E-09
   7.320000      2.9738763E-09
   7.380000      3.1332066E-09
   7.440000      3.2875080E-09
   7.500000      3.4359584E-09
   7.560000      3.5772769E-09
   7.620000      3.7096479E-09
   7.680000      3.8308352E-09
   7.740000      3.9385224E-09
   7.800000      4.0308135E-09
   7.860000      4.1067092E-09
   7.920000      4.1663517E-09
   7.980000      4.2108672E-09
   8.040000      4.2418287E-09
   8.100000      4.2605381E-09
   8.160000      4.2674464E-09
   8.220000      4.2619752E-09
   8.280000      4.2428332E-09
   8.340000      4.2086605E-09
   8.400000      4.1586845E-09
   8.460000      4.0930588E-09
   8.520000      4.0127524E-09
   8.580000      3.9191010E-09
   8.640000      3.8133190E-09
   8.700000      3.6962513E-09
   8.760000      3.5684964E-09
   8.820000      3.4307532E-09
   8.880000      3.2841068E-09
   8.940000      3.1299907E-09
   9.000000      2.9697789E-09
   9.060000      2.8042098E-09
   9.120000      2.6329976E-09
   9.180000      2.4549054E-09
   9.240000      2.2683200E-09
   9.300000      2.0720758E-09
   9.360000      1.8661268E-09
   9.420000      1.6517365E-09
   9.480000      1.4310975E-09
   9.540000      1.2065869E-09
   9.600000      9.8002628E-10
   9.660000      7.5228040E-10
   9.720000      5.2333832E-10
   9.780000      2.9277361E-10
   9.840000      6.0330303E-11
   9.900000     -1.7362420E-10
   9.960000     -4.0792716E-10
   10.02000     -6.4072619E-10
   10.08000     -8.6975788E-10
   10.14000     -1.0926716E-09
   10.20000     -1.3073127E-09
   10.26000     -1.5119329E-09
   10.32000     -1.7053393E-09
   10.38000     -1.8870039E-09
   10.44000     -2.0571496E-09
   10.50000     -2.2168161E-09
   10.56000     -2.3678821E-09
   10.62000     -2.5129858E-09
   10.68000     -2.6552742E-09
   10.74000     -2.7979183E-09
   10.80000     -2.9434375E-09
   10.86000     -3.0929765E-09
   10.92000     -3.2458014E-09
   10.98000     -3.3992626E-09
   11.04000     -3.5493466E-09
   11.10000     -3.6916843E-09
   11.16000     -3.8226742E-09
   11.22000     -3.9402837E-09
   11.28000     -4.0442156E-09
   11.34000     -4.1354147E-09
   11.40000     -4.2151553E-09
   11.46000     -4.2841353E-09
   11.52000     -4.3419166E-09
   11.58000     -4.3868860E-09
   11.64000     -4.4166293E-09
   11.70000     -4.4285167E-09
   11.76000     -4.4202841E-09
   11.82000     -4.3905128E-09
   11.88000     -4.3390016E-09
   11.94000     -4.2670507E-09
   12.00000     -4.1776138E-09
   12.06000     -4.0752242E-09
   12.12000     -3.9656340E-09
   12.18000     -3.8552095E-09
   12.24000     -3.7502748E-09
   12.30000     -3.6566226E-09
   12.36000     -3.5793304E-09
   12.42000     -3.5228183E-09
   12.48000     -3.4909187E-09
   12.54000     -3.4867138E-09
   12.60000     -3.5120393E-09
   12.66000     -3.5668091E-09
   12.72000     -3.6484855E-09
   12.78000     -3.7520280E-09
   12.84000     -3.8704386E-09
   12.90000     -3.9957722E-09
   12.96000     -4.1202477E-09
   13.02000     -4.2371102E-09
   13.08000     -4.3410306E-09
   13.14000     -4.4280775E-09
   13.20000     -4.4954542E-09
   13.26000     -4.5412119E-09
   13.32000     -4.5640745E-09
   13.38000     -4.5633750E-09
   13.44000     -4.5390540E-09
   13.50000     -4.4916728E-09
   13.56000     -4.4224344E-09
   13.62000     -4.3332151E-09
   13.68000     -4.2265507E-09
   13.74000     -4.1054555E-09
   13.80000     -3.9729704E-09
   13.86000     -3.8314205E-09
   13.92000     -3.6815677E-09
   13.98000     -3.5219787E-09
   14.04000     -3.3489584E-09
   14.10000     -3.1572038E-09
   14.16000     -2.9410669E-09
   14.22000     -2.6960274E-09
   14.28000     -2.4198925E-09
   14.34000     -2.1133617E-09
   14.40000     -1.7798688E-09
   14.46000     -1.4249207E-09
   14.52000     -1.0552940E-09
   14.58000     -6.7842493E-10
   14.64000     -3.0212269E-10
   14.70000      6.5487733E-11
   14.76000      4.1602849E-10
   14.82000      7.4116763E-10
   14.88000      1.0332485E-09
   14.94000      1.2861716E-09
   15.00000      1.4963121E-09
   15.06000      1.6632168E-09
   15.12000      1.7898708E-09
   15.18000      1.8824293E-09
   15.24000      1.9494371E-09
   15.30000      2.0006670E-09
   15.36000      2.0458018E-09
   15.42000      2.0932152E-09
   15.48000      2.1490902E-09
   15.54000      2.2170137E-09
   15.60000      2.2980438E-09
   15.66000      2.3911002E-09
   15.72000      2.4934448E-09
   15.78000      2.6010429E-09
   15.84000      2.7087148E-09
   15.90000      2.8101399E-09
   15.96000      2.8978975E-09
   16.02000      2.9637253E-09
   16.08000      2.9990999E-09
   16.14000      2.9960883E-09
   16.20000      2.9483143E-09
   16.26000      2.8518454E-09
   16.32000      2.7058344E-09
   16.38000      2.5128204E-09
   16.44000      2.2786544E-09
   16.50000      2.0120445E-09
   16.56000      1.7237659E-09
   16.62000      1.4256372E-09
   16.68000      1.1294593E-09
   16.74000      8.4615898E-10
   16.80000      5.8534033E-10
   16.86000      3.5528702E-10
   16.92000      1.6323874E-10
   16.98000      1.5613975E-11
   17.04000     -8.2135368E-11
   17.10000     -1.2614200E-10
   17.16000     -1.1501484E-10
   17.22000     -5.0578482E-11
   17.28000      6.1971886E-11
   17.34000      2.1469498E-10
   17.40000      3.9814874E-10
   17.46000      6.0282207E-10
   17.52000      8.2027479E-10
   17.58000      1.0437028E-09
   17.64000      1.2679561E-09
   17.70000      1.4892596E-09
   17.76000      1.7049158E-09
   17.82000      1.9131126E-09
   17.88000      2.1127537E-09
   17.94000      2.3031352E-09
   18.00000      2.4833715E-09
   18.06000      2.6516558E-09
   18.12000      2.8046026E-09
   18.18000      2.9369291E-09
   18.24000      3.0416034E-09
   18.30000      3.1103999E-09
   18.36000      3.1346883E-09
   18.42000      3.1062912E-09
   18.48000      3.0183391E-09
   18.54000      2.8661244E-09
   18.60000      2.6479337E-09
   18.66000      2.3657336E-09
   18.72000      2.0255031E-09
   18.78000      1.6370364E-09
   18.84000      1.2132056E-09
   18.90000      7.6888756E-10
   18.96000      3.1987965E-10
   19.02000     -1.1792735E-10
   19.08000     -5.2905530E-10
   19.14000     -8.9878432E-10
   19.20000     -1.2135953E-09
   19.26000     -1.4618697E-09
   19.32000     -1.6347882E-09
   19.38000     -1.7271756E-09
   19.44000     -1.7379943E-09
   19.50000     -1.6703169E-09
   19.56000     -1.5308228E-09
   19.62000     -1.3290301E-09
   19.68000     -1.0764885E-09
   19.74000     -7.8606582E-10
   19.80000     -4.7130883E-10
   19.86000     -1.4577724E-10
   19.92000      1.7772998E-10
   19.98000      4.8804610E-10
   20.04000      7.7649981E-10
   20.10000      1.0376165E-09
   20.16000      1.2695173E-09
   20.22000      1.4739140E-09
   20.28000      1.6556703E-09
   20.34000      1.8219574E-09
   20.40000      1.9811330E-09
   20.46000      2.1415503E-09
   20.52000      2.3105451E-09
   20.58000      2.4937792E-09
   20.64000      2.6949412E-09
   20.70000      2.9156151E-09
   20.76000      3.1550107E-09
   20.82000      3.4093566E-09
   20.88000      3.6710390E-09
   20.94000      3.9278993E-09
   21.00000      4.1632719E-09
   21.06000      4.3572093E-09
   21.12000      4.4889203E-09
   21.18000      4.5399426E-09
   21.24000      4.4971946E-09
   21.30000      4.3550545E-09
   21.36000      4.1159463E-09
   21.42000      3.7894528E-09
   21.48000      3.3904493E-09
   21.54000      2.9370004E-09
   21.60000      2.4487057E-09
   21.66000      1.9458801E-09
   21.72000      1.4495859E-09
   21.78000      9.8217656E-10
   21.84000      5.6779109E-10
   21.90000      2.3217782E-10
   21.96000      1.3769177E-12
   22.02000     -1.0086403E-10
   22.08000     -5.6589605E-11
   22.14000      1.4276995E-10
   22.20000      4.9378091E-10
   22.26000      9.8030750E-10
   22.32000      1.5751513E-09
   22.38000      2.2436872E-09
   22.44000      2.9484692E-09
   22.50000      3.6534678E-09
   22.56000      4.3267914E-09
   22.62000      4.9414011E-09
   22.68000      5.4741105E-09
   22.74000      5.9038050E-09
   22.80000      6.2100569E-09
   22.86000      6.3730567E-09
   22.92000      6.3752363E-09
   22.98000      6.2042593E-09
   23.04000      5.8564926E-09
   23.10000      5.3398019E-09
   23.16000      4.6745967E-09
   23.22000      3.8925334E-09
   23.28000      3.0329326E-09
   23.34000      2.1377191E-09
   23.40000      1.2461742E-09
   23.46000      3.9090164E-10
   23.52000     -4.0397685E-10
   23.58000     -1.1221470E-09
   23.64000     -1.7525461E-09
   23.70000     -2.2861615E-09
   23.76000     -2.7135634E-09
   23.82000     -3.0241862E-09
   23.88000     -3.2076255E-09
   23.94000     -3.2563976E-09
   24.00000     -3.1690124E-09
   24.06000     -2.9520566E-09
   24.12000     -2.6202827E-09
   24.18000     -2.1943936E-09
   24.24000     -1.6970091E-09
   24.30000     -1.1480056E-09
   24.36000     -5.6074756E-10
   24.42000      5.9459410E-11
   24.48000      7.1405287E-10
   24.54000      1.4073830E-09
   24.60000      2.1416633E-09
   24.66000      2.9125073E-09
   24.72000      3.7066974E-09
   24.78000      4.5030113E-09
   24.84000      5.2757865E-09
   24.90000      5.9998810E-09
   24.96000      6.6552310E-09
   25.02000      7.2295023E-09
   25.08000      7.7181435E-09
   25.14000      8.1221998E-09
   25.20000      8.4449603E-09
   25.26000      8.6887919E-09
   25.32000      8.8531777E-09
   25.38000      8.9344727E-09
   25.44000      8.9272234E-09
   25.50000      8.8265262E-09
   25.56000      8.6306908E-09
   25.62000      8.3434184E-09
   25.68000      7.9748572E-09
   25.74000      7.5410682E-09
   25.80000      7.0618040E-09
   25.86000      6.5569998E-09
   25.92000      6.0428462E-09
   25.98000      5.5286451E-09
   26.04000      5.0155742E-09
   26.10000      4.4979314E-09
   26.16000      3.9665888E-09
   26.22000      3.4135093E-09
   26.28000      2.8356988E-09
   26.34000      2.2370985E-09
   26.40000      1.6276659E-09
   26.46000      1.0199840E-09
   26.52000      4.2472409E-10
   26.58000     -1.5324406E-10
   26.64000     -7.1653794E-10
   26.70000     -1.2740381E-09
   26.76000     -1.8371747E-09
   26.82000     -2.4150881E-09
   26.88000     -3.0104295E-09
   26.94000     -3.6172991E-09
   27.00000     -4.2220272E-09
   27.06000     -4.8064828E-09
   27.12000     -5.3527835E-09
   27.18000     -5.8478724E-09
   27.24000     -6.2865673E-09
   27.30000     -6.6722508E-09
   27.36000     -7.0151303E-09
   27.42000     -7.3287154E-09
   27.48000     -7.6256681E-09
   27.54000     -7.9143181E-09
   27.60000     -8.1968929E-09
   27.66000     -8.4699918E-09
   27.72000     -8.7270351E-09
   27.78000     -8.9617558E-09
   27.84000     -9.1713979E-09
   27.90000     -9.3583346E-09
   27.96000     -9.5294430E-09
   28.02000     -9.6934540E-09
   28.08000     -9.8573647E-09
   28.14000     -1.0023431E-08
   28.20000     -1.0187994E-08
   28.26000     -1.0342643E-08
   28.32000     -1.0477208E-08
   28.38000     -1.0583305E-08
   28.44000     -1.0657058E-08
   28.50000     -1.0700005E-08
   28.56000     -1.0718058E-08
   28.62000     -1.0719108E-08
   28.68000     -1.0710254E-08
   28.74000     -1.0695571E-08
   28.80000     -1.0674947E-08
   28.86000     -1.0644133E-08
   28.92000     -1.0595848E-08
   28.98000     -1.0521679E-08
   29.04000     -1.0414401E-08
   29.10000     -1.0270200E-08
   29.16000     -1.0090133E-08
   29.22000     -9.8801225E-09
   29.28000     -9.6491402E-09
   29.34000     -9.4058930E-09
   29.40000     -9.1550501E-09
   29.46000     -8.8945393E-09
   29.52000     -8.6151912E-09
   29.58000     -8.3031813E-09
   29.64000     -7.9445179E-09
   29.70000     -7.5298425E-09
   29.76000     -7.0575874E-09
   29.82000     -6.5342087E-09
   29.88000     -5.9714487E-09
   29.94000     -5.3818989E-09
   30.00000     -4.7747695E-09
   30.06000     -4.1536095E-09
   30.12000     -3.5167673E-09
   30.18000     -2.8601801E-09
   30.24000     -2.1811764E-09
   30.30000     -1.4816935E-09
   30.36000     -7.6970841E-10
   30.42000     -5.8479568E-11
   30.48000      6.3597894E-10
   30.54000      1.2982306E-09
   30.60000      1.9164439E-09
   30.66000      2.4842248E-09
   30.72000      3.0007985E-09
   30.78000      3.4695999E-09
   30.84000      3.8957939E-09
   30.90000      4.2835482E-09
   30.96000      4.6339519E-09
   31.02000      4.9442774E-09
   31.08000      5.2088347E-09
   31.14000      5.4211093E-09
   31.20000      5.5764167E-09
   31.26000      5.6740861E-09
   31.32000      5.7183311E-09
   31.38000      5.7174132E-09
   31.44000      5.6812826E-09
   31.50000      5.6183844E-09
   31.56000      5.5326010E-09
   31.62000      5.4212790E-09
   31.68000      5.2749956E-09
   31.74000      5.0792339E-09
   31.80000      4.8176050E-09
   31.86000      4.4757722E-09
   31.92000      4.0449857E-09
   31.98000      3.5241701E-09
   32.04000      2.9199347E-09
   32.10000      2.2445330E-09
   32.16000      1.5125008E-09
   32.22000      7.3718487E-10
   32.28000     -7.1611481E-11
   32.34000     -9.0808089E-10
   32.40000     -1.7689354E-09
   32.46000     -2.6507145E-09
   32.52000     -3.5470138E-09
   32.58000     -4.4467336E-09
   32.64000     -5.3340163E-09
   32.70000     -6.1899139E-09
   32.76000     -6.9952915E-09
   32.82000     -7.7341129E-09
   32.88000     -8.3962330E-09
   32.94000     -8.9789136E-09
   33.00000     -9.4866319E-09
   33.06000     -9.9291011E-09
   33.12000     -1.0317956E-08
   33.18000     -1.0662971E-08
   33.24000     -1.0968996E-08
   33.30000     -1.1234710E-08
   33.36000     -1.1453764E-08
   33.42000     -1.1618025E-08
   33.48000     -1.1721776E-08
   33.54000     -1.1765211E-08
   33.60000     -1.1755737E-08
   33.66000     -1.1706404E-08
   33.72000     -1.1631955E-08
   33.78000     -1.1543966E-08
   33.84000     -1.1446917E-08
   33.90000     -1.1336684E-08
   33.96000     -1.1201926E-08
   34.02000     -1.1027742E-08
   34.08000     -1.0800181E-08
   34.14000     -1.0510006E-08
   34.20000     -1.0154571E-08
   34.26000     -9.7374793E-09
   34.32000     -9.2664969E-09
   34.38000     -8.7507139E-09
   34.44000     -8.1979801E-09
   34.50000     -7.6134272E-09
   34.56000     -6.9994019E-09
   34.62000     -6.3566667E-09
   34.68000     -5.6863962E-09
   34.74000     -4.9923066E-09
   34.80000     -4.2822110E-09
   34.86000     -3.5684433E-09
   34.92000     -2.8668485E-09
   34.98000     -2.1944413E-09
   35.04000     -1.5662659E-09
   35.10000     -9.9232833E-10
   35.16000     -4.7556475E-10
   35.22000     -1.1580732E-11
   35.28000      4.0963119E-10
   35.34000      8.0043067E-10
   35.40000      1.1716980E-09
   35.46000      1.5295986E-09
   35.52000      1.8738888E-09
   35.58000      2.1981676E-09
   35.64000      2.4918037E-09
   35.70000      2.7427598E-09
   35.76000      2.9403346E-09
   35.82000      3.0770120E-09
   35.88000      3.1490197E-09
   35.94000      3.1556893E-09
   36.00000      3.0980749E-09
   36.06000      2.9774621E-09
   36.12000      2.7943148E-09
   36.18000      2.5480056E-09
   36.24000      2.2373574E-09
   36.30000      1.8617838E-09
   36.36000      1.4226353E-09
   36.42000      9.2434754E-10
   36.48000      3.7507053E-10
   36.54000     -2.1336602E-10
   36.60000     -8.2612450E-10
   36.66000     -1.4465132E-09
   36.72000     -2.0574173E-09
   36.78000     -2.6427853E-09
   36.84000     -3.1889562E-09
   36.90000     -3.6855901E-09
   36.96000     -4.1259685E-09
   37.02000     -4.5065112E-09
   37.08000     -4.8255449E-09
   37.14000     -5.0816502E-09
   37.20000     -5.2721685E-09
   37.26000     -5.3924869E-09
   37.32000     -5.4365303E-09
   37.38000     -5.3983920E-09
   37.44000     -5.2745515E-09
   37.50000     -5.0657714E-09
   37.56000     -4.7778488E-09
   37.62000     -4.4208108E-09
   37.68000     -4.0067372E-09
   37.74000     -3.5469505E-09
   37.80000     -3.0495368E-09
   37.86000     -2.5180162E-09
   37.92000     -1.9515873E-09
   37.98000     -1.3468465E-09
   38.04000     -7.0044315E-10
   38.10000     -1.1868204E-11
   38.16000      7.1449546E-10
   38.22000      1.4687639E-09
   38.28000      2.2367213E-09
   38.34000      3.0025709E-09
   38.40000      3.7524974E-09
   38.46000      4.4778568E-09
   38.52000      5.1767968E-09
   38.58000      5.8535483E-09
   38.64000      6.5154655E-09
   38.70000      7.1687829E-09
   38.76000      7.8146263E-09
   38.82000      8.4467855E-09
   38.88000      9.0521084E-09
   38.94000      9.6133839E-09
   39.00000      1.0113675E-08
   39.06000      1.0540574E-08
   39.12000      1.0889003E-08
   39.18000      1.1161789E-08
   39.24000      1.1368053E-08
   39.30000      1.1520148E-08
   39.36000      1.1630229E-08
   39.42000      1.1707492E-08
   39.48000      1.1756734E-08
   39.54000      1.1778458E-08
   39.60000      1.1770176E-08
   39.66000      1.1728328E-08
   39.72000      1.1650092E-08
   39.78000      1.1534539E-08
   39.84000      1.1382867E-08
   39.90000      1.1197802E-08
   39.96000      1.0982448E-08
   40.02000      1.0739007E-08
   40.08000      1.0467734E-08
   40.14000      1.0166373E-08
   40.20000      9.8302539E-09
   40.26000      9.4531343E-09
   40.32000      9.0286800E-09
   40.38000      8.5523135E-09
   40.44000      8.0228677E-09
   40.50000      7.4433877E-09
   40.56000      6.8205641E-09
   40.62000      6.1627783E-09
   40.68000      5.4773683E-09
   40.74000      4.7681836E-09
   40.80000      4.0345052E-09
   40.86000      3.2718692E-09
   40.92000      2.4744731E-09
   40.98000      1.6381368E-09
   41.04000      7.6256251E-10
   41.10000     -1.4792306E-10
   41.16000     -1.0851537E-09
   41.22000     -2.0387219E-09
   41.28000     -2.9974154E-09
   41.34000     -3.9498458E-09
   41.40000     -4.8842650E-09
   41.46000     -5.7881029E-09
   41.52000     -6.6478898E-09
   41.58000     -7.4498856E-09
   41.64000     -8.1812468E-09
   41.70000     -8.8311918E-09
   41.76000     -9.3916679E-09
   41.82000     -9.8573123E-09
   41.88000     -1.0224898E-08
   41.94000     -1.0492619E-08
   42.00000     -1.0659532E-08
   42.06000     -1.0725261E-08
   42.12000     -1.0689968E-08
   42.18000     -1.0554569E-08
   42.24000     -1.0321271E-08
   42.30000     -9.9944346E-09
   42.36000     -9.5815418E-09
   42.42000     -9.0937160E-09
   42.48000     -8.5451530E-09
   42.54000     -7.9510913E-09
   42.60000     -7.3246418E-09
   42.66000     -6.6736026E-09
   42.72000     -5.9987015E-09
   42.78000     -5.2944045E-09
   42.84000     -4.5523683E-09
   42.90000     -3.7663961E-09
   42.96000     -2.9369152E-09
   43.02000     -2.0730455E-09
   43.08000     -1.1913076E-09
   43.14000     -3.1144101E-10
   43.20000      5.4894594E-10
   43.26000      1.3787089E-09
   43.32000      2.1747917E-09
   43.38000      2.9406311E-09
   43.44000      3.6821619E-09
   43.50000      4.4031481E-09
   43.56000      5.1017270E-09
   43.62000      5.7694862E-09
   43.68000      6.3933738E-09
   43.74000      6.9596755E-09
   43.80000      7.4585671E-09
   43.86000      7.8875511E-09
   43.92000      8.2524796E-09
   43.98000      8.5657099E-09
   44.04000      8.8418926E-09
   44.10000      9.0928003E-09
   44.16000      9.3229175E-09
   44.22000      9.5273647E-09
   44.28000      9.6929176E-09
   44.34000      9.8018633E-09
   44.40000      9.8374242E-09
   44.46000      9.7889457E-09
   44.52000      9.6551327E-09
   44.58000      9.4442623E-09
   44.64000      9.1713455E-09
   44.70000      8.8531955E-09
   44.76000      8.5030258E-09
   44.82000      8.1263822E-09
   44.88000      7.7197093E-09
   44.94000      7.2720865E-09
   45.00000      6.7695765E-09
   45.06000      6.2008025E-09
   45.12000      5.5619229E-09
   45.18000      4.8593178E-09
   45.24000      4.1090575E-09
   45.30000      3.3333092E-09
   45.36000      2.5549247E-09
   45.42000      1.7920895E-09
   45.48000      1.0548695E-09
   45.54000      3.4477132E-10
   45.60000     -3.4272390E-10
   45.66000     -1.0137744E-09
   45.72000     -1.6716829E-09
   45.78000     -2.3139590E-09
   45.84000     -2.9318974E-09
   45.90000     -3.5126313E-09
   45.96000     -4.0427182E-09
   46.02000     -4.5118522E-09
   46.08000     -4.9153912E-09
   46.14000     -5.2549147E-09
   46.20000     -5.5367875E-09
   46.26000     -5.7693619E-09
   46.32000     -5.9598522E-09
   46.38000     -6.1119216E-09
   46.44000     -6.2247296E-09
   46.50000     -6.2936532E-09
   46.56000     -6.3123666E-09
   46.62000     -6.2755414E-09
   46.68000     -6.1812875E-09
   46.74000     -6.0325838E-09
   46.80000     -5.8373235E-09
   46.86000     -5.6070348E-09
   46.92000     -5.3547384E-09
   46.98000     -5.0925819E-09
   47.04000     -4.8299023E-09
   47.10000     -4.5721520E-09
   47.16000     -4.3208632E-09
   47.22000     -4.0745278E-09
   47.28000     -3.8300505E-09
   47.34000     -3.5843022E-09
   47.40000     -3.3353096E-09
   47.46000     -3.0827545E-09
   47.52000     -2.8277469E-09
   47.58000     -2.5721147E-09
   47.64000     -2.3176778E-09
   47.70000     -2.0659470E-09
   47.76000     -1.8184538E-09
   47.82000     -1.5775081E-09
   47.88000     -1.3468817E-09
   47.94000     -1.1318712E-09
   48.00000     -9.3847696E-10
   48.06000     -7.7193879E-10
   48.12000     -6.3527500E-10
   48.18000     -5.2856114E-10
   48.24000     -4.4935811E-10
   48.30000     -3.9411535E-10
   48.36000     -3.5985590E-10
   48.42000     -3.4528710E-10
   48.48000     -3.5077094E-10
   48.54000     -3.7717285E-10
   48.60000     -4.2417436E-10
   48.66000     -4.8888527E-10
   48.72000     -5.6542471E-10
   48.78000     -6.4568323E-10
   48.84000     -7.2098033E-10
   48.90000     -7.8403040E-10
   48.96000     -8.3060814E-10
   49.02000     -8.6048968E-10
   49.08000     -8.7749269E-10
   49.14000     -8.8864127E-10
   49.20000     -9.0262642E-10
   49.26000     -9.2785446E-10
   49.32000     -9.7050556E-10
   49.38000     -1.0331265E-09
   49.44000     -1.1142359E-09
   49.50000     -1.2091876E-09
   49.56000     -1.3121145E-09
   49.62000     -1.4183433E-09
   49.68000     -1.5264136E-09
   49.74000     -1.6388972E-09
   49.80000     -1.7616236E-09
   49.86000     -1.9014874E-09
   49.92000     -2.0635575E-09
   49.98000     -2.2484841E-09
   50.04000     -2.4511202E-09
   50.10000     -2.6608897E-09
   50.16000     -2.8638421E-09
   50.22000     -3.0457714E-09
   50.28000     -3.1954128E-09
   50.34000     -3.3066530E-09
   50.40000     -3.3790279E-09
   50.46000     -3.4163337E-09
   50.52000     -3.4238474E-09
   50.58000     -3.4051404E-09
   50.64000     -3.3595997E-09
   50.70000     -3.2814618E-09
   50.76000     -3.1605691E-09
   50.82000     -2.9844087E-09
   50.88000     -2.7405633E-09
   50.94000     -2.4186444E-09
   51.00000     -2.0110560E-09
   51.06000     -1.5123868E-09
   51.12000     -9.1764490E-10
   51.18000     -2.1982176E-10
   51.24000      5.9260119E-10
   51.30000      1.5375881E-09
   51.36000      2.6403948E-09
   51.42000      3.9330064E-09
   51.48000      5.4522227E-09
   51.54000      7.2369426E-09
   51.60000      9.3256070E-09
   51.66000      1.1754861E-08
   51.72000      1.4560104E-08
   51.78000      1.7777827E-08
   51.84000      2.1448775E-08
   51.90000      2.5620540E-08
   51.96000      3.0348350E-08
   52.02000      3.5693663E-08
   52.08000      4.1721211E-08
   52.14000      4.8495686E-08
   52.20000      5.6079568E-08
   52.26000      6.4532685E-08
   52.32000      7.3913320E-08
   52.38000      8.4279954E-08
   52.44000      9.5692485E-08
   52.50000      1.0821213E-07
   52.56000      1.2189980E-07
   52.62000      1.3681341E-07
   52.68000      1.5300459E-07
   52.74000      1.7051551E-07
   52.80000      1.8937601E-07
   52.86000      2.0960120E-07
   52.92000      2.3118939E-07
   52.98000      2.5412044E-07
   53.04000      2.7835384E-07
   53.10000      3.0382654E-07
   53.16000      3.3044992E-07
   53.22000      3.5810626E-07
   53.28000      3.8664436E-07
   53.34000      4.1587487E-07
   53.40000      4.4556572E-07
   53.46000      4.7543799E-07
   53.52000      5.0516257E-07
   53.58000      5.3435730E-07
   53.64000      5.6258546E-07
   53.70000      5.8935461E-07
   53.76000      6.1411697E-07
   53.82000      6.3627095E-07
   53.88000      6.5516230E-07
   53.94000      6.7008671E-07
   54.00000      6.8029198E-07
   54.06000      6.8498110E-07
   54.12000      6.8331622E-07
   54.18000      6.7442397E-07
   54.24000      6.5740306E-07
   54.30000      6.3133274E-07
   54.36000      5.9528247E-07
   54.42000      5.4832202E-07
   54.48000      4.8953234E-07
   54.54000      4.1801800E-07
   54.60000      3.3292042E-07
   54.66000      2.3343364E-07
   54.72000      1.1882031E-07
   54.78000     -1.1571881E-08
   54.84000     -1.5829464E-07
   54.90000     -3.2178417E-07
   54.96000     -5.0234661E-07
   55.02000     -7.0014335E-07
   55.08000     -9.1517558E-07
   55.14000     -1.1472695E-06
   55.20000     -1.3960620E-06
   55.26000     -1.6609882E-06
   55.32000     -1.9412732E-06
   55.38000     -2.2359266E-06
   55.44000     -2.5437407E-06
   55.50000     -2.8632912E-06
   55.56000     -3.1929428E-06