  -2.400000      0.0000000E+00
  -2.340000      0.0000000E+00
  -2.280000      0.0000000E+00
  -2.220000      0.0000000E+00
  -2.160000      0.0000000E+00
  -2.100000      0.0000000E+00
  -2.040000      0.0000000E+00
  -1.980000      0.0000000E+00
  -1.920000     -1.0752562E-27
  -1.860000     -1.2139884E-26
  -1.800000     -6.7147255E-26
  -1.740000     -2.3479570E-25
  -1.680000     -5.4299480E-25
  -1.620000     -6.8477899E-25
  -1.560000      5.4559962E-25
  -1.500000      5.7532872E-24
  -1.440000      1.8364021E-23
  -1.380000      3.9401005E-23
  -1.320000      6.0583022E-23
  -1.260000      5.5313286E-23
  -1.200000     -2.6378897E-23
  -1.140000     -2.4924781E-22
  -1.080000     -6.6288903E-22
  -1.020000     -1.2522912E-21
 -0.9600000     -1.8793384E-21
 -0.9000000     -2.2144047E-21
 -0.8400000     -1.6189402E-21
 -0.7800000      1.0759085E-21
 -0.7200000      7.8148397E-21
 -0.6600000      2.1098238E-20
 -0.6000000      4.2235522E-20
 -0.5400000      6.6900610E-20
 -0.4800000      7.8241599E-20
 -0.4200000      4.1498007E-20
 -0.3600000     -9.1006107E-20
 -0.3000000     -3.5356830E-19
 -0.2400000     -7.1558888E-19
 -0.1800000     -1.0209521E-18
 -0.1200000     -9.6257612E-19
 -5.9999999E-02 -1.5433560E-19
  0.0000000E+00  1.6566227E-18
  5.9999999E-02  4.2686453E-18
  0.1200000      6.7420146E-18
  0.1800000      7.3941253E-18
  0.2400000      4.2971512E-18
  0.3000000     -3.6937080E-18
  0.3600000     -1.5699431E-17
  0.4200000     -2.8019228E-17
  0.4800000     -3.4516024E-17
  0.5400000     -2.8569200E-17
  0.6000000     -6.2119134E-18
  0.6600000      3.0774011E-17
  0.7200000      7.3436565E-17
  0.7800000      1.0709585E-16
  0.8400000      1.1559694E-16
  0.9000000      8.6879011E-17
  0.9600000      1.7624461E-17
   1.020000     -8.4687333E-17
   1.080000     -2.0238273E-16
   1.140000     -3.0940044E-16
   1.200000     -3.7283741E-16
   1.260000     -3.5476900E-16
   1.320000     -2.1768809E-16
   1.380000      6.2126174E-17
   1.440000      4.7234602E-16
   1.500000      9.4021102E-16
   1.560000      1.3212668E-15
   1.620000      1.4193242E-15
   1.680000      1.0474336E-15
   1.740000      1.1993795E-16
   1.800000     -1.2580382E-15
   1.860000     -2.7517142E-15
   1.920000     -3.8490448E-15
   1.980000     -4.0122566E-15
   2.040000     -2.8887089E-15
   2.100000     -5.0078589E-16
   2.160000      2.6749747E-15
   2.220000      5.7958352E-15
   2.280000      7.8969271E-15
   2.340000      8.2084498E-15
   2.400000      6.4223025E-15
   2.460000      2.7993221E-15
   2.520000     -1.9238179E-15
   2.580000     -6.7787848E-15
   2.640000     -1.0844218E-14
   2.700000     -1.3433833E-14
   2.760000     -1.4126676E-14
   2.820000     -1.2667654E-14
   2.880000     -8.8491683E-15
   2.940000     -2.5068810E-15
   3.000000      6.2945767E-15
   3.060000      1.6925848E-14
   3.120000      2.7866772E-14
   3.180000      3.6611417E-14
   3.240000      3.9987118E-14
   3.300000      3.4931666E-14
   3.360000      1.9578799E-14
   3.420000     -5.6718694E-15
   3.480000     -3.7502167E-14
   3.540000     -6.9776413E-14
   3.600000     -9.4529798E-14
   3.660000     -1.0369829E-13
   3.720000     -9.1186112E-14
   3.780000     -5.4730509E-14
   3.840000      2.9353243E-15
   3.900000      7.3917956E-14
   3.960000      1.4601921E-13
   4.020000      2.0440938E-13
   4.080000      2.3383777E-13
   4.140000      2.2117264E-13
   4.200000      1.5817871E-13
   4.260000      4.4437022E-14
   4.320000     -1.0993569E-13
   4.380000     -2.8257260E-13
   4.440000     -4.3939486E-13
   4.500000     -5.3870336E-13
   4.560000     -5.3946469E-13
   4.620000     -4.1299771E-13
   4.680000     -1.5542620E-13
   4.740000      2.0323768E-13
   4.800000      5.9779991E-13
   4.860000      9.3730308E-13
   4.920000      1.1248967E-12
   4.980000      1.0839669E-12
   5.040000      7.8316200E-13
   5.100000      2.5204285E-13
   5.160000     -4.1879185E-13
   5.220000     -1.0945545E-12
   5.280000     -1.6259342E-12
   5.340000     -1.8831655E-12
   5.400000     -1.7850077E-12
   5.460000     -1.3157016E-12
   5.520000     -5.2789717E-13
   5.580000      4.6566673E-13
   5.640000      1.5067395E-12
   5.700000      2.4088561E-12
   5.760000      2.9777441E-12
   5.820000      3.0386327E-12
   5.880000      2.4738657E-12
   5.940000      1.2684901E-12
   6.000000     -4.4782388E-13
   6.060000     -2.3823278E-12
   6.120000     -4.1050787E-12
   6.180000     -5.1302283E-12
   6.240000     -5.0441231E-12
   6.300000     -3.6486435E-12
   6.360000     -1.0721115E-12
   6.420000      2.1999264E-12
   6.480000      5.4019523E-12
   6.540000      7.6668446E-12
   6.600000      8.2608495E-12
   6.660000      6.8054334E-12
   6.720000      3.4148882E-12
   6.780000     -1.2965303E-12
   6.840000     -6.3416902E-12
   6.900000     -1.0581633E-11
   6.960000     -1.2971908E-11
   7.020000     -1.2763289E-11
   7.080000     -9.6093567E-12
   7.140000     -3.5714199E-12
   7.200000      4.9529963E-12
   7.260000      1.5332752E-11
   7.320000      2.6795458E-11
   7.380000      3.8490704E-11
   7.440000      4.9533704E-11
   7.500000      5.9057946E-11
   7.560000      6.6305461E-11
   7.620000      7.0762694E-11
   7.680000      7.2317381E-11
   7.740000      7.1383253E-11
   7.800000      6.8928190E-11
   7.860000      6.6358155E-11
   7.920000      6.5251166E-11
   7.980000      6.6990101E-11
   8.040000      7.2390267E-11
   8.100000      8.1437301E-11
   8.160000      9.3230014E-11
   8.220000      1.0616469E-10
   8.280000      1.1831841E-10
   8.340000      1.2791973E-10
   8.400000      1.3376172E-10
   8.460000      1.3543355E-10
   8.520000      1.3331432E-10
   8.580000      1.2836203E-10
   8.640000      1.2180286E-10
   8.700000      1.1484846E-10
   8.760000      1.0853372E-10
   8.820000      1.0368887E-10
   8.880000      1.0098176E-10
   8.940000      1.0092634E-10
   9.000000      1.0377895E-10
   9.060000      1.0932188E-10
   9.120000      1.1662706E-10
   9.180000      1.2394771E-10
   9.240000      1.2886819E-10
   9.300000      1.2874947E-10
   9.360000      1.2137845E-10
   9.420000      1.0562377E-10
   9.480000      8.1869816E-11
   9.540000      5.2065657E-11
   9.600000      1.9359344E-11
   9.660000     -1.2567189E-11
   9.720000     -4.0253259E-11
   9.780000     -6.1089099E-11
   9.840000     -7.3680000E-11
   9.900000     -7.7919136E-11
   9.960000     -7.4839891E-11
   10.02000     -6.6356851E-11
   10.08000     -5.4979511E-11
   10.14000     -4.3522776E-11
   10.20000     -3.4788665E-11
   10.26000     -3.1188434E-11
   10.32000     -3.4319280E-11
   10.38000     -4.4578143E-11
   10.44000     -6.0944555E-11
   10.50000     -8.1058715E-11
   10.56000     -1.0165005E-10
   10.62000     -1.1925726E-10
   10.68000     -1.3106760E-10
   10.74000     -1.3563850E-10
   10.80000     -1.3327853E-10
   10.86000     -1.2595847E-10
   10.92000     -1.1676823E-10
   10.98000     -1.0908043E-10
   11.04000     -1.0567794E-10
   11.10000     -1.0811086E-10
   11.16000     -1.1646267E-10
   11.22000     -1.2955466E-10
   11.28000     -1.4545659E-10
   11.34000     -1.6206556E-10
   11.40000     -1.7751085E-10
   11.46000     -1.9024682E-10
   11.52000     -1.9886275E-10
   11.58000     -2.0179518E-10
   11.64000     -1.9718943E-10
   11.70000     -1.8308949E-10
   11.76000     -1.5795995E-10
   11.82000     -1.2134499E-10
   11.88000     -7.4354148E-11
   11.94000     -1.9701745E-11
   12.00000      3.8782415E-11
   12.06000      9.6996376E-11
   12.12000      1.5139140E-10
   12.18000      1.9937955E-10
   12.24000      2.3909552E-10
   12.30000      2.6858105E-10
   12.36000      2.8474562E-10
   12.42000      2.8258254E-10
   12.48000      2.5502461E-10
   12.54000      1.9354578E-10
   12.60000      8.9293309E-11
   12.66000     -6.5671538E-11
   12.72000     -2.7744143E-10
   12.78000     -5.4984733E-10
   12.84000     -8.8447594E-10
   12.90000     -1.2808200E-09
   12.96000     -1.7362430E-09
   13.02000     -2.2456237E-09
   13.08000     -2.8008311E-09
   13.14000     -3.3903982E-09
   13.20000     -3.9997863E-09
   13.26000     -4.6124136E-09
   13.32000     -5.2112781E-09
   13.38000     -5.7807013E-09
   13.44000     -6.3076167E-09
   13.50000     -6.7820189E-09
   13.56000     -7.1965456E-09
   13.62000     -7.5455784E-09
   13.68000     -7.8244140E-09
   13.74000     -8.0290183E-09
   13.80000     -8.1564488E-09
   13.86000     -8.2056744E-09
   13.92000     -8.1781781E-09
   13.98000     -8.0777873E-09
   14.04000     -7.9094873E-09
   14.10000     -7.6775111E-09
   14.16000     -7.3834134E-09
   14.22000     -7.0249828E-09
   14.28000     -6.5966019E-09
   14.34000     -6.0911503E-09
   14.40000     -5.5029301E-09
   14.46000     -4.8306963E-09
   14.52000     -4.0798160E-09
   14.58000     -3.2629022E-09
   14.64000     -2.3988078E-09
   14.70000     -1.5104372E-09
   14.76000     -6.2216821E-10
   14.82000      2.4228003E-10
   14.88000      1.0609910E-09
   14.94000      1.8139310E-09
   15.00000      2.4823632E-09
   15.06000      3.0482885E-09
   15.12000      3.4946257E-09
   15.18000      3.8065435E-09
   15.24000      3.9738812E-09
   15.30000      3.9940473E-09
   15.36000      3.8744488E-09
   15.42000      3.6334229E-09
   15.48000      3.2990319E-09
   15.54000      2.9056608E-09
   15.60000      2.4890943E-09
   15.66000      2.0812645E-09
   15.72000      1.7059956E-09
   15.78000      1.3767762E-09
   15.84000      1.0969385E-09
   15.90000      8.6190194E-10
   15.96000      6.6258976E-10
   16.02000      4.8892734E-10
   16.08000      3.3250372E-10
   16.14000      1.8789843E-10
   16.20000      5.2647147E-11
   16.26000     -7.3816266E-11
   16.32000     -1.9171953E-10
   16.38000     -3.0247010E-10
   16.44000     -4.0966874E-10
   16.50000     -5.1929228E-10
   16.56000     -6.3890887E-10
   16.62000     -7.7603529E-10
   16.68000     -9.3603481E-10
   16.74000     -1.1201982E-09
   16.80000     -1.3247338E-09
   16.86000     -1.5412156E-09
   16.92000     -1.7585913E-09
   16.98000     -1.9662814E-09
   17.04000     -2.1574009E-09
   17.10000     -2.3309508E-09
   17.16000     -2.4920721E-09
   17.22000     -2.6500708E-09
   17.28000     -2.8147049E-09
   17.34000     -2.9918898E-09
   17.40000     -3.1802518E-09
   17.46000     -3.3697456E-09
   17.52000     -3.5429024E-09
   17.58000     -3.6784209E-09
   17.64000     -3.7560262E-09
   17.70000     -3.7611221E-09
   17.76000     -3.6878296E-09
   17.82000     -3.5395822E-09
   17.88000     -3.3272742E-09
   17.94000     -3.0657896E-09
   18.00000     -2.7702314E-09
   18.06000     -2.4531770E-09
   18.12000     -2.1237927E-09
   18.18000     -1.7888653E-09
   18.24000     -1.4550450E-09
   18.30000     -1.1311497E-09
   18.36000     -8.2940815E-10
   18.42000     -5.6499422E-10
   18.48000     -3.5390904E-10
   18.54000     -2.0992069E-10
   18.60000     -1.4163583E-10
   18.66000     -1.5073096E-10
   18.72000     -2.3196356E-10
   18.78000     -3.7497525E-10
   18.84000     -5.6731181E-10
   18.90000     -7.9769968E-10
   18.96000     -1.0585549E-09
   19.02000     -1.3469516E-09
   19.08000     -1.6637710E-09
   19.14000     -2.0113040E-09
   19.20000     -2.3900411E-09
   19.26000     -2.7955980E-09
   19.32000     -3.2166609E-09
   19.38000     -3.6345198E-09
   19.44000     -4.0243520E-09
   19.50000     -4.3580126E-09
   19.56000     -4.6078088E-09
   19.62000     -4.7505915E-09
   19.68000     -4.7714326E-09
   19.74000     -4.6662074E-09
   19.80000     -4.4425086E-09
   19.86000     -4.1185890E-09
   19.92000     -3.7204311E-09
   19.98000     -3.2775391E-09
   20.04000     -2.8184608E-09
   20.10000     -2.3671749E-09
   20.16000     -1.9412227E-09
   20.22000     -1.5518549E-09
   20.28000     -1.2057484E-09
   20.34000     -9.0730984E-10
   20.40000     -6.6047390E-10
   20.46000     -4.6924536E-10
   20.52000     -3.3685757E-10
   20.58000     -2.6403280E-10
   20.64000     -2.4718902E-10
   20.70000     -2.7742805E-10
   20.76000     -3.4083716E-10
   20.82000     -4.2019713E-10
   20.88000     -4.9777094E-10
   20.94000     -5.5854232E-10
   21.00000     -5.9310407E-10
   21.06000     -5.9938493E-10
   21.12000     -5.8257388E-10
   21.18000     -5.5298799E-10
   21.24000     -5.2219701E-10
   21.30000     -4.9832205E-10
   21.36000     -4.8184756E-10
   21.42000     -4.6330773E-10
   21.48000     -4.2375001E-10
   21.54000     -3.3806186E-10
   21.60000     -1.8034249E-10
   21.66000      7.0162549E-11
   21.72000      4.2424278E-10
   21.78000      8.8038166E-10
   21.84000      1.4255430E-09
   21.90000      2.0388558E-09
   21.96000      2.6971563E-09
   22.02000      3.3808103E-09
   22.08000      4.0781054E-09
   22.14000      4.7868567E-09
   22.20000      5.5126628E-09
   22.26000      6.2643002E-09
   22.32000      7.0477642E-09
   22.38000      7.8610523E-09
   22.44000      8.6916803E-09
   22.50000      9.5180495E-09
   22.56000      1.0314437E-08
   22.62000      1.1057985E-08
   22.68000      1.1735216E-08
   22.74000      1.2345644E-08
   22.80000      1.2900907E-08
   22.86000      1.3419455E-08
   22.92000      1.3918289E-08
   22.98000      1.4404462E-08
   23.04000      1.4869252E-08
   23.10000      1.5287236E-08
   23.16000      1.5621010E-08
   23.22000      1.5830425E-08
   23.28000      1.5883671E-08
   23.34000      1.5766627E-08
   23.40000      1.5487288E-08
   23.46000      1.5073569E-08
   23.52000      1.4564970E-08
   23.58000      1.4000775E-08
   23.64000      1.3408751E-08
   23.70000      1.2798229E-08
   23.76000      1.2159928E-08
   23.82000      1.1472455E-08
   23.88000      1.0713071E-08
   23.94000      9.8687716E-09
   24.00000      8.9436574E-09
   24.06000      7.9599483E-09
   24.12000      6.9521646E-09
   24.18000      5.9563954E-09
   24.24000      4.9982516E-09
   24.30000      4.0836281E-09
   24.36000      3.1955432E-09
   24.42000      2.2984274E-09
   24.48000      1.3487753E-09
   24.54000      3.0890657E-10
   24.60000     -8.4059792E-10
   24.66000     -2.0939415E-09
   24.72000     -3.4210568E-09
   24.78000     -4.7762305E-09
   24.84000     -6.1115388E-09
   24.90000     -7.3905619E-09
   24.96000     -8.5977465E-09
   25.02000     -9.7403348E-09
   25.08000     -1.0842346E-08
   25.14000     -1.1932829E-08
   25.20000     -1.3032456E-08
   25.26000     -1.4143012E-08
   25.32000     -1.5243343E-08
   25.38000     -1.6293145E-08
   25.44000     -1.7243465E-08
   25.50000     -1.8050610E-08
   25.56000     -1.8688983E-08
   25.62000     -1.9158664E-08
   25.68000     -1.9485134E-08
   25.74000     -1.9711083E-08
   25.80000     -1.9882890E-08
   25.86000     -2.0036200E-08
   25.92000     -2.0185370E-08
   25.98000     -2.0320256E-08
   26.04000     -2.0411290E-08
   26.10000     -2.0420950E-08
   26.16000     -2.0317584E-08
   26.22000     -2.0086913E-08
   26.28000     -1.9737417E-08
   26.34000     -1.9297936E-08
   26.40000     -1.8808477E-08
   26.46000     -1.8307281E-08
   26.52000     -1.7818428E-08
   26.58000     -1.7343973E-08
   26.64000     -1.6863305E-08
   26.70000     -1.6340026E-08
   26.76000     -1.5734340E-08
   26.82000     -1.5016994E-08
   26.88000     -1.4180203E-08
   26.94000     -1.3241864E-08
   27.00000     -1.2241514E-08
   27.06000     -1.1229311E-08
   27.12000     -1.0251683E-08
   27.18000     -9.3384482E-09
   27.24000     -8.4955918E-09
   27.30000     -7.7059434E-09
   27.36000     -6.9372983E-09
   27.42000     -6.1550978E-09
   27.48000     -5.3354934E-09
   27.54000     -4.4745927E-09
   27.60000     -3.5910379E-09
   27.66000     -2.7211626E-09
   27.72000     -1.9083184E-09
   27.78000     -1.1898352E-09
   27.84000     -5.8595517E-10
   27.90000     -9.4586033E-11
   27.96000      3.0609790E-10
   28.02000      6.4787053E-10
   28.08000      9.5877817E-10
   28.14000      1.2504393E-09
   28.20000      1.5109841E-09
   28.26000      1.7062940E-09
   28.32000      1.7891477E-09
   28.38000      1.7129882E-09
   28.44000      1.4454503E-09
   28.50000      9.7709096E-10
   28.56000      3.2269792E-10
   28.62000     -4.8475290E-10
   28.68000     -1.4050129E-09
   28.74000     -2.4025413E-09
   28.80000     -3.4557470E-09
   28.86000     -4.5608313E-09
   28.92000     -5.7293774E-09
   28.98000     -6.9807649E-09
   29.04000     -8.3320710E-09
   29.10000     -9.7889146E-09
   29.16000     -1.1340447E-08
   29.22000     -1.2960380E-08
   29.28000     -1.4613781E-08
   29.34000     -1.6267276E-08
   29.40000     -1.7898873E-08
   29.46000     -1.9503711E-08
   29.52000     -2.1093442E-08
   29.58000     -2.2689452E-08
   29.64000     -2.4312335E-08
   29.70000     -2.5971394E-08
   29.76000     -2.7657803E-08
   29.82000     -2.9343701E-08
   29.88000     -3.0987387E-08
   29.94000     -3.2542903E-08
   30.00000     -3.3970942E-08
   30.06000     -3.5247691E-08
   30.12000     -3.6368814E-08
   30.18000     -3.7347142E-08
   30.24000     -3.8204657E-08
   30.30000     -3.8961222E-08
   30.36000     -3.9623810E-08
   30.42000     -4.0180275E-08
   30.48000     -4.0600103E-08
   30.54000     -4.0842288E-08
   30.60000     -4.0867583E-08
   30.66000     -4.0650736E-08
   30.72000     -4.0188112E-08
   30.78000     -3.9498062E-08
   30.84000     -3.8614036E-08
   30.90000     -3.7573223E-08
   30.96000     -3.6404934E-08
   31.02000     -3.5122586E-08
   31.08000     -3.3721722E-08
   31.14000     -3.2184253E-08
   31.20000     -3.0487175E-08
   31.26000     -2.8612876E-08
   31.32000     -2.6557853E-08
   31.38000     -2.4337202E-08
   31.44000     -2.1983416E-08
   31.50000     -1.9539629E-08
   31.56000     -1.7049281E-08
   31.62000     -1.4545392E-08
   31.68000     -1.2043173E-08
   31.74000     -9.5387520E-09
   31.80000     -7.0147306E-09
   31.86000     -4.4507322E-09
   31.92000     -1.8351561E-09
   31.98000      8.2623008E-10
   32.04000      3.5080399E-09
   32.10000      6.1701697E-09
   32.16000      8.7680094E-09
   32.22000      1.1264276E-08
   32.28000      1.3638343E-08
   32.34000      1.5889963E-08
   32.40000      1.8036241E-08
   32.46000      2.0102947E-08
   32.52000      2.2113058E-08
   32.58000      2.4076257E-08
   32.64000      2.5982853E-08
   32.70000      2.7804203E-08
   32.76000      2.9499581E-08
   32.82000      3.1027167E-08
   32.88000      3.2355334E-08
   32.94000      3.3470101E-08
   33.00000      3.4376029E-08
   33.06000      3.5090174E-08
   33.12000      3.5631533E-08
   33.18000      3.6009919E-08
   33.24000      3.6218573E-08
   33.30000      3.6233221E-08
   33.36000      3.6017873E-08
   33.42000      3.5535283E-08
   33.48000      3.4758504E-08
   33.54000      3.3679711E-08
   33.60000      3.2313736E-08
   33.66000      3.0695247E-08
   33.72000      2.8870751E-08
   33.78000      2.6887752E-08
   33.84000      2.4784471E-08
   33.90000      2.2583102E-08
   33.96000      2.0288693E-08
   34.02000      1.7893941E-08
   34.08000      1.5388311E-08
   34.14000      1.2768474E-08
   34.20000      1.0046558E-08
   34.26000      7.2534050E-09
   34.32000      4.4357558E-09
   34.38000      1.6483060E-09
   34.44000     -1.0566996E-09
   34.50000     -3.6389622E-09
   34.56000     -6.0757555E-09
   34.62000     -8.3621083E-09
   34.68000     -1.0505770E-08
   34.74000     -1.2518844E-08
   34.80000     -1.4408937E-08
   34.86000     -1.6172796E-08
   34.92000     -1.7794482E-08
   34.98000     -1.9248684E-08
   35.04000     -2.0508047E-08
   35.10000     -2.1552037E-08
   35.16000     -2.2374444E-08
   35.22000     -2.2987026E-08
   35.28000     -2.3418160E-08
   35.34000     -2.3706926E-08
   35.40000     -2.3894414E-08
   35.46000     -2.4014637E-08
   35.52000     -2.4087464E-08
   35.58000     -2.4115142E-08
   35.64000     -2.4083185E-08
   35.70000     -2.3965356E-08
   35.76000     -2.3731559E-08
   35.82000     -2.3356838E-08
   35.88000     -2.2829145E-08
   35.94000     -2.2153753E-08
   36.00000     -2.1352829E-08
   36.06000     -2.0460137E-08
   36.12000     -1.9512319E-08
   36.18000     -1.8539465E-08
   36.24000     -1.7558003E-08
   36.30000     -1.6568100E-08
   36.36000     -1.5556328E-08
   36.42000     -1.4502585E-08
   36.48000     -1.3388996E-08
   36.54000     -1.2208090E-08
   36.60000     -1.0967883E-08
   36.66000     -9.6924442E-09
   36.72000     -8.4176843E-09
   36.78000     -7.1834090E-09
   36.84000     -6.0237157E-09
   36.90000     -4.9586095E-09
   36.96000     -3.9896682E-09
   37.02000     -3.1017058E-09
   37.08000     -2.2704960E-09
   37.14000     -1.4744228E-09
   37.20000     -7.0613509E-10
   37.26000      2.0140658E-11
   37.32000      6.6872646E-10
   37.38000      1.1905582E-09
   37.44000      1.5367583E-09
   37.50000      1.6731825E-09
   37.56000      1.5909847E-09
   37.62000      1.3095964E-09
   37.68000      8.7111790E-10
   37.74000      3.2794806E-10
   37.80000     -2.7236452E-10
   37.86000     -9.0022451E-10
   37.92000     -1.5508879E-09
   37.98000     -2.2429236E-09
   38.04000     -3.0086804E-09
   38.10000     -3.8798347E-09
   38.16000     -4.8728808E-09
   38.22000     -5.9796372E-09
   38.28000     -7.1662680E-09
   38.34000     -8.3813649E-09
   38.40000     -9.5703365E-09
   38.46000     -1.0690964E-08
   38.52000     -1.1724558E-08
   38.58000     -1.2678815E-08
   38.64000     -1.3581547E-08
   38.70000     -1.4467786E-08
   38.76000     -1.5364938E-08
   38.82000     -1.6281028E-08
   38.88000     -1.7199810E-08
   38.94000     -1.8084066E-08
   39.00000     -1.8885830E-08
   39.06000     -1.9560321E-08
   39.12000     -2.0079286E-08
   39.18000     -2.0439741E-08
   39.24000     -2.0665327E-08
   39.30000     -2.0799702E-08
   39.36000     -2.0893896E-08
   39.42000     -2.0991628E-08
   39.48000     -2.1117417E-08
   39.54000     -2.1271536E-08
   39.60000     -2.1433401E-08
   39.66000     -2.1571999E-08
   39.72000     -2.1659330E-08
   39.78000     -2.1681911E-08
   39.84000     -2.1646395E-08
   39.90000     -2.1577788E-08
   39.96000     -2.1511536E-08
   40.02000     -2.1482771E-08
   40.08000     -2.1516620E-08
   40.14000     -2.1622540E-08
   40.20000     -2.1793992E-08
   40.26000     -2.2012800E-08
   40.32000     -2.2256241E-08
   40.38000     -2.2504308E-08
   40.44000     -2.2744802E-08
   40.50000     -2.2974850E-08
   40.56000     -2.3198750E-08
   40.62000     -2.3423249E-08
   40.68000     -2.3652273E-08
   40.74000     -2.3883114E-08
   40.80000     -2.4105328E-08
   40.86000     -2.4302354E-08
   40.92000     -2.4454653E-08
   40.98000     -2.4542800E-08
   41.04000     -2.4549259E-08
   41.10000     -2.4458695E-08
   41.16000     -2.4257570E-08
   41.22000     -2.3934135E-08
   41.28000     -2.3479446E-08
   41.34000     -2.2889104E-08
   41.40000     -2.2164610E-08
   41.46000     -2.1313195E-08
   41.52000     -2.0345587E-08
   41.58000     -1.9272258E-08
   41.64000     -1.8099557E-08
   41.70000     -1.6827205E-08
   41.76000     -1.5448244E-08
   41.82000     -1.3951604E-08
   41.88000     -1.2326598E-08
   41.94000     -1.0568075E-08
   42.00000     -8.6808321E-09
   42.06000     -6.6818586E-09
   42.12000     -4.5994546E-09
   42.18000     -2.4688882E-09
   42.24000     -3.2530847E-10
   42.30000      1.8042414E-09
   42.36000      3.9070929E-09
   42.42000      5.9869505E-09
   42.48000      8.0602671E-09
   42.54000      1.0147659E-08
   42.60000      1.2263095E-08
   42.66000      1.4404808E-08
   42.72000      1.6551548E-08
   42.78000      1.8666023E-08
   42.84000      2.0704716E-08
   42.90000      2.2630854E-08
   42.96000      2.4425969E-08
   43.02000      2.6095778E-08
   43.08000      2.7667854E-08
   43.14000      2.9181196E-08
   43.20000      3.0670691E-08
   43.26000      3.2151327E-08
   43.32000      3.3607741E-08
   43.38000      3.4993278E-08
   43.44000      3.6240017E-08
   43.50000      3.7277321E-08
   43.56000      3.8053152E-08
   43.62000      3.8550816E-08
   43.68000      3.8794891E-08
   43.74000      3.8843456E-08
   43.80000      3.8768924E-08
   43.86000      3.8633935E-08
   43.92000      3.8471065E-08
   43.98000      3.8273676E-08
   44.04000      3.8001410E-08
   44.10000      3.7598383E-08
   44.16000      3.7017422E-08
   44.22000      3.6241605E-08
   44.28000      3.5295216E-08
   44.34000      3.4239996E-08
   44.40000      3.3157654E-08
   44.46000      3.2124436E-08
   44.52000      3.1186254E-08
   44.58000      3.0342949E-08
   44.64000      2.9547218E-08
   44.70000      2.8719061E-08
   44.76000      2.7771199E-08
   44.82000      2.6637219E-08
   44.88000      2.5293101E-08
   44.94000      2.3764880E-08
   45.00000      2.2119965E-08
   45.06000      2.0445135E-08
   45.12000      1.8818778E-08
   45.18000      1.7286801E-08
   45.24000      1.5850210E-08
   45.30000      1.4468264E-08
   45.36000      1.3075799E-08
   45.42000      1.1608609E-08
   45.48000      1.0028250E-08
   45.54000      8.3379357E-09
   45.60000      6.5842642E-09
   45.66000      4.8442490E-09
   45.72000      3.2020093E-09
   45.78000      1.7229761E-09
   45.84000      4.3437362E-10
   45.90000     -6.8129163E-10
   45.96000     -1.6774003E-09
   46.02000     -2.6219946E-09
   46.08000     -3.5714587E-09
   46.14000     -4.5482351E-09
   46.20000     -5.5303233E-09
   46.26000     -6.4561898E-09
   46.32000     -7.2433473E-09
   46.38000     -7.8142000E-09
   46.44000     -8.1203790E-09
   46.50000     -8.1575093E-09
   46.56000     -7.9657738E-09
   46.62000     -7.6164639E-09
   46.68000     -7.1893362E-09
   46.74000     -6.7484227E-09
   46.80000     -6.3241510E-09
   46.86000     -5.9072454E-09
   46.92000     -5.4557248E-09
   46.98000     -4.9119020E-09
   47.04000     -4.2230917E-09
   47.10000     -3.3588829E-09
   47.16000     -2.3195295E-09
   47.22000     -1.1335088E-09
   47.28000      1.5376543E-10
   47.34000      1.4952658E-09
   47.40000      2.8560920E-09
   47.46000      4.2213171E-09
   47.52000      5.5962484E-09
   47.58000      7.0001769E-09
   47.64000      8.4565768E-09
   47.70000      9.9832622E-09
   47.76000      1.1585383E-08
   47.82000      1.3252788E-08
   47.88000      1.4961859E-08
   47.94000      1.6680717E-08
   48.00000      1.8375939E-08
   48.06000      2.0018712E-08
   48.12000      2.1588702E-08
   48.18000      2.3074785E-08
   48.24000      2.4472930E-08
   48.30000      2.5782557E-08
   48.36000      2.7003090E-08
   48.42000      2.8132016E-08
   48.48000      2.9164788E-08
   48.54000      3.0095844E-08
   48.60000      3.0919495E-08
   48.66000      3.1629835E-08
   48.72000      3.2219749E-08
   48.78000      3.2679967E-08
   48.84000      3.2999466E-08
   48.90000      3.3167868E-08
   48.96000      3.3179322E-08
   49.02000      3.3036393E-08
   49.08000      3.2751988E-08
   49.14000      3.2348115E-08
   49.20000      3.1851275E-08
   49.26000      3.1285666E-08
   49.32000      3.0666229E-08
   49.38000      2.9993760E-08
   49.44000      2.9253851E-08
   49.50000      2.8420448E-08
   49.56000      2.7463555E-08
   49.62000      2.6359199E-08
   49.68000      2.5098771E-08
   49.74000      2.3694446E-08
   49.80000      2.2178389E-08
   49.86000      2.0595211E-08
   49.92000      1.8989819E-08
   49.98000      1.7394706E-08
   50.04000      1.5821351E-08
   50.10000      1.4259064E-08
   50.16000      1.2681811E-08
   50.22000      1.1060475E-08
   50.28000      9.3759960E-09
   50.34000      7.6286044E-09
   50.40000      5.8400631E-09
   50.46000      4.0484451E-09
   50.52000      2.2975541E-09
   50.58000      6.2458616E-10
   50.64000     -9.5010955E-10
   50.70000     -2.4282025E-09
   50.76000     -3.8320325E-09
   50.82000     -5.1970277E-09
   50.88000     -6.5598611E-09
   50.94000     -7.9456024E-09
   51.00000     -9.3577457E-09
   51.06000     -1.0774519E-08
   51.12000     -1.2153255E-08
   51.18000     -1.3442060E-08
   51.24000     -1.4595408E-08
   51.30000     -1.5588666E-08
   51.36000     -1.6426599E-08
   51.42000     -1.7142829E-08
   51.48000     -1.7790308E-08
   51.54000     -1.8425938E-08
   51.60000     -1.9094490E-08
   51.66000     -1.9817092E-08
   51.72000     -2.0587951E-08
   51.78000     -2.1380208E-08
   51.84000     -2.2158888E-08
   51.90000     -2.2896662E-08
   51.96000     -2.3587283E-08
   52.02000     -2.4252310E-08
   52.08000     -2.4938871E-08
   52.14000     -2.5709076E-08
   52.20000     -2.6624530E-08
   52.26000     -2.7731128E-08
   52.32000     -2.9049261E-08
   52.38000     -3.0572803E-08
   52.44000     -3.2277129E-08
   52.50000     -3.4133194E-08
   52.56000     -3.6122714E-08
   52.62000     -3.8249087E-08
   52.68000     -4.0540524E-08
   52.74000     -4.3044505E-08
   52.80000     -4.5815650E-08
   52.86000     -4.8900944E-08
   52.92000     -5.2326694E-08
   52.98000     -5.6090592E-08
   53.04000     -6.0160673E-08
   53.10000     -6.4480631E-08
   53.16000     -6.8979631E-08
   53.22000     -7.3583337E-08
   53.28000     -7.8222783E-08
   53.34000     -8.2838241E-08
   53.40000     -8.7376584E-08
   53.46000     -9.1782724E-08
   53.52000     -9.5987843E-08
   53.58000     -9.9898180E-08
   53.64000     -1.0338834E-07
   53.70000     -1.0630134E-07
   53.76000     -1.0845493E-07
   53.82000     -1.0965192E-07
   53.88000     -1.0969006E-07
   53.94000     -1.0836851E-07
   54.00000     -1.0548915E-07
   54.06000     -1.0085331E-07
   54.12000     -9.4256634E-08
   54.18000     -8.5484444E-08
   54.24000     -7.4309760E-08
   54.30000     -6.0494209E-08
   54.36000     -4.3791481E-08
   54.42000     -2.3952479E-08
   54.48000     -7.3164014E-10
   54.54000      2.6105644E-08
   54.60000      5.6774841E-08
   54.66000      9.1463875E-08
   54.72000      1.3032559E-07
   54.78000      1.7347222E-07
   54.84000      2.2097204E-07
   54.90000      2.7284835E-07
   54.96000      3.2907920E-07
   55.02000      3.8959655E-07
   55.08000      4.5428473E-07
   55.14000      5.2297702E-07
   55.20000      5.9545107E-07
   55.26000      6.7142315E-07
   55.32000      7.5054191E-07
   55.38000      8.3238280E-07
   55.44000      9.1644341E-07
   55.50000      1.0021423E-06
   55.56000      1.0888226E-06