 -0.750000000       0.00000000    
 -0.689999998       0.00000000    
 -0.629999995       0.00000000    
 -0.569999993       0.00000000    
 -0.509999990       0.00000000    
 -0.449999988       0.00000000    
 -0.389999986       0.00000000    
 -0.330000013       0.00000000    
 -0.270000011      -2.18933014E-26
 -0.209999993      -2.28434545E-25
 -0.150000006      -1.09994317E-24
  -9.00000036E-02  -2.91284444E-24
  -2.99999993E-02  -2.73140564E-24
   2.99999993E-02   1.14848342E-23
   9.00000036E-02   6.17595732E-23
  0.150000006       1.54389520E-22
  0.209999993       2.06868991E-22
  0.270000011      -4.11739733E-23
  0.330000013      -9.84721361E-22
  0.389999986      -2.73323799E-21
  0.449999988      -4.21247987E-21
  0.509999990      -2.28754153E-21
  0.569999993       7.67222701E-21
  0.629999995       2.79651703E-20
  0.689999998       5.11472268E-20
  0.750000000       5.29178716E-20
  0.810000002      -5.52837438E-21
  0.870000005      -1.55090588E-19
  0.930000007      -3.74495605E-19
  0.990000010      -5.43464073E-19
   1.04999995      -4.37022679E-19
   1.11000001       1.88842891E-19
   1.16999996       1.40490465E-18
   1.23000002       2.87527092E-18
   1.28999996       3.74069974E-18
   1.35000002       2.80907351E-18
   1.40999997      -8.55464089E-19
   1.47000003      -7.09318294E-18
   1.52999997      -1.39883173E-17
   1.59000003      -1.79447933E-17
   1.64999998      -1.48515299E-17
   1.71000004      -2.13915979E-18
   1.76999998       1.91270098E-17
   1.83000004       4.33095126E-17
   1.88999999       6.12688842E-17
   1.95000005       6.33031397E-17
   2.00999999       4.27072755E-17
   2.06999993      -1.73042348E-18
   2.13000011      -6.52330381E-17
   2.19000006      -1.37886905E-16
   2.25000000      -2.04968474E-16
   2.30999994      -2.45430417E-16
   2.36999989      -2.29959466E-16
   2.43000007      -1.23430700E-16
   2.49000001       1.02374500E-16
   2.54999995       4.44041485E-16
   2.60999990       8.37357290E-16
   2.67000008       1.14152989E-15
   2.73000002       1.15837441E-15
   2.78999996       6.98763747E-16
   2.84999990      -3.14216427E-16
   2.91000009      -1.74390468E-15
   2.97000003      -3.19657275E-15
   3.02999997      -4.08426116E-15
   3.08999991      -3.80486268E-15
   3.15000010      -1.99447375E-15
   3.21000004       1.24180472E-15
   3.26999998       5.22852940E-15
   3.32999992       8.82056828E-15
   3.39000010       1.07027873E-14
   3.45000005       9.80210074E-15
   3.50999999       5.67315859E-15
   3.56999993      -1.27495558E-15
   3.63000011      -9.78209890E-15
   3.69000006      -1.79567935E-14
   3.75000000      -2.36350551E-14
   3.80999994      -2.47891222E-14
   3.86999989      -1.99332009E-14
   3.93000007      -8.52017143E-15
   3.99000001       8.66884689E-15
   4.05000019       2.91983438E-14
   4.11000013       4.88752207E-14
   4.17000008       6.21068138E-14
   4.23000002       6.29259963E-14
   4.28999996       4.66936873E-14
   4.34999990       1.21596289E-14
   4.40999985      -3.67800984E-14
   4.46999979      -9.04663307E-14
   4.53000021      -1.34692062E-13
   4.59000015      -1.53925890E-13
   4.65000010      -1.35958099E-13
   4.71000004      -7.66496309E-14
   4.76999998       1.69069233E-14
   4.82999992       1.26268516E-13
   4.88999987       2.25149421E-13
   4.94999981       2.85899559E-13
   5.01000023       2.87150485E-13
   5.07000017       2.20265958E-13
   5.13000011       9.25409516E-14
   5.19000006      -7.38170443E-14
   5.25000000      -2.46461272E-13
   5.30999994      -3.89817464E-13
   5.36999989      -4.72123263E-13
   5.42999983      -4.71046325E-13
   5.48999977      -3.77298263E-13
   5.55000019      -1.96519531E-13
   5.61000013       5.00679718E-14
   5.67000008       3.26256546E-13
   5.73000002       5.83542437E-13
   5.78999996       7.67161020E-13
   5.84999990       8.26093425E-13
   5.90999985       7.25969523E-13
   5.96999979       4.61687654E-13
   6.03000021       6.51968984E-14
   6.09000015      -3.95728264E-13
   6.15000010      -8.29460361E-13
   6.21000004      -1.14121169E-12
   6.26999998      -1.25683426E-12
   6.32999992      -1.14235433E-12
   6.38999987      -8.12881229E-13
   6.44999981      -3.28087546E-13
   6.51000023       2.23854626E-13
   6.57000017       7.48103240E-13
   6.63000011       1.16346819E-12
   6.69000006       1.41537216E-12
   6.75000000       1.47915903E-12
   6.80999994       1.35549482E-12
   6.86999989       1.06235051E-12
   6.92999983       6.28422770E-13
   6.98999977       9.09023833E-14
   7.05000019      -5.02674128E-13
   7.11000013      -1.09159036E-12
   7.17000008      -1.60239020E-12
   7.23000002      -1.95580162E-12
   7.28999996      -2.08054385E-12
   7.34999990      -1.93101156E-12
   7.40999985      -1.50328914E-12
   7.46999979      -8.43321723E-13
   7.53000021      -4.27957976E-14
   7.59000015       7.78180417E-13
   7.65000010       1.49829411E-12
   7.71000004       2.02541196E-12
   7.76999998       2.32198896E-12
   7.82999992       2.41849141E-12
   7.88999987       2.41112013E-12
   7.94999981       2.44442942E-12
   8.01000023       2.68321151E-12
   8.06999969       3.28008974E-12
   8.13000011       4.34522427E-12
   8.18999958       5.92300818E-12
   8.25000000       7.97880598E-12
   8.31000042       1.03976810E-11
   8.36999989       1.29968024E-11
   8.43000031       1.55529496E-11
   8.48999977       1.78447552E-11
   8.55000019       1.97053415E-11
   8.60999966       2.10755077E-11
   8.67000008       2.20430757E-11
   8.72999954       2.28536599E-11
   8.78999996       2.38834993E-11
   8.85000038       2.55756787E-11
   8.90999985       2.83526692E-11
   8.97000027       3.25257911E-11
   9.02999973       3.82222552E-11
   9.09000015       4.53427296E-11
   9.14999962       5.35517360E-11
   9.21000004       6.22952523E-11
   9.27000046       7.08393344E-11
   9.32999992       7.83287255E-11
   9.39000034       8.38705563E-11
   9.44999981       8.66463012E-11
   9.51000023       8.60436583E-11
   9.56999969       8.17814982E-11
   9.63000011       7.39870318E-11
   9.68999958       6.31874900E-11
   9.75000000       5.02025331E-11
   9.81000042       3.59617371E-11
   9.86999989       2.13069441E-11
   9.93000031       6.85019663E-12
   9.98999977      -7.06370856E-12
   10.0500002      -2.02894316E-11
   10.1099997      -3.27592779E-11
   10.1700001      -4.43857173E-11
   10.2299995      -5.50518658E-11
   10.2900000      -6.47018897E-11
   10.3500004      -7.34803260E-11
   10.4099998      -8.18298485E-11
   10.4700003      -9.04659403E-11
   10.5299997      -1.00202437E-10
   10.5900002      -1.11678652E-10
   10.6499996      -1.25095143E-10
   10.7100000      -1.40071260E-10
   10.7700005      -1.55687629E-10
   10.8299999      -1.70695805E-10
   10.8900003      -1.83807580E-10
   10.9499998      -1.93951952E-10
   11.0100002      -2.00419514E-10
   11.0699997      -2.02880643E-10
   11.1300001      -2.01325692E-10
   11.1899996      -1.95999578E-10
   11.2500000      -1.87378765E-10
   11.3100004      -1.76185830E-10
   11.3699999      -1.63392050E-10
   11.4300003      -1.50151738E-10
   11.4899998      -1.37649558E-10
   11.5500002      -1.26899435E-10
   11.6099997      -1.18574831E-10
   11.6700001      -1.12944383E-10
   11.7299995      -1.09937080E-10
   11.7900000      -1.09292089E-10
   11.8500004      -1.10703433E-10
   11.9099998      -1.13876922E-10
   11.9700003      -1.18472523E-10
   12.0299997      -1.23978494E-10
   12.0900002      -1.29607630E-10
   12.1499996      -1.34296213E-10
   12.2100000      -1.36825579E-10
   12.2700005      -1.36015893E-10
   12.3299999      -1.30902858E-10
   12.3900003      -1.20828292E-10
   12.4499998      -1.05440698E-10
   12.5100002      -8.46658299E-11
   12.5699997      -5.87281959E-11
   12.6300001      -2.82587408E-11
   12.6899996       5.55733541E-12
   12.7500000       4.09042071E-11
   12.8100004       7.54375382E-11
   12.8699999       1.06587676E-10
   12.9300003       1.31964106E-10
   12.9899998       1.49674370E-10
   13.0500002       1.58384611E-10
   13.1099997       1.57070093E-10
   13.1700001       1.44577045E-10
   13.2299995       1.19242990E-10
   13.2900000       7.88202975E-11
   13.3500004       2.08027640E-11
   13.4099998      -5.69633715E-11
   13.4700003      -1.55675750E-10
   13.5299997      -2.75293177E-10
   13.5900002      -4.14732970E-10
   13.6499996      -5.72450254E-10
   13.7100000      -7.47077900E-10
   13.7700005      -9.37749434E-10
   13.8299999      -1.14387755E-09
   13.8900003      -1.36445177E-09
   13.9499998      -1.59719760E-09
   14.0100002      -1.83805304E-09
   14.0699997      -2.08129003E-09
   14.1300001      -2.32030706E-09
   14.1899996      -2.54877919E-09
   14.2500000      -2.76166667E-09
   14.3100004      -2.95563418E-09
   14.3699999      -3.12871329E-09
   14.4300003      -3.27939853E-09
   14.4899998      -3.40562156E-09
   14.5500002      -3.50409723E-09
   14.6099997      -3.57033714E-09
   14.6700001      -3.59931285E-09
   14.7299995      -3.58646912E-09
   14.7900000      -3.52867024E-09
   14.8500004      -3.42473516E-09
   14.9099998      -3.27543814E-09
   14.9700003      -3.08306425E-09
   15.0299997      -2.85075896E-09
   15.0900002      -2.58191579E-09
   15.1499996      -2.27977592E-09
   15.2100000      -1.94731409E-09
   15.2700005      -1.58743274E-09
   15.3299999      -1.20344112E-09
   15.3900003      -7.99776689E-10
   15.4499998      -3.82842841E-10
   15.5100002       3.82654256E-11
   15.5699997       4.51449683E-10
   15.6300001       8.41983205E-10
   15.6899996       1.19366472E-09
   15.7500000       1.49056434E-09
   15.8100004       1.71891523E-09
   15.8699999       1.86859772E-09
   15.9300003       1.93379268E-09
   15.9899998       1.91270422E-09
   16.0499992       1.80662285E-09
   16.1100006       1.61885561E-09
   16.1700001       1.35403666E-09
   16.2299995       1.01809494E-09
   16.2900009       6.18780138E-10
   16.3500004       1.66349462E-10
   16.4099998      -3.26085964E-10
   16.4699993      -8.42916958E-10
   16.5300007      -1.36716327E-09
   16.5900002      -1.88214755E-09
   16.6499996      -2.37331288E-09
   16.7099991      -2.82977930E-09
   16.7700005      -3.24535976E-09
   16.8299999      -3.61892782E-09
   16.8899994      -3.95415389E-09
   16.9500008      -4.25869517E-09
   17.0100002      -4.54292959E-09
   17.0699997      -4.81834395E-09
   17.1299992      -5.09573805E-09
   17.1900005      -5.38345102E-09
   17.2500000      -5.68589220E-09
   17.3099995      -6.00262684E-09
   17.3700008      -6.32819308E-09
   17.4300003      -6.65266953E-09
   17.4899998      -6.96284763E-09
   17.5499992      -7.24373184E-09
   17.6100006      -7.48003259E-09
   17.6700001      -7.65736541E-09
   17.7299995      -7.76299558E-09
   17.7900009      -7.78613352E-09
   17.8500004      -7.71797026E-09
   17.9099998      -7.55170060E-09
   17.9699993      -7.28280680E-09
   18.0300007      -6.90970525E-09
   18.0900002      -6.43467102E-09
   18.1499996      -5.86475624E-09
   18.2099991      -5.21230703E-09
   18.2700005      -4.49473392E-09
   18.3299999      -3.73337405E-09
   18.3899994      -2.95157276E-09
   18.4500008      -2.17238116E-09
   18.5100002      -1.41642664E-09
   18.5699997      -7.00508762E-10
   18.6299992      -3.72741282E-11
   18.6900005       5.64001790E-10
   18.7500000       1.09585807E-09
   18.8099995       1.55092894E-09
   18.8700008       1.92076466E-09
   18.9300003       2.19574181E-09
   18.9899998       2.36625253E-09
   19.0499992       2.42488940E-09
   19.1100006       2.36894193E-09
   19.1700001       2.20234675E-09
   19.2299995       1.93636684E-09
   19.2900009       1.58869351E-09
   19.3500004       1.18118659E-09
   19.4099998       7.36917138E-10
   19.4699993       2.77352613E-10
   19.5300007      -1.79595505E-10
   19.5900002      -6.20305585E-10
   19.6499996      -1.03502962E-09
   19.7099991      -1.41673251E-09
   19.7700005      -1.75973902E-09
   19.8299999      -2.05869655E-09
   19.8899994      -2.30819008E-09
   19.9500008      -2.50312571E-09
   20.0100002      -2.63976596E-09
   20.0699997      -2.71711587E-09
   20.1299992      -2.73821388E-09
   20.1900005      -2.71084999E-09
   20.2500000      -2.64733369E-09
   20.3099995      -2.56318722E-09
   20.3700008      -2.47498866E-09
   20.4300003      -2.39789744E-09
   20.4899998      -2.34354092E-09
   20.5499992      -2.31884201E-09
   20.6100006      -2.32604558E-09
   20.6700001      -2.36380204E-09
   20.7299995      -2.42882314E-09
   20.7900009      -2.51751087E-09
   20.8500004      -2.62704636E-09
   20.9099998      -2.75568612E-09
   20.9699993      -2.90231350E-09
   21.0300007      -3.06550962E-09
   21.0900002      -3.24253735E-09
   21.1499996      -3.42859963E-09
   21.2099991      -3.61662256E-09
   21.2700005      -3.79764842E-09
   21.3299999      -3.96170430E-09
   21.3899994      -4.09885992E-09
   21.4500008      -4.20012691E-09
   21.5100002      -4.25789670E-09
   21.5699997      -4.26584634E-09
   21.6299992      -4.21849267E-09
   21.6900005      -4.11075041E-09
   21.7500000      -3.93790778E-09
   21.8099995      -3.69620867E-09
   21.8700008      -3.38396111E-09
   21.9300003      -3.00277891E-09
   21.9899998      -2.55845345E-09
   22.0499992      -2.06103290E-09
   22.1100006      -1.52395718E-09
   22.1700001      -9.62390945E-10
   22.2299995      -3.91130434E-10
   22.2900009       1.77467568E-10
   22.3500004       7.35142780E-10
   22.4099998       1.27871957E-09
   22.4699993       1.81032522E-09
   22.5300007       2.33686981E-09
   22.5900002       2.86892887E-09
   22.6499996       3.41924022E-09
   22.7099991       4.00105504E-09
   22.7700005       4.62655558E-09
   22.8299999       5.30547162E-09
   22.8899994       6.04393913E-09
   22.9500008       6.84361900E-09
   23.0100002       7.70112241E-09
   23.0699997       8.60784777E-09
   23.1299992       9.55038804E-09
   23.1900005       1.05115516E-08
   23.2500000       1.14718883E-08
   23.3099995       1.24113688E-08
   23.3700008       1.33107880E-08
   23.4300003       1.41525884E-08
   23.4899998       1.49210742E-08
   23.5499992       1.56023283E-08
   23.6100006       1.61843463E-08
   23.6700001       1.66577170E-08
   23.7299995       1.70168750E-08
   23.7900009       1.72615113E-08
   23.8500004       1.73973778E-08
   23.9099998       1.74359034E-08
   23.9699993       1.73923258E-08
   24.0300007       1.72826784E-08
   24.0900002       1.71203745E-08
   24.1499996       1.69134164E-08
   24.2099991       1.66630283E-08
   24.2700005       1.63641509E-08
   24.3299999       1.60076201E-08
   24.3899994       1.55833924E-08
   24.4500008       1.50837991E-08
   24.5100002       1.45058117E-08
   24.5699997       1.38515324E-08
   24.6299992       1.31267139E-08
   24.6900005       1.23377681E-08
   24.7500000       1.14883534E-08
   24.8099995       1.05769411E-08
   24.8700008       9.59656354E-09
   24.9300003       8.53722693E-09
   24.9899998       7.39048289E-09
   25.0499992       6.15469053E-09
   25.1100006       4.83904561E-09
   25.1700001       3.46466456E-09
   25.2299995       2.06194062E-09
   25.2900009       6.64670707E-10
   25.3500004      -6.97369551E-10
   25.4099998      -2.00507277E-09
   25.4699993      -3.25371330E-09
   25.5300007      -4.45247972E-09
   25.5900002      -5.61994229E-09
   25.6499996      -6.77690615E-09
   25.7099991      -7.93893928E-09
   25.7700005      -9.11096354E-09
   25.8299999      -1.02855742E-08
   25.8899994      -1.14454419E-08
   25.9500008      -1.25688153E-08
   26.0100002      -1.36360212E-08
   26.0699997      -1.46346366E-08
   26.1299992      -1.55614757E-08
   26.1900005      -1.64207705E-08
   26.2500000      -1.72193637E-08
   26.3099995      -1.79608382E-08
   26.3700008      -1.86409803E-08
   26.4300003      -1.92464906E-08
   26.4899998      -1.97577528E-08
   26.5499992      -2.01549106E-08
   26.6100006      -2.04253148E-08
   26.6700001      -2.05697415E-08
   26.7299995      -2.06050839E-08
   26.7900009      -2.05622950E-08
   26.8500004      -2.04798809E-08
   26.9099998      -2.03947828E-08
   26.9699993      -2.03333812E-08
   27.0300007      -2.03053929E-08
   27.0900002      -2.03025277E-08
   27.1499996      -2.03022257E-08
   27.2099991      -2.02750954E-08
   27.2700005      -2.01935109E-08
   27.3299999      -2.00384527E-08
   27.3899994      -1.98025170E-08
   27.4500008      -1.94883718E-08
   27.5100002      -1.91036573E-08
   27.5699997      -1.86545694E-08
   27.6299992      -1.81407671E-08
   27.6900005      -1.75536421E-08
   27.7500000      -1.68787100E-08
   27.8099995      -1.61012927E-08
   27.8700008      -1.52134696E-08
   27.9300003      -1.42196992E-08
   27.9899998      -1.31389069E-08
   28.0499992      -1.20019417E-08
   28.1100006      -1.08448273E-08
   28.1700001      -9.69967573E-09
   28.2299995      -8.58601190E-09
   28.2900009      -7.50534124E-09
   28.3500004      -6.44085674E-09
   28.4099998      -5.36264899E-09
   28.4699993      -4.23700675E-09
   28.5300007      -3.03701730E-09
   28.5900002      -1.75120884E-09
   28.6499996      -3.87592541E-10
   28.7099991       1.02799802E-09
   28.7700005       2.45845078E-09
   28.8299999       3.86438836E-09
   28.8899994       5.21249843E-09
   28.9500008       6.48045306E-09
   29.0100002       7.65703323E-09
   29.0699997       8.73788952E-09
   29.1299992       9.71888792E-09
   29.1900005       1.05898339E-08
   29.2500000       1.13310685E-08
   29.3099995       1.19143655E-08
   29.3700008       1.23079360E-08
   29.4300003       1.24838522E-08
   29.4899998       1.24253319E-08
   29.5499992       1.21313102E-08
   29.6100006       1.16166436E-08
   29.6700001       1.09077467E-08
   29.7299995       1.00350181E-08
   29.7900009       9.02451269E-09
   29.8500004       7.89157095E-09
   29.9099998       6.63844757E-09
   29.9699993       5.25663024E-09
   30.0300007       3.73295972E-09
   30.0900002       2.05744066E-09
   30.1499996       2.30129596E-10
   30.2099991      -1.73510717E-09
   30.2700005      -3.81107412E-09
   30.3299999      -5.96164629E-09
   30.3899994      -8.14849344E-09
   30.4500008      -1.03378452E-08
   30.5100002      -1.25050308E-08
   30.5699997      -1.46353507E-08
   30.6299992      -1.67210548E-08
   30.6900005      -1.87556264E-08
   30.7500000      -2.07275548E-08
   30.8099995      -2.26161401E-08
   30.8700008      -2.43911984E-08
   30.9300003      -2.60173003E-08
   30.9899998      -2.74613292E-08
   31.0499992      -2.87008408E-08
   31.1100006      -2.97300460E-08
   31.1700001      -3.05609191E-08
   31.2299995      -3.12186081E-08
   31.2900009      -3.17323803E-08
   31.3500004      -3.21251115E-08
   31.4099998      -3.24050191E-08
   31.4699993      -3.25625855E-08
   31.5300007      -3.25738156E-08
   31.5900002      -3.24086855E-08
   31.6499996      -3.20417790E-08
   31.7099991      -3.14613828E-08
   31.7700005      -3.06737959E-08
   31.8299999      -2.97014271E-08
   31.8899994      -2.85753803E-08
   31.9500008      -2.73251111E-08
   32.0099983      -2.59688715E-08
   32.0699997      -2.45082958E-08
   32.1300011      -2.29292727E-08
   32.1899986      -2.12089066E-08
   32.2500000      -1.93264498E-08
   32.3100014      -1.72744556E-08
   32.3699989      -1.50662718E-08
   32.4300003      -1.27370932E-08
   32.4900017      -1.03379696E-08
   32.5499992      -7.92453125E-09
   32.6100006      -5.54422286E-09
   32.6699982      -3.22636229E-09
   32.7299995      -9.78542691E-10
   32.7900009       1.20927079E-09
   32.8499985       3.35424399E-09
   32.9099998       5.46736389E-09
   32.9700012       7.54199547E-09
   33.0299988       9.54851043E-09
   33.0900002       1.14372201E-08
   33.1500015       1.31490090E-08
   33.2099991       1.46303272E-08
   33.2700005       1.58474656E-08
   33.3300018       1.67950258E-08
   33.3899994       1.74953367E-08
   33.4500008       1.79886150E-08
   33.5099983       1.83170759E-08
   33.5699997       1.85085050E-08
   33.6300011       1.85652311E-08
   33.6899986       1.84627140E-08
   33.7500000       1.81584809E-08
   33.8100014       1.76084303E-08
   33.8699989       1.67846963E-08
   33.9300003       1.56886450E-08
   33.9900017       1.43542707E-08
   34.0499992       1.28407267E-08
   34.1100006       1.12165992E-08
   34.1699982       9.54154800E-09
   34.2299995       7.85175569E-09
   34.2900009       6.15424955E-09
   34.3499985       4.43195614E-09
   34.4099998       2.65746691E-09
   34.4700012       8.10410905E-10
   34.5299988      -1.10798970E-09
   34.5900002      -3.06862868E-09
   34.6500015      -5.01900388E-09
   34.7099991      -6.89711843E-09
   34.7700005      -8.64996696E-09
   34.8300018      -1.02499813E-08
   34.8899994      -1.17033654E-08
   34.9500008      -1.30470257E-08
   35.0099983      -1.43348187E-08
   35.0699997      -1.56176334E-08
   35.1300011      -1.69240995E-08
   35.1899986      -1.82485529E-08
   35.2500000      -1.95503578E-08
   35.3100014      -2.07648778E-08
   35.3699989      -2.18223306E-08
   35.4300003      -2.26682335E-08
   35.4900017      -2.32787372E-08
   35.5499992      -2.36659510E-08
   35.6100006      -2.38718290E-08
   35.6699982      -2.39529960E-08
   35.7299995      -2.39617979E-08
   35.7900009      -2.39299958E-08
   35.8499985      -2.38604656E-08
   35.9099998      -2.37294167E-08
   35.9700012      -2.34980515E-08
   36.0299988      -2.31293171E-08
   36.0900002      -2.26037411E-08
   36.1500015      -2.19286793E-08
   36.2099991      -2.11376818E-08
   36.2700005      -2.02801509E-08
   36.3300018      -1.94048546E-08
   36.3899994      -1.85431350E-08
   36.4500008      -1.76976602E-08
   36.5099983      -1.68408469E-08
   36.5699997      -1.59237086E-08
   36.6300011      -1.48924375E-08
   36.6899986      -1.37073233E-08
   36.7500000      -1.23578374E-08
   36.8100014      -1.08688960E-08
   36.8699989      -9.29618960E-09
   36.9300003      -7.71201947E-09
   36.9900017      -6.18623597E-09
   37.0499992      -4.76840567E-09
   37.1100006      -3.47691720E-09
   37.1699982      -2.29836172E-09
   37.2299995      -1.19703825E-09
   37.2900009      -1.31052669E-10
   37.3499985       9.30647004E-10
   37.4099998       1.99609240E-09
   37.4700012       3.04690073E-09
   37.5299988       4.04440659E-09
   37.5900002       4.94274577E-09
   37.6500015       5.70400926E-09
   37.7099991       6.31009689E-09
   37.7700005       6.76725520E-09
   37.8300018       7.10204873E-09
   37.8899994       7.35050598E-09
   37.9500008       7.54451257E-09
   38.0099983       7.70030706E-09
   38.0699997       7.81305509E-09
   38.1300011       7.85921461E-09
   38.1899986       7.80568055E-09
   38.2500000       7.62235075E-09
   38.3100014       7.29365324E-09
   38.3699989       6.82504897E-09
   38.4300003       6.24233998E-09
   38.4900017       5.58417090E-09
   38.5499992       4.89048135E-09
   38.6100006       4.19101065E-09
   38.6699982       3.49780049E-09
   38.7299995       2.80411672E-09
   38.7900009       2.08980344E-09
   38.8499985       1.33078493E-09
   38.9099998       5.09003173E-10
   38.9700012      -3.80903004E-10
   39.0299988      -1.33047040E-09
   39.0900002      -2.32190800E-09
   39.1500015      -3.33610162E-09
   39.2099991      -4.36072556E-09
   39.2700005      -5.39513323E-09
   39.3300018      -6.45008980E-09
   39.3899994      -7.54253637E-09
   39.4500008      -8.68757599E-09
   39.5099983      -9.89097693E-09
   39.5699997      -1.11452669E-08
   39.6300011      -1.24310446E-08
   39.6899986      -1.37230796E-08
   39.7500000      -1.49987915E-08
   39.8100014      -1.62457638E-08
   39.8699989      -1.74651280E-08
   39.9300003      -1.86692812E-08
   39.9900017      -1.98745127E-08
   40.0499992      -2.10912514E-08
   40.1100006      -2.23157937E-08
   40.1699982      -2.35270203E-08
   40.2299995      -2.46898679E-08
   40.2900009      -2.57646793E-08
   40.3499985      -2.67190146E-08
   40.4099998      -2.75373040E-08
   40.4700012      -2.82242176E-08
   40.5299988      -2.88001036E-08
   40.5900002      -2.92900353E-08
   40.6500015      -2.97108524E-08
   40.7099991      -3.00616634E-08
   40.7700005      -3.03219849E-08
   40.8300018      -3.04586472E-08
   40.8899994      -3.04388905E-08
   40.9500008      -3.02444043E-08
   41.0099983      -2.98805247E-08
   41.0699997      -2.93767268E-08
   41.1300011      -2.87778477E-08
   41.1899986      -2.81293175E-08
   41.2500000      -2.74617804E-08
   41.3100014      -2.67809170E-08
   41.3699989      -2.60663278E-08
   41.4300003      -2.52800145E-08
   41.4900017      -2.43816949E-08
   41.5499992      -2.33456134E-08
   41.6100006      -2.21729071E-08
   41.6699982      -2.08949817E-08
   41.7299995      -1.95662917E-08
   41.7900009      -1.82486737E-08
   41.8499985      -1.69925283E-08
   41.9099998      -1.58215396E-08
   41.9700012      -1.47266981E-08
   42.0299988      -1.36721967E-08
   42.0900002      -1.26113839E-08
   42.1500015      -1.15070451E-08
   42.2099991      -1.03484208E-08
   42.2700005      -9.15835141E-09
   42.3300018      -7.98757949E-09
   42.3899994      -6.89804436E-09
   42.4500008      -5.94124527E-09
   42.5099983      -5.13964782E-09
   42.5699997      -4.47805837E-09
   42.6300011      -3.90827548E-09
   42.6899986      -3.36550676E-09
   42.7500000      -2.79083356E-09
   42.8100014      -2.15182316E-09
   42.8699989      -1.45396917E-09
   42.9300003      -7.38758665E-10
   42.9900017      -6.87733759E-11
   43.0499992       4.95260333E-10
   43.1100006       9.17642684E-10
   43.1699982       1.20301791E-09
   43.2299995       1.39835643E-09
   43.2900009       1.58071134E-09
   43.3499985       1.83487692E-09
   43.4099998       2.22865393E-09
   43.4700012       2.79425261E-09
   43.5299988       3.52207907E-09
   43.5900002       4.36866943E-09
   43.6500015       5.27549826E-09
   43.7099991       6.19171692E-09
   43.7700005       7.09282144E-09
   43.8300018       7.98899524E-09
   43.8899994       8.92068019E-09
   43.9500008       9.94328442E-09
   44.0099983       1.11064224E-08
   44.0699997       1.24346622E-08
   44.1300011       1.39160772E-08
   44.1899986       1.55023550E-08
   44.2500000       1.71205343E-08
   44.3100014       1.86928073E-08
   44.3699989       2.01581809E-08
   44.4300003       2.14890967E-08
   44.4900017       2.26975700E-08
   44.5499992       2.38287470E-08
   44.6100006       2.49438568E-08
   44.6699982       2.60981476E-08
   44.7299995       2.73210610E-08
   44.7900009       2.86050277E-08
   44.8499985       2.99063814E-08
   44.9099998       3.11576187E-08
   44.9700012       3.22866498E-08
   45.0299988       3.32365175E-08
   45.0900002       3.39793758E-08
   45.1500015       3.45206885E-08
   45.2099991       3.48929170E-08
   45.2700005       3.51414542E-08
   45.3300018       3.53076146E-08
   45.3899994       3.54143701E-08
   45.4500008       3.54592515E-08
   45.5099983       3.54164804E-08
   45.5699997       3.52472789E-08
   45.6300011       3.49145672E-08
   45.6899986       3.43968054E-08
   45.7500000       3.36961143E-08
   45.8100014       3.28377894E-08
   45.8699989       3.18616031E-08
   45.9300003       3.08082413E-08
   45.9900017       2.97059586E-08
   46.0499992       2.85623489E-08
   46.1100006       2.73640151E-08
   46.1699982       2.60839350E-08
   46.2299995       2.46934473E-08
   46.2900009       2.31744330E-08
   46.3499985       2.15274643E-08
   46.4099998       1.97734877E-08
   46.4700012       1.79490609E-08
   46.5299988       1.60972391E-08
   46.5900002       1.42574530E-08
   46.6500015       1.24576021E-08
   46.7099991       1.07106457E-08
   46.7700005       9.01625530E-09
   46.8300018       7.36651495E-09
   46.8899994       5.75341375E-09
   46.9500008       4.17543600E-09
   47.0099983       2.64098099E-09
   47.0699997       1.16753074E-09
   47.1300011      -2.22975569E-10
   47.1899986      -1.51071444E-09
   47.2500000      -2.68396061E-09
   47.3100014      -3.74221365E-09
   47.3699989      -4.69535566E-09
   47.4300003      -5.55928370E-09
   47.4900017      -6.34980335E-09
   47.5499992      -7.07714376E-09
   47.6100006      -7.74305864E-09
   47.6699982      -8.34134628E-09
   47.7299995      -8.86122642E-09
   47.7900009      -9.29196720E-09
   47.8499985      -9.62682556E-09
   47.9099998      -9.86478010E-09
   47.9700012      -1.00095807E-08
   48.0299988      -1.00667235E-08
   48.0900002      -1.00397957E-08
   48.1500015      -9.92783455E-09
   48.2099991      -9.72492487E-09
   48.2700005      -9.42232603E-09
   48.3300018      -9.01234198E-09
   48.3899994      -8.49244586E-09
   48.4500008      -7.86792143E-09
   48.5099983      -7.15189818E-09
   48.5699997      -6.36262554E-09
   48.6300011      -5.51899593E-09
   48.6899986      -4.63606575E-09
   48.7500000      -3.72232334E-09
   48.8100014      -2.77978307E-09
   48.8699989      -1.80676973E-09
   48.9300003      -8.02181710E-10
   48.9900017       2.30602037E-10
   49.0499992       1.28184319E-09
   49.1100006       2.33643993E-09
   49.1699982       3.37749229E-09
   49.2299995       4.39111680E-09
   49.2900009       5.37067679E-09
   49.3499985       6.31874686E-09
   49.4099998       7.24587457E-09
   49.4700012       8.16627566E-09
   49.5299988       9.09166875E-09
   49.5900002       1.00252056E-08
   49.6500015       1.09575984E-08
   49.7099991       1.18670958E-08
   49.7700005       1.27238078E-08
   49.8300018       1.34975080E-08
   49.8899994       1.41667069E-08
   49.9500008       1.47260426E-08
   50.0099983       1.51892685E-08
   50.0699997       1.55863287E-08
   50.1300011       1.59549476E-08
   50.1899986       1.63292029E-08
   50.2500000       1.67287730E-08
   50.3100014       1.71526811E-08
   50.3699989       1.75798380E-08
   50.4300003       1.79764719E-08
   50.4900017       1.83079063E-08
   50.5499992       1.85506526E-08
   50.6100006       1.87004954E-08