 -0.750000000       0.00000000    
 -0.689999998       0.00000000    
 -0.629999995       0.00000000    
 -0.569999993       0.00000000    
 -0.509999990       0.00000000    
 -0.449999988       0.00000000    
 -0.389999986       0.00000000    
 -0.330000013       0.00000000    
 -0.270000011      -1.36801009E-27
 -0.209999993      -1.54621498E-26
 -0.150000006      -8.57025821E-26
  -9.00000036E-02  -3.00910277E-25
  -2.99999993E-02  -7.02320300E-25
   2.99999993E-02  -9.15118093E-25
   9.00000036E-02   5.67035092E-25
  0.150000006       7.04356626E-24
  0.209999993       2.29634648E-23
  0.270000011       5.00098876E-23
  0.330000013       7.84885551E-23
  0.389999986       7.55946662E-23
  0.449999988      -2.25172583E-23
  0.509999990      -3.03116761E-22
  0.569999993      -8.42647638E-22
  0.629999995      -1.64271456E-21
  0.689999998      -2.53983121E-21
  0.750000000      -3.08088912E-21
  0.810000002      -2.32749985E-21
  0.870000005       1.42975463E-21
  0.930000007       1.08631707E-20
  0.990000010       2.90316129E-20
   1.04999995       5.67859361E-20
   1.11000001       8.70132418E-20
   1.16999996       9.65549834E-20
   1.23000002       4.11192355E-20
   1.28999996      -1.36080529E-19
   1.35000002      -4.69844843E-19
   1.40999997      -9.10184258E-19
   1.47000003      -1.25314327E-18
   1.52999997      -1.11945206E-18
   1.59000003      -5.31649756E-20
   1.64999998       2.21464870E-18
   1.71000004       5.38320912E-18
   1.76999998       8.26123807E-18
   1.83000004       8.79420377E-18
   1.88999999       4.69575379E-18
   1.95000005      -5.29956875E-18
   2.00999999      -1.99562997E-17
   2.06999993      -3.46194409E-17
   2.13000011      -4.17399539E-17
   2.19000006      -3.32997305E-17
   2.25000000      -4.67634565E-18
   2.30999994       4.15331654E-17
   2.36999989       9.37331490E-17
   2.43000007       1.33130233E-16
   2.49000001       1.39192540E-16
   2.54999995       9.70469470E-17
   2.60999990       3.98381433E-18
   2.67000008      -1.27410762E-16
   2.73000002      -2.70267355E-16
   2.78999996      -3.87424506E-16
   2.84999990      -4.36569384E-16
   2.91000009      -3.76054332E-16
   2.97000003      -1.73349475E-16
   3.02999997       1.80848416E-16
   3.08999991       6.52594999E-16
   3.15000010       1.14533582E-15
   3.21000004       1.49533301E-15
   3.26999998       1.49827423E-15
   3.32999992       9.75121481E-16
   3.39000010      -1.34038676E-16
   3.45000005      -1.68240564E-15
   3.50999999      -3.28328224E-15
   3.56999993      -4.37183774E-15
   3.63000011      -4.36950840E-15
   3.69000006      -2.91051405E-15
   3.75000000      -4.79675817E-17
   3.80999994       3.65506279E-15
   3.86999989       7.21338001E-15
   3.93000007       9.48367564E-15
   3.99000001       9.52649994E-15
   4.05000019       6.93852968E-15
   4.11000013       2.02985368E-15
   4.17000008      -4.22238259E-15
   4.23000002      -1.04259058E-14
   4.28999996      -1.51353505E-14
   4.34999990      -1.71960411E-14
   4.40999985      -1.59658646E-14
   4.46999979      -1.13785654E-14
   4.53000021      -3.88513049E-15
   4.59000015       5.64732663E-15
   4.65000010       1.60079893E-14
   4.71000004       2.56672040E-14
   4.76999998       3.28021166E-14
   4.82999992       3.54159552E-14
   4.88999987       3.16373548E-14
   4.94999981       2.02220375E-14
   5.01000023       1.17543630E-15
   5.07000017      -2.36896108E-14
   5.13000011      -5.05063588E-14
   5.19000006      -7.36421557E-14
   5.25000000      -8.66239521E-14
   5.30999994      -8.36070308E-14
   5.36999989      -6.10767676E-14
   5.42999983      -1.93207267E-14
   5.48999977       3.68065428E-14
   5.55000019       9.81497463E-14
   5.61000013       1.52591169E-13
   5.67000008       1.87195013E-13
   5.73000002       1.90687635E-13
   5.78999996       1.55786096E-13
   5.84999990       8.10429130E-14
   5.90999985      -2.79173250E-14
   5.96999979      -1.57798565E-13
   6.03000021      -2.87819898E-13
   6.09000015      -3.91120323E-13
   6.15000010      -4.38031230E-13
   6.21000004      -4.01710295E-13
   6.26999998      -2.65896436E-13
   6.32999992      -3.33271652E-14
   6.38999987       2.67890012E-13
   6.44999981       5.83250137E-13
   6.51000023       8.38771544E-13
   6.57000017       9.56316732E-13
   6.63000011       8.74663785E-13
   6.69000006       5.70747984E-13
   6.75000000       7.40811560E-14
   6.80999994      -5.31600751E-13
   6.86999989      -1.12190801E-12
   6.92999983      -1.55817915E-12
   6.98999977      -1.71991284E-12
   7.05000019      -1.53444239E-12
   7.11000013      -9.96171895E-13
   7.17000008      -1.71445974E-13
   7.23000002       8.10327066E-13
   7.28999996       1.77548883E-12
   7.34999990       2.53061981E-12
   7.40999985       2.89038585E-12
   7.46999979       2.70882340E-12
   7.53000021       1.91442391E-12
   7.59000015       5.45997871E-13
   7.65000010      -1.21991111E-12
   7.71000004      -3.06493589E-12
   7.76999998      -4.56351450E-12
   7.82999992      -5.26369399E-12
   7.88999987      -4.80557347E-12
   7.94999981      -3.04972627E-12
   8.01000023      -1.74061910E-13
   8.06999969       3.30304729E-12
   8.13000011       6.59905290E-12
   8.18999958       8.83822703E-12
   8.25000000       9.27845648E-12
   8.31000042       7.53022731E-12
   8.36999989       3.69998737E-12
   8.43000031      -1.59000319E-12
   8.48999977      -7.31538788E-12
   8.55000019      -1.22649486E-11
   8.60999966      -1.52947897E-11
   8.67000008      -1.55511125E-11
   8.72999954      -1.26080361E-11
   8.78999996      -6.50007955E-12
   8.85000038       2.33570671E-12
   8.90999985       1.31695583E-11
   8.97000027       2.50987564E-11
   9.02999973       3.71498700E-11
   9.09000015       4.83594380E-11
   9.14999962       5.78485176E-11
   9.21000004       6.49116941E-11
   9.27000046       6.91294036E-11
   9.32999992       7.04885109E-11
   9.39000034       6.94722821E-11
   9.44999981       6.70691488E-11
   9.51000023       6.46600412E-11
   9.56999969       6.37758735E-11
   9.63000011       6.57624857E-11
   9.68999958       7.14329082E-11
   9.75000000       8.08088388E-11
   9.81000042       9.30422198E-11
   9.86999989       1.06561121E-10
   9.93000031       1.19415894E-10
   9.98999977       1.29733974E-10
   10.0500002       1.36151451E-10
   10.1099997       1.38095174E-10
   10.1700001       1.35841394E-10
   10.2299995       1.30355296E-10
   10.2900000       1.22991450E-10
   10.3500004       1.15172580E-10
   10.4099998       1.08150718E-10
   10.4700003       1.02895983E-10
   10.5299997       1.00085759E-10
   10.5900002       1.00117532E-10
   10.6499996       1.03068699E-10
   10.7100000       1.08578008E-10
   10.7700005       1.15697611E-10
   10.8299999       1.22822502E-10
   10.8900003       1.27806446E-10
   10.9499998       1.28313957E-10
   11.0100002       1.22356000E-10
   11.0699997       1.08860955E-10
   11.1300001       8.80903336E-11
   11.1899996       6.17414869E-11
   11.2500000       3.26811009E-11
   11.3100004       4.37724509E-12
   11.3699999      -1.98057161E-11
   11.4300003      -3.72550810E-11
   11.4899998      -4.65486989E-11
   11.5500002      -4.76204180E-11
   11.6099997      -4.16770993E-11
   11.6700001      -3.09448162E-11
   11.7299995      -1.83249232E-11
   11.7900000      -7.00826506E-12
   11.8500004      -6.02363347E-14
   11.9099998       2.04293691E-14
   11.9700003      -8.25940445E-12
   12.0299997      -2.50249023E-11
   12.0900002      -4.88564710E-11
   12.1499996      -7.69015338E-11
   12.2100000      -1.05319482E-10
   12.2700005      -1.30008046E-10
   12.3299999      -1.47459295E-10
   12.3900003      -1.55530672E-10
   12.4499998      -1.53919322E-10
   12.5100002      -1.44202456E-10
   12.5699997      -1.29429703E-10
   12.6300001      -1.13387202E-10
   12.6899996      -9.97472313E-11
   12.7500000      -9.13419271E-11
   12.8100004      -8.97412353E-11
   12.8699999      -9.51969961E-11
   12.9300003      -1.06881205E-10
   12.9899998      -1.23250965E-10
   13.0500002      -1.42356571E-10
   13.1099997      -1.61978250E-10
   13.1700001      -1.79601667E-10
   13.2299995      -1.92359267E-10
   13.2900000      -1.97112868E-10
   13.3500004      -1.90799238E-10
   13.4099998      -1.71023709E-10
   13.4700003      -1.36731099E-10
   13.5299997      -8.86915333E-11
   13.5900002      -2.95706272E-11
   13.6499996       3.64921808E-11
   13.7100000       1.04659753E-10
   13.7700005       1.70221254E-10
   13.8299999       2.29119973E-10
   13.8900003       2.77965956E-10
   13.9499998       3.13548770E-10
   14.0100002       3.32100680E-10
   14.0699997       3.28682248E-10
   14.1300001       2.97007863E-10
   14.1899996       2.29827032E-10
   14.2500000       1.19726326E-10
   14.3100004      -3.99543280E-11
   14.3699999      -2.54408855E-10
   14.4300003      -5.27023258E-10
   14.4899998      -8.59349314E-10
   14.5500002      -1.25116595E-09
   14.6099997      -1.70038228E-09
   14.6700001      -2.20267204E-09
   14.7299995      -2.75096523E-09
   14.7900000      -3.33509531E-09
   14.8500004      -3.94192945E-09
   14.9099998      -4.55614568E-09
   14.9700003      -5.16153476E-09
   15.0299997      -5.74246339E-09
   15.0900002      -6.28504315E-09
   15.1499996      -6.77767753E-09
   15.2100000      -7.21097182E-09
   15.2700005      -7.57728280E-09
   15.3299999      -7.87033194E-09
   15.3900003      -8.08523026E-09
   15.4499998      -8.21895796E-09
   15.5100002      -8.27098923E-09
   15.5699997      -8.24357738E-09
   15.6300001      -8.14123879E-09
   15.6899996      -7.96935851E-09
   15.7500000      -7.73224063E-09
   15.8100004      -7.43132889E-09
   15.8699999      -7.06434200E-09
   15.9300003      -6.62584476E-09
   15.9899998      -6.10921314E-09
   16.0499992      -5.50946311E-09
   16.1100006      -4.82604934E-09
   16.1700001      -4.06475920E-09
   16.2299995      -3.23816418E-09
   16.2900009      -2.36461895E-09
   16.3500004      -1.46626733E-09
   16.4099998      -5.66805103E-10
   16.4699993       3.10295400E-10
   16.5300007       1.14268861E-09
   16.5900002       1.90921101E-09
   16.6499996       2.58950372E-09
   16.7099991       3.16383963E-09
   16.7700005       3.61372199E-09
   16.8299999       3.92353838E-09
   16.8899994       4.08309075E-09
   16.9500008       4.09037826E-09
   17.0100002       3.95372890E-09
   17.0699997       3.69240838E-09
   17.1299992       3.33516592E-09
   17.1900005       2.91676217E-09
   17.2500000       2.47315057E-09
   17.3099995       2.03643458E-09
   17.3700008       1.63083080E-09
   17.4300003       1.27056532E-09
   17.4899998       9.60054591E-10
   17.5499992       6.96050939E-10
   17.6100006       4.70918304E-10
   17.6700001       2.76002193E-10
   17.7299995       1.04193598E-10
   17.7900009      -4.88326497E-11
   17.8500004      -1.84769630E-10
   17.9099998      -3.03896158E-10
   17.9699993      -4.06808087E-10
   18.0300007      -4.96048091E-10
   18.0900002      -5.77093373E-10
   18.1499996      -6.58336996E-10
   18.2099991      -7.49955487E-10
   18.2700005      -8.61865135E-10
   18.3299999      -1.00128428E-09
   18.3899994      -1.17063914E-09
   18.4500008      -1.36656975E-09
   18.5100002      -1.58054070E-09
   18.5699997      -1.80107673E-09
   18.6299992      -2.01705408E-09
   18.6900005      -2.22102425E-09
   18.7500000      -2.41141285E-09
   18.8099995      -2.59272825E-09
   18.8700008      -2.77354428E-09
   18.9300003      -2.96279645E-09
   18.9899998      -3.16554960E-09
   19.0499992      -3.37963924E-09
   19.1100006      -3.59434971E-09
   19.1700001      -3.79165543E-09
   19.2299995      -3.94972188E-09
   19.2900009      -4.04763822E-09
   19.3500004      -4.06996170E-09
   19.4099998      -4.00974542E-09
   19.4699993      -3.86924537E-09
   19.5300007      -3.65828878E-09
   19.5900002      -3.39104900E-09
   19.6499996      -3.08244630E-09
   19.7099991      -2.74541878E-09
   19.7700005      -2.38987941E-09
   19.8299999      -2.02347028E-09
   19.8899994      -1.65351843E-09
   19.9500008      -1.28916644E-09
   20.0100002      -9.42636635E-10
   20.0699997      -6.28988639E-10
   20.1299992      -3.64353714E-10
   20.1900005      -1.63230929E-10
   20.2500000      -3.57819017E-11
   20.3099995       1.39468055E-11
   20.3700008      -1.17176347E-11
   20.4300003      -1.05406947E-10
   20.4899998      -2.57190630E-10
   20.5499992      -4.57409111E-10
   20.6100006      -6.98980929E-10
   20.6700001      -9.78484738E-10
   20.7299995      -1.29569278E-09
   20.7900009      -1.65168657E-09
   20.8500004      -2.04609063E-09
   20.9099998      -2.47419751E-09
   20.9699993      -2.92479241E-09
   21.0300007      -3.37931261E-09
   21.0900002      -3.81267151E-09
   21.1499996      -4.19571178E-09
   21.2099991      -4.49892745E-09
   21.2700005      -4.69680694E-09
   21.3299999      -4.77198547E-09
   21.3899994      -4.71833461E-09
   21.4500008      -4.54222260E-09
   21.5100002      -4.26151869E-09
   21.5699997      -3.90241794E-09
   21.6299992      -3.49478113E-09
   21.6900005      -3.06716563E-09
   21.7500000      -2.64287103E-09
   21.8099995      -2.23803709E-09
   21.8700008      -1.86210736E-09
   21.9300003      -1.52013047E-09
   21.9899998      -1.21572485E-09
   22.0499992      -9.53356061E-10
   22.1100006      -7.38956951E-10
   22.1700001      -5.78678661E-10
   22.2299995      -4.76363948E-10
   22.2900009      -4.30858571E-10
   22.3500004      -4.34335762E-10
   22.4099998      -4.72434702E-10
   22.4699993      -5.26382549E-10
   22.5300007      -5.76622194E-10
   22.5900002      -6.06992234E-10
   22.6499996      -6.08296358E-10
   22.7099991      -5.80192172E-10
   22.7700005      -5.30700317E-10
   22.8299999      -4.73234396E-10
   22.8899994      -4.21765511E-10
   22.9500008      -3.85375259E-10
   23.0100002      -3.63792857E-10
   23.0699997      -3.45371287E-10
   23.1299992      -3.08313541E-10
   23.1900005      -2.24977315E-10
   23.2500000      -6.81038212E-11
   23.3099995       1.82816387E-10
   23.3700008       5.36882538E-10
   23.4300003       9.90136750E-10
   23.4899998       1.52732116E-09
   23.5499992       2.12643836E-09
   23.6100006       2.76473378E-09
   23.6700001       3.42436390E-09
   23.7299995       4.09612610E-09
   23.7900009       4.78018380E-09
   23.8500004       5.48359358E-09
   23.9099998       6.21540241E-09
   23.9699993       6.98091673E-09
   24.0300007       7.77709985E-09
   24.0900002       8.59081695E-09
   24.1499996       9.40076106E-09
   24.2099991       1.01826032E-08
   24.2700005       1.09157190E-08
   24.3299999       1.15891190E-08
   24.3899994       1.22043184E-08
   24.4500008       1.27738708E-08
   24.5100002       1.33157192E-08
   24.5699997       1.38450282E-08
   24.6299992       1.43661367E-08
   24.6900005       1.48674006E-08
   24.7500000       1.53209285E-08
   24.8099995       1.56877142E-08
   24.8700008       1.59269700E-08
   24.9300003       1.60069469E-08
   24.9899998       1.59138818E-08
   25.0499992       1.56560702E-08
   25.1100006       1.52615254E-08
   25.1700001       1.47697383E-08
   25.2299995       1.42200944E-08
   25.2900009       1.36407836E-08
   25.3500004       1.30419275E-08
   25.4099998       1.24152519E-08
   25.4699993       1.17403198E-08
   25.5300007       1.09950040E-08
   25.5900002       1.01663602E-08
   25.6499996       9.25795796E-09
   25.7099991       8.29097058E-09
   25.7700005       7.29856353E-09
   25.8299999       6.31540997E-09
   25.8899994       5.36590594E-09
   25.9500008       4.45512516E-09
   26.0100002       3.56573460E-09
   26.0699997       2.66222089E-09
   26.1299992       1.70135950E-09
   26.1900005       6.45776654E-10
   26.2500000      -5.23734389E-10
   26.3099995      -1.80122273E-09
   26.3700008      -3.15635251E-09
   26.4300003      -4.54282123E-09
   26.4899998      -5.91169336E-09
   26.5499992      -7.22519555E-09
   26.6100006      -8.46634318E-09
   26.6700001      -9.64119629E-09
   26.7299995      -1.07730971E-08
   26.7900009      -1.18910073E-08
   26.8500004      -1.30159883E-08
   26.9099998      -1.41504666E-08
   26.9699993      -1.52739066E-08
   27.0300007      -1.63463678E-08
   27.0900002      -1.73188504E-08
   27.1499996      -1.81471904E-08
   27.2099991      -1.88050038E-08
   27.2700005      -1.92915444E-08
   27.3299999      -1.96317842E-08
   27.3899994      -1.98685708E-08
   27.4500008      -2.00492174E-08
   27.5100002      -2.02108570E-08
   27.5699997      -2.03693222E-08
   27.6299992      -2.05152233E-08
   27.6900005      -2.06184669E-08
   27.7500000      -2.06396393E-08
   27.8099995      -2.05443218E-08
   27.8700008      -2.03154755E-08
   27.9300003      -1.99597761E-08
   27.9899998      -1.95058920E-08
   28.0499992      -1.89953706E-08
   28.1100006      -1.84692528E-08
   28.1700001      -1.79548518E-08
   28.2299995      -1.74570367E-08
   28.2900009      -1.69569301E-08
   28.3500004      -1.64185021E-08
   28.4099998      -1.58010884E-08
   28.4699993      -1.50737520E-08
   28.5300007      -1.42268579E-08
   28.5900002      -1.32769085E-08
   28.6499996      -1.22629613E-08
   28.7099991      -1.12357084E-08
   28.7700005      -1.02428270E-08
   28.8299999      -9.31546751E-09
   28.8899994      -8.46035508E-09
   28.9500008      -7.66001307E-09
   29.0100002      -6.88087365E-09
   29.0699997      -6.08642514E-09
   29.1299992      -5.25099564E-09
   29.1900005      -4.36968417E-09
   29.2500000      -3.46129747E-09
   29.3099995      -2.56344590E-09
   29.3700008      -1.72144921E-09
   29.4300003      -9.74712533E-10
   29.4899998      -3.45110940E-10
   29.5499992       1.68641490E-10
   29.6100006       5.88560423E-10
   29.6700001       9.47549261E-10
   29.7299995       1.27544630E-09
   29.7900009       1.58585467E-09
   29.8500004       1.86851046E-09
   29.9099998       2.09001838E-09
   29.9699993       2.20276086E-09
   30.0300007       2.15882667E-09
   30.0900002       1.92406358E-09
   30.1499996       1.48748081E-09
   30.2099991       8.63081051E-10
   30.2700005       8.39527822E-11
   30.3299999      -8.08935863E-10
   30.3899994      -1.77926973E-09
   30.4500008      -2.80516588E-09
   30.5100002      -3.88331012E-09
   30.5699997      -5.02651964E-09
   30.6299992      -6.25589891E-09
   30.6900005      -7.59039231E-09
   30.7500000      -9.03731134E-09
   30.8099995      -1.05870654E-08
   30.8700008      -1.22139410E-08
   30.9300003      -1.38826932E-08
   30.9899998      -1.55586495E-08
   31.0499992      -1.72176531E-08
   31.1100006      -1.88522336E-08
   31.1700001      -2.04716368E-08
   31.2299995      -2.20957261E-08
   31.2900009      -2.37448603E-08
   31.3500004      -2.54293830E-08
   31.4099998      -2.71423097E-08
   31.4699993      -2.88576221E-08
   31.5300007      -3.05346930E-08
   31.5900002      -3.21273248E-08
   31.6499996      -3.35945920E-08
   31.7099991      -3.49100020E-08
   31.7700005      -3.60662078E-08
   31.8299999      -3.70735513E-08
   31.8899994      -3.79528160E-08
   31.9500008      -3.87243873E-08
   32.0099983      -3.93974382E-08
   32.0699997      -3.99630906E-08
   32.1300011      -4.03941876E-08
   32.1899986      -4.06521323E-08
   32.2500000      -4.06984810E-08
   32.3100014      -4.05070821E-08
   32.3699989      -4.00723366E-08
   32.4300003      -3.94105619E-08
   32.4900017      -3.85540879E-08
   32.5499992      -3.75404667E-08
   32.6100006      -3.64007704E-08
   32.6699982      -3.51508866E-08
   32.7299995      -3.37886341E-08
   32.7900009      -3.22971196E-08
   32.8499985      -3.06529593E-08
   32.9099998      -2.88366451E-08
   32.9700012      -2.68417235E-08
   33.0299988      -2.46801122E-08
   33.0900002      -2.23817516E-08
   33.1500015      -1.99885957E-08
   33.2099991      -1.75445933E-08
   33.2700005      -1.50847832E-08
   33.3300018      -1.26272184E-08
   33.3899994      -1.01706661E-08
   33.4500008      -7.69912489E-09
   33.5099983      -5.19172305E-09
   33.5699997      -2.63445488E-09
   33.6300011      -2.94332406E-11
   33.6899986       2.60175592E-09
   33.7500000       5.22179944E-09
   33.8100014       7.78707410E-09
   33.8699989       1.02592992E-08
   33.9300003       1.26153132E-08
   33.9900017       1.48516719E-08
   34.0499992       1.69826251E-08
   34.1100006       1.90322300E-08
   34.1699982       2.10233058E-08
   34.2299995       2.29668391E-08
   34.2900009       2.48554279E-08
   34.3499985       2.66629439E-08
   34.4099998       2.83506534E-08
   34.4700012       2.98776790E-08
   34.5299988       3.12121387E-08
   34.5900002       3.23389102E-08
   34.6500015       3.32611201E-08
   34.7099991       3.39947874E-08
   34.7700005       3.45587132E-08
   34.8300018       3.49634810E-08
   34.8899994       3.52037439E-08
   34.9500008       3.52566900E-08
   35.0099983       3.50872149E-08
   35.0699997       3.46578766E-08
   35.1300011       3.39402675E-08
   35.1899986       3.29240564E-08
   35.2500000       3.16209992E-08
   35.3100014       3.00628678E-08
   35.3699989       2.82941279E-08
   35.4300003       2.63616649E-08
   35.4900017       2.43046383E-08
   35.5499992       2.21474341E-08
   35.6100006       1.98978274E-08
   35.6699982       1.75508266E-08
   35.7299995       1.50969974E-08
   35.7900009       1.25324631E-08
   35.8499985       9.86731852E-09
   35.9099998       7.12953829E-09
   35.9700012       4.36308722E-09
   36.0299988       1.62082536E-09
   36.0900002      -1.04540554E-09
   36.1500015      -3.59430041E-09
   36.2099991      -6.00121508E-09
   36.2700005      -8.25914448E-09
   36.3300018      -1.03745048E-08
   36.3899994      -1.23593464E-08
   36.4500008      -1.42226684E-08
   36.5099983      -1.59636926E-08
   36.5699997      -1.75692776E-08
   36.6300011      -1.90162694E-08
   36.6899986      -2.02779820E-08
   36.7500000      -2.13326778E-08
   36.8100014      -2.21712977E-08
   36.8699989      -2.28018902E-08
   36.9300003      -2.32493971E-08
   36.9900017      -2.35507365E-08
   37.0499992      -2.37466597E-08
   37.1100006      -2.38725644E-08
   37.1699982      -2.39507063E-08
   37.2299995      -2.39857343E-08
   37.2900009      -2.39646951E-08
   37.3499985      -2.38615279E-08
   37.4099998      -2.36450735E-08
   37.4700012      -2.32886315E-08
   37.5299988      -2.27785275E-08
   37.5900002      -2.21192167E-08
   37.6500015      -2.13332214E-08
   37.7099991      -2.04557082E-08
   37.7700005      -1.95252596E-08
   37.8300018      -1.85737346E-08
   37.8899994      -1.76184827E-08
   37.9500008      -1.66593903E-08
   38.0099983      -1.56815858E-08
   38.0699997      -1.46627581E-08
   38.1300011      -1.35826523E-08
   38.1899986      -1.24318165E-08
   38.2500000      -1.12170495E-08
   38.3100014      -9.96205074E-09
   38.3699989      -8.70306494E-09
   38.4300003      -7.48064988E-09
   38.4900017      -6.32979580E-09
   38.5499992      -5.27128918E-09
   38.6100006      -4.30722835E-09
   38.6699982      -3.42259976E-09
   38.7299995      -2.59302047E-09
   38.7900009      -1.79651594E-09
   38.8499985      -1.02540587E-09
   38.9099998      -2.93893521E-10
   38.9700012       3.61854352E-10
   39.0299988       8.91763718E-10
   39.0900002       1.24567301E-09
   39.1500015       1.38833067E-09
   39.2099991       1.31044342E-09
   39.2700005       1.03196618E-09
   39.3300018       5.96459548E-10
   39.3899994       5.83217849E-11
   39.4500008      -5.33000422E-10
   39.5099983      -1.14677334E-09
   39.5699997      -1.77830795E-09
   39.6300011      -2.44747689E-09
   39.6899986      -3.18883098E-09
   39.7500000      -4.03651379E-09
   39.8100014      -5.00903585E-09
   39.8699989      -6.09921846E-09
   39.9300003      -7.27299687E-09
   39.9900017      -8.47770121E-09
   40.0499992      -9.65699254E-09
   40.1100006      -1.07671321E-08
   40.1699982      -1.17887575E-08
   40.2299995      -1.27300170E-08
   40.2900009      -1.36201601E-08
   40.3499985      -1.44961154E-08
   40.4099998      -1.53869451E-08
   40.4700012      -1.63015272E-08
   40.5299988      -1.72234103E-08
   40.5900002      -1.81142781E-08
   40.6500015      -1.89246396E-08
   40.7099991      -1.96083292E-08
   40.7700005      -2.01362624E-08
   40.8300018      -2.05053272E-08
   40.8899994      -2.07395701E-08
   40.9500008      -2.08832560E-08
   41.0099983      -2.09878550E-08
   41.0699997      -2.10970938E-08
   41.1300011      -2.12349924E-08
   41.1899986      -2.14009077E-08
   41.2500000      -2.15731397E-08
   41.3100014      -2.17195755E-08
   41.3699989      -2.18113261E-08
   41.4300003      -2.18343512E-08
   41.4900017      -2.17951168E-08
   41.5499992      -2.17187761E-08
   41.6100006      -2.16411529E-08
   41.6699982      -2.15979039E-08
   41.7299995      -2.16146976E-08
   41.7900009      -2.17014922E-08
   41.8499985      -2.18521503E-08
   41.9099998      -2.20488339E-08
   41.9700012      -2.22691270E-08
   42.0299988      -2.24933547E-08
   42.0900002      -2.27097257E-08
   42.1500015      -2.29158648E-08
   42.2099991      -2.31166126E-08
   42.2700005      -2.33192381E-08
   42.3300018      -2.35280631E-08
   42.3899994      -2.37405651E-08
   42.4500008      -2.39462263E-08
   42.5099983      -2.41281768E-08
   42.5699997      -2.42664324E-08
   42.6300011      -2.43411282E-08
   42.6899986      -2.43344456E-08
   42.7500000      -2.42309994E-08
   42.8100014      -2.40174103E-08
   42.8699989      -2.36821549E-08
   42.9300003      -2.32163710E-08
   42.9900017      -2.26154420E-08
   43.0499992      -2.18803216E-08
   43.1100006      -2.10175131E-08
   43.1699982      -2.00371026E-08
   43.2299995      -1.89493043E-08
   43.2900009      -1.77606996E-08
   43.3499985      -1.64716702E-08
   43.4099998      -1.50760719E-08
   43.4700012      -1.35634837E-08
   43.5299988      -1.19235004E-08
   43.5900002      -1.01509414E-08
   43.6500015      -8.25048385E-09
   43.7099991      -6.23921803E-09
   43.7700005      -4.14592272E-09
   43.8300018      -2.00664552E-09
   43.8899994       1.42664339E-10
   43.9500008       2.27447905E-09
   44.0099983       4.37615633E-09
   44.0699997       6.45188880E-09
   44.1300011       8.51881765E-09
   44.1899986       1.05981126E-08
   44.2500000       1.27039392E-08
   44.3100014       1.48343373E-08
   44.3699989       1.69676451E-08
   44.4300003       1.90661922E-08
   44.4900017       2.10863380E-08
   44.5499992       2.29915944E-08
   44.6100006       2.47641996E-08
   44.6699982       2.64109339E-08
   44.7299995       2.79606187E-08
   44.7900009       2.94534477E-08
   44.8499985       3.09251220E-08
   44.9099998       3.23908047E-08
   44.9700012       3.38345423E-08
   45.0299988       3.52084975E-08
   45.0900002       3.64433816E-08
   45.1500015       3.74676112E-08
   45.2099991       3.82291212E-08
   45.2700005       3.87122938E-08
   45.3300018       3.89436146E-08
   45.3899994       3.89833588E-08
   45.4500008       3.89057071E-08
   45.5099983       3.87741963E-08
   45.5699997       3.86211561E-08
   45.6300011       3.84387668E-08
   45.6899986       3.81849361E-08
   45.7500000       3.78019642E-08
   45.8100014       3.72412181E-08
   45.8699989       3.64849271E-08
   45.9300003       3.55572212E-08
   45.9900017       3.45202693E-08
   46.0499992       3.34564447E-08
   46.1100006       3.24424647E-08
   46.1699982       3.15240847E-08
   46.2299995       3.07001393E-08
   46.2900009       2.99216296E-08
   46.3499985       2.91066513E-08
   46.4099998       2.81665002E-08
   46.4700012       2.70343872E-08
   46.5299988       2.56871378E-08
   46.5900002       2.41525253E-08
   46.6500015       2.24998633E-08
   46.7099991       2.08171578E-08
   46.7700005       1.91827496E-08
   46.8300018       1.76411028E-08
   46.8899994       1.61907767E-08
   46.9500008       1.47883652E-08
   47.0099983       1.33666775E-08
   47.0699997       1.18608066E-08
   47.1300011       1.02332116E-08
   47.1899986       8.48942072E-09
   47.2500000       6.67913058E-09
   47.3100014       4.88236074E-09
   47.3699989       3.18527049E-09
   47.4300003       1.65377556E-09
   47.4900017       3.13943260E-10
   47.5499992      -8.54054216E-10
   47.6100006      -1.90622829E-09
   47.6699982      -2.91255242E-09
   47.7299995      -3.92988131E-09
   47.7900009      -4.97940400E-09
   47.8499985      -6.03645489E-09
   47.9099998      -7.03616632E-09
   47.9700012      -7.89295473E-09
   48.0299988      -8.52712567E-09
   48.0900002      -8.88961438E-09
   48.1500015      -8.97673313E-09
   48.2099991      -8.83034534E-09
   48.2700005      -8.52381099E-09
   48.3300018      -8.13868262E-09
   48.3899994      -7.73996156E-09
   48.4500008      -7.35789518E-09
   48.5099983      -6.98184000E-09
   48.5699997      -6.56752386E-09
   48.6300011      -6.05453687E-09
   48.6899986      -5.38763922E-09
   48.7500000      -4.53459670E-09
   48.8100014      -3.49494655E-09
   48.8699989      -2.29766828E-09
   48.9300003      -9.89712201E-10
   48.9900017       3.79742154E-10
   49.0499992       1.77357640E-09
   49.1100006       3.17511062E-09
   49.1699982       4.58873162E-09
   49.2299995       6.03372818E-09
   49.2900009       7.53426832E-09
   49.3499985       9.10909748E-09
   49.4099998       1.07639986E-08
   49.4700012       1.24887620E-08
   49.5299988       1.42589132E-08
   49.5900002       1.60411453E-08
   49.6500015       1.78004864E-08
   49.7099991       1.95069063E-08
   49.7700005       2.11394902E-08
   49.8300018       2.26871659E-08
   49.8899994       2.41463702E-08
   49.9500008       2.55170818E-08
   50.0099983       2.67990998E-08
   50.0699997       2.79900174E-08
   50.1300011       2.90851556E-08
   50.1899986       3.00786986E-08
   50.2500000       3.09647064E-08
   50.3100014       3.17370983E-08
   50.3699989       3.23886624E-08
   50.4300003       3.29101191E-08
   50.4900017       3.32904975E-08
   50.5499992       3.35194734E-08
   50.6100006       3.35911068E-08