 -0.750000000       0.00000000    
 -0.689999998       0.00000000    
 -0.629999995       0.00000000    
 -0.569999993       0.00000000    
 -0.509999990       0.00000000    
 -0.449999988       0.00000000    
 -0.389999986       0.00000000    
 -0.330000013       0.00000000    
 -0.270000011      -3.69462758E-26
 -0.209999993      -4.08950152E-25
 -0.150000006      -2.10610439E-24
  -9.00000036E-02  -6.10816024E-24
  -2.99999993E-02  -7.46683431E-24
   2.99999993E-02   1.92108945E-23
   9.00000036E-02   1.30889404E-22
  0.150000006       3.77434678E-22
  0.209999993       6.46155690E-22
  0.270000011       4.00417970E-22
  0.330000013      -1.42998071E-21
  0.389999986      -5.84395752E-21
  0.449999988      -1.19517590E-20
  0.509999990      -1.44435800E-20
  0.569999993      -2.78437577E-21
  0.629999995       3.39077618E-20
  0.689999998       9.39578302E-20
  0.750000000       1.46706039E-19
  0.810000002       1.27130035E-19
  0.870000005      -3.88991926E-20
  0.930000007      -3.70628536E-19
  0.990000010      -7.54064309E-19
   1.04999995      -9.12759685E-19
   1.11000001      -5.02312561E-19
   1.16999996       6.50177403E-19
   1.23000002       2.25933631E-18
   1.28999996       3.46623770E-18
   1.35000002       3.12261095E-18
   1.40999997       5.08822473E-19
   1.47000003      -3.83962227E-18
   1.52999997      -7.83004287E-18
   1.59000003      -8.60968955E-18
   1.64999998      -4.43123342E-18
   1.71000004       3.39450914E-18
   1.76999998       1.00979612E-17
   1.83000004       9.84770431E-18
   1.88999999       4.66729061E-19
   1.95000005      -1.23360571E-17
   2.00999999      -1.52839915E-17
   2.06999993       5.03123467E-18
   2.13000011       4.95760575E-17
   2.19000006       9.66527128E-17
   2.25000000       1.03994430E-16
   2.30999994       2.89882534E-17
   2.36999989      -1.38102965E-16
   2.43000007      -3.45702045E-16
   2.49000001      -4.80657210E-16
   2.54999995      -4.10697477E-16
   2.60999990      -6.08539108E-17
   2.67000008       5.12081762E-16
   2.73000002       1.09653497E-15
   2.78999996       1.38934759E-15
   2.84999990       1.13677433E-15
   2.91000009       2.92313135E-16
   2.97000003      -8.99595365E-16
   3.02999997      -1.96559586E-15
   3.08999991      -2.41199895E-15
   3.15000010      -1.98989385E-15
   3.21000004      -8.69056069E-16
   3.26999998       4.05789848E-16
   3.32999992       1.19606918E-15
   3.39000010       1.16233493E-15
   3.45000005       5.43116943E-16
   3.50999999       1.12097505E-16
   3.56999993       7.59761237E-16
   3.63000011       2.86976753E-15
   3.69000006       5.83201073E-15
   3.75000000       8.03699673E-15
   3.80999994       7.49161255E-15
   3.86999989       2.86286633E-15
   3.93000007      -5.53701922E-15
   3.99000001      -1.53870531E-14
   4.05000019      -2.29549198E-14
   4.11000013      -2.45440485E-14
   4.17000008      -1.82106985E-14
   4.23000002      -4.93528744E-15
   4.28999996       1.14129109E-14
   4.34999990       2.54615343E-14
   4.40999985       3.25576290E-14
   4.46999979       3.08355297E-14
   4.53000021       2.21046427E-14
   4.59000015       1.10086238E-14
   4.65000010       2.71327417E-15
   4.71000004       1.49951910E-16
   4.76999998       2.18676633E-15
   4.82999992       3.79934723E-15
   4.88999987      -1.56370615E-15
   4.94999981      -1.83172061E-14
   5.01000023      -4.54672344E-14
   5.07000017      -7.54794515E-14
   5.13000011      -9.62304577E-14
   5.19000006      -9.55919507E-14
   5.25000000      -6.68331764E-14
   5.30999994      -1.23821487E-14
   5.36999989       5.60136891E-14
   5.42999983       1.21140646E-13
   5.48999977       1.66666025E-13
   5.55000019       1.83094669E-13
   5.61000013       1.70441853E-13
   5.67000008       1.36246984E-13
   5.73000002       8.99614042E-14
   5.78999996       3.68337325E-14
   5.84999990      -2.50086952E-14
   5.90999985      -1.02039667E-13
   5.96999979      -1.98069331E-13
   6.03000021      -3.05896882E-13
   6.09000015      -4.02880203E-13
   6.15000010      -4.54161773E-13
   6.21000004      -4.23780558E-13
   6.26999998      -2.89766692E-13
   6.32999992      -5.66923150E-14
   6.38999987       2.40419690E-13
   6.44999981       5.43416657E-13
   6.51000023       7.87144655E-13
   6.57000017       9.17932071E-13
   6.63000011       9.06995887E-13
   6.69000006       7.53974357E-13
   6.75000000       4.80695074E-13
   6.80999994       1.19940163E-13
   6.86999989      -2.94078265E-13
   6.92999983      -7.28552039E-13
   6.98999977      -1.14770042E-12
   7.05000019      -1.50538739E-12
   7.11000013      -1.74133993E-12
   7.17000008      -1.78627295E-12
   7.23000002      -1.57683794E-12
   7.28999996      -1.07606437E-12
   7.34999990      -2.91567578E-13
   7.40999985       7.16022022E-13
   7.46999979       1.83826543E-12
   7.53000021       2.93622006E-12
   7.59000015       3.86374006E-12
   7.65000010       4.48890664E-12
   7.71000004       4.70724631E-12
   7.76999998       4.44415164E-12
   7.82999992       3.64789275E-12
   7.88999987       2.27711968E-12
   7.94999981       2.87037457E-13
   8.01000023      -2.38286431E-12
   8.06999969      -5.81832846E-12
   8.13000011      -1.01366528E-11
   8.18999958      -1.54888394E-11
   8.25000000      -2.20554928E-11
   8.31000042      -3.00338261E-11
   8.36999989      -3.96142459E-11
   8.43000031      -5.09481381E-11
   8.48999977      -6.41123404E-11
   8.55000019      -7.90791738E-11
   8.60999966      -9.57018007E-11
   8.67000008      -1.13721754E-10
   8.72999954      -1.32800146E-10
   8.78999996      -1.52566598E-10
   8.85000038      -1.72674333E-10
   8.90999985      -1.92846406E-10
   8.97000027      -2.12900239E-10
   9.02999973      -2.32742325E-10
   9.09000015      -2.52333182E-10
   9.14999962      -2.71629524E-10
   9.21000004      -2.90516194E-10
   9.27000046      -3.08741643E-10
   9.32999992      -3.25869581E-10
   9.39000034      -3.41255496E-10
   9.44999981      -3.54053481E-10
   9.51000023      -3.63254760E-10
   9.56999969      -3.67756409E-10
   9.63000011      -3.66456976E-10
   9.68999958      -3.58370528E-10
   9.75000000      -3.42747164E-10
   9.81000042      -3.19182708E-10
   9.86999989      -2.87699059E-10
   9.93000031      -2.48776305E-10
   9.98999977      -2.03324815E-10
   10.0500002      -1.52594257E-10
   10.1099997      -9.80282105E-11
   10.1700001      -4.10839904E-11
   10.2299995       1.69551560E-11
   10.2900000       7.51444809E-11
   10.3500004       1.32990161E-10
   10.4099998       1.90487709E-10
   10.4700003       2.48075782E-10
   10.5299997       3.06510400E-10
   10.5900002       3.66679576E-10
   10.6499996       4.29392577E-10
   10.7100000       4.95184171E-10
   10.7700005       5.64171931E-10
   10.8299999       6.35992314E-10
   10.8900003       7.09821146E-10
   10.9499998       7.84465826E-10
   11.0100002       8.58502158E-10
   11.0699997       9.30425459E-10
   11.1300001       9.98794158E-10
   11.1899996       1.06235343E-09
   11.2500000       1.12014031E-09
   11.3100004       1.17157106E-09
   11.3699999       1.21650479E-09
   11.4300003       1.25526667E-09
   11.4899998       1.28860567E-09
   11.5500002       1.31756794E-09
   11.6099997       1.34328437E-09
   11.6700001       1.36670697E-09
   11.7299995       1.38835043E-09
   11.7900000       1.40811707E-09
   11.8500004       1.42526069E-09
   11.9099998       1.43851830E-09
   11.9700003       1.44638479E-09
   12.0299997       1.44745704E-09
   12.0900002       1.44076484E-09
   12.1499996       1.42600443E-09
   12.2100000       1.40363809E-09
   12.2700005       1.37486067E-09
   12.3299999       1.34147127E-09
   12.3900003       1.30569622E-09
   12.4499998       1.26999067E-09
   12.5100002       1.23682942E-09
   12.5699997       1.20847787E-09
   12.6300001       1.18674681E-09
   12.6899996       1.17275811E-09
   12.7500000       1.16678256E-09
   12.8100004       1.16821031E-09
   12.8699999       1.17569210E-09
   12.9300003       1.18743348E-09
   12.9899998       1.20156718E-09
   13.0500002       1.21649857E-09
   13.1099997       1.23113142E-09
   13.1700001       1.24493260E-09
   13.2299995       1.25785382E-09
   13.2900000       1.27017930E-09
   13.3500004       1.28236288E-09
   13.4099998       1.29489208E-09
   13.4700003       1.30816780E-09
   13.5299997       1.32236921E-09
   13.5900002       1.33728495E-09
   13.6499996       1.35213962E-09
   13.7100000       1.36548861E-09
   13.7700005       1.37526823E-09
   13.8299999       1.37904899E-09
   13.8900003       1.37446843E-09
   13.9499998       1.35973421E-09
   14.0100002       1.33405542E-09
   14.0699997       1.29786959E-09
   14.1300001       1.25280986E-09
   14.1899996       1.20143784E-09
   14.2500000       1.14684184E-09
   14.3100004       1.09221487E-09
   14.3699999       1.04050013E-09
   14.4300003       9.94145988E-10
   14.4899998       9.54967772E-10
   14.5500002       9.24090471E-10
   14.6099997       9.01957453E-10
   14.6700001       8.88386364E-10
   14.7299995       8.82661055E-10
   14.7900000       8.83633722E-10
   14.8500004       8.89807339E-10
   14.9099998       8.99385677E-10
   14.9700003       9.10311049E-10
   15.0299997       9.20347076E-10
   15.0900002       9.27266874E-10
   15.1499996       9.29155919E-10
   15.2100000       9.24751220E-10
   15.2700005       9.13652265E-10
   15.3299999       8.96224317E-10
   15.3900003       8.73099204E-10
   15.4499998       8.44349368E-10
   15.5100002       8.08597134E-10
   15.5699997       7.62419738E-10
   15.6300001       7.00359826E-10
   15.6899996       6.15644369E-10
   15.7500000       5.01444886E-10
   15.8100004       3.52288171E-10
   15.8699999       1.65169031E-10
   15.9300003      -5.99565050E-11
   15.9899998      -3.20360349E-10
   16.0499992      -6.11215523E-10
   16.1100006      -9.26406729E-10
   16.1700001      -1.25915145E-09
   16.2299995      -1.60227176E-09
   16.2900009      -1.94816652E-09
   16.3500004      -2.28868879E-09
   16.4099998      -2.61516031E-09
   16.4699993      -2.91867686E-09
   16.5300007      -3.19070814E-09
   16.5900002      -3.42386897E-09
   16.6499996      -3.61266750E-09
   16.7099991      -3.75405440E-09
   16.7700005      -3.84766530E-09
   16.8299999      -3.89572863E-09
   16.8899994      -3.90270127E-09
   16.9500008      -3.87472054E-09
   17.0100002      -3.81899712E-09
   17.0699997      -3.74321996E-09
   17.1299992      -3.65503472E-09
   17.1900005      -3.56158569E-09
   17.2500000      -3.46908857E-09
   17.3099995      -3.38241501E-09
   17.3700008      -3.30469430E-09
   17.4300003      -3.23699179E-09
   17.4899998      -3.17814508E-09
   17.5499992      -3.12482484E-09
   17.6100006      -3.07182879E-09
   17.6700001      -3.01255421E-09
   17.7299995      -2.93957148E-09
   17.7900009      -2.84522850E-09
   17.8500004      -2.72227862E-09
   17.9099998      -2.56455857E-09
   17.9699993      -2.36774245E-09
   18.0300007      -2.13011964E-09
   18.0900002      -1.85327897E-09
   18.1499996      -1.54251500E-09
   18.2099991      -1.20681709E-09
   18.2700005      -8.58394467E-10
   18.3299999      -5.11826193E-10
   18.3899994      -1.83004403E-10
   18.4500008       1.11948249E-10
   18.5100002       3.57676139E-10
   18.5699997       5.40474776E-10
   18.6299992       6.49088838E-10
   18.6900005       6.75444478E-10
   18.7500000       6.15288376E-10
   18.8099995       4.68651673E-10
   18.8700008       2.40038933E-10
   18.9300003      -6.17310369E-11
   18.9899998      -4.24051044E-10
   19.0499992      -8.31379077E-10
   19.1100006      -1.26633359E-09
   19.1700001      -1.71091064E-09
   19.2299995      -2.14768270E-09
   19.2900009      -2.56082955E-09
   19.3500004      -2.93688540E-09
   19.4099998      -3.26514571E-09
   19.4699993      -3.53778384E-09
   19.5300007      -3.74979781E-09
   19.5900002      -3.89892607E-09
   19.6499996      -3.98561761E-09
   19.7099991      -4.01301614E-09
   19.7700005      -3.98683797E-09
   19.8299999      -3.91498656E-09
   19.8899994      -3.80683618E-09
   19.9500008      -3.67224007E-09
   20.0100002      -3.52042417E-09
   20.0699997      -3.35898442E-09
   20.1299992      -3.19313931E-09
   20.1900005      -3.02530823E-09
   20.2500000      -2.85501511E-09
   20.3099995      -2.67907363E-09
   20.3700008      -2.49202192E-09
   20.4300003      -2.28676145E-09
   20.4899998      -2.05533701E-09
   20.5499992      -1.78976345E-09
   20.6100006      -1.48279811E-09
   20.6700001      -1.12861842E-09
   20.7299995      -7.23432481E-10
   20.7900009      -2.66103528E-10
   20.8500004       2.41180603E-10
   20.9099998       7.92280408E-10
   20.9699993       1.37673228E-09
   21.0300007       1.97987027E-09
   21.0900002       2.58355293E-09
   21.1499996       3.16738147E-09
   21.2099991       3.71009667E-09
   21.2700005       4.19080015E-09
   21.3299999       4.58980054E-09
   21.3899994       4.88914820E-09
   21.4500008       5.07312103E-09
   21.5100002       5.12893727E-09
   21.5699997       5.04779729E-09
   21.6299992       4.82606577E-09
   21.6900005       4.46627224E-09
   21.7500000       3.97760846E-09
   21.8099995       3.37581341E-09
   21.8700008       2.68255529E-09
   21.9300003       1.92453142E-09
   21.9899998       1.13244425E-09
   22.0499992       3.39869827E-10
   22.1100006      -4.18076379E-10
   22.1700001      -1.10633624E-09
   22.2299995      -1.69169523E-09
   22.2900009      -2.14455076E-09
   22.3500004      -2.44043097E-09
   22.4099998      -2.56114929E-09
   22.4699993      -2.49562571E-09
   22.5300007      -2.24048113E-09
   22.5900002      -1.80044712E-09
   22.6499996      -1.18847654E-09
   22.7099991      -4.25366992E-10
   22.7700005       4.61233718E-10
   22.8299999       1.43835610E-09
   22.8899994       2.46947951E-09
   22.9500008       3.51620022E-09
   23.0100002       4.53960469E-09
   23.0699997       5.50142820E-09
   23.1299992       6.36525588E-09
   23.1900005       7.09798442E-09
   23.2500000       7.67151587E-09
   23.3099995       8.06435985E-09
   23.3700008       8.26271851E-09
   23.4300003       8.26074853E-09
   23.4899998       8.06005040E-09
   23.5499992       7.66872610E-09
   23.6100006       7.10042292E-09
   23.6700001       6.37361319E-09
   23.7299995       5.51109114E-09
   23.7900009       4.53949589E-09
   23.8500004       3.48865492E-09
   23.9099998       2.39073583E-09
   23.9699993       1.27930477E-09
   24.0300007       1.88386723E-10
   24.0900002      -8.48543513E-10
   24.1499996      -1.79984860E-09
   24.2099991      -2.63744271E-09
   24.2700005      -3.33880190E-09
   24.3299999      -3.88879062E-09
   24.3899994      -4.28066116E-09
   24.4500008      -4.51579796E-09
   24.5100002      -4.60226035E-09
   24.5699997      -4.55272042E-09
   24.6299992      -4.38259340E-09
   24.6900005      -4.10895495E-09
   24.7500000      -3.75029252E-09
   24.8099995      -3.32661743E-09
   24.8700008      -2.85927970E-09
   24.9300003      -2.37002573E-09
   24.9899998      -1.87934290E-09
   25.0499992      -1.40455680E-09
   25.1100006      -9.58304769E-10
   25.1700001      -5.47845269E-10
   25.2299995      -1.75349721E-10
   25.2900009       1.60961591E-10
   25.3500004       4.65114031E-10
   25.4099998       7.41425310E-10
   25.4699993       9.92669946E-10
   25.5300007       1.21879851E-09
   25.5900002       1.41664636E-09
   25.6499996       1.58086710E-09
   25.7099991       1.70588277E-09
   25.7700005       1.78814030E-09
   25.8299999       1.82768545E-09
   25.8899994       1.82825510E-09
   25.9500008       1.79573234E-09
   26.0100002       1.73561543E-09
   26.0699997       1.65067038E-09
   26.1299992       1.53988355E-09
   26.1900005       1.39919820E-09
   26.2500000       1.22367549E-09
   26.3099995       1.01008135E-09
   26.3700008       7.58804186E-10
   26.4300003       4.74409900E-10
   26.4899998       1.64784922E-10
   26.5499992      -1.60653379E-10
   26.6100006      -4.92973162E-10
   26.6700001      -8.25337965E-10
   26.7299995      -1.15378984E-09
   26.7900009      -1.47701817E-09
   26.8500004      -1.79515114E-09
   26.9099998      -2.10787032E-09
   26.9699993      -2.41244380E-09
   27.0300007      -2.70247069E-09
   27.0900002      -2.96805647E-09
   27.1499996      -3.19766347E-09
   27.2099991      -3.38116912E-09
   27.2700005      -3.51300700E-09
   27.3299999      -3.59408281E-09
   27.3899994      -3.63158570E-09
   27.4500008      -3.63668851E-09
   27.5100002      -3.62104080E-09
   27.5699997      -3.59340979E-09
   27.6299992      -3.55766838E-09
   27.6900005      -3.51265927E-09
   27.7500000      -3.45370221E-09
   27.8099995      -3.37498229E-09
   27.8700008      -3.27194227E-09
   27.9300003      -3.14300430E-09
   27.9899998      -2.99024383E-09
   28.0499992      -2.81890289E-09
   28.1100006      -2.63585664E-09
   28.1700001      -2.44739073E-09
   28.2299995      -2.25693331E-09
   28.2900009      -2.06356066E-09
   28.3500004      -1.86197113E-09
   28.4099998      -1.64413350E-09
   28.4699993      -1.40208356E-09
   28.5300007      -1.13076037E-09
   28.5900002      -8.29666724E-10
   28.6499996      -5.02646980E-10
   28.7099991      -1.55942967E-10
   28.7700005       2.04526160E-10
   28.8299999       5.75431092E-10
   28.8899994       9.56939861E-10
   28.9500008       1.35205991E-09
   29.0100002       1.76486536E-09
   29.0699997       2.19837726E-09
   29.1299992       2.65277178E-09
   29.1900005       3.12431214E-09
   29.2500000       3.60515795E-09
   29.3099995       4.08409395E-09
   29.3700008       4.54814630E-09
   29.4300003       4.98486363E-09
   29.4899998       5.38470601E-09
   29.5499992       5.74270720E-09
   29.6100006       6.05863182E-09
   29.6700001       6.33537045E-09
   29.7299995       6.57613253E-09
   29.7900009       6.78168632E-09
   29.8500004       6.94897340E-09
   29.9099998       7.07182757E-09
   29.9699993       7.14348580E-09
   30.0300007       7.15967818E-09
   30.0900002       7.12084081E-09
   30.1499996       7.03250347E-09
   30.2099991       6.90383395E-09
   30.2700005       6.74515332E-09
   30.3299999       6.56551036E-09
   30.3899994       6.37109121E-09
   30.4500008       6.16464035E-09
   30.5100002       5.94562755E-09
   30.5699997       5.71079362E-09
   30.6299992       5.45491341E-09
   30.6900005       5.17183496E-09
   30.7500000       4.85582508E-09
   30.8099995       4.50300774E-09
   30.8700008       4.11242329E-09
   30.9300003       3.68622755E-09
   30.9899998       3.22891114E-09
   31.0499992       2.74587952E-09
   31.1100006       2.24210228E-09
   31.1700001       1.72146353E-09
   31.2299995       1.18704202E-09
   31.2900009       6.42031150E-10
   31.3500004       9.07139294E-11
   31.4099998      -4.61027716E-10
   31.4699993      -1.00586128E-09
   31.5300007      -1.53565416E-09
   31.5900002      -2.04232520E-09
   31.6499996      -2.51867371E-09
   31.7099991      -2.95910985E-09
   31.7700005      -3.36027228E-09
   31.8299999      -3.72142739E-09
   31.8899994      -4.04442124E-09
   31.9500008      -4.33297442E-09
   32.0099983      -4.59133087E-09
   32.0699997      -4.82263607E-09
   32.1300011      -5.02763076E-09
   32.1899986      -5.20419663E-09
   32.2500000      -5.34794564E-09
   32.3100014      -5.45358647E-09
   32.3699989      -5.51652990E-09
   32.4300003      -5.53417090E-09
   32.4900017      -5.50654056E-09
   32.5499992      -5.43628564E-09
   32.6100006      -5.32810240E-09
   32.6699982      -5.18776311E-09
   32.7299995      -5.02086994E-09
   32.7900009      -4.83155693E-09
   32.8499985      -4.62152139E-09
   32.9099998      -4.38987691E-09
   32.9700012      -4.13413481E-09
   33.0299988      -3.85216170E-09
   33.0900002      -3.54436325E-09
   33.1500015      -3.21502358E-09
   33.2099991      -2.87192914E-09
   33.2700005      -2.52415577E-09
   33.3300018      -2.17882823E-09
   33.3899994      -1.83830029E-09
   33.4500008      -1.49914026E-09
   33.5099983      -1.15353749E-09
   33.5699997      -7.92657717E-10
   33.6300011      -4.10585482E-10
   33.6899986      -7.25426576E-12
   33.7500000       4.10764145E-10
   33.8100014       8.31819891E-10
   33.8699989       1.24238198E-09
   33.9300003       1.63061509E-09
   33.9900017       1.98905337E-09
   34.0499992       2.31550490E-09
   34.1100006       2.61196109E-09
   34.1699982       2.88193069E-09
   34.2299995       3.12712123E-09
   34.2900009       3.34461037E-09
   34.3499985       3.52557117E-09
   34.4099998       3.65614228E-09
   34.4700012       3.72034004E-09
   34.5299988       3.70413056E-09
   34.5900002       3.59927221E-09
   34.6500015       3.40552231E-09
   34.7099991       3.13036197E-09
   34.7700005       2.78632339E-09
   34.8300018       2.38693754E-09
   34.8899994       1.94284966E-09
   34.9500008       1.45956347E-09
   35.0099983       9.37608213E-10
   35.0699997       3.74963227E-10
   35.1300011      -2.29288075E-10
   35.1899986      -8.71557271E-10
   35.2500000      -1.54197644E-09
   35.3100014      -2.22500818E-09
   35.3699989      -2.90229840E-09
   35.4300003      -3.55676355E-09
   35.4900017      -4.17638191E-09
   35.5499992      -4.75620432E-09
   35.6100006      -5.29774757E-09
   35.6699982      -5.80596904E-09
   35.7299995      -6.28502983E-09
   35.7900009      -6.73462974E-09
   35.8499985      -7.14848447E-09
   35.9099998      -7.51562546E-09
   35.9700012      -7.82398590E-09
   36.0299988      -8.06472134E-09
   36.0900002      -8.23544877E-09
   36.1500015      -8.34107361E-09
   36.2099991      -8.39195025E-09
   36.2700005      -8.40021919E-09
   36.3300018      -8.37579872E-09
   36.3899994      -8.32351699E-09
   36.4500008      -8.24225310E-09
   36.5099983      -8.12619394E-09
   36.5699997      -7.96759458E-09
   36.6300011      -7.76008413E-09
   36.6899986      -7.50152473E-09
   36.7500000      -7.19565740E-09
   36.8100014      -6.85212020E-09
   36.8699989      -6.48491083E-09
   36.9300003      -6.10978290E-09
   36.9900017      -5.74144599E-09
   37.0499992      -5.39149836E-09
   37.1100006      -5.06775821E-09
   37.1699982      -4.77505369E-09
   37.2299995      -4.51690507E-09
   37.2900009      -4.29712177E-09
   37.3499985      -4.12041690E-09
   37.4099998      -3.99166300E-09
   37.4700012      -3.91411970E-09
   37.5299988      -3.88743793E-09
   37.5900002      -3.90631083E-09
   37.6500015      -3.96028366E-09
   37.7099991      -4.03467704E-09
   37.7700005      -4.11223811E-09
   37.8300018      -4.17501411E-09
   37.8899994      -4.20614965E-09
   37.9500008      -4.19147161E-09
   38.0099983      -4.12076284E-09
   38.0699997      -3.98851885E-09
   38.1300011      -3.79388698E-09
   38.1899986      -3.53959817E-09
   38.2500000      -3.23009397E-09
   38.3100014      -2.86949153E-09
   38.3699989      -2.46023779E-09
   38.4300003      -2.00309636E-09
   38.4900017      -1.49851309E-09
   38.5499992      -9.48729761E-10
   38.6100006      -3.59642316E-10
   38.6699982       2.58479599E-10
   38.7299995       8.91751062E-10
   38.7900009       1.52459367E-09
   38.8499985       2.14208140E-09
   38.9099998       2.73193890E-09
   38.9700012       3.28569238E-09
   39.0299988       3.79882925E-09
   39.0900002       4.27005942E-09
   39.1500015       4.69988404E-09
   39.2099991       5.08874498E-09
   39.2700005       5.43515588E-09
   39.3300018       5.73439030E-09
   39.3899994       5.97832406E-09
   39.4500008       6.15674711E-09
   39.5099983       6.25984864E-09
   39.5699997       6.28094554E-09
   39.6300011       6.21821439E-09
   39.6899986       6.07446937E-09
   39.7500000       5.85493209E-09
   39.8100014       5.56392310E-09
   39.8699989       5.20205834E-09
   39.9300003       4.76534590E-09
   39.9900017       4.24668523E-09
   40.0499992       3.63908925E-09
   40.1100006       2.93911628E-09
   40.1699982       2.14894302E-09
   40.2299995       1.27622035E-09
   40.2900009       3.31944777E-10
   40.3499985      -6.72552458E-10
   40.4099998      -1.72812253E-09
   40.4700012      -2.82883295E-09
   40.5299988      -3.97127264E-09
   40.5900002      -5.15259568E-09
   40.6500015      -6.36815223E-09
   40.7099991      -7.60956187E-09
   40.7700005      -8.86381546E-09
   40.8300018      -1.01136566E-08
   40.8899994      -1.13391696E-08
   40.9500008      -1.25201662E-08
   41.0099983      -1.36387577E-08
   41.0699997      -1.46813175E-08
   41.1300011      -1.56391540E-08
   41.1899986      -1.65076379E-08
   41.2500000      -1.72840853E-08
   41.3100014      -1.79652790E-08
   41.3699989      -1.85457250E-08
   41.4300003      -1.90174152E-08
   41.4900017      -1.93712033E-08
   41.5499992      -1.95991525E-08
   41.6100006      -1.96967864E-08
   41.6699982      -1.96643200E-08
   41.7299995      -1.95064462E-08
   41.7900009      -1.92309493E-08
   41.8499985      -1.88468672E-08
   41.9099998      -1.83629272E-08
   41.9700012      -1.77867339E-08
   42.0299988      -1.71247443E-08
   42.0900002      -1.63828240E-08
   42.1500015      -1.55670552E-08
   42.2099991      -1.46844537E-08
   42.2700005      -1.37434002E-08
   42.3300018      -1.27534934E-08
   42.3899994      -1.17247154E-08
   42.4500008      -1.06659863E-08
   42.5099983      -9.58354018E-09
   42.5699997      -8.47983284E-09
   42.6300011      -7.35369676E-09
   42.6899986      -6.20204599E-09
   42.7500000      -5.02272801E-09
   42.8100014      -3.81748899E-09
   42.8699989      -2.59378652E-09
   42.9300003      -1.36459533E-09
   42.9900017      -1.46190823E-10
   43.0499992       1.04521214E-09
   43.1100006       2.19660001E-09
   43.1699982       3.29987526E-09
   43.2299995       4.35161551E-09
   43.2900009       5.35119460E-09
   43.3499985       6.29821795E-09
   43.4099998       7.19036652E-09
   43.4700012       8.02247779E-09
   43.5299988       8.78715056E-09
   43.5900002       9.47661949E-09
   43.6500015       1.00852153E-08
   43.7099991       1.06115454E-08
   43.7700005       1.10595373E-08
   43.8300018       1.14378027E-08
   43.8899994       1.17573258E-08
   43.9500008       1.20281634E-08
   44.0099983       1.22563382E-08
   44.0699997       1.24422215E-08
   44.1300011       1.25812125E-08
   44.1899986       1.26665203E-08
   44.2500000       1.26929320E-08
   44.3100014       1.26598971E-08
   44.3699989       1.25725599E-08
   44.4300003       1.24403288E-08
   44.4900017       1.22737331E-08
   44.5499992       1.20810979E-08
   44.6100006       1.18665247E-08
   44.6699982       1.16299530E-08
   44.7299995       1.13689955E-08
   44.7900009       1.10814504E-08
   44.8499985       1.07672680E-08
   44.9099998       1.04291615E-08
   44.9700012       1.00718598E-08
   45.0299988       9.70055059E-09
   45.0900002       9.31934441E-09
   45.1500015       8.93033381E-09
   45.2099991       8.53349746E-09
   45.2700005       8.12731304E-09
   45.3300018       7.70975728E-09
   45.3899994       7.27935578E-09
   45.4500008       6.83599266E-09
   45.5099983       6.38131548E-09
   45.5699997       5.91868243E-09
   45.6300011       5.45276491E-09
   45.6899986       4.98902297E-09
   45.7500000       4.53328264E-09
   45.8100014       4.09152356E-09
   45.8699989       3.66976560E-09
   45.9300003       3.27379834E-09
   45.9900017       2.90855384E-09
   46.0499992       2.57718469E-09
   46.1100006       2.28023489E-09
   46.1699982       2.01543671E-09
   46.2299995       1.77846848E-09
   46.2900009       1.56455437E-09
   46.3499985       1.37029266E-09
   46.4099998       1.19490795E-09
   46.4700012       1.04035680E-09
   46.5299988       9.10265363E-10
   46.5900002       8.08223544E-10
   46.6500015       7.36207095E-10
   46.7099991       6.93724800E-10
   46.7700005       6.77870982E-10
   46.8300018       6.84067469E-10
   46.8899994       7.07119974E-10
   46.9500008       7.42298167E-10
   47.0099983       7.86294474E-10
   47.0699997       8.37954595E-10
   47.1300011       8.98582153E-10
   47.1899986       9.71545733E-10
   47.2500000       1.06106857E-09
   47.3100014       1.17047882E-09
   47.3699989       1.30065758E-09
   47.4300003       1.44957579E-09
   47.4900017       1.61345182E-09
   47.5499992       1.78925308E-09
   47.6100006       1.97742689E-09
   47.6699982       2.18338991E-09
   47.7299995       2.41672415E-09
   47.7900009       2.68806688E-09
   47.8499985       3.00484171E-09
   47.9099998       3.36760486E-09
   47.9700012       3.76857656E-09
   48.0299988       4.19296686E-09
   48.0900002       4.62250860E-09
   48.1500015       5.03977704E-09
   48.2099991       5.43171552E-09
   48.2700005       5.79132786E-09
   48.3300018       6.11730666E-09
   48.3899994       6.41213038E-09
   48.4500008       6.67950539E-09
   48.5099983       6.92204560E-09
   48.5699997       7.13981541E-09
   48.6300011       7.33005479E-09
   48.6899986       7.48810347E-09
   48.7500000       7.60922791E-09
   48.8100014       7.69080355E-09
   48.8699989       7.73406938E-09
   48.9300003       7.74472930E-09
   48.9900017       7.73195641E-09
   49.0499992       7.70590258E-09
   49.1100006       7.67446107E-09
   49.1699982       7.64039232E-09
   49.2299995       7.59993046E-09
   49.2900009       7.54349205E-09
   49.3499985       7.45836282E-09
   49.4099998       7.33251282E-09
   49.4700012       7.15824955E-09
   49.5299988       6.93445523E-09
   49.5900002       6.66666766E-09
   49.6500015       6.36499164E-09
   49.7099991       6.04062800E-09
   49.7700005       5.70225733E-09
   49.8300018       5.35356826E-09
   49.8899994       4.99275998E-09
   49.9500008       4.61408556E-09
   50.0099983       4.21073221E-09
   50.0699997       3.77782738E-09
   50.1300011       3.31437011E-09
   50.1899986       2.82340640E-09
   50.2500000       2.31052799E-09
   50.3100014       1.78149451E-09
   50.3699989       1.24008703E-09
   50.4300003       6.87111257E-10
   50.4900017       1.20882665E-10
   50.5499992      -4.61154198E-10
   50.6100006      -1.06047426E-09