  -2.400000      0.0000000E+00
  -2.340000      0.0000000E+00
  -2.280000      0.0000000E+00
  -2.220000      0.0000000E+00
  -2.160000      0.0000000E+00
  -2.100000      0.0000000E+00
  -2.040000      0.0000000E+00
  -1.980000      0.0000000E+00
  -1.920000     -2.3230588E-27
  -1.860000     -2.1176467E-26
  -1.800000     -8.4622897E-26
  -1.740000     -1.5626081E-25
  -1.680000      1.0366394E-25
  -1.620000      1.5599092E-24
  -1.560000      5.0101187E-24
  -1.500000      8.4106583E-24
  -1.440000      1.0386049E-24
  -1.380000     -4.3268326E-23
  -1.320000     -1.6408737E-22
  -1.260000     -3.8058644E-22
  -1.200000     -5.9119857E-22
  -1.140000     -3.9324146E-22
  -1.080000      1.0791036E-21
  -1.020000      4.9662737E-21
 -0.9600000      1.1586072E-20
 -0.9000000      1.8063725E-20
 -0.8400000      1.5500197E-20
 -0.7800000     -1.1274765E-20
 -0.7200000     -7.6369192E-20
 -0.6600000     -1.7437147E-19
 -0.6000000     -2.5535508E-19
 -0.5400000     -2.1217501E-19
 -0.4800000      8.9422043E-20
 -0.4200000      7.1456369E-19
 -0.3600000      1.5139543E-18
 -0.3000000      2.0143513E-18
 -0.2400000      1.4847748E-18
 -0.1800000     -7.0558129E-19
 -0.1200000     -4.4757308E-18
 -5.9999999E-02 -8.4617591E-18
  0.0000000E+00 -9.9935379E-18
  5.9999999E-02 -6.0748562E-18
  0.1200000      4.6506431E-18
  0.1800000      1.9765282E-17
  0.2400000      3.2283099E-17
  0.3000000      3.2652124E-17
  0.3600000      1.3790771E-17
  0.4200000     -2.2733607E-17
  0.4800000     -6.3188863E-17
  0.5400000     -8.4740478E-17
  0.6000000     -6.6273433E-17
  0.6600000     -3.1646255E-18
  0.7200000      8.2463382E-17
  0.7800000      1.4522514E-16
  0.8400000      1.3738329E-16
  0.9000000      4.0244193E-17
  0.9600000     -1.1127477E-16
   1.020000     -2.3083861E-16
   1.080000     -2.1937522E-16
   1.140000     -2.8826841E-17
   1.200000      2.8226899E-16
   1.260000      5.4245843E-16
   1.320000      5.3464608E-16
   1.380000      1.2201040E-16
   1.440000     -6.2644005E-16
   1.500000     -1.3914281E-15
   1.560000     -1.6987005E-15
   1.620000     -1.1460795E-15
   1.680000      3.2929226E-16
   1.740000      2.2893147E-15
   1.800000      3.8676698E-15
   1.860000      4.1070874E-15
   1.920000      2.4471527E-15
   1.980000     -8.6816547E-16
   2.040000     -4.7084635E-15
   2.100000     -7.4237745E-15
   2.160000     -7.5637586E-15
   2.220000     -4.6374605E-15
   2.280000      4.8482075E-16
   2.340000      5.8080905E-15
   2.400000      9.0702575E-15
   2.460000      8.8582172E-15
   2.520000      5.4135599E-15
   2.580000      6.3486967E-16
   2.640000     -2.8481292E-15
   2.700000     -3.1476536E-15
   2.760000     -3.7650141E-16
   2.820000      3.0847288E-15
   2.880000      3.6621220E-15
   2.940000     -1.3529837E-15
   3.000000     -1.1758319E-14
   3.060000     -2.3601821E-14
   3.120000     -3.0307035E-14
   3.180000     -2.5580580E-14
   3.240000     -6.9079594E-15
   3.300000      2.2099040E-14
   3.360000      5.1946799E-14
   3.420000      7.0440866E-14
   3.480000      6.7711109E-14
   3.540000      4.0919552E-14
   3.600000     -3.6158151E-15
   3.660000     -5.2132432E-14
   3.720000     -8.8494052E-14
   3.780000     -1.0051748E-13
   3.840000     -8.4745978E-14
   3.900000     -4.7485795E-14
   3.960000     -1.6383004E-15
   4.020000      3.9139560E-14
   4.080000      6.6114337E-14
   4.140000      7.8238265E-14
   4.200000      8.0695968E-14
   4.260000      8.0091824E-14
   4.320000      7.8926659E-14
   4.380000      7.2526485E-14
   4.440000      5.0502818E-14
   4.500000      2.5983587E-15
   4.560000     -7.3569311E-14
   4.620000     -1.6668109E-13
   4.680000     -2.5123694E-13
   4.740000     -2.9381762E-13
   4.800000     -2.6460811E-13
   4.860000     -1.5020533E-13
   4.920000      3.7299187E-14
   4.980000      2.5903718E-13
   5.040000      4.5736174E-13
   5.100000      5.7131150E-13
   5.160000      5.5496786E-13
   5.220000      3.9292408E-13
   5.280000      1.0783673E-13
   5.340000     -2.4254275E-13
   5.400000     -5.7821955E-13
   5.460000     -8.1608147E-13
   5.520000     -8.8992935E-13
   5.580000     -7.6601816E-13
   5.640000     -4.5037173E-13
   5.700000      1.3103200E-14
   5.760000      5.5179483E-13
   5.820000      1.0770066E-12
   5.880000      1.4959678E-12
   5.940000      1.7208557E-12
   6.000000      1.6752698E-12
   6.060000      1.3011388E-12
   6.120000      5.6968791E-13
   6.180000     -5.0205798E-13
   6.240000     -1.8322433E-12
   6.300000     -3.2604486E-12
   6.360000     -4.5494372E-12
   6.420000     -5.4102755E-12
   6.480000     -5.5515570E-12
   6.540000     -4.7438225E-12
   6.600000     -2.8823799E-12
   6.660000     -2.9592898E-14
   6.720000      3.5768693E-12
   6.780000      7.5522904E-12
   6.840000      1.1420217E-11
   6.900000      1.4678030E-11
   6.960000      1.6856353E-11
   7.020000      1.7562967E-11
   7.080000      1.6511133E-11
   7.140000      1.3537991E-11
   7.200000      8.6175711E-12
   7.260000      1.8662099E-12
   7.320000     -6.4693377E-12
   7.380000     -1.6052748E-11
   7.440000     -2.6532738E-11
   7.500000     -3.7642504E-11
   7.560000     -4.9300546E-11
   7.620000     -6.1682111E-11
   7.680000     -7.5234999E-11
   7.740000     -9.0628310E-11
   7.800000     -1.0864244E-10
   7.860000     -1.3002444E-10
   7.920000     -1.5533899E-10
   7.980000     -1.8484125E-10
   8.040000     -2.1838729E-10
   8.100000     -2.5538768E-10
   8.160000     -2.9480390E-10
   8.220000     -3.3518593E-10
   8.280000     -3.7475123E-10
   8.340000     -4.1150333E-10
   8.400000     -4.4338413E-10
   8.460000     -4.6844467E-10
   8.520000     -4.8501309E-10
   8.580000     -4.9183613E-10
   8.640000     -4.8817433E-10
   8.700000     -4.7384063E-10
   8.760000     -4.4918153E-10
   8.820000     -4.1500761E-10
   8.880000     -3.7248316E-10
   8.940000     -3.2298705E-10
   9.000000     -2.6795879E-10
   9.060000     -2.0874885E-10
   9.120000     -1.4649766E-10
   9.180000     -8.2070531E-11
   9.240000     -1.6068424E-11
   9.300000      5.1082139E-11
   9.360000      1.1898242E-10
   9.420000      1.8710510E-10
   9.480000      2.5468772E-10
   9.540000      3.2072717E-10
   9.600000      3.8409625E-10
   9.660000      4.4375797E-10
   9.720000      4.9901372E-10
   9.780000      5.4970029E-10
   9.840000      5.9626215E-10
   9.900000      6.3966898E-10
   9.960000      6.8120232E-10
   10.02000      7.2218009E-10
   10.08000      7.6370521E-10
   10.14000      8.0649970E-10
   10.20000      8.5084401E-10
   10.26000      8.9659025E-10
   10.32000      9.4319907E-10
   10.38000      9.8975972E-10
   10.44000      1.0349943E-09
   10.50000      1.0772887E-09
   10.56000      1.1148147E-09
   10.62000      1.1457784E-09
   10.68000      1.1687774E-09
   10.74000      1.1831788E-09
   10.80000      1.1893879E-09
   10.86000      1.1888927E-09
   10.92000      1.1840269E-09
   10.98000      1.1774971E-09
   11.04000      1.1717981E-09
   11.10000      1.1686839E-09
   11.16000      1.1688364E-09
   11.22000      1.1717959E-09
   11.28000      1.1761344E-09
   11.34000      1.1797723E-09
   11.40000      1.1803319E-09
   11.46000      1.1754498E-09
   11.52000      1.1630286E-09
   11.58000      1.1414583E-09
   11.64000      1.1098471E-09
   11.70000      1.0682668E-09
   11.76000      1.0179656E-09
   11.82000      9.6145403E-10
   11.88000      9.0237995E-10
   11.94000      8.4515128E-10
   12.00000      7.9435281E-10
   12.06000      7.5407575E-10
   12.12000      7.2731132E-10
   12.18000      7.1553630E-10
   12.24000      7.1855399E-10
   12.30000      7.3457285E-10
   12.36000      7.6044565E-10
   12.42000      7.9197721E-10
   12.48000      8.2422436E-10
   12.54000      8.5176199E-10
   12.60000      8.6892976E-10
   12.66000      8.7010132E-10
   12.72000      8.5001745E-10
   12.78000      8.0419216E-10
   12.84000      7.2935658E-10
   12.90000      6.2385735E-10
   12.96000      4.8790399E-10
   13.02000      3.2358088E-10
   13.08000      1.3460454E-10
   13.14000     -7.4099719E-11
   13.20000     -2.9685143E-10
   13.26000     -5.2753918E-10
   13.32000     -7.5973011E-10
   13.38000     -9.8661723E-10
   13.44000     -1.2009892E-09
   13.50000     -1.3954512E-09
   13.56000     -1.5630374E-09
   13.62000     -1.6981548E-09
   13.68000     -1.7975872E-09
   13.74000     -1.8611694E-09
   13.80000     -1.8918187E-09
   13.86000     -1.8948245E-09
   13.92000     -1.8766064E-09
   13.98000     -1.8433604E-09
   14.04000     -1.8000316E-09
   14.10000     -1.7498989E-09
   14.16000     -1.6947664E-09
   14.22000     -1.6355096E-09
   14.28000     -1.5726136E-09
   14.34000     -1.5064098E-09
   14.40000     -1.4369183E-09
   14.46000     -1.3634294E-09
   14.52000     -1.2841160E-09
   14.58000     -1.1959881E-09
   14.64000     -1.0953795E-09
   14.70000     -9.7894737E-10
   14.76000     -8.4492791E-10
   14.82000     -6.9422118E-10
   14.88000     -5.3085181E-10
   14.94000     -3.6150835E-10
   15.00000     -1.9417845E-10
   15.06000     -3.6259506E-11
   15.12000      1.0722014E-10
   15.18000      2.3463292E-10
   15.24000      3.4768802E-10
   15.30000      4.5039095E-10
   15.36000      5.4757249E-10
   15.42000      6.4368383E-10
   15.48000      7.4234296E-10
   15.54000      8.4663782E-10
   15.60000      9.5971864E-10
   15.66000      1.0850161E-09
   15.72000      1.2256369E-09
   15.78000      1.3829980E-09
   15.84000      1.5552789E-09
   15.90000      1.7364838E-09
   15.96000      1.9166915E-09
   16.02000      2.0835247E-09
   16.08000      2.2243118E-09
   16.14000      2.3281208E-09
   16.20000      2.3869839E-09
   16.26000      2.3960771E-09
   16.32000      2.3531244E-09
   16.38000      2.2575892E-09
   16.44000      2.1101849E-09
   16.50000      1.9129232E-09
   16.56000      1.6695753E-09
   16.62000      1.3861560E-09
   16.68000      1.0710456E-09
   16.74000      7.3452822E-10
   16.80000      3.8779469E-10
   16.86000      4.1686692E-11
   16.92000     -2.9442210E-10
   16.98000     -6.1323974E-10
   17.04000     -9.0946528E-10
   17.10000     -1.1790632E-09
   17.16000     -1.4182514E-09
   17.22000     -1.6227222E-09
   17.28000     -1.7875706E-09
   17.34000     -1.9080990E-09
   17.40000     -1.9812305E-09
   17.46000     -2.0068800E-09
   17.52000     -1.9885451E-09
   17.58000     -1.9326789E-09
   17.64000     -1.8469684E-09
   17.70000     -1.7382101E-09
   17.76000     -1.6107021E-09
   17.82000     -1.4658644E-09
   17.88000     -1.3032270E-09
   17.94000     -1.1222996E-09
   18.00000     -9.2448277E-10
   18.06000     -7.1424283E-10
   18.12000     -4.9917481E-10
   18.18000     -2.8906902E-10
   18.24000     -9.4426203E-11
   18.30000      7.5070457E-11
   18.36000      2.1176019E-10
   18.42000      3.1071004E-10
   18.48000      3.6987555E-10
   18.54000      3.8973574E-10
   18.60000      3.7249190E-10
   18.66000      3.2104103E-10
   18.72000      2.3806818E-10
   18.78000      1.2562128E-10
   18.84000     -1.4641366E-11
   18.90000     -1.8067685E-10
   18.96000     -3.6922143E-10
   19.02000     -5.7544924E-10
   19.08000     -7.9344953E-10
   19.14000     -1.0173916E-09
   19.20000     -1.2428278E-09
   19.26000     -1.4674534E-09
   19.32000     -1.6908959E-09
   19.38000     -1.9135917E-09
   19.44000     -2.1352642E-09
   19.50000     -2.3536799E-09
   19.56000     -2.5641782E-09
   19.62000     -2.7600844E-09
   19.68000     -2.9337290E-09
   19.74000     -3.0776319E-09
   19.80000     -3.1854535E-09
   19.86000     -3.2524841E-09
   19.92000     -3.2756280E-09
   19.98000     -3.2529375E-09
   20.04000     -3.1828435E-09
   20.10000     -3.0633061E-09
   20.16000     -2.8912059E-09
   20.22000     -2.6623157E-09
   20.28000     -2.3720537E-09
   20.34000     -2.0169288E-09
   20.40000     -1.5962611E-09
   20.46000     -1.1135755E-09
   20.52000     -5.7717048E-10
   20.58000      2.8951272E-13
   20.64000      6.0289185E-10
   20.70000      1.2127779E-09
   20.76000      1.8111407E-09
   20.82000      2.3787170E-09
   20.88000      2.8959211E-09
   20.94000      3.3429850E-09
   21.00000      3.7004577E-09
   21.06000      3.9502241E-09
   21.12000      4.0769779E-09
   21.18000      4.0699235E-09
   21.24000      3.9244106E-09
   21.30000      3.6431993E-09
   21.36000      3.2370482E-09
   21.42000      2.7243661E-09
   21.48000      2.1298283E-09
   21.54000      1.4821467E-09
   21.60000      8.1153567E-10
   21.66000      1.4759520E-10
   21.72000     -4.8180032E-10
   21.78000     -1.0504985E-09
   21.84000     -1.5334481E-09
   21.90000     -1.9063504E-09
   21.96000     -2.1463817E-09
   22.02000     -2.2341979E-09
   22.08000     -2.1566589E-09
   22.14000     -1.9091611E-09
   22.20000     -1.4965125E-09
   22.26000     -9.3190755E-10
   22.32000     -2.3443775E-10
   22.38000      5.7376598E-10
   22.44000      1.4695870E-09
   22.50000      2.4295272E-09
   22.56000      3.4290333E-09
   22.62000      4.4413859E-09
   22.68000      5.4371614E-09
   22.74000      6.3849130E-09
   22.80000      7.2530817E-09
   22.86000      8.0125568E-09
   22.92000      8.6390761E-09
   22.98000      9.1148395E-09
   23.04000      9.4291064E-09
   23.10000      9.5779562E-09
   23.16000      9.5636432E-09
   23.22000      9.3938999E-09
   23.28000      9.0813828E-09
   23.34000      8.6432017E-09
   23.40000      8.1003364E-09
   23.46000      7.4767517E-09
   23.52000      6.7981438E-09
   23.58000      6.0904055E-09
   23.64000      5.3780895E-09
   23.70000      4.6831627E-09
   23.76000      4.0242689E-09
   23.82000      3.4165422E-09
   23.88000      2.8717941E-09
   23.94000      2.3987889E-09
   24.00000      2.0033728E-09
   24.06000      1.6884223E-09
   24.12000      1.4538312E-09
   24.18000      1.2968685E-09
   24.24000      1.2131482E-09
   24.30000      1.1981185E-09
   24.36000      1.2486056E-09
   24.42000      1.3637497E-09
   24.48000      1.5447917E-09
   24.54000      1.7936407E-09
   24.60000      2.1107198E-09
   24.66000      2.4929978E-09
   24.72000      2.9330780E-09
   24.78000      3.4197729E-09
   24.84000      3.9398946E-09
   24.90000      4.4804285E-09
   24.96000      5.0300941E-09
   25.02000      5.5796288E-09
   25.08000      6.1207941E-09
   25.14000      6.6447119E-09
   25.20000      7.1404509E-09
   25.26000      7.5945952E-09
   25.32000      7.9920524E-09
   25.38000      8.3177527E-09
   25.44000      8.5586160E-09
   25.50000      8.7051415E-09
   25.56000      8.7522709E-09
   25.62000      8.6995264E-09
   25.68000      8.5506304E-09
   25.74000      8.3128446E-09
   25.80000      7.9961149E-09
   25.86000      7.6120905E-09
   25.92000      7.1730710E-09
   25.98000      6.6910877E-09
   26.04000      6.1773453E-09
   26.10000      5.6421703E-09
   26.16000      5.0953304E-09
   26.22000      4.5463242E-09
   26.28000      4.0042023E-09
   26.34000      3.4767071E-09
   26.40000      2.9689826E-09
   26.46000      2.4825133E-09
   26.52000      2.0150073E-09
   26.58000      1.5615760E-09
   26.64000      1.1169302E-09
   26.70000      6.7772121E-10
   26.76000      2.4401017E-10
   26.82000     -1.8078930E-10
   26.88000     -5.9142091E-10
   26.94000     -9.8298425E-10
   27.00000     -1.3527631E-09
   27.06000     -1.7008748E-09
   27.12000     -2.0295683E-09
   27.18000     -2.3416575E-09
   27.24000     -2.6389215E-09
   27.30000     -2.9212182E-09
   27.36000     -3.1866061E-09
   27.42000     -3.4322714E-09
   27.48000     -3.6557373E-09
   27.54000     -3.8558081E-09
   27.60000     -4.0329140E-09
   27.66000     -4.1888053E-09
   27.72000     -4.3258090E-09
   27.78000     -4.4459432E-09
   27.84000     -4.5502326E-09
   27.90000     -4.6384567E-09
   27.96000     -4.7094582E-09
   28.02000     -4.7619348E-09
   28.08000     -4.7954551E-09
   28.14000     -4.8113242E-09
   28.20000     -4.8129585E-09
   28.26000     -4.8056412E-09
   28.32000     -4.7958091E-09
   28.38000     -4.7902358E-09
   28.44000     -4.7954911E-09
   28.50000     -4.8178408E-09
   28.56000     -4.8634390E-09
   28.62000     -4.9384998E-09
   28.68000     -5.0491149E-09
   28.74000     -5.2006510E-09
   28.80000     -5.3969145E-09
   28.86000     -5.6394165E-09
   28.92000     -5.9269638E-09
   28.98000     -6.2556063E-09
   29.04000     -6.6188015E-09
   29.10000     -7.0076713E-09
   29.16000     -7.4113879E-09
   29.22000     -7.8178850E-09
   29.28000     -8.2150224E-09
   29.34000     -8.5920648E-09
   29.40000     -8.9410115E-09
   29.46000     -9.2571932E-09
   29.52000     -9.5388017E-09
   29.58000     -9.7855652E-09
   29.64000     -9.9972484E-09
   29.70000     -1.0172760E-08
   29.76000     -1.0310250E-08
   29.82000     -1.0407924E-08
   29.88000     -1.0464788E-08
   29.94000     -1.0480591E-08
   30.00000     -1.0454796E-08
   30.06000     -1.0385230E-08
   30.12000     -1.0267380E-08
   30.18000     -1.0095157E-08
   30.24000     -9.8630002E-09
   30.30000     -9.5683852E-09
   30.36000     -9.2134194E-09
   30.42000     -8.8046690E-09
   30.48000     -8.3513676E-09
   30.54000     -7.8630675E-09
   30.60000     -7.3480413E-09
   30.66000     -6.8131123E-09
   30.72000     -6.2646111E-09
   30.78000     -5.7093348E-09
   30.84000     -5.1544093E-09
   30.90000     -4.6057318E-09
   30.96000     -4.0657273E-09
   31.02000     -3.5317704E-09
   31.08000     -2.9963847E-09
   31.14000     -2.4493907E-09
   31.20000     -1.8811108E-09
   31.26000     -1.2852265E-09
   31.32000     -6.6019146E-10
   31.38000     -8.9877793E-12
   31.44000      6.6210704E-10
   31.50000      1.3447408E-09
   31.56000      2.0290172E-09
   31.62000      2.7033460E-09
   31.68000      3.3541649E-09
   31.74000      3.9661678E-09
   31.80000      4.5233008E-09
   31.86000      5.0103024E-09
   31.92000      5.4142966E-09
   31.98000      5.7259957E-09
   32.04000      5.9403522E-09
   32.10000      6.0566836E-09
   32.16000      6.0783201E-09
   32.22000      6.0117609E-09
   32.28000      5.8653438E-09
   32.34000      5.6476628E-09
   32.40000      5.3662408E-09
   32.46000      5.0270716E-09
   32.52000      4.6352739E-09
   32.58000      4.1965222E-09
   32.64000      3.7183316E-09
   32.70000      3.2102012E-09
   32.76000      2.6821760E-09
   32.82000      2.1422819E-09
   32.88000      1.5939936E-09
   32.94000      1.0349764E-09
   33.00000      4.5772797E-10
   33.06000     -1.4817392E-10
   33.12000     -7.9316170E-10
   33.18000     -1.4851087E-09
   33.24000     -2.2276254E-09
   33.30000     -3.0191982E-09
   33.36000     -3.8529082E-09
   33.42000     -4.7166591E-09
   33.48000     -5.5941562E-09
   33.54000     -6.4668715E-09
   33.60000     -7.3167712E-09
   33.66000     -8.1289020E-09
   33.72000     -8.8926146E-09
   33.78000     -9.6006882E-09
   33.84000     -1.0246687E-08
   33.90000     -1.0822085E-08
   33.96000     -1.1315064E-08
   34.02000     -1.1712133E-08
   34.08000     -1.2002142E-08
   34.14000     -1.2180831E-08
   34.20000     -1.2253465E-08
   34.26000     -1.2234021E-08
   34.32000     -1.2141120E-08
   34.38000     -1.1992490E-08
   34.44000     -1.1800376E-08
   34.50000     -1.1569679E-08
   34.56000     -1.1299083E-08
   34.62000     -1.0984113E-08
   34.68000     -1.0620389E-08
   34.74000     -1.0205784E-08
   34.80000     -9.7410249E-09
   34.86000     -9.2291064E-09
   34.92000     -8.6742542E-09
   34.98000     -8.0810150E-09
   35.04000     -7.4537736E-09
   35.10000     -6.7967574E-09
   35.16000     -6.1145204E-09
   35.22000     -5.4128404E-09
   35.28000     -4.6997677E-09
   35.34000     -3.9863197E-09
   35.40000     -3.2862379E-09
   35.46000     -2.6145348E-09
   35.52000     -1.9851607E-09
   35.58000     -1.4086926E-09
   35.64000     -8.9104896E-10
   35.70000     -4.3372997E-10
   35.76000     -3.5223491E-11
   35.82000      3.0742980E-10
   35.88000      5.9788491E-10
   35.94000      8.4082358E-10
   36.00000      1.0427160E-09
   36.06000      1.2119044E-09
   36.12000      1.3572669E-09
   36.18000      1.4857275E-09
   36.24000      1.5998237E-09
   36.30000      1.6967779E-09
   36.36000      1.7697810E-09
   36.42000      1.8109326E-09
   36.48000      1.8143004E-09
   36.54000      1.7774942E-09
   36.60000      1.7010813E-09
   36.66000      1.5864916E-09
   36.72000      1.4339416E-09
   36.78000      1.2418064E-09
   36.84000      1.0078807E-09
   36.90000      7.3174922E-10
   36.96000      4.1682405E-10
   37.02000      7.0852789E-11
   37.08000     -2.9533584E-10
   37.14000     -6.7007749E-10
   37.20000     -1.0429005E-09
   37.26000     -1.4054702E-09
   37.32000     -1.7513837E-09
   37.38000     -2.0754525E-09
   37.44000     -2.3732820E-09
   37.50000     -2.6415319E-09
   37.56000     -2.8786269E-09
   37.62000     -3.0852683E-09
   37.68000     -3.2641787E-09
   37.74000     -3.4189926E-09
   37.80000     -3.5527126E-09
   37.86000     -3.6664198E-09
   37.92000     -3.7587666E-09
   37.98000     -3.8263916E-09
   38.04000     -3.8649826E-09
   38.10000     -3.8705426E-09
   38.16000     -3.8404671E-09
   38.22000     -3.7742187E-09
   38.28000     -3.6735488E-09
   38.34000     -3.5422807E-09
   38.40000     -3.3856611E-09
   38.46000     -3.2093557E-09
   38.52000     -3.0182652E-09
   38.58000     -2.8154639E-09
   38.64000     -2.6016165E-09
   38.70000     -2.3751088E-09
   38.76000     -2.1328779E-09
   38.82000     -1.8716604E-09
   38.88000     -1.5892021E-09
   38.94000     -1.2849860E-09
   39.00000     -9.6022457E-10
   39.06000     -6.1712968E-10
   39.12000     -2.5773997E-10
   39.18000      1.1725272E-10
   39.24000      5.0920135E-10
   39.30000      9.2136687E-10
   39.36000      1.3578406E-09
   39.42000      1.8217605E-09
   39.48000      2.3133775E-09
   39.54000      2.8287079E-09
   39.60000      3.3593941E-09
   39.66000      3.8940033E-09
   39.72000      4.4204072E-09
   39.78000      4.9283941E-09
   39.84000      5.4114659E-09
   39.90000      5.8670762E-09
   39.96000      6.2952008E-09
   40.02000      6.6958568E-09
   40.08000      7.0666477E-09
   40.14000      7.4013724E-09
   40.20000      7.6902316E-09
   40.26000      7.9214493E-09
   40.32000      8.0835783E-09
   40.38000      8.1675635E-09
   40.44000      8.1678859E-09
   40.50000      8.0826306E-09
   40.56000      7.9127007E-09
   40.62000      7.6606828E-09
   40.68000      7.3297630E-09
   40.74000      6.9229347E-09
   40.80000      6.4425891E-09
   40.86000      5.8905139E-09
   40.92000      5.2683204E-09
   40.98000      4.5782769E-09
   41.04000      3.8243622E-09
   41.10000      3.0131577E-09
   41.16000      2.1541193E-09
   41.22000      1.2589413E-09
   41.28000      3.4010203E-10
   41.34000     -5.9088345E-10
   41.40000     -1.5247600E-09
   41.46000     -2.4547946E-09
   41.52000     -3.3758984E-09
   41.58000     -4.2830739E-09
   41.64000     -5.1699871E-09
   41.70000     -6.0283902E-09
   41.76000     -6.8486670E-09
   41.82000     -7.6212023E-09
   41.88000     -8.3378708E-09
   41.94000     -8.9929442E-09
   42.00000     -9.5830037E-09
   42.06000     -1.0105972E-08
   42.12000     -1.0559695E-08
   42.18000     -1.0940711E-08
   42.24000     -1.1243641E-08
   42.30000     -1.1461461E-08
   42.36000     -1.1586534E-08
   42.42000     -1.1612146E-08
   42.48000     -1.1534103E-08
   42.54000     -1.1351915E-08
   42.60000     -1.1069184E-08
   42.66000     -1.0692961E-08
   42.72000     -1.0232220E-08
   42.78000     -9.6959383E-09
   42.84000     -9.0915764E-09
   42.90000     -8.4246548E-09
   42.96000     -7.6997848E-09
   43.02000     -6.9227992E-09
   43.08000     -6.1030323E-09
   43.14000     -5.2545235E-09
   43.20000     -4.3952078E-09
   43.26000     -3.5439858E-09
   43.32000     -2.7165854E-09
   43.38000     -1.9218707E-09
   43.44000     -1.1602971E-09
   43.50000     -4.2546253E-10
   43.56000      2.9160149E-10
   43.62000      9.9701702E-10
   43.68000      1.6897558E-09
   43.74000      2.3602793E-09
   43.80000      2.9926790E-09
   43.86000      3.5693155E-09
   43.92000      4.0758525E-09
   43.98000      4.5045301E-09
   44.04000      4.8544915E-09
   44.10000      5.1294893E-09
   44.16000      5.3344946E-09
   44.22000      5.4730207E-09
   44.28000      5.5462697E-09
   44.34000      5.5540026E-09
   44.40000      5.4960951E-09
   44.46000      5.3735807E-09
   44.52000      5.1886659E-09
   44.58000      4.9441153E-09
   44.64000      4.6428998E-09
   44.70000      4.2887507E-09
   44.76000      3.8873895E-09
   44.82000      3.4474676E-09
   44.88000      2.9801577E-09
   44.94000      2.4970974E-09
   45.00000      2.0075357E-09
   45.06000      1.5162623E-09
   45.12000      1.0237101E-09
   45.18000      5.2850524E-10
   45.24000      3.1350363E-11
   45.30000     -4.6169896E-10
   45.36000     -9.3829355E-10
   45.42000     -1.3817846E-09
   45.48000     -1.7753742E-09
   45.54000     -2.1067486E-09
   45.60000     -2.3714724E-09
   45.66000     -2.5740845E-09
   45.72000     -2.7267086E-09
   45.78000     -2.8456915E-09
   45.84000     -2.9471328E-09
   45.90000     -3.0423597E-09
   45.96000     -3.1345155E-09
   46.02000     -3.2174505E-09
   46.08000     -3.2777159E-09
   46.14000     -3.2995291E-09
   46.20000     -3.2712901E-09
   46.26000     -3.1911966E-09
   46.32000     -3.0694411E-09
   46.38000     -2.9256728E-09
   46.44000     -2.7824569E-09
   46.50000     -2.6573637E-09
   46.56000     -2.5570475E-09
   46.62000     -2.4757842E-09
   46.68000     -2.3988562E-09
   46.74000     -2.3090230E-09
   46.80000     -2.1931339E-09
   46.86000     -2.0462561E-09
   46.92000     -1.8721131E-09
   46.98000     -1.6803317E-09
   47.04000     -1.4820905E-09
   47.10000     -1.2859728E-09
   47.16000     -1.0953030E-09
   47.22000     -9.0751873E-10
   47.28000     -7.1552175E-10
   47.34000     -5.1052895E-10
   47.40000     -2.8559863E-10
   47.46000     -3.8699086E-11
   47.52000      2.2589067E-10
   47.58000      4.9863635E-10
   47.64000      7.6808593E-10
   47.70000      1.0251687E-09
   47.76000      1.2664636E-09
   47.82000      1.4947534E-09
   47.88000      1.7164722E-09
   47.94000      1.9372628E-09
   48.00000      2.1578941E-09
   48.06000      2.3725932E-09
   48.12000      2.5705476E-09
   48.18000      2.7396680E-09
   48.24000      2.8706564E-09
   48.30000      2.9595300E-09
   48.36000      3.0078231E-09
   48.42000      3.0209761E-09
   48.48000      3.0061478E-09
   48.54000      2.9705287E-09
   48.60000      2.9205309E-09
   48.66000      2.8615457E-09
   48.72000      2.7978113E-09
   48.78000      2.7322524E-09
   48.84000      2.6665405E-09
   48.90000      2.6016709E-09
   48.96000      2.5389526E-09
   49.02000      2.4808244E-09
   49.08000      2.4307982E-09
   49.14000      2.3922799E-09
   49.20000      2.3668150E-09
   49.26000      2.3528286E-09
   49.32000      2.3458375E-09
   49.38000      2.3402920E-09
   49.44000      2.3322728E-09
   49.50000      2.3217086E-09
   49.56000      2.3130344E-09
   49.62000      2.3140332E-09
   49.68000      2.3334883E-09
   49.74000      2.3787023E-09
   49.80000      2.4537659E-09
   49.86000      2.5589195E-09
   49.92000      2.6908975E-09
   49.98000      2.8439877E-09
   50.04000      3.0115914E-09
   50.10000      3.1880893E-09
   50.16000      3.3706045E-09
   50.22000      3.5599816E-09
   50.28000      3.7602970E-09
   50.34000      3.9767230E-09
   50.40000      4.2124668E-09
   50.46000      4.4662527E-09
   50.52000      4.7318629E-09
   50.58000      5.0004085E-09
   50.64000      5.2646429E-09
   50.70000      5.5235216E-09
   50.76000      5.7850471E-09
   50.82000      6.0662941E-09
   50.88000      6.3909007E-09
   50.94000      6.7854278E-09
   51.00000      7.2762165E-09
   51.06000      7.8877553E-09
   51.12000      8.6425844E-09
   51.18000      9.5620907E-09
   51.24000      1.0667518E-08
   51.30000      1.1980876E-08
   51.36000      1.3525941E-08
   51.42000      1.5329471E-08
   51.48000      1.7422551E-08
   51.54000      1.9841618E-08
   51.60000      2.2628724E-08
   51.66000      2.5831005E-08
   51.72000      2.9499899E-08
   51.78000      3.3690867E-08
   51.84000      3.8464130E-08
   51.90000      4.3886253E-08
   51.96000      5.0031804E-08
   52.02000      5.6984110E-08
   52.08000      6.4834389E-08
   52.14000      7.3679388E-08
   52.20000      8.3618012E-08
   52.26000      9.4747826E-08
   52.32000      1.0716244E-07
   52.38000      1.2094992E-07
   52.44000      1.3619270E-07
   52.50000      1.5296837E-07
   52.56000      1.7135098E-07
   52.62000      1.9141147E-07
   52.68000      2.1321699E-07
   52.74000      2.3682787E-07
   52.80000      2.6229270E-07
   52.86000      2.8964283E-07
   52.92000      3.1888663E-07
   52.98000      3.5000528E-07
   53.04000      3.8294951E-07
   53.10000      4.1763695E-07
   53.16000      4.5394873E-07
   53.22000      4.9172513E-07
   53.28000      5.3075973E-07
   53.34000      5.7079319E-07
   53.40000      6.1150718E-07
   53.46000      6.5251834E-07
   53.52000      6.9337324E-07
   53.58000      7.3354329E-07
   53.64000      7.7242078E-07
   53.70000      8.0931625E-07
   53.76000      8.4345851E-07
   53.82000      8.7399684E-07
   53.88000      9.0000532E-07
   53.94000      9.2048720E-07
   54.00000      9.3437887E-07
   54.06000      9.4055292E-07
   54.12000      9.3782120E-07
   54.18000      9.2493968E-07
   54.24000      9.0061701E-07
   54.30000      8.6352691E-07
   54.36000      8.1232434E-07
   54.42000      7.4566401E-07
   54.48000      6.6222032E-07
   54.54000      5.6070610E-07
   54.60000      4.3989166E-07
   54.66000      2.9862233E-07
   54.72000      1.3583629E-07
   54.78000     -4.9416741E-08
   54.84000     -2.5795427E-07
   54.90000     -4.9043689E-07
   54.96000     -7.4734135E-07
   55.02000     -1.0289326E-06
   55.08000     -1.3352382E-06
   55.14000     -1.6660260E-06
   55.20000     -2.0207885E-06
   55.26000     -2.3987297E-06
   55.32000     -2.7987560E-06
   55.38000     -3.2194680E-06
   55.44000     -3.6591518E-06
   55.50000     -4.1157750E-06
   55.56000     -4.5869838E-06