  -2.400000      0.0000000E+00
  -2.340000      0.0000000E+00
  -2.280000      0.0000000E+00
  -2.220000      0.0000000E+00
  -2.160000      0.0000000E+00
  -2.100000      0.0000000E+00
  -2.040000      0.0000000E+00
  -1.980000      0.0000000E+00
  -1.920000      9.0338712E-26
  -1.860000      9.7878114E-25
  -1.800000      5.0103857E-24
  -1.740000      1.4986521E-23
  -1.680000      2.2730000E-23
  -1.620000     -2.0226839E-23
  -1.560000     -2.3276226E-22
  -1.500000     -7.6018019E-22
  -1.440000     -1.5326835E-21
  -1.380000     -1.7805236E-21
  -1.320000      4.1414036E-22
  -1.260000      7.7394249E-21
  -1.200000      2.1416019E-20
  -1.140000      3.6840156E-20
  -1.080000      3.9113914E-20
  -1.020000      3.4702844E-21
 -0.9600000     -9.3194995E-20
 -0.9000000     -2.4745860E-19
 -0.8400000     -3.9961837E-19
 -0.7800000     -4.2108534E-19
 -0.7200000     -1.4735224E-19
 -0.6600000      5.2799378E-19
 -0.6000000      1.5198557E-18
 -0.5400000      2.4492125E-18
 -0.4800000      2.6711738E-18
 -0.4200000      1.5057768E-18
 -0.3600000     -1.3549640E-18
 -0.3000000     -5.4293505E-18
 -0.2400000     -9.2830609E-18
 -0.1800000     -1.0853789E-17
 -0.1200000     -8.2886169E-18
 -5.9999999E-02 -1.0008152E-18
  0.0000000E+00  9.6024924E-18
  5.9999999E-02  2.0259154E-17
  0.1200000      2.7019911E-17
  0.1800000      2.6995552E-17
  0.2400000      1.9728320E-17
  0.3000000      7.2336233E-18
  0.3600000     -7.5559028E-18
  0.4200000     -2.3094944E-17
  0.4800000     -4.0549797E-17
  0.5400000     -6.2514784E-17
  0.6000000     -8.8887095E-17
  0.6600000     -1.1184719E-16
  0.7200000     -1.1360469E-16
  0.7800000     -7.0431928E-17
  0.8400000      3.6091829E-17
  0.9000000      2.0394822E-16
  0.9600000      3.9876617E-16
   1.020000      5.5315074E-16
   1.080000      5.8205050E-16
   1.140000      4.1241296E-16
   1.200000      1.8270946E-17
   1.260000     -5.5191386E-16
   1.320000     -1.1681856E-15
   1.380000     -1.6393944E-15
   1.440000     -1.7598081E-15
   1.500000     -1.3728384E-15
   1.560000     -4.3638230E-16
   1.620000      9.2947541E-16
   1.680000      2.4322862E-15
   1.740000      3.6502279E-15
   1.800000      4.1323260E-15
   1.860000      3.5402938E-15
   1.920000      1.7929517E-15
   1.980000     -8.4239925E-16
   2.040000     -3.7640073E-15
   2.100000     -6.1767032E-15
   2.160000     -7.3296903E-15
   2.220000     -6.7695339E-15
   2.280000     -4.5050409E-15
   2.340000     -1.0081684E-15
   2.400000      2.9532126E-15
   2.460000      6.5719457E-15
   2.520000      9.2213385E-15
   2.580000      1.0533439E-14
   2.640000      1.0318498E-14
   2.700000      8.4154256E-15
   2.760000      4.6237915E-15
   2.820000     -1.1659784E-15
   2.880000     -8.6520019E-15
   2.940000     -1.6770432E-14
   3.000000     -2.3565251E-14
   3.060000     -2.6486463E-14
   3.120000     -2.3148428E-14
   3.180000     -1.2343078E-14
   3.240000      5.0799314E-15
   3.300000      2.5883326E-14
   3.360000      4.4924540E-14
   3.420000      5.6424988E-14
   3.480000      5.5691461E-14
   3.540000      4.0742620E-14
   3.600000      1.3261716E-14
   3.660000     -2.1529927E-14
   3.720000     -5.6143180E-14
   3.780000     -8.2883095E-14
   3.840000     -9.5997720E-14
   3.900000     -9.3079224E-14
   3.960000     -7.5103247E-14
   4.020000     -4.5069908E-14
   4.080000     -5.9626198E-15
   4.140000      4.0696345E-14
   4.200000      9.4448842E-14
   4.260000      1.5325862E-13
   4.320000      2.0965308E-13
   4.380000      2.4802708E-13
   4.440000      2.4586320E-13
   4.500000      1.8041655E-13
   4.560000      3.9772581E-14
   4.620000     -1.6580453E-13
   4.680000     -3.9803038E-13
   4.740000     -5.9513023E-13
   4.800000     -6.8781255E-13
   4.860000     -6.2246009E-13
   4.920000     -3.8301304E-13
   4.980000     -2.1728079E-15
   5.040000      4.4382643E-13
   5.100000      8.5580431E-13
   5.160000      1.1396401E-12
   5.220000      1.2304195E-12
   5.280000      1.1036438E-12
   5.340000      7.7130208E-13
   5.400000      2.6860176E-13
   5.460000     -3.5820760E-13
   5.520000     -1.0541131E-12
   5.580000     -1.7463125E-12
   5.640000     -2.3316494E-12
   5.700000     -2.6737243E-12
   5.760000     -2.6207272E-12
   5.820000     -2.0453025E-12
   5.880000     -8.9502039E-13
   5.940000      7.6689534E-13
   6.000000      2.7505008E-12
   6.060000      4.7668449E-12
   6.120000      6.4868484E-12
   6.180000      7.6090219E-12
   6.240000      7.9084612E-12
   6.300000      7.2467982E-12
   6.360000      5.5395749E-12
   6.420000      2.6960749E-12
   6.480000     -1.4413187E-12
   6.540000     -7.1307769E-12
   6.600000     -1.4720674E-11
   6.660000     -2.4594316E-11
   6.720000     -3.7083107E-11
   6.780000     -5.2369421E-11
   6.840000     -7.0400658E-11
   6.900000     -9.0831627E-11
   6.960000     -1.1300633E-10
   7.020000     -1.3598551E-10
   7.080000     -1.5862113E-10
   7.140000     -1.7967194E-10
   7.200000     -1.9794587E-10
   7.260000     -2.1244538E-10
   7.320000     -2.2248883E-10
   7.380000     -2.2778532E-10
   7.440000     -2.2845437E-10
   7.500000     -2.2499773E-10
   7.560000     -2.1824074E-10
   7.620000     -2.0925721E-10
   7.680000     -1.9927821E-10
   7.740000     -1.8956843E-10
   7.800000     -1.8124938E-10
   7.860000     -1.7506668E-10
   7.920000     -1.7113476E-10
   7.980000     -1.6873196E-10
   8.040000     -1.6623791E-10
   8.100000     -1.6128365E-10
   8.160000     -1.5112267E-10
   8.220000     -1.3314981E-10
   8.280000     -1.0542754E-10
   8.340000     -6.7064049E-11
   8.400000     -1.8334593E-11
   8.460000      3.9467336E-11
   8.520000      1.0436193E-10
   8.580000      1.7405209E-10
   8.640000      2.4619537E-10
   8.700000      3.1852074E-10
   8.760000      3.8883291E-10
   8.820000      4.5501594E-10
   8.880000      5.1514776E-10
   8.940000      5.6776145E-10
   9.000000      6.1217953E-10
   9.060000      6.4876376E-10
   9.120000      6.7891887E-10
   9.180000      7.0477568E-10
   9.240000      7.2862216E-10
   9.300000      7.5227702E-10
   9.360000      7.7664530E-10
   9.420000      8.0162460E-10
   9.480000      8.2637830E-10
   9.540000      8.4982854E-10
   9.600000      8.7113089E-10
   9.660000      8.8992108E-10
   9.720000      9.0625579E-10
   9.780000      9.2033797E-10
   9.840000      9.3222630E-10
   9.900000      9.4172514E-10
   9.960000      9.4853581E-10
   10.02000      9.5258679E-10
   10.08000      9.5434038E-10
   10.14000      9.5487451E-10
   10.20000      9.5564601E-10
   10.26000      9.5801578E-10
   10.32000      9.6274955E-10
   10.38000      9.6972641E-10
   10.44000      9.7799124E-10
   10.50000      9.8611397E-10
   10.56000      9.9268371E-10
   10.62000      9.9671238E-10
   10.68000      9.9780395E-10
   10.74000      9.9607378E-10
   10.80000      9.9192743E-10
   10.86000      9.8584940E-10
   10.92000      9.7830599E-10
   10.98000      9.6976982E-10
   11.04000      9.6080510E-10
   11.10000      9.5213182E-10
   11.16000      9.4462749E-10
   11.22000      9.3927832E-10
   11.28000      9.3710395E-10
   11.34000      9.3905739E-10
   11.40000      9.4587005E-10
   11.46000      9.5781250E-10
   11.52000      9.7441588E-10
   11.58000      9.9428343E-10
   11.64000      1.0151685E-09
   11.70000      1.0344268E-09
   11.76000      1.0497698E-09
   11.82000      1.0600431E-09
   11.88000      1.0656505E-09
   11.94000      1.0683384E-09
   12.00000      1.0703326E-09
   12.06000      1.0731610E-09
   12.12000      1.0767078E-09
   12.18000      1.0789947E-09
   12.24000      1.0768693E-09
   12.30000      1.0673442E-09
   12.36000      1.0489930E-09
   12.42000      1.0227580E-09
   12.48000      9.9179243E-10
   12.54000      9.6040687E-10
   12.60000      9.3260055E-10
   12.66000      9.1081698E-10
   12.72000      8.9541330E-10
   12.78000      8.8495750E-10
   12.84000      8.7708468E-10
   12.90000      8.6942925E-10
   12.96000      8.6020702E-10
   13.02000      8.4828261E-10
   13.08000      8.3287049E-10
   13.14000      8.1320978E-10
   13.20000      7.8853163E-10
   13.26000      7.5842732E-10
   13.32000      7.2344508E-10
   13.38000      6.8555361E-10
   13.44000      6.4810546E-10
   13.50000      6.1514244E-10
   13.56000      5.9020078E-10
   13.62000      5.7505517E-10
   13.68000      5.6893285E-10
   13.74000      5.6857635E-10
   13.80000      5.6917471E-10
   13.86000      5.6578792E-10
   13.92000      5.5464139E-10
   13.98000      5.3370769E-10
   14.04000      5.0231913E-10
   14.10000      4.6002080E-10
   14.16000      4.0525050E-10
   14.22000      3.3452441E-10
   14.28000      2.4256469E-10
   14.34000      1.2334915E-10
   14.40000     -2.8372475E-11
   14.46000     -2.1574728E-10
   14.52000     -4.3919673E-10
   14.58000     -6.9666700E-10
   14.64000     -9.8452191E-10
   14.70000     -1.2986239E-09
   14.76000     -1.6351613E-09
   14.82000     -1.9909834E-09
   14.88000     -2.3634437E-09
   14.94000     -2.7499201E-09
   15.00000     -3.1472125E-09
   15.06000     -3.5510106E-09
   15.12000     -3.9555625E-09
   15.18000     -4.3536641E-09
   15.24000     -4.7370161E-09
   15.30000     -5.0968834E-09
   15.36000     -5.4248059E-09
   15.42000     -5.7130278E-09
   15.48000     -5.9543628E-09
   15.54000     -6.1415109E-09
   15.60000     -6.2662315E-09
   15.66000     -6.3190324E-09
   15.72000     -6.2899530E-09
   15.78000     -6.1705765E-09
   15.84000     -5.9567578E-09
   15.90000     -5.6510459E-09
   15.96000     -5.2637668E-09
   16.02000     -4.8121573E-09
   16.08000     -4.3177781E-09
   16.14000     -3.8031063E-09
   16.20000     -3.2885061E-09
   16.26000     -2.7905105E-09
   16.32000     -2.3216717E-09
   16.38000     -1.8915665E-09
   16.44000     -1.5081013E-09
   16.50000     -1.1783078E-09
   16.56000     -9.0818481E-10
   16.62000     -7.0167161E-10
   16.68000     -5.5924815E-10
   16.74000     -4.7683502E-10
   16.80000     -4.4558252E-10
   16.86000     -4.5285647E-10
   16.92000     -4.8433479E-10
   16.98000     -5.2673910E-10
   17.04000     -5.7043548E-10
   17.10000     -6.1108263E-10
   17.16000     -6.4974198E-10
   17.22000     -6.9137379E-10
   17.28000     -7.4224538E-10
   17.34000     -8.0721047E-10
   17.40000     -8.8786445E-10
   17.46000     -9.8217345E-10
   17.52000     -1.0855103E-09
   17.58000     -1.1924083E-09
   17.64000     -1.2980984E-09
   17.70000     -1.3991104E-09
   17.76000     -1.4927708E-09
   17.82000     -1.5760161E-09
   17.88000     -1.6442507E-09
   17.94000     -1.6909216E-09
   18.00000     -1.7081139E-09
   18.06000     -1.6880372E-09
   18.12000     -1.6249594E-09
   18.18000     -1.5170394E-09
   18.24000     -1.3675788E-09
   18.30000     -1.1853643E-09
   18.36000     -9.8395236E-10
   18.42000     -7.7996515E-10
   18.48000     -5.9070454E-10
   18.54000     -4.3162993E-10
   18.60000     -3.1434594E-10
   18.66000     -2.4562841E-10
   18.72000     -2.2765700E-10
   18.78000     -2.5916594E-10
   18.84000     -3.3688480E-10
   18.90000     -4.5660506E-10
   18.96000     -6.1349231E-10
   19.02000     -8.0171392E-10
   19.08000     -1.0138052E-09
   19.14000     -1.2402781E-09
   19.20000     -1.4697676E-09
   19.26000     -1.6896764E-09
   19.32000     -1.8870447E-09
   19.38000     -2.0493494E-09
   19.44000     -2.1651099E-09
   19.50000     -2.2243811E-09
   19.56000     -2.2192785E-09
   19.62000     -2.1445947E-09
   19.68000     -1.9983750E-09
   19.74000     -1.7822218E-09
   19.80000     -1.5011474E-09
   19.86000     -1.1629904E-09
   19.92000     -7.7761270E-10
   19.98000     -3.5616987E-10
   20.04000      8.9344469E-11
   20.10000      5.4628152E-10
   20.16000      1.0014252E-09
   20.22000      1.4412213E-09
   20.28000      1.8523083E-09
   20.34000      2.2223607E-09
   20.40000      2.5411178E-09
   20.46000      2.8013909E-09
   20.52000      2.9998120E-09
   20.58000      3.1370915E-09
   20.64000      3.2176146E-09
   20.70000      3.2483134E-09
   20.76000      3.2369816E-09
   20.82000      3.1904357E-09
   20.88000      3.1131082E-09
   20.94000      3.0066190E-09
   21.00000      2.8705613E-09
   21.06000      2.7042659E-09
   21.12000      2.5088673E-09
   21.18000      2.2888260E-09
   21.24000      2.0522608E-09
   21.30000      1.8099574E-09
   21.36000      1.5734737E-09
   21.42000      1.3531321E-09
   21.48000      1.1566830E-09
   21.54000      9.8909281E-10
   21.60000      8.5342078E-10
   21.66000      7.5233131E-10
   21.72000      6.8960188E-10
   21.78000      6.7104805E-10
   21.84000      7.0453304E-10
   21.90000      7.9903900E-10
   21.96000      9.6305641E-10
   22.02000      1.2027463E-09
   22.08000      1.5204086E-09
   22.14000      1.9137227E-09
   22.20000      2.3760085E-09
   22.26000      2.8974014E-09
   22.32000      3.4664835E-09
   22.38000      4.0716839E-09
   22.44000      4.7018229E-09
   22.50000      5.3455147E-09
   22.56000      5.9896679E-09
   22.62000      6.6177912E-09
   22.68000      7.2089739E-09
   22.74000      7.7382314E-09
   22.80000      8.1783806E-09
   22.86000      8.5030143E-09
   22.92000      8.6897654E-09
   22.98000      8.7229237E-09
   23.04000      8.5948040E-09
   23.10000      8.3056895E-09
   23.16000      7.8626741E-09
   23.22000      7.2780111E-09
   23.28000      6.5676127E-09
   23.34000      5.7501399E-09
   23.40000      4.8467683E-09
   23.46000      3.8813375E-09
   23.52000      2.8803564E-09
   23.58000      1.8722728E-09
   23.64000      8.8567287E-10
   23.70000     -5.3498074E-11
   23.76000     -9.2507130E-10
   23.82000     -1.7171763E-09
   23.88000     -2.4271747E-09
   23.94000     -3.0604661E-09
   24.00000     -3.6273660E-09
   24.06000     -4.1390078E-09
   24.12000     -4.6036468E-09
   24.18000     -5.0246198E-09
   24.24000     -5.4005929E-09
   24.30000     -5.7277965E-09
   24.36000     -6.0032104E-09
   24.42000     -6.2272809E-09
   24.48000     -6.4050263E-09
   24.54000     -6.5450299E-09
   24.60000     -6.6566845E-09
   24.66000     -6.7467218E-09
   24.72000     -6.8163928E-09
   24.78000     -6.8605090E-09
   24.84000     -6.8689880E-09
   24.90000     -6.8307089E-09
   24.96000     -6.7386146E-09
   25.02000     -6.5943646E-09
   25.08000     -6.4107359E-09
   25.14000     -6.2105214E-09
   25.20000     -6.0217866E-09
   25.26000     -5.8707434E-09
   25.32000     -5.7745351E-09
   25.38000     -5.7365099E-09
   25.44000     -5.7458291E-09
   25.50000     -5.7816898E-09
   25.56000     -5.8207128E-09
   25.62000     -5.8448082E-09
   25.68000     -5.8465992E-09
   25.74000     -5.8304161E-09
   25.80000     -5.8085208E-09
   25.86000     -5.7939955E-09
   25.92000     -5.7929648E-09
   25.98000     -5.7990963E-09
   26.04000     -5.7926002E-09
   26.10000     -5.7444565E-09
   26.16000     -5.6248126E-09
   26.22000     -5.4129439E-09
   26.28000     -5.1053823E-09
   26.34000     -4.7191309E-09
   26.40000     -4.2883275E-09
   26.46000     -3.8549568E-09
   26.52000     -3.4564518E-09
   26.58000     -3.1144494E-09
   26.64000     -2.8288230E-09
   26.70000     -2.5793494E-09
   26.76000     -2.3345523E-09
   26.82000     -2.0644979E-09
   26.88000     -1.7527702E-09
   26.94000     -1.4031489E-09
   27.00000     -1.0385804E-09
   27.06000     -6.9294787E-10
   27.12000     -3.9880721E-10
   27.18000     -1.7560518E-10
   27.24000     -2.2578391E-11
   27.30000      8.1233104E-11
   27.36000      1.6989732E-10
   27.42000      2.7879743E-10
   27.48000      4.3198647E-10
   27.54000      6.3279187E-10
   27.60000      8.6076662E-10
   27.66000      1.0761217E-09
   27.72000      1.2304073E-09
   27.78000      1.2801592E-09
   27.84000      1.1991741E-09
   27.90000      9.8543551E-10
   27.96000      6.6046907E-10
   28.02000      2.6147864E-10
   28.08000     -1.7088803E-10
   28.14000     -6.0480160E-10
   28.20000     -1.0252672E-09
   28.26000     -1.4352205E-09
   28.32000     -1.8495626E-09
   28.38000     -2.2845339E-09
   28.44000     -2.7464762E-09
   28.50000     -3.2242415E-09
   28.56000     -3.6882197E-09
   28.62000     -4.0966097E-09
   28.68000     -4.4069752E-09
   28.74000     -4.5891730E-09
   28.80000     -4.6351545E-09
   28.86000     -4.5621560E-09
   28.92000     -4.4081228E-09
   28.98000     -4.2209334E-09
   29.04000     -4.0451624E-09
   29.10000     -3.9108086E-09
   29.16000     -3.8274695E-09
   29.22000     -3.7853010E-09
   29.28000     -3.7616692E-09
   29.34000     -3.7306829E-09
   29.40000     -3.6722876E-09
   29.46000     -3.5782335E-09
   29.52000     -3.4535823E-09
   29.58000     -3.3138152E-09
   29.64000     -3.1787233E-09
   29.70000     -3.0649481E-09
   29.76000     -2.9793354E-09
   29.82000     -2.9151443E-09
   29.88000     -2.8525244E-09
   29.94000     -2.7635059E-09
   30.00000     -2.6202465E-09
   30.06000     -2.4039690E-09
   30.12000     -2.1115321E-09
   30.18000     -1.7572643E-09
   30.24000     -1.3693813E-09
   30.30000     -9.8228459E-10
   30.36000     -6.2746197E-10
   30.42000     -3.2596489E-10
   30.48000     -8.4574139E-11
   30.54000      1.0370387E-10
   30.60000      2.5552788E-10
   30.66000      3.9102910E-10
   30.72000      5.2728749E-10
   30.78000      6.7308792E-10
   30.84000      8.2627072E-10
   30.90000      9.7451958E-10
   30.96000      1.0996432E-09
   31.02000      1.1842958E-09
   31.08000      1.2189757E-09
   31.14000      1.2066229E-09
   31.20000      1.1627106E-09
   31.26000      1.1103459E-09
   31.32000      1.0719621E-09
   31.38000      1.0606884E-09
   31.44000      1.0746917E-09
   31.50000      1.0965751E-09
   31.56000      1.0979324E-09
   31.62000      1.0473272E-09
   31.68000      9.1904928E-10
   31.74000      7.0013750E-10
   31.80000      3.9400430E-10
   31.86000      2.0011055E-11
   31.92000     -3.9078588E-10
   31.98000     -8.0275236E-10
   32.04000     -1.1839996E-09
   32.10000     -1.5136611E-09
   32.16000     -1.7857712E-09
   32.22000     -2.0081741E-09
   32.28000     -2.1965689E-09
   32.34000     -2.3657991E-09
   32.40000     -2.5218438E-09
   32.46000     -2.6578622E-09
   32.52000     -2.7559517E-09
   32.58000     -2.7937743E-09
   32.64000     -2.7531311E-09
   32.70000     -2.6269231E-09
   32.76000     -2.4219251E-09
   32.82000     -2.1567921E-09
   32.88000     -1.8565811E-09
   32.94000     -1.5460248E-09
   33.00000     -1.2436269E-09
   33.06000     -9.5787567E-10
   33.12000     -6.8604389E-10
   33.18000     -4.1554904E-10
   33.24000     -1.2757471E-10
   33.30000      1.9770437E-10
   33.36000      5.7546257E-10
   33.42000      1.0117480E-09
   33.48000      1.5017356E-09
   33.54000      2.0314235E-09
   33.60000      2.5821554E-09
   33.66000      3.1361842E-09
   33.72000      3.6811341E-09
   33.78000      4.2119095E-09
   33.84000      4.7299009E-09
   33.90000      5.2405005E-09
   33.96000      5.7503557E-09
   34.02000      6.2653509E-09
   34.08000      6.7895400E-09
   34.14000      7.3246897E-09
   34.20000      7.8701321E-09
   34.26000      8.4230010E-09
   34.32000      8.9792200E-09
   34.38000      9.5353530E-09
   34.44000      1.0090758E-08
   34.50000      1.0648924E-08
   34.56000      1.1216845E-08
   34.62000      1.1802197E-08
   34.68000      1.2409160E-08
   34.74000      1.3034736E-08
   34.80000      1.3667285E-08
   34.86000      1.4288043E-08
   34.92000      1.4875038E-08
   34.98000      1.5407769E-08
   35.04000      1.5870873E-08
   35.10000      1.6255781E-08
   35.16000      1.6560309E-08
   35.22000      1.6786965E-08
   35.28000      1.6940851E-08
   35.34000      1.7027705E-08
   35.40000      1.7052182E-08
   35.46000      1.7016244E-08
   35.52000      1.6917824E-08
   35.58000      1.6750120E-08
   35.64000      1.6502192E-08
   35.70000      1.6161112E-08
   35.76000      1.5715408E-08
   35.82000      1.5158870E-08
   35.88000      1.4493467E-08
   35.94000      1.3730220E-08
   36.00000      1.2887573E-08
   36.06000      1.1987531E-08
   36.12000      1.1050630E-08
   36.18000      1.0091158E-08
   36.24000      9.1140020E-09
   36.30000      8.1140259E-09
   36.36000      7.0782207E-09
   36.42000      5.9900964E-09
   36.48000      4.8352669E-09
   36.54000      3.6068357E-09
   36.60000      2.3092233E-09
   36.66000      9.5932673E-10
   36.72000     -4.1553183E-10
   36.78000     -1.7827007E-09
   36.84000     -3.1112906E-09
   36.90000     -4.3794257E-09
   36.96000     -5.5794067E-09
   37.02000     -6.7188095E-09
   37.08000     -7.8166797E-09
   37.14000     -8.8956700E-09
   37.20000     -9.9726565E-09
   37.26000     -1.1051251E-08
   37.32000     -1.2119160E-08
   37.38000     -1.3151562E-08
   37.44000     -1.4119321E-08
   37.50000     -1.4998854E-08
   37.56000     -1.5779854E-08
   37.62000     -1.6467968E-08
   37.68000     -1.7081559E-08
   37.74000     -1.7643975E-08
   37.80000     -1.8174223E-08
   37.86000     -1.8679318E-08
   37.92000     -1.9150809E-08
   37.98000     -1.9566505E-08
   38.04000     -1.9896902E-08
   38.10000     -2.0114387E-08
   38.16000     -2.0202560E-08
   38.22000     -2.0162693E-08
   38.28000     -2.0015053E-08
   38.34000     -1.9794159E-08
   38.40000     -1.9539012E-08
   38.46000     -1.9281236E-08
   38.52000     -1.9035136E-08
   38.58000     -1.8793237E-08
   38.64000     -1.8529153E-08
   38.70000     -1.8206908E-08
   38.76000     -1.7793541E-08
   38.82000     -1.7270589E-08
   38.88000     -1.6640479E-08
   38.94000     -1.5925689E-08
   39.00000     -1.5160976E-08
   39.06000     -1.4381271E-08
   39.12000     -1.3609265E-08
   39.18000     -1.2846895E-08
   39.24000     -1.2073943E-08
   39.30000     -1.1254766E-08
   39.36000     -1.0351520E-08
   39.42000     -9.3396810E-09
   39.48000     -8.2204110E-09
   39.54000     -7.0248718E-09
   39.60000     -5.8082925E-09
   39.66000     -4.6353930E-09
   39.72000     -3.5622381E-09
   39.78000     -2.6211400E-09
   39.84000     -1.8140329E-09
   39.90000     -1.1163370E-09
   39.96000     -4.8922522E-10
   40.02000      1.0477030E-10
   40.08000      6.8853967E-10
   40.14000      1.2636849E-09
   40.20000      1.8115819E-09
   40.26000      2.3007656E-09
   40.32000      2.6975731E-09
   40.38000      2.9766585E-09
   40.44000      3.1285545E-09
   40.50000      3.1624086E-09
   40.56000      3.1031364E-09
   40.62000      2.9835612E-09
   40.68000      2.8336014E-09
   40.74000      2.6698859E-09
   40.80000      2.4895970E-09
   40.86000      2.2713034E-09
   40.92000      1.9830992E-09
   40.98000      1.5954122E-09
   41.04000      1.0937167E-09
   41.10000      4.8622195E-10
   41.16000     -1.9642954E-10
   41.22000     -9.0918584E-10
   41.28000     -1.6050562E-09
   41.34000     -2.2472944E-09
   41.40000     -2.8171181E-09
   41.46000     -3.3148910E-09
   41.52000     -3.7552450E-09
   41.58000     -4.1585810E-09
   41.64000     -4.5421698E-09
   41.70000     -4.9136983E-09
   41.76000     -5.2689408E-09
   41.82000     -5.5937570E-09
   41.88000     -5.8692473E-09
   41.94000     -6.0779488E-09
   42.00000     -6.2087273E-09
   42.06000     -6.2586074E-09
   42.12000     -6.2311121E-09
   42.18000     -6.1321499E-09
   42.24000     -5.9655489E-09
   42.30000     -5.7303149E-09
   42.36000     -5.4207363E-09
   42.42000     -5.0289271E-09
   42.48000     -4.5482871E-09
   42.54000     -3.9761181E-09
   42.60000     -3.3144090E-09
   42.66000     -2.5689506E-09
   42.72000     -1.7477768E-09
   42.78000     -8.5996127E-10
   42.84000      8.4806204E-11
   42.90000      1.0761737E-09
   42.96000      2.1032227E-09
   43.02000      3.1550567E-09
   43.08000      4.2217128E-09
   43.14000      5.2949152E-09
   43.20000      6.3683432E-09
   43.26000      7.4375048E-09
   43.32000      8.4995895E-09
   43.38000      9.5534594E-09
   43.44000      1.0599475E-08
   43.50000      1.1638495E-08
   43.56000      1.2669657E-08
   43.62000      1.3687510E-08
   43.68000      1.4679910E-08
   43.74000      1.5628448E-08
   43.80000      1.6512178E-08
   43.86000      1.7313690E-08
   43.92000      1.8025029E-08
   43.98000      1.8650452E-08
   44.04000      1.9204284E-08
   44.10000      1.9704299E-08
   44.16000      2.0163331E-08
   44.22000      2.0582750E-08
   44.28000      2.0950623E-08
   44.34000      2.1245414E-08
   44.40000      2.1443640E-08
   44.46000      2.1528521E-08
   44.52000      2.1496467E-08
   44.58000      2.1359176E-08
   44.64000      2.1140785E-08
   44.70000      2.0870951E-08
   44.76000      2.0576014E-08
   44.82000      2.0270884E-08
   44.88000      1.9954378E-08
   44.94000      1.9609843E-08
   45.00000      1.9211390E-08
   45.06000      1.8734038E-08
   45.12000      1.8164339E-08
   45.18000      1.7507388E-08
   45.24000      1.6787251E-08
   45.30000      1.6040280E-08
   45.36000      1.5303668E-08
   45.42000      1.4603664E-08
   45.48000      1.3947945E-08
   45.54000      1.3324877E-08
   45.60000      1.2709572E-08
   45.66000      1.2074068E-08
   45.72000      1.1397717E-08
   45.78000      1.0674284E-08
   45.84000      9.9137747E-09
   45.90000      9.1389811E-09
   45.96000      8.3781782E-09
   46.02000      7.6563715E-09
   46.08000      6.9876127E-09
   46.14000      6.3706231E-09
   46.20000      5.7891141E-09
   46.26000      5.2169162E-09
   46.32000      4.6264521E-09
   46.38000      3.9978070E-09
   46.44000      3.3251923E-09
   46.50000      2.6184308E-09
   46.56000      1.8989832E-09
   46.62000      1.1922253E-09
   46.68000      5.1913041E-10
   46.74000     -1.0943443E-10
   46.80000     -6.9392864E-10
   46.86000     -1.2429922E-09
   46.92000     -1.7677131E-09
   46.98000     -2.2757520E-09
   47.04000     -2.7673637E-09
   47.10000     -3.2343404E-09
   47.16000     -3.6618397E-09
   47.22000     -4.0323354E-09
   47.28000     -4.3305128E-09
   47.34000     -4.5477635E-09
   47.40000     -4.6848769E-09
   47.46000     -4.7518882E-09
   47.52000     -4.7648214E-09
   47.58000     -4.7402930E-09
   47.64000     -4.6899915E-09
   47.70000     -4.6173825E-09
   47.76000     -4.5181094E-09
   47.82000     -4.3838551E-09
   47.88000     -4.2076680E-09
   47.94000     -3.9880081E-09
   48.00000     -3.7294763E-09
   48.06000     -3.4400718E-09
   48.12000     -3.1267255E-09
   48.18000     -2.7917915E-09
   48.24000     -2.4324871E-09
   48.30000     -2.0435365E-09
   48.36000     -1.6214267E-09
   48.42000     -1.1679017E-09
   48.48000     -6.9092210E-10
   48.54000     -2.0286040E-10
   48.60000      2.8280492E-10
   48.66000      7.5445949E-10
   48.72000      1.2037076E-09
   48.78000      1.6250196E-09
   48.84000      2.0145718E-09
   48.90000      2.3693905E-09
   48.96000      2.6873326E-09
   49.02000      2.9676022E-09
   49.08000      3.2110501E-09
   49.14000      3.4197212E-09
   49.20000      3.5958043E-09
   49.26000      3.7407326E-09
   49.32000      3.8551975E-09
   49.38000      3.9402184E-09
   49.44000      3.9985921E-09
   49.50000      4.0355772E-09
   49.56000      4.0579660E-09
   49.62000      4.0716279E-09
   49.68000      4.0786374E-09
   49.74000      4.0755874E-09
   49.80000      4.0543089E-09
   49.86000      4.0051353E-09
   49.92000      3.9216181E-09
   49.98000      3.8048644E-09
   50.04000      3.6657573E-09
   50.10000      3.5241834E-09
   50.16000      3.4055614E-09
   50.22000      3.3360028E-09
   50.28000      3.3379062E-09
   50.34000      3.4276244E-09
   50.40000      3.6161243E-09
   50.46000      3.9125196E-09
   50.52000      4.3293054E-09
   50.58000      4.8873776E-09
   50.64000      5.6188596E-09
   50.70000      6.5664398E-09
   50.76000      7.7792928E-09
   50.82000      9.3070778E-09
   50.88000      1.1194435E-08
   50.94000      1.3478218E-08
   51.00000      1.6188565E-08
   51.06000      1.9353285E-08
   51.12000      2.3003734E-08
   51.18000      2.7180084E-08
   51.24000      3.1934402E-08
   51.30000      3.7330942E-08
   51.36000      4.3443805E-08
   51.42000      5.0352483E-08
   51.48000      5.8135889E-08
   51.54000      6.6865674E-08
   51.60000      7.6600401E-08
   51.66000      8.7382240E-08
   51.72000      9.9237944E-08
   51.78000      1.1218378E-07
   51.84000      1.2623261E-07
   51.90000      1.4139930E-07
   51.96000      1.5770111E-07
   52.02000      1.7515217E-07
   52.08000      1.9375337E-07
   52.14000      2.1348191E-07
   52.20000      2.3428403E-07
   52.26000      2.5607233E-07
   52.32000      2.7872667E-07
   52.38000      3.0209526E-07
   52.44000      3.2599388E-07
   52.50000      3.5020250E-07
   52.56000      3.7446122E-07
   52.62000      3.9846645E-07
   52.68000      4.2186940E-07
   52.74000      4.4427483E-07
   52.80000      4.6523965E-07
   52.86000      4.8427103E-07
   52.92000      5.0082480E-07
   52.98000      5.1430641E-07
   53.04000      5.2407506E-07
   53.10000      5.2944921E-07
   53.16000      5.2971200E-07
   53.22000      5.2411303E-07
   53.28000      5.1186902E-07
   53.34000      4.9216521E-07
   53.40000      4.6416150E-07
   53.46000      4.2700509E-07
   53.52000      3.7984663E-07
   53.58000      3.2185628E-07
   53.64000      2.5223696E-07
   53.70000      1.7023413E-07
   53.76000      7.5146389E-08
   53.82000     -3.3660736E-08
   53.88000     -1.5673638E-07
   53.94000     -2.9452445E-07
   54.00000     -4.4734648E-07
   54.06000     -6.1538918E-07
   54.12000     -7.9869625E-07
   54.18000     -9.9715885E-07
   54.24000     -1.2105035E-06
   54.30000     -1.4382761E-06
   54.36000     -1.6798292E-06
   54.42000     -1.9343140E-06
   54.48000     -2.2006802E-06
   54.54000     -2.4776816E-06
   54.60000     -2.7638780E-06
   54.66000     -3.0576314E-06
   54.72000     -3.3571016E-06
   54.78000     -3.6602448E-06
   54.84000     -3.9648235E-06
   54.90000     -4.2684301E-06
   54.96000     -4.5685156E-06
   55.02000     -4.8624183E-06
   55.08000     -5.1473858E-06
   55.14000     -5.4205907E-06
   55.20000     -5.6791491E-06
   55.26000     -5.9201516E-06
   55.32000     -6.1407031E-06
   55.38000     -6.3379662E-06
   55.44000     -6.5091972E-06
   55.50000     -6.6517800E-06
   55.56000     -6.7632482E-06