 -0.750000000       0.00000000    
 -0.689999998       0.00000000    
 -0.629999995       0.00000000    
 -0.569999993       0.00000000    
 -0.509999990       0.00000000    
 -0.449999988       0.00000000    
 -0.389999986       0.00000000    
 -0.330000013       0.00000000    
 -0.270000011      -5.64702112E-28
 -0.209999993      -5.41454635E-27
 -0.150000006      -2.35199249E-26
  -9.00000036E-02  -5.15713749E-26
  -2.99999993E-02   3.47941701E-27
   2.99999993E-02   4.82087740E-25
   9.00000036E-02   2.09006488E-24
  0.150000006       5.54816012E-24
  0.209999993       1.00132860E-23
  0.270000011       9.74572804E-24
  0.330000013      -9.64204332E-24
  0.389999986      -6.98757781E-23
  0.449999988      -1.83633957E-22
  0.509999990      -3.14516571E-22
  0.569999993      -3.21213811E-22
  0.629999995       7.15936962E-23
  0.689999998       1.19379661E-21
  0.750000000       3.15121603E-21
  0.810000002       5.32426433E-21
  0.870000005       5.79749848E-21
  0.930000007       1.15790372E-21
  0.990000010      -1.25848010E-20
   1.04999995      -3.70783516E-20
   1.11000001      -6.63592205E-20
   1.16999996      -8.06894331E-20
   1.23000002      -4.42695949E-20
   1.28999996       8.48574476E-20
   1.35000002       3.24455650E-19
   1.40999997       6.18260691E-19
   1.47000003       7.88964506E-19
   1.52999997       5.42904641E-19
   1.59000003      -4.14435271E-19
   1.64999998      -2.12939327E-18
   1.71000004      -4.09407792E-18
   1.76999998      -5.09217100E-18
   1.83000004      -3.47860301E-18
   1.88999999       1.93536875E-18
   1.95000005       1.05810752E-17
   2.00999999       1.91126417E-17
   2.06999993       2.17010652E-17
   2.13000011       1.24172697E-17
   2.19000006      -1.06003088E-17
   2.25000000      -4.11013043E-17
   2.30999994      -6.39022037E-17
   2.36999989      -5.99508943E-17
   2.43000007      -1.71886361E-17
   2.49000001       5.72186175E-17
   2.54999995       1.31250905E-16
   2.60999990       1.56611164E-16
   2.67000008       9.29982090E-17
   2.73000002      -6.07882459E-17
   2.78999996      -2.46972440E-16
   2.84999990      -3.59098189E-16
   2.91000009      -2.89498153E-16
   2.97000003       1.18714904E-18
   3.02999997       4.28930364E-16
   3.08999991       7.87780346E-16
   3.15000010       8.29666972E-16
   3.21000004       4.01734492E-16
   3.26999998      -4.24517534E-16
   3.32999992      -1.31643807E-15
   3.39000010      -1.79062638E-15
   3.45000005      -1.45128539E-15
   3.50999999      -2.51322219E-16
   3.56999993       1.37594308E-15
   3.63000011       2.63318488E-15
   3.69000006       2.72580729E-15
   3.75000000       1.33011288E-15
   3.80999994      -1.08864200E-15
   3.86999989      -3.33864579E-15
   3.93000007      -4.01022074E-15
   3.99000001      -2.25061906E-15
   4.05000019       1.57754825E-15
   4.11000013       5.76636695E-15
   4.17000008       7.87251141E-15
   4.23000002       5.90933383E-15
   4.28999996      -4.02077487E-16
   4.34999990      -9.00223313E-15
   4.40999985      -1.59775723E-14
   4.46999979      -1.71592155E-14
   4.53000021      -1.02366490E-14
   4.59000015       3.61299066E-15
   4.65000010       1.95275772E-14
   4.71000004       3.05813555E-14
   4.76999998       3.07448430E-14
   4.82999992       1.79316519E-14
   4.88999987      -4.37554393E-15
   4.94999981      -2.79477606E-14
   5.01000023      -4.30250216E-14
   5.07000017      -4.26499893E-14
   5.13000011      -2.61104919E-14
   5.19000006       3.15245017E-16
   5.25000000       2.59483732E-14
   5.30999994       4.06233071E-14
   5.36999989       3.95980449E-14
   5.42999983       2.58964366E-14
   5.48999977       8.62774800E-15
   5.55000019      -2.14389163E-15
   5.61000013      -1.45059019E-15
   5.67000008       6.94528096E-15
   5.73000002       1.17432301E-14
   5.78999996       1.56445384E-16
   5.84999990      -3.38490121E-14
   5.90999985      -8.34064331E-14
   5.96999979      -1.28480316E-13
   6.03000021      -1.42699302E-13
   6.09000015      -1.04997215E-13
   6.15000010      -1.10381429E-14
   6.21000004       1.21080067E-13
   6.26999998       2.54167455E-13
   6.32999992       3.43720956E-13
   6.38999987       3.53684231E-13
   6.44999981       2.69815257E-13
   6.51000023       1.05241574E-13
   6.57000017      -1.03845792E-13
   6.63000011      -3.10222415E-13
   6.69000006      -4.70196961E-13
   6.75000000      -5.54941943E-13
   6.80999994      -5.54796606E-13
   6.86999989      -4.76184630E-13
   6.92999983      -3.33975306E-13
   6.98999977      -1.43629805E-13
   7.05000019       8.31796248E-14
   7.11000013       3.38025669E-13
   7.17000008       6.11366589E-13
   7.23000002       8.87123654E-13
   7.28999996       1.13905120E-12
   7.34999990       1.33055025E-12
   7.40999985       1.41789835E-12
   7.46999979       1.35566862E-12
   7.53000021       1.10290401E-12
   7.59000015       6.29282217E-13
   7.65000010      -7.85872899E-14
   7.71000004      -1.01016808E-12
   7.76999998      -2.12319116E-12
   7.82999992      -3.33607556E-12
   7.88999987      -4.52284174E-12
   7.94999981      -5.51341091E-12
   8.01000023      -6.10177187E-12
   8.06999969      -6.06314738E-12
   8.13000011      -5.17944064E-12
   8.18999958      -3.27049195E-12
   8.25000000      -2.27397230E-13
   8.31000042       3.95639988E-12
   8.36999989       9.16033482E-12
   8.43000031       1.51213469E-11
   8.48999977       2.14291952E-11
   8.55000019       2.75315500E-11
   8.60999966       3.27460351E-11
   8.67000008       3.62759441E-11
   8.72999954       3.72280679E-11
   8.78999996       3.46347985E-11
   8.85000038       2.74866917E-11
   8.90999985       1.47829197E-11
   8.97000027      -4.39644805E-12
   9.02999973      -3.08014274E-11
   9.09000015      -6.49228865E-11
   9.14999962      -1.06928140E-10
   9.21000004      -1.56646862E-10
   9.27000046      -2.13621343E-10
   9.32999992      -2.77215806E-10
   9.39000034      -3.46757428E-10
   9.44999981      -4.21666591E-10
   9.51000023      -5.01533703E-10
   9.56999969      -5.86113436E-10
   9.63000011      -6.75231870E-10
   9.68999958      -7.68627606E-10
   9.75000000      -8.65766236E-10
   9.81000042      -9.65674540E-10
   9.86999989      -1.06683495E-09
   9.93000031      -1.16716659E-09
   9.98999977      -1.26410538E-09
   10.0500002      -1.35477618E-09
   10.1099997      -1.43623324E-09
   10.1700001      -1.50573554E-09
   10.2299995      -1.56100499E-09
   10.2900000      -1.60042579E-09
   10.3500004      -1.62314395E-09
   10.4099998      -1.62906344E-09
   10.4700003      -1.61875591E-09
   10.5299997      -1.59333180E-09
   10.5900002      -1.55432067E-09
   10.6499996      -1.50358792E-09
   10.7100000      -1.44328338E-09
   10.7700005      -1.37577927E-09
   10.8299999      -1.30354905E-09
   10.8900003      -1.22895971E-09
   10.9499998      -1.15400089E-09
   11.0100002      -1.08002107E-09
   11.0699997      -1.00756958E-09
   11.1300001      -9.36417832E-10
   11.1899996      -8.65768179E-10
   11.2500000      -7.94588007E-10
   11.3100004      -7.21945559E-10
   11.3699999      -6.47231990E-10
   11.4300003      -5.70206382E-10
   11.4899998      -4.90891050E-10
   11.5500002      -4.09413392E-10
   11.6099997      -3.25910909E-10
   11.6700001      -2.40569092E-10
   11.7299995      -1.53776200E-10
   11.7900000      -6.62990496E-11
   11.8500004       2.06422969E-11
   11.9099998       1.05482414E-10
   11.9700003       1.86589966E-10
   12.0299997       2.62615568E-10
   12.0900002       3.32761319E-10
   12.1499996       3.96855965E-10
   12.2100000       4.55210258E-10
   12.2700005       5.08330267E-10
   12.3299999       5.56632518E-10
   12.3900003       6.00295036E-10
   12.4499998       6.39303943E-10
   12.5100002       6.73650968E-10
   12.5699997       7.03557212E-10
   12.6300001       7.29585281E-10
   12.6899996       7.52557738E-10
   12.7500000       7.73301589E-10
   12.8100004       7.92336141E-10
   12.8699999       8.09661671E-10
   12.9300003       8.24774915E-10
   12.9899998       8.36939629E-10
   13.0500002       8.45617687E-10
   13.1099997       8.50881587E-10
   13.1700001       8.53616233E-10
   13.2299995       8.55398252E-10
   13.2900000       8.58077609E-10
   13.3500004       8.63223548E-10
   13.4099998       8.71667738E-10
   13.4700003       8.83347284E-10
   13.5299997       8.97518782E-10
   13.5900002       9.13249865E-10
   13.6499996       9.29964827E-10
   13.7100000       9.47795509E-10
   13.7700005       9.67578018E-10
   13.8299999       9.90497462E-10
   13.8900003       1.01754438E-09
   13.9499998       1.04901854E-09
   14.0100002       1.08428910E-09
   14.0699997       1.12189669E-09
   14.1300001       1.15994470E-09
   14.1899996       1.19661747E-09
   14.2500000       1.23064303E-09
   14.3100004       1.26155597E-09
   14.3699999       1.28969457E-09
   14.4300003       1.31595301E-09
   14.4899998       1.34136402E-09
   14.5500002       1.36663580E-09
   14.6099997       1.39178291E-09
   14.6700001       1.41598200E-09
   14.7299995       1.43772849E-09
   14.7900000       1.45527923E-09
   14.8500004       1.46724921E-09
   14.9099998       1.47315604E-09
   14.9700003       1.47370061E-09
   15.0299997       1.47066859E-09
   15.0900002       1.46648049E-09
   15.1499996       1.46355283E-09
   15.2100000       1.46367862E-09
   15.2700005       1.46760015E-09
   15.3299999       1.47483403E-09
   15.3900003       1.48373480E-09
   15.4499998       1.49174528E-09
   15.5100002       1.49581703E-09
   15.5699997       1.49300794E-09
   15.6300001       1.48123103E-09
   15.6899996       1.46002954E-09
   15.7500000       1.43113199E-09
   15.8100004       1.39851630E-09
   15.8699999       1.36781453E-09
   15.9300003       1.34513112E-09
   15.9899998       1.33559874E-09
   16.0499992       1.34213496E-09
   16.1100006       1.36480527E-09
   16.1700001       1.40096001E-09
   16.2299995       1.44602086E-09
   16.2900009       1.49457302E-09
   16.3500004       1.54137758E-09
   16.4099998       1.58203839E-09
   16.4699993       1.61325242E-09
   16.5300007       1.63274372E-09
   16.5900002       1.63906300E-09
   16.6499996       1.63142377E-09
   16.7099991       1.60968161E-09
   16.7700005       1.57448043E-09
   16.8299999       1.52750290E-09
   16.8899994       1.47168455E-09
   16.9500008       1.41119916E-09
   17.0100002       1.35104472E-09
   17.0699997       1.29618416E-09
   17.1299992       1.25040100E-09
   17.1900005       1.21523958E-09
   17.2500000       1.18947574E-09
   17.3099995       1.16943177E-09
   17.3700008       1.15012733E-09
   17.4300003       1.12689613E-09
   17.4899998       1.09687570E-09
   17.5499992       1.05982245E-09
   17.6100006       1.01799869E-09
   17.6700001       9.75256764E-10
   17.7299995       9.35726385E-10
   17.7900009       9.02567188E-10
   17.8500004       8.77104611E-10
   17.9099998       8.58459193E-10
   17.9699993       8.43637216E-10
   18.0300007       8.28022317E-10
   18.0900002       8.06225586E-10
   18.1499996       7.73219155E-10
   18.2099991       7.25546123E-10
   18.2700005       6.62250754E-10
   18.3299999       5.85140270E-10
   18.3899994       4.98174835E-10
   18.4500008       4.06137374E-10
   18.5100002       3.13090748E-10
   18.5699997       2.21260774E-10
   18.6299992       1.30796124E-10
   18.6900005       4.04299337E-11
   18.7500000      -5.13651344E-11
   18.8099995      -1.45337187E-10
   18.8700008      -2.41012599E-10
   18.9300003      -3.36972533E-10
   18.9899998      -4.31596092E-10
   19.0499992      -5.23829202E-10
   19.1100006      -6.13598672E-10
   19.1700001      -7.01714076E-10
   19.2299995      -7.89333932E-10
   19.2900009      -8.77203588E-10
   19.3500004      -9.64895275E-10
   19.4099998      -1.05024944E-09
   19.4699993      -1.12919341E-09
   19.5300007      -1.19608146E-09
   19.5900002      -1.24460919E-09
   19.6499996      -1.26918043E-09
   19.7099991      -1.26637778E-09
   19.7700005      -1.23606758E-09
   19.8299999      -1.18172239E-09
   19.8899994      -1.10983089E-09
   19.9500008      -1.02860909E-09
   20.0100002      -9.46485113E-10
   20.0699997      -8.70837291E-10
   20.1299992      -8.07255818E-10
   20.1900005      -7.59312557E-10
   20.2500000      -7.28638871E-10
   20.3099995      -7.15118242E-10
   20.3700008      -7.17129633E-10
   20.4300003      -7.31895877E-10
   20.4899998      -7.55978113E-10
   20.5499992      -7.85835952E-10
   20.6100006      -8.18253243E-10
   20.6700001      -8.50450543E-10
   20.7299995      -8.79883610E-10
   20.7900009      -9.03952468E-10
   20.8500004      -9.19947507E-10
   20.9099998      -9.25436339E-10
   20.9699993      -9.19006204E-10
   21.0300007      -9.01002550E-10
   21.0900002      -8.73837169E-10
   21.1499996      -8.41621550E-10
   21.2099991      -8.09221912E-10
   21.2700005      -7.81102960E-10
   21.3299999      -7.60394636E-10
   21.3899994      -7.48454465E-10
   21.4500008      -7.44942663E-10
   21.5100002      -7.48235474E-10
   21.5699997      -7.55962681E-10
   21.6299992      -7.65521313E-10
   21.6900005      -7.74499076E-10
   21.7500000      -7.80958131E-10
   21.8099995      -7.83515808E-10
   21.8700008      -7.81175624E-10
   21.9300003      -7.72973463E-10
   21.9899998      -7.57650886E-10
   22.0499992      -7.33633543E-10
   22.1100006      -6.99480918E-10
   22.1700001      -6.54697074E-10
   22.2299995      -6.00509475E-10
   22.2900009      -5.40128386E-10
   22.3500004      -4.78190654E-10
   22.4099998      -4.19497354E-10
   22.4699993      -3.67543745E-10
   22.5300007      -3.23486349E-10
   22.5900002      -2.86007579E-10
   22.6499996      -2.52119436E-10
   22.7099991      -2.18527862E-10
   22.7700005      -1.82966170E-10
   22.8299999      -1.44974519E-10
   22.8899994      -1.05879999E-10
   22.9500008      -6.80602449E-11
   23.0100002      -3.38202071E-11
   23.0699997      -4.31521615E-12
   23.1299992       2.10797820E-11
   23.1900005       4.47010415E-11
   23.2500000       6.98060429E-11
   23.3099995       9.93183036E-11
   23.3700008       1.34593447E-10
   23.4300003       1.74756321E-10
   23.4899998       2.16970830E-10
   23.5499992       2.57602356E-10
   23.6100006       2.93795099E-10
   23.6700001       3.24752863E-10
   23.7299995       3.52134932E-10
   23.7900009       3.79411613E-10
   23.8500004       4.10533024E-10
   23.9099998       4.48559273E-10
   23.9699993       4.94830954E-10
   24.0300007       5.48898871E-10
   24.0900002       6.09025219E-10
   24.1499996       6.72863432E-10
   24.2099991       7.37994221E-10
   24.2700005       8.02226396E-10
   24.3299999       8.63750071E-10
   24.3899994       9.21231980E-10
   24.4500008       9.73818581E-10
   24.5100002       1.02092257E-09
   24.5699997       1.06175424E-09
   24.6299992       1.09478093E-09
   24.6900005       1.11748433E-09
   24.7500000       1.12674670E-09
   24.8099995       1.11988330E-09
   24.8700008       1.09594733E-09
   24.9300003       1.05670261E-09
   24.9899998       1.00677888E-09
   25.0499992       9.52915857E-10
   25.1100006       9.02624531E-10
   25.1700001       8.62782568E-10
   25.2299995       8.38561609E-10
   25.2900009       8.32797109E-10
   25.3500004       8.45711057E-10
   25.4099998       8.74907813E-10
   25.4699993       9.15717557E-10
   25.5300007       9.62034341E-10
   25.5900002       1.00763220E-09
   25.6499996       1.04760056E-09
   25.7099991       1.07928377E-09
   25.7700005       1.10220955E-09
   25.8299999       1.11697285E-09
   25.8899994       1.12366416E-09
   25.9500008       1.12075438E-09
   26.0100002       1.10513398E-09
   26.0699997       1.07333520E-09
   26.1299992       1.02325270E-09
   26.1900005       9.55387214E-10
   26.2500000       8.72940276E-10
   26.3099995       7.80783604E-10
   26.3700008       6.83935686E-10
   26.4300003       5.86333648E-10
   26.4899998       4.90343821E-10
   26.5499992       3.96922717E-10
   26.6100006       3.06016684E-10
   26.6700001       2.16869439E-10
   26.7299995       1.28238378E-10
   26.7900009       3.87611505E-11
   26.8500004      -5.23814533E-11
   26.9099998      -1.44726675E-10
   26.9699993      -2.36236836E-10
   27.0300007      -3.23892357E-10
   27.0900002      -4.05104339E-10
   27.1499996      -4.79276008E-10
   27.2099991      -5.48591339E-10
   27.2700005      -6.17453810E-10
   27.3299999      -6.90770663E-10
   27.3899994      -7.71974040E-10
   27.4500008      -8.61824778E-10
   27.5100002      -9.58541468E-10
   27.5699997      -1.05898457E-09
   27.6299992      -1.16003962E-09
   27.6900005      -1.25937127E-09
   27.7500000      -1.35527989E-09
   27.8099995      -1.44606183E-09
   27.8700008      -1.52957313E-09
   27.9300003      -1.60344571E-09
   27.9899998      -1.66583747E-09
   28.0499992      -1.71616987E-09
   28.1100006      -1.75532155E-09
   28.1700001      -1.78516457E-09
   28.2299995      -1.80780446E-09
   28.2900009      -1.82503679E-09
   28.3500004      -1.83827142E-09
   28.4099998      -1.84873017E-09
   28.4699993      -1.85747329E-09
   28.5300007      -1.86496618E-09
   28.5900002      -1.87035321E-09
   28.6499996      -1.87097715E-09
   28.7099991      -1.86268911E-09
   28.7700005      -1.84105409E-09
   28.8299999      -1.80300685E-09
   28.8899994      -1.74820169E-09
   28.9500008      -1.67945502E-09
   29.0100002      -1.60218316E-09
   29.0699997      -1.52323687E-09
   29.1299992      -1.44972079E-09
   29.1900005      -1.38818834E-09
   29.2500000      -1.34423084E-09
   29.3099995      -1.32221978E-09
   29.3700008      -1.32497568E-09
   29.4300003      -1.35335199E-09
   29.4899998      -1.40592349E-09
   29.5499992      -1.47899115E-09
   29.6100006      -1.56696600E-09
   29.6700001      -1.66302405E-09
   29.7299995      -1.75987958E-09
   29.7900009      -1.85060245E-09
   29.8500004      -1.92949434E-09
   29.9099998      -1.99299355E-09
   29.9699993      -2.04040784E-09
   30.0300007      -2.07413486E-09
   30.0900002      -2.09908912E-09
   30.1499996      -2.12136375E-09
   30.2099991      -2.14653340E-09
   30.2700005      -2.17820140E-09
   30.3299999      -2.21725283E-09
   30.3899994      -2.26187402E-09
   30.4500008      -2.30804420E-09
   30.5100002      -2.35011499E-09
   30.5699997      -2.38132913E-09
   30.6299992      -2.39446241E-09
   30.6900005      -2.38287279E-09
   30.7500000      -2.34198749E-09
   30.8099995      -2.27081309E-09
   30.8700008      -2.17276286E-09
   30.9300003      -2.05523665E-09
   30.9899998      -1.92797045E-09
   31.0499992      -1.80081605E-09
   31.1100006      -1.68190972E-09
   31.1700001      -1.57694036E-09
   31.2299995      -1.48956369E-09
   31.2900009      -1.42239243E-09
   31.3500004      -1.37776612E-09
   31.4099998      -1.35779876E-09
   31.4699993      -1.36374612E-09
   31.5300007      -1.39515743E-09
   31.5900002      -1.44935042E-09
   31.6499996      -1.52149127E-09
   31.7099991      -1.60523983E-09
   31.7700005      -1.69375214E-09
   31.8299999      -1.78083959E-09
   31.8899994      -1.86214011E-09
   31.9500008      -1.93610528E-09
   32.0099983      -2.00445704E-09
   32.0699997      -2.07171391E-09
   32.1300011      -2.14360329E-09
   32.1899986      -2.22468488E-09
   32.2500000      -2.31601138E-09
   32.3100014      -2.41382625E-09
   32.3699989      -2.50993382E-09
   32.4300003      -2.59364596E-09
   32.4900017      -2.65450550E-09
   32.5499992      -2.68473066E-09
   32.6100006      -2.68059308E-09
   32.6699982      -2.64255084E-09
   32.7299995      -2.57445643E-09
   32.7900009      -2.48233345E-09
   32.8499985      -2.37307196E-09
   32.9099998      -2.25320407E-09
   32.9700012      -2.12789342E-09
   33.0299988      -2.00039518E-09
   33.0900002      -1.87228499E-09
   33.1500015      -1.74449866E-09
   33.2099991      -1.61873204E-09
   33.2700005      -1.49836366E-09
   33.3300018      -1.38814715E-09
   33.3899994      -1.29259503E-09
   33.4500008      -1.21385491E-09
   33.5099983      -1.15037879E-09
   33.5699997      -1.09736820E-09
   33.6300011      -1.04895403E-09
   33.6899986      -1.00095676E-09
   33.7500000      -9.52630752E-10
   33.8100014      -9.06362874E-10
   33.8699989      -8.65534810E-10
   33.9300003      -8.31874181E-10
   33.9900017      -8.03880851E-10
   34.0499992      -7.77160614E-10
   34.1100006      -7.46270046E-10
   34.1699982      -7.06797731E-10
   34.2299995      -6.56425192E-10
   34.2900009      -5.94543303E-10
   34.3499985      -5.20995358E-10
   34.4099998      -4.34991015E-10
   34.4700012      -3.34929390E-10
   34.5299988      -2.19109050E-10
   34.5900002      -8.67044839E-11
   34.6500015       6.16360435E-11
   34.7099991       2.23750934E-10
   34.7700005       3.96176925E-10
   34.8300018       5.74234937E-10
   34.8899994       7.51998519E-10
   34.9500008       9.22597609E-10
   35.0099983       1.07933473E-09
   35.0699997       1.21755250E-09
   35.1300011       1.33644951E-09
   35.1899986       1.43971746E-09
   35.2500000       1.53432067E-09
   35.3100014       1.62778491E-09
   35.3699989       1.72530734E-09
   35.4300003       1.82818183E-09
   35.4900017       1.93426142E-09
   35.5499992       2.03997130E-09
   35.6100006       2.14251927E-09
   35.6699982       2.24100760E-09
   35.7299995       2.33604691E-09
   35.7900009       2.42849829E-09
   35.8499985       2.51844057E-09
   35.9099998       2.60504462E-09
   35.9700012       2.68719047E-09
   36.0299988       2.76402523E-09
   36.0900002       2.83479951E-09
   36.1500015       2.89805335E-09
   36.2099991       2.95097369E-09
   36.2700005       2.98982394E-09
   36.3300018       3.01164693E-09
   36.3899994       3.01642111E-09
   36.4500008       3.00831093E-09
   36.5099983       2.99502068E-09
   36.5699997       2.98539060E-09
   36.6300011       2.98645464E-09
   36.6899986       3.00150593E-09
   36.7500000       3.03004777E-09
   36.8100014       3.06930947E-09
   36.8699989       3.11612625E-09
   36.9300003       3.16797588E-09
   36.9900017       3.22277316E-09
   37.0499992       3.27802496E-09
   37.1100006       3.33040062E-09
   37.1699982       3.37640049E-09
   37.2299995       3.41389095E-09
   37.2900009       3.44353679E-09
   37.3499985       3.46908857E-09
   37.4099998       3.49612583E-09
   37.4700012       3.52973473E-09
   37.5299988       3.57216390E-09
   37.5900002       3.62144514E-09
   37.6500015       3.67142894E-09
   37.7099991       3.71309006E-09
   37.7700005       3.73660258E-09
   37.8300018       3.73362896E-09
   37.8899994       3.69932729E-09
   37.9500008       3.63359343E-09
   38.0099983       3.54106322E-09
   38.0699997       3.42961504E-09
   38.1300011       3.30764793E-09
   38.1899986       3.18109050E-09
   38.2500000       3.05150039E-09
   38.3100014       2.91631896E-09
   38.3699989       2.77136092E-09
   38.4300003       2.61439848E-09
   38.4900017       2.44801424E-09
   38.5499992       2.28016539E-09
   38.6100006       2.12211071E-09
   38.6699982       1.98472350E-09
   38.7299995       1.87500127E-09
   38.7900009       1.79431991E-09
   38.8499985       1.73888992E-09
   38.9099998       1.70170622E-09
   38.9700012       1.67473013E-09
   39.0299988       1.65032965E-09
   39.0900002       1.62180236E-09
   39.1500015       1.58344693E-09
   39.2099991       1.53074087E-09
   39.2700005       1.46075829E-09
   39.3300018       1.37248735E-09
   39.3899994       1.26662947E-09
   39.4500008       1.14484600E-09
   39.5099983       1.00893738E-09
   39.5699997       8.60590821E-10
   39.6300011       7.01932346E-10
   39.6899986       5.36421463E-10
   39.7500000       3.69189485E-10
   39.8100014       2.06159492E-10
   39.8699989       5.21151108E-11
   39.9300003      -9.12397449E-11
   39.9900017      -2.25926888E-10
   40.0499992      -3.56366436E-10
   40.1100006      -4.86568952E-10
   40.1699982      -6.17317086E-10
   40.2299995      -7.44927176E-10
   40.2900009      -8.62334648E-10
   40.3499985      -9.61946411E-10
   40.4099998      -1.03874453E-09
   40.4700012      -1.09208209E-09
   40.5299988      -1.12544207E-09
   40.5900002      -1.14456966E-09
   40.6500015      -1.15513743E-09
   40.7099991      -1.16108012E-09
   40.7700005      -1.16408949E-09
   40.8300018      -1.16401644E-09
   40.8899994      -1.15956322E-09
   40.9500008      -1.14880194E-09
   41.0099983      -1.12946774E-09
   41.0699997      -1.09926745E-09
   41.1300011      -1.05637399E-09
   41.1899986      -9.99975325E-10
   41.2500000      -9.30521826E-10
   41.3100014      -8.49407211E-10
   41.3699989      -7.58208218E-10
   41.4300003      -6.57982113E-10
   41.4900017      -5.49168433E-10
   41.5499992      -4.32259561E-10
   41.6100006      -3.08834319E-10
   41.6699982      -1.82191554E-10
   41.7299995      -5.69601831E-11
   41.7900009       6.23443866E-11
   41.8499985       1.73168480E-10
   41.9099998       2.76196455E-10
   41.9700012       3.75321163E-10
   42.0299988       4.76249484E-10
   42.0900002       5.84380044E-10
   42.1500015       7.02911118E-10
   42.2099991       8.31931801E-10
   42.2700005       9.68689684E-10
   42.3300018       1.10868015E-09
   42.3899994       1.24694211E-09
   42.4500008       1.37905898E-09
   42.5099983       1.50166313E-09
   42.5699997       1.61251457E-09
   42.6300011       1.71031089E-09
   42.6899986       1.79433113E-09
   42.7500000       1.86395921E-09
   42.8100014       1.91817273E-09
   42.8699989       1.95519867E-09
   42.9300003       1.97258965E-09
   42.9900017       1.96785432E-09
   43.0499992       1.93948524E-09
   43.1100006       1.88793536E-09
   43.1699982       1.81600857E-09
   43.2299995       1.72834547E-09
   43.2900009       1.63013436E-09
   43.3499985       1.52559620E-09
   43.4099998       1.41694256E-09
   43.4700012       1.30429278E-09
   43.5299988       1.18656085E-09
   43.5900002       1.06286269E-09
   43.6500015       9.33785604E-10
   43.7099991       8.01983591E-10
   43.7700005       6.71929401E-10
   43.8300018       5.49027102E-10
   43.8899994       4.38495240E-10
   43.9500008       3.44405837E-10
   44.0099983       2.69094469E-10
   44.0699997       2.12966991E-10
   44.1300011       1.74628548E-10
   44.1899986       1.51248195E-10
   44.2500000       1.39091044E-10
   44.3100014       1.34148068E-10
   44.3699989       1.32761011E-10
   44.4300003       1.32125200E-10
   44.4900017       1.30589095E-10
   44.5499992       1.27748617E-10
   44.6100006       1.24392302E-10
   44.6699982       1.22339375E-10
   44.7299995       1.24131566E-10
   44.7900009       1.32475669E-10
   44.8499985       1.49387933E-10
   44.9099998       1.75185283E-10
   44.9700012       2.07709613E-10
   45.0299988       2.42270981E-10
   45.0900002       2.72613015E-10
   45.1500015       2.92752378E-10
   45.2099991       2.99033159E-10
   45.2700005       2.91474594E-10
   45.3300018       2.73684769E-10
   45.3899994       2.51234894E-10
   45.4500008       2.29143343E-10
   45.5099983       2.09595979E-10
   45.5699997       1.90951172E-10
   45.6300011       1.68466296E-10
   45.6899986       1.36355496E-10
   45.7500000       9.01898695E-11
   45.8100014       2.85847977E-11
   45.8699989      -4.64196841E-11
   45.9300003      -1.30190997E-10
   45.9900017      -2.16930543E-10
   46.0499992      -3.00971137E-10
   46.1100006      -3.77517212E-10
   46.1699982      -4.42836212E-10
   46.2299995      -4.94200181E-10
   46.2900009      -5.29868760E-10
   46.3499985      -5.49185419E-10
   46.4099998      -5.52640322E-10
   46.4700012      -5.41708178E-10
   46.5299988      -5.18428078E-10
   46.5900002      -4.84898510E-10
   46.6500015      -4.42944403E-10
   46.7099991      -3.94097477E-10
   46.7700005      -3.39804213E-10
   46.8300018      -2.81623141E-10
   46.8899994      -2.21209731E-10
   46.9500008      -1.60090427E-10
   47.0099983      -9.94297908E-11
   47.0699997      -4.00188944E-11
   47.1300011       1.74704348E-11
   47.1899986       7.21855978E-11
   47.2500000       1.23088609E-10
   47.3100014       1.69439421E-10
   47.3699989       2.11604526E-10
   47.4300003       2.51707682E-10
   47.4900017       2.93600033E-10
   47.5499992       3.41951384E-10
   47.6100006       4.00778966E-10
   47.6699982       4.72121175E-10
   47.7299995       5.55559265E-10
   47.7900009       6.48865517E-10
   47.8499985       7.49443396E-10
   47.9099998       8.55785720E-10
   47.9700012       9.68166658E-10
   48.0299988       1.08820553E-09
   48.0900002       1.21754040E-09
   48.1500015       1.35628364E-09
   48.2099991       1.50199853E-09
   48.2700005       1.64962455E-09
   48.3300018       1.79232784E-09
   48.3899994       1.92288985E-09
   48.4500008       2.03513539E-09
   48.5099983       2.12499929E-09
   48.5699997       2.19101115E-09
   48.6300011       2.23414132E-09
   48.6899986       2.25704655E-09
   48.7500000       2.26285612E-09
   48.8100014       2.25378227E-09
   48.8699989       2.22997509E-09
   48.9300003       2.18909268E-09
   48.9900017       2.12688089E-09
   49.0499992       2.03869699E-09
   49.1100006       1.92149097E-09
   49.1699982       1.77549808E-09
   49.2299995       1.60495894E-09
   49.2900009       1.41754897E-09
   49.3499985       1.22270827E-09
   49.4099998       1.02946862E-09
   49.4700012       8.44504577E-10
   49.5299988       6.70971279E-10
   49.5900002       5.08365572E-10
   49.6500015       3.53311158E-10
   49.7099991       2.00962039E-10
   49.7700005       4.66382592E-11
   49.8300018      -1.12685854E-10
   49.8899994      -2.77378870E-10
   49.9500008      -4.44894066E-10
   50.0099983      -6.10364592E-10
   50.0699997      -7.67925779E-10
   50.1300011      -9.12377618E-10
   50.1899986      -1.04063724E-09
   50.2500000      -1.15246679E-09
   50.3100014      -1.25022759E-09
   50.3699989      -1.33779710E-09
   50.4300003      -1.41912382E-09
   50.4900017      -1.49701473E-09
   50.5499992      -1.57261026E-09
   50.6100006      -1.64566782E-09