 -0.750000000       0.00000000    
 -0.689999998       0.00000000    
 -0.629999995       0.00000000    
 -0.569999993       0.00000000    
 -0.509999990       0.00000000    
 -0.449999988       0.00000000    
 -0.389999986       0.00000000    
 -0.330000013       0.00000000    
 -0.270000011       9.03385759E-26
 -0.209999993       9.78779858E-25
 -0.150000006       5.01038259E-24
  -9.00000036E-02   1.49865207E-23
  -2.99999993E-02   2.27300094E-23
   2.99999993E-02  -2.02268937E-23
   9.00000036E-02  -2.32762839E-22
  0.150000006      -7.60182416E-22
  0.209999993      -1.53268792E-21
  0.270000011      -1.78052768E-21
  0.330000013       4.14149779E-22
  0.389999986       7.73947663E-21
  0.449999988       2.14161277E-20
  0.509999990       3.68402593E-20
  0.569999993       3.91137813E-20
  0.629999995       3.46954042E-21
  0.689999998      -9.31964944E-20
  0.750000000      -2.47460050E-19
  0.810000002      -3.99617339E-19
  0.870000005      -4.21078307E-19
  0.930000007      -1.47337747E-19
  0.990000010       5.28009289E-19
   1.04999995       1.51985411E-18
   1.11000001       2.44916723E-18
   1.16999996       2.67107104E-18
   1.23000002       1.50564708E-18
   1.28999996      -1.35501821E-18
   1.35000002      -5.42916976E-18
   1.40999997      -9.28251909E-18
   1.47000003      -1.08529628E-17
   1.52999997      -8.28793449E-18
   1.59000003      -1.00106328E-18
   1.64999998       9.60048980E-18
   1.71000004       2.02552097E-17
   1.76999998       2.70152854E-17
   1.83000004       2.69933055E-17
   1.88999999       1.97325838E-17
   1.95000005       7.24731564E-18
   2.00999999      -7.53437047E-18
   2.06999993      -2.30744530E-17
   2.13000011      -4.05461801E-17
   2.19000006      -6.25451180E-17
   2.25000000      -8.89585236E-17
   2.30999994      -1.11943980E-16
   2.36999989      -1.13681377E-16
   2.43000007      -7.04216178E-17
   2.49000001       3.62482721E-17
   2.54999995       2.04257350E-16
   2.60999990       3.99140639E-16
   2.67000008       5.53400559E-16
   2.73000002       5.81935246E-16
   2.78999996       4.11759868E-16
   2.84999990       1.71246984E-17
   2.91000009      -5.53182659E-16
   2.97000003      -1.16890684E-15
   3.02999997      -1.63882230E-15
   3.08999991      -1.75751660E-15
   3.15000010      -1.36914691E-15
   3.21000004      -4.32576656E-16
   3.26999998       9.31364606E-16
   3.32999992       2.43024044E-15
   3.39000010       3.64336357E-15
   3.45000005       4.12192236E-15
   3.50999999       3.53010595E-15
   3.56999993       1.78832372E-15
   3.63000011      -8.36664576E-16
   3.69000006      -3.74637421E-15
   3.75000000      -6.15101901E-15
   3.80999994      -7.30532459E-15
   3.86999989      -6.75873381E-15
   3.93000007      -4.51786537E-15
   3.99000001      -1.04679053E-15
   4.05000019       2.89814970E-15
   4.11000013       6.52041219E-15
   4.17000008       9.19753775E-15
   4.23000002       1.05555789E-14
   4.28999996       1.03887541E-14
   4.34999990       8.51509770E-15
   4.40999985       4.71725439E-15
   4.46999979      -1.11853422E-15
   4.53000021      -8.67747731E-15
   4.59000015      -1.68689271E-14
   4.65000010      -2.37066717E-14
   4.71000004      -2.66208208E-14
   4.76999998      -2.32265142E-14
   4.82999992      -1.23382258E-14
   4.88999987       5.16008109E-15
   4.94999981       2.60021276E-14
   5.01000023       4.50372161E-14
   5.07000017       5.65042804E-14
   5.13000011       5.57428723E-14
   5.19000006       4.07978162E-14
   5.25000000       1.33501710E-14
   5.30999994      -2.14169164E-14
   5.36999989      -5.60731440E-14
   5.42999983      -8.29677242E-14
   5.48999977      -9.63387356E-14
   5.55000019      -9.36933839E-14
   5.61000013      -7.58633065E-14
   5.67000008      -4.57013848E-14
   5.73000002      -6.11790637E-15
   5.78999996       4.12989514E-14
   5.84999990       9.58698249E-14
   5.90999985       1.55234630E-13
   5.96999979       2.11607722E-13
   6.03000021       2.49217774E-13
   6.09000015       2.45631721E-13
   6.15000010       1.78460843E-13
   6.21000004       3.63365784E-14
   6.26999998      -1.69909036E-13
   6.32999992      -4.01601875E-13
   6.38999987      -5.96916559E-13
   6.44999981      -6.86911628E-13
   6.51000023      -6.18655734E-13
   6.57000017      -3.76932860E-13
   6.63000011       4.79329169E-15
   6.69000006       4.49840089E-13
   6.75000000       8.59050895E-13
   6.80999994       1.13883761E-12
   6.86999989       1.22522771E-12
   6.92999983       1.09485240E-12
   6.98999977       7.60726009E-13
   7.05000019       2.58686030E-13
   7.11000013      -3.64982241E-13
   7.17000008      -1.05586254E-12
   7.23000002      -1.74223125E-12
   7.28999996      -2.32219170E-12
   7.34999990      -2.66044760E-12
   7.40999985      -2.60589185E-12
   7.46999979      -2.03141605E-12
   7.53000021      -8.84513491E-13
   7.59000015       7.71800701E-13
   7.65000010       2.74785229E-12
   7.71000004       4.75519320E-12
   7.76999998       6.46585173E-12
   7.82999992       7.58036516E-12
   7.88999987       7.87667674E-12
   7.94999981       7.21932973E-12
   8.01000023       5.52549673E-12
   8.06999969       2.70339458E-12
   8.13000011      -1.40910818E-12
   8.18999958      -7.07750308E-12
   8.25000000      -1.46581670E-11
   8.31000042      -2.45399777E-11
   8.36999989      -3.70547065E-11
   8.43000031      -5.23787402E-11
   8.48999977      -7.04484665E-11
   8.55000019      -9.09061507E-11
   8.60999966      -1.13086318E-10
   8.67000008      -1.36046854E-10
   8.72999954      -1.58644681E-10
   8.78999996      -1.79649642E-10
   8.85000038      -1.97883099E-10
   8.90999985      -2.12358950E-10
   8.97000027      -2.22402138E-10
   9.02999973      -2.27722549E-10
   9.09000015      -2.28435632E-10
   9.14999962      -2.25036087E-10
   9.21000004      -2.18340082E-10
   9.27000046      -2.09410392E-10
   9.32999992      -1.99464945E-10
   9.39000034      -1.89753574E-10
   9.44999981      -1.81383825E-10
   9.51000023      -1.75092593E-10
   9.56999969      -1.70996162E-10
   9.63000011      -1.68389760E-10
   9.68999958      -1.65686423E-10
   9.75000000      -1.60564742E-10
   9.81000042      -1.50333732E-10
   9.86999989      -1.32442057E-10
   9.93000031      -1.04993195E-10
   9.98999977      -6.71118092E-11
   10.0500002      -1.90553094E-11
   10.1099997       3.79403731E-11
   10.1700001       1.01989854E-10
   10.2299995       1.70913769E-10
   10.2900000       2.42486003E-10
   10.3500004       3.14519050E-10
   10.4099998       3.84838605E-10
   10.4700003       4.51271215E-10
   10.5299997       5.11764520E-10
   10.5900002       5.64679858E-10
   10.6499996       6.09175044E-10
   10.7100000       6.45505982E-10
   10.7700005       6.75065948E-10
   10.8299999       7.00076330E-10
   10.8900003       7.22993720E-10
   10.9499998       7.45838558E-10
   11.0100002       7.69702191E-10
   11.0699997       7.94618538E-10
   11.1300001       8.19825485E-10
   11.1899996       8.44266212E-10
   11.2500000       8.67078576E-10
   11.3100004       8.87847851E-10
   11.3699999       9.06539011E-10
   11.4300003       9.23201682E-10
   11.4899998       9.37663502E-10
   11.5500002       9.49426648E-10
   11.6099997       9.57855240E-10
   11.6700001       9.62568136E-10
   11.7299995       9.63817248E-10
   11.7900000       9.62623203E-10
   11.8500004       9.60558078E-10
   11.9099998       9.59250679E-10
   11.9700003       9.59836099E-10
   12.0299997       9.62602775E-10
   12.0900002       9.66989266E-10
   12.1499996       9.71906444E-10
   12.2100000       9.76209558E-10
   12.2700005       9.79091697E-10
   12.3299999       9.80243442E-10
   12.3900003       9.79761827E-10
   12.4499998       9.77924297E-10
   12.5100002       9.74980208E-10
   12.5699997       9.71070668E-10
   12.6300001       9.66285274E-10
   12.6899996       9.60788338E-10
   12.7500000       9.54931689E-10
   12.8100004       9.49308965E-10
   12.8699999       9.44760270E-10
   12.9300003       9.42343870E-10
   12.9899998       9.43261025E-10
   13.0500002       9.48680468E-10
   13.1099997       9.59423874E-10
   13.1700001       9.75554526E-10
   13.2299995       9.96032701E-10
   13.2900000       1.01866748E-09
   13.3500004       1.04052744E-09
   13.4099998       1.05876974E-09
   13.4700003       1.07159837E-09
   13.5299997       1.07891029E-09
   13.5900002       1.08225573E-09
   13.6499996       1.08402964E-09
   13.7100000       1.08619991E-09
   13.7700005       1.08915710E-09
   13.8299999       1.09127352E-09
   13.8900003       1.08945253E-09
   13.9499998       1.08047427E-09
   14.0100002       1.06253950E-09
   14.0699997       1.03629272E-09
   14.1300001       1.00483910E-09
   14.1899996       9.72744441E-10
   14.2500000       9.44469947E-10
   14.3100004       9.22934729E-10
   14.3699999       9.08788433E-10
   14.4300003       9.00603592E-10
   14.4899998       8.95762797E-10
   14.5500002       8.91534513E-10
   14.6099997       8.85830631E-10
   14.6700001       8.77391826E-10
   14.7299995       8.65488348E-10
   14.7900000       8.49481041E-10
   14.8500004       8.28622115E-10
   14.9099998       8.02290012E-10
   14.9700003       7.70560060E-10
   15.0299997       7.34765915E-10
   15.0900002       6.97653935E-10
   15.1499996       6.62894628E-10
   15.2100000       6.34031105E-10
   15.2700005       6.13251450E-10
   15.3299999       6.00511363E-10
   15.3900003       5.93419203E-10
   15.4499998       5.87965288E-10
   15.5100002       5.79777726E-10
   15.5699997       5.65324787E-10
   15.6300001       5.42496215E-10
   15.6899996       5.10300135E-10
   15.7500000       4.67856365E-10
   15.8100004       4.13234141E-10
   15.8699999       3.42767315E-10
   15.9300003       2.51240806E-10
   15.9899998       1.32902148E-10
   16.0499992      -1.71534141E-11
   16.1100006      -2.01834091E-10
   16.1700001      -4.21590013E-10
   16.2299995      -6.74725220E-10
   16.2900009      -9.58208402E-10
   16.3500004      -1.26853961E-09
   16.4099998      -1.60231539E-09
   16.4699993      -1.95637151E-09
   16.5300007      -2.32760433E-09
   16.5900002      -2.71266987E-09
   16.6499996      -3.10769810E-09
   16.7099991      -3.50807139E-09
   16.7700005      -3.90825816E-09
   16.8299999      -4.30173897E-09
   16.8899994      -4.68110439E-09
   16.9500008      -5.03838793E-09
   17.0100002      -5.36554801E-09
   17.0699997      -5.65486058E-09
   17.1299992      -5.89894578E-09
   17.1900005      -6.09033268E-09
   17.2500000      -6.22080698E-09
   17.3099995      -6.28110275E-09
   17.3700008      -6.26150864E-09
   17.4300003      -6.15362783E-09
   17.4899998      -5.95291683E-09
   17.5499992      -5.66110225E-09
   17.6100006      -5.28742650E-09
   17.6700001      -4.84804463E-09
   17.7299995      -4.36365388E-09
   17.7900009      -3.85617538E-09
   17.8500004      -3.34566330E-09
   17.9099998      -2.84845436E-09
   17.9699993      -2.37691022E-09
   18.0300007      -1.94040273E-09
   18.0900002      -1.54668911E-09
   18.1499996      -1.20280585E-09
   18.2099991      -9.14975873E-10
   18.2700005      -6.87585155E-10
   18.3299999      -5.21750254E-10
   18.3899994      -4.14201978E-10
   18.4500008      -3.57105290E-10
   18.5100002      -3.39094225E-10
   18.5699997      -3.47364332E-10
   18.6299992      -3.70268483E-10
   18.6900005      -3.99636296E-10
   18.7500000      -4.32066494E-10
   18.8099995      -4.68756589E-10
   18.8700008      -5.13941945E-10
   18.9300003      -5.72537684E-10
   18.9899998      -6.47884191E-10
   19.0499992      -7.40418449E-10
   19.1100006      -8.47653725E-10
   19.1700001      -9.65238445E-10
   19.2299995      -1.08839238E-09
   19.2900009      -1.21291954E-09
   19.3500004      -1.33530975E-09
   19.4099998      -1.45197865E-09
   19.4699993      -1.55816593E-09
   19.5300007      -1.64717540E-09
   19.5900002      -1.71045367E-09
   19.6499996      -1.73860815E-09
   19.7099991      -1.72309345E-09
   19.7700005      -1.65810321E-09
   19.8299999      -1.54220448E-09
   19.8899994      -1.37936884E-09
   19.9500008      -1.17917098E-09
   20.0100002      -9.56032697E-10
   20.0699997      -7.27528426E-10
   20.1299992      -5.11995446E-10
   20.1900005      -3.25946881E-10
   20.2500000      -1.81950316E-10
   20.3099995      -8.75434100E-11
   20.3700008      -4.53984003E-11
   20.4300003      -5.44509750E-11
   20.4899998      -1.11342109E-10
   20.5499992      -2.11482221E-10
   20.6100006      -3.49368423E-10
   20.6700001      -5.18269483E-10
   20.7299995      -7.09753145E-10
   20.7900009      -9.13563059E-10
   20.8500004      -1.11806886E-09
   20.9099998      -1.31112632E-09
   20.9699993      -1.48095669E-09
   21.0300007      -1.61671576E-09
   21.0900002      -1.70871162E-09
   21.1499996      -1.74850778E-09
   21.2099991      -1.72922554E-09
   21.2700005      -1.64617386E-09
   21.3299999      -1.49763846E-09
   21.3899994      -1.28545596E-09
   21.4500008      -1.01504083E-09
   21.5100002      -6.94783786E-10
   21.5699997      -3.35048822E-10
   21.6299992       5.28458076E-11
   21.6900005       4.57331145E-10
   21.7500000       8.66869743E-10
   21.8099995       1.26994726E-09
   21.8700008       1.65503111E-09
   21.9300003       2.01073469E-09
   21.9899998       2.32631314E-09
   22.0499992       2.59248112E-09
   22.1100006       2.80242785E-09
   22.1700001       2.95280267E-09
   22.2299995       3.04435366E-09
   22.2900009       3.08187698E-09
   22.3500004       3.07324877E-09
   22.4099998       3.02759440E-09
   22.4699993       2.95304892E-09
   22.5300007       2.85487323E-09
   22.5900002       2.73469114E-09
   22.6499996       2.59125454E-09
   22.7099991       2.42249376E-09
   22.7700005       2.22802421E-09
   22.8299999       2.01103578E-09
   22.8899994       1.77876236E-09
   22.9500008       1.54138380E-09
   23.0100002       1.30992084E-09
   23.0699997       1.09409093E-09
   23.1299992       9.01017039E-10
   23.1900005       7.35210171E-10
   23.2500000       5.99648387E-10
   23.3099995       4.97354380E-10
   23.3700008       4.32778757E-10
   23.4300003       4.12485379E-10
   23.4899998       4.44945275E-10
   23.5499992       5.39523981E-10
   23.6100006       7.04921954E-10
   23.6700001       9.47426582E-10
   23.7299995       1.26939737E-09
   23.7900009       1.66841096E-09
   23.8500004       2.13737383E-09
   23.9099998       2.66563260E-09
   23.9699993       3.24071525E-09
   24.0300007       3.85001897E-09
   24.0900002       4.48169013E-09
   24.1499996       5.12424769E-09
   24.2099991       5.76508441E-09
   24.2700005       6.38854569E-09
   24.3299999       6.97460223E-09
   24.3899994       7.49893481E-09
   24.4500008       7.93472310E-09
   24.5100002       8.25570901E-09
   24.5699997       8.43962855E-09
   24.6299992       8.47097414E-09
   24.6900005       8.34236502E-09
   24.7500000       8.05438738E-09
   24.8099995       7.61424879E-09
   24.8700008       7.03398229E-09
   24.9300003       6.32891339E-09
   24.9899998       5.51687140E-09
   25.0499992       4.61817740E-09
   25.1100006       3.65605857E-09
   25.1700001       2.65682121E-09
   25.2299995       1.64913494E-09
   25.2900009       6.62079558E-10
   25.3500004      -2.77880025E-10
   25.4099998      -1.15024845E-09
   25.4699993      -1.94310057E-09
   25.5300007      -2.65392353E-09
   25.5900002      -3.28822281E-09
   25.6499996      -3.85622778E-09
   25.7099991      -4.36876091E-09
   25.7700005      -4.83367746E-09
   25.8299999      -5.25405097E-09
   25.8899994      -5.62857805E-09
   25.9500008      -5.95380634E-09
   26.0100002      -6.22712992E-09
   26.0699997      -6.44927001E-09
   26.1299992      -6.62523503E-09
   26.1900005      -6.76336631E-09
   26.2500000      -6.87278945E-09
   26.3099995      -6.96016444E-09
   26.3700008      -7.02694036E-09
   26.4300003      -7.06825531E-09
   26.4899998      -7.07420300E-09
   26.5499992      -7.03342407E-09
   26.6100006      -6.93813007E-09
   26.6700001      -6.78890988E-09
   26.7299995      -6.59743726E-09
   26.7900009      -6.38568887E-09
   26.8500004      -6.18141849E-09
   26.9099998      -6.01108940E-09
   26.9699993      -5.89260285E-09
   27.0300007      -5.83046411E-09
   27.0900002      -5.81524784E-09
   27.1499996      -5.82764104E-09
   27.2099991      -5.84560578E-09
   27.2700005      -5.85199533E-09
   27.3299999      -5.83980819E-09
   27.3899994      -5.81318682E-09
   27.4500008      -5.78383963E-09
   27.5100002      -5.76425396E-09
   27.5699997      -5.76018877E-09
   27.6299992      -5.76525139E-09
   27.6900005      -5.75971715E-09
   27.7500000      -5.71442671E-09
   27.8099995      -5.59889513E-09
   27.8700008      -5.39120215E-09
   27.9300003      -5.08635667E-09
   27.9899998      -4.69996575E-09
   28.0499992      -4.26539515E-09
   28.1100006      -3.82480891E-09
   28.1700001      -3.41679907E-09
   28.2299995      -3.06483861E-09
   28.2900009      -2.77076362E-09
   28.3500004      -2.51580068E-09
   28.4099998      -2.26888131E-09
   28.4699993      -1.99920258E-09
   28.5300007      -1.68838443E-09
   28.5900002      -1.33774292E-09
   28.6499996      -9.68101488E-10
   28.7099991      -6.12357554E-10
   28.7700005      -3.03639613E-10
   28.8299999      -6.33780736E-11
   28.8899994       1.06484398E-10
   28.9500008       2.24426061E-10
   29.0100002       3.23053029E-10
   29.0699997       4.37604314E-10
   29.1299992       5.92996430E-10
   29.1900005       7.93687560E-10
   29.2500000       1.01982878E-09
   29.3099995       1.23121291E-09
   29.3700008       1.37799383E-09
   29.4300003       1.41485268E-09
   29.4899998       1.31402900E-09
   29.5499992       1.07293607E-09
   29.6100006       7.13884563E-10
   29.6700001       2.76159373E-10
   29.7299995      -1.96671360E-10
   29.7900009      -6.69727940E-10
   29.8500004      -1.12558740E-09
   29.9099998      -1.56594115E-09
   29.9699993      -2.00580508E-09
   30.0300007      -2.46258614E-09
   30.0900002      -2.94413804E-09
   30.1499996      -3.44032403E-09
   30.2099991      -3.92141564E-09
   30.2700005      -4.34425473E-09
   30.3299999      -4.66429784E-09
   30.3899994      -4.84943818E-09
   30.4500008      -4.89068164E-09
   30.5100002      -4.80579754E-09
   30.5699997      -4.63455230E-09
   30.6299992      -4.42720705E-09
   30.6900005      -4.23035695E-09
   30.7500000      -4.07495948E-09
   30.8099995      -3.97031608E-09
   30.8700008      -3.90534538E-09
   30.9300003      -3.85588272E-09
   30.9899998      -3.79489018E-09
   31.0499992      -3.70200848E-09
   31.1100006      -3.56967433E-09
   31.1700001      -3.40447315E-09
   31.2299995      -3.22388272E-09
   31.2900009      -3.04969627E-09
   31.3500004      -2.90011237E-09
   31.4099998      -2.78277468E-09
   31.4699993      -2.69091927E-09
   31.5300007      -2.60409472E-09
   31.5900002      -2.49363041E-09
   31.6499996      -2.33140618E-09
   31.7099991      -2.09910755E-09
   31.7700005      -1.79473825E-09
   31.8299999      -1.43401779E-09
   31.8899994      -1.04618170E-09
   31.9500008      -6.65783984E-10
   32.0099983      -3.23461952E-10
   32.0699997      -3.86983570E-11
   32.1300011       1.83457208E-10
   32.1899986       3.51321666E-10
   32.2500000       4.82117291E-10
   32.3100014       5.95747007E-10
   32.3699989       7.08515524E-10
   32.4300003       8.28282609E-10
   32.4900017       9.52234513E-10
   32.5499992       1.06801823E-09
   32.6100006       1.15821897E-09
   32.6699982       1.20705790E-09
   32.7299995       1.20709076E-09
   32.7900009       1.16325938E-09
   32.8499985       1.09233211E-09
   32.9099998       1.01751274E-09
   32.9700012       9.60058477E-10
   33.0299988       9.31092092E-10
   33.0900002       9.26762611E-10
   33.1500015       9.28482458E-10
   33.2099991       9.07943942E-10
   33.2700005       8.34966929E-10
   33.3300018       6.85610735E-10
   33.3899994       4.48377835E-10
   33.4500008       1.27252611E-10
   33.5099983      -2.58832594E-10
   33.5699997      -6.79892087E-10
   33.6300011      -1.10142728E-09
   33.6899986      -1.49223511E-09
   33.7500000      -1.83142312E-09
   33.8100014      -2.11229434E-09
   33.8699989      -2.34143305E-09
   33.9300003      -2.53299604E-09
   33.9900017      -2.70028488E-09
   34.0499992      -2.84806312E-09
   34.1100006      -2.96893021E-09
   34.1699982      -3.04528380E-09
   34.2299995      -3.05587489E-09
   34.2900009      -2.98396374E-09
   34.3499985      -2.82364532E-09
   34.4099998      -2.58208543E-09
   34.4700012      -2.27741959E-09
   34.5299988      -1.93373229E-09
   34.5900002      -1.57516944E-09
   34.6500015      -1.22083410E-09
   34.7099991      -8.81303364E-10
   34.7700005      -5.57032087E-10
   34.8300018      -2.38788017E-10
   34.8899994       8.97450031E-11
   34.9500008       4.47379467E-10
   35.0099983       8.49788184E-10
   35.0699997       1.30453259E-09
   35.1300011       1.80862281E-09
   35.1899986       2.34965869E-09
   35.2500000       2.91010327E-09
   35.3100014       3.47284712E-09
   35.3699989       4.02577660E-09
   35.4300003       4.56378046E-09
   35.4900017       5.08804776E-09
   35.5499992       5.60373126E-09
   35.6100006       6.11743722E-09
   35.6699982       6.63543842E-09
   35.7299995       7.16267223E-09
   35.7900009       7.70207365E-09
   35.8499985       8.25399660E-09
   35.9099998       8.81601459E-09
   35.9700012       9.38369737E-09
   36.0299988       9.95260230E-09
   36.0900002       1.05208215E-08
   36.1500015       1.10907212E-08
   36.2099991       1.16685399E-08
   36.2700005       1.22614869E-08
   36.3300018       1.28733904E-08
   36.3899994       1.35008857E-08
   36.4500008       1.41319818E-08
   36.5099983       1.47477150E-08
   36.5699997       1.53261333E-08
   36.6300011       1.58468421E-08
   36.6899986       1.62944325E-08
   36.7500000       1.66599623E-08
   36.8100014       1.69406356E-08
   36.8699989       1.71384915E-08
   36.9300003       1.72587367E-08
   36.9900017       1.73079773E-08
   37.0499992       1.72922388E-08
   37.1100006       1.72147914E-08
   37.1699982       1.70742371E-08
   37.2299995       1.68636767E-08
   37.2900009       1.65716862E-08
   37.3499985       1.61851936E-08
   37.4099998       1.56935389E-08
   37.4700012       1.50923434E-08
   37.5299988       1.43859067E-08
   37.5900002       1.35872416E-08
   37.6500015       1.27157662E-08
   37.7099991       1.17933165E-08
   37.7700005       1.08395213E-08
   37.8300018       9.86764981E-09
   37.8899994       8.88190499E-09
   37.9500008       7.87682364E-09
   38.0099983       6.83909374E-09
   38.0699997       5.75159653E-09
   38.1300011       4.59889771E-09
   38.1899986       3.37289463E-09
   38.2500000       2.07707251E-09
   38.3100014       7.27996496E-10
   38.3699989      -6.46720066E-10
   38.4300003      -2.01375228E-09
   38.4900017      -3.34147954E-09
   38.5499992      -4.60744110E-09
   38.6100006      -5.80352832E-09
   38.6699982      -6.93703939E-09
   38.7299995      -8.02688049E-09
   38.7900009      -9.09581299E-09
   38.8499985      -1.01611803E-08
   38.9099998      -1.12273844E-08
   38.9700012      -1.22829817E-08
   39.0299988      -1.33037075E-08
   39.0900002      -1.42604488E-08
   39.1500015      -1.51291744E-08
   39.2099991      -1.58990332E-08
   39.2700005      -1.65754788E-08
   39.3300018      -1.71773351E-08
   39.3899994      -1.77290040E-08
   39.4500008      -1.82507875E-08
   39.5099983      -1.87508000E-08
   39.5699997      -1.92211811E-08
   39.6300011      -1.96397512E-08
   39.6899986      -1.99765129E-08
   39.7500000      -2.02030233E-08
   39.8100014      -2.03018544E-08
   39.8699989      -2.02732870E-08
   39.9300003      -2.01369375E-08
   39.9900017      -1.99273433E-08
   40.0499992      -1.96843342E-08
   40.1100006      -1.94409111E-08
   40.1699982      -1.92125853E-08
   40.2299995      -1.89920417E-08
   40.2900009      -1.87514821E-08
   40.3499985      -1.84521518E-08
   40.4099998      -1.80579516E-08
   40.4700012      -1.75482615E-08
   40.5299988      -1.69252523E-08
   40.5900002      -1.62130434E-08
   40.6500015      -1.54489186E-08
   40.7099991      -1.46698094E-08
   40.7700005      -1.38988350E-08
   40.8300018      -1.31367397E-08
   40.8899994      -1.23613884E-08
   40.9500008      -1.15357768E-08
   41.0099983      -1.06220908E-08
   41.0699997      -9.59720658E-09
   41.1300011      -8.46423198E-09
   41.1899986      -7.25582705E-09
   41.2500000      -6.02773564E-09
   41.3100014      -4.84438889E-09
   41.3699989      -3.76143383E-09
   41.4300003      -2.81124235E-09
   41.4900017      -1.99639505E-09
   41.5499992      -1.29312727E-09
   41.6100006      -6.62996547E-10
   41.6699982      -6.81820572E-11
   41.7299995       5.15113674E-10
   41.7900009       1.08945042E-09
   41.8499985       1.63680114E-09
   41.9099998       2.12593587E-09
   41.9700012       2.52346144E-09
   42.0299988       2.80479440E-09
   42.0900002       2.96184988E-09
   42.1500015       3.00541969E-09
   42.2099991       2.96169711E-09
   42.2700005       2.86391955E-09
   42.3300018       2.74151812E-09
   42.3899994       2.61013944E-09
   42.4500008       2.46602627E-09
   42.5099983       2.28714425E-09
   42.5699997       2.04121231E-09
   42.6300011       1.69816217E-09
   42.6899986       1.24260802E-09
   42.7500000       6.81641243E-10
   42.8100014       4.49345700E-11
   42.8699989      -6.22887686E-10
   42.9300003      -1.27466482E-09
   42.9900017      -1.87325289E-09
   43.0499992      -2.39980213E-09
   43.1100006      -2.85528912E-09
   43.1699982      -3.25552740E-09
   43.2299995      -3.62216457E-09
   43.2900009      -3.97323952E-09
   43.3499985      -4.31653202E-09
   43.4099998      -4.64750016E-09
   43.4700012      -4.95180519E-09
   43.5299988      -5.21083310E-09
   43.5900002      -5.40783285E-09
   43.6500015      -5.53233859E-09
   43.7099991      -5.58148994E-09
   43.7700005      -5.55817659E-09
   43.8300018      -5.46722712E-09
   43.8899994      -5.31152677E-09
   43.9500008      -5.08976195E-09
   44.0099983      -4.79658668E-09
   44.0699997      -4.42478365E-09
   44.1300011      -3.96817912E-09
   44.1899986      -3.42391915E-09
   44.2500000      -2.79330514E-09
   44.3100014      -2.08126583E-09
   44.3699989      -1.29516431E-09
   44.4300003      -4.43724224E-10
   44.4900017       4.63522859E-10
   44.5499992       1.41639589E-09
   44.6100006       2.40420794E-09
   44.6699982       3.41617645E-09
   44.7299995       4.44208492E-09
   44.7900009       5.47298296E-09
   44.8499985       6.50173249E-09
   44.9099998       7.52338281E-09
   44.9700012       8.53544080E-09
   45.0299988       9.53790380E-09
   45.0900002       1.05326876E-08
   45.1500015       1.15220038E-08
   45.2099991       1.25056880E-08
   45.2700005       1.34782621E-08
   45.3300018       1.44272034E-08
   45.3899994       1.53338746E-08
   45.4500008       1.61775926E-08
   45.5099983       1.69417405E-08
   45.5699997       1.76194401E-08
   45.6300011       1.82160456E-08
   45.6899986       1.87467872E-08
   45.7500000       1.92300948E-08
   45.8100014       1.96791490E-08
   45.8699989       2.00952162E-08
   45.9300003       2.04656931E-08
   45.9900017       2.07678159E-08
   46.0499992       2.09766640E-08
   46.1100006       2.10743725E-08
   46.1699982       2.10571116E-08
   46.2299995       2.09372999E-08
   46.2900009       2.07403197E-08
   46.3499985       2.04968416E-08
   46.4099998       2.02333066E-08
   46.4700012       1.99636609E-08
   46.5299988       1.96851069E-08
   46.5900002       1.93794705E-08
   46.6500015       1.90200424E-08
   46.7099991       1.85817797E-08
   46.7700005       1.80514768E-08
   46.8300018       1.74342283E-08
   46.8899994       1.67535514E-08
   46.9500008       1.60449289E-08
   47.0099983       1.53449253E-08
   47.0699997       1.46798325E-08
   47.1300011       1.40580454E-08
   47.1899986       1.34688323E-08
   47.2500000       1.28877575E-08
   47.3100014       1.22865229E-08
   47.3699989       1.16435555E-08
   47.4300003       1.09516716E-08
   47.4900017       1.02204618E-08
   47.5499992       9.47292289E-09
   47.6100006       8.73776695E-09
   47.6699982       8.04002109E-09
   47.7299995       7.39294848E-09
   47.7900009       6.79377932E-09
   47.8499985       6.22461016E-09
   47.9099998       5.65819391E-09
   47.9700012       5.06676301E-09
   48.0299988       4.43094583E-09
   48.0900002       3.74573483E-09
   48.1500015       3.02148440E-09
   48.2099991       2.27976904E-09
   48.2700005       1.54586488E-09
   48.3300018       8.40838177E-10
   48.3899994       1.76154827E-10
   48.4500008      -4.47485132E-10
   48.5099983      -1.03719966E-09
   48.5699997      -1.60250668E-09
   48.6300011      -2.14974571E-09
   48.6899986      -2.67833711E-09
   48.7500000      -3.17991811E-09
   48.8100014      -3.64030828E-09
   48.8699989      -4.04345313E-09
   48.9300003      -4.37605108E-09
   48.9900017      -4.63147298E-09
   49.0499992      -4.81174789E-09
   49.1100006      -4.92684560E-09
   49.1699982      -4.99130648E-09
   49.2299995      -5.01924236E-09
   49.2900009      -5.01956610E-09
   49.3499985      -4.99342523E-09
   49.4099998      -4.93500174E-09
   49.4700012      -4.83533746E-09
   49.5299988      -4.68733852E-09
   49.5900002      -4.48948123E-09
   49.6500015      -4.24637747E-09
   49.7099991      -3.96605371E-09
   49.7700005      -3.65556296E-09
   49.8300018      -3.31745365E-09
   49.8899994      -2.94909830E-09
   49.9500008      -2.54523491E-09
   50.0099983      -2.10229434E-09
   50.0699997      -1.62216240E-09
   50.1300011      -1.11344733E-09
   50.1899986      -5.89774729E-10
   50.2500000      -6.62045210E-11
   50.3100014       4.44327852E-10
   50.3699989       9.32968924E-10
   50.4300003       1.39483303E-09
   50.4900017       1.82749560E-09
   50.5499992       2.22929830E-09
   50.6100006       2.59839172E-09