  -2.400000      0.0000000E+00
  -2.340000      0.0000000E+00
  -2.280000      0.0000000E+00
  -2.220000      0.0000000E+00
  -2.160000      0.0000000E+00
  -2.100000      0.0000000E+00
  -2.040000      0.0000000E+00
  -1.980000      0.0000000E+00
  -1.920000     -7.4985302E-28
  -1.860000     -7.3025409E-27
  -1.800000     -3.2927239E-26
  -1.740000     -8.1380450E-26
  -1.680000     -6.0177835E-26
  -1.620000      4.0421923E-25
  -1.560000      2.1343815E-24
  -1.500000      6.1055538E-24
  -1.440000      1.1816019E-23
  -1.380000      1.3511999E-23
  -1.320000     -4.7404502E-24
  -1.260000     -6.9361100E-23
  -1.200000     -2.0084540E-22
  -1.140000     -3.6807515E-22
  -1.080000     -4.1852287E-22
  -1.020000     -3.2450696E-23
 -0.9600000      1.1981898E-21
 -0.9000000      3.4504317E-21
 -0.8400000      6.0804775E-21
 -0.7800000      6.9576552E-21
 -0.7200000      2.2474233E-21
 -0.6600000     -1.2523002E-20
 -0.6000000     -3.9249904E-20
 -0.5400000     -7.1672266E-20
 -0.4800000     -8.9040649E-20
 -0.4200000     -5.3833092E-20
 -0.3600000      7.8294564E-20
 -0.3000000      3.2802791E-19
 -0.2400000      6.4166018E-19
 -0.1800000      8.4113076E-19
 -0.1200000      6.2322388E-19
 -5.9999999E-02 -3.3022560E-19
  0.0000000E+00 -2.1010038E-18
  5.9999999E-02 -4.2095618E-18
  0.1200000     -5.4236963E-18
  0.1800000     -3.9997913E-18
  0.2400000      1.4339601E-18
  0.3000000      1.0500476E-17
  0.3600000      1.9894159E-17
  0.4200000      2.3499867E-17
  0.4800000      1.4729766E-17
  0.5400000     -9.0757363E-18
  0.6000000     -4.2065264E-17
  0.6600000     -6.8430872E-17
  0.7200000     -6.7217054E-17
  0.7800000     -2.3767667E-17
  0.8400000      5.6510782E-17
  0.9000000      1.4062866E-16
  0.9600000      1.7558569E-16
   1.020000      1.1384573E-16
   1.080000     -5.1748710E-17
   1.140000     -2.6303039E-16
   1.200000     -4.0350733E-16
   1.260000     -3.4766351E-16
   1.320000     -3.8790572E-17
   1.380000      4.4375254E-16
   1.440000      8.7655962E-16
   1.500000      9.7303535E-16
   1.560000      5.3628790E-16
   1.620000     -3.8577520E-16
   1.680000     -1.4400580E-15
   1.740000     -2.0736965E-15
   1.800000     -1.7962994E-15
   1.860000     -4.8915846E-16
   1.920000      1.4124439E-15
   1.980000      3.0130639E-15
   2.040000      3.3518940E-15
   2.100000      1.9476036E-15
   2.160000     -7.9097318E-16
   2.220000     -3.5701418E-15
   2.280000     -4.7419047E-15
   2.340000     -3.1859061E-15
   2.400000      8.8378634E-16
   2.460000      5.6788989E-15
   2.520000      8.4504378E-15
   2.580000      6.8209077E-15
   2.640000      2.5737056E-16
   2.700000     -9.1107584E-15
   2.760000     -1.6945443E-14
   2.820000     -1.8478983E-14
   2.880000     -1.0958333E-14
   2.940000      4.4078565E-15
   3.000000      2.2138429E-14
   3.060000      3.4304638E-14
   3.120000      3.3963944E-14
   3.180000      1.8740519E-14
   3.240000     -7.2401717E-15
   3.300000     -3.4303638E-14
   3.360000     -5.1019149E-14
   3.420000     -4.9327699E-14
   3.480000     -2.8612607E-14
   3.540000      3.4428429E-15
   3.600000      3.3972015E-14
   3.660000      5.0807530E-14
   3.720000      4.8351836E-14
   3.780000      3.0378911E-14
   3.840000      8.0354060E-15
   3.900000     -6.2797265E-15
   3.960000     -6.1587287E-15
   4.020000      4.3996230E-15
   4.080000      1.2254897E-14
   4.140000      2.1246648E-15
   4.200000     -3.3799972E-14
   4.260000     -8.8612623E-14
   4.320000     -1.4022376E-13
   4.380000     -1.5906215E-13
   4.440000     -1.2126093E-13
   4.500000     -2.1517932E-14
   4.560000      1.2065438E-13
   4.620000      2.6495310E-13
   4.680000      3.6365146E-13
   4.740000      3.7898918E-13
   4.800000      2.9725156E-13
   4.860000      1.3360069E-13
   4.920000     -7.4105279E-14
   4.980000     -2.7933748E-13
   5.040000     -4.4227938E-13
   5.100000     -5.3993366E-13
   5.160000     -5.6730591E-13
   5.220000     -5.3057157E-13
   5.280000     -4.3697270E-13
   5.340000     -2.8746683E-13
   5.400000     -7.6358272E-14
   5.460000      2.0171026E-13
   5.520000      5.4094809E-13
   5.580000      9.1539309E-13
   5.640000      1.2765410E-12
   5.700000      1.5594312E-12
   5.760000      1.6951858E-12
   5.820000      1.6253237E-12
   5.880000      1.3128492E-12
   5.940000      7.4716990E-13
   6.000000     -5.6819495E-14
   6.060000     -1.0623349E-12
   6.120000     -2.2128722E-12
   6.180000     -3.4301631E-12
   6.240000     -4.6080592E-12
   6.300000     -5.6055958E-12
   6.360000     -6.2443362E-12
   6.420000     -6.3148657E-12
   6.480000     -5.5950375E-12
   6.540000     -3.8791943E-12
   6.600000     -1.0142638E-12
   6.660000      3.0634674E-12
   6.720000      8.2972813E-12
   6.780000      1.4489204E-11
   6.840000      2.1290750E-11
   6.900000      2.8203075E-11
   6.960000      3.4582174E-11
   7.020000      3.9645318E-11
   7.080000      4.2478406E-11
   7.140000      4.2049472E-11
   7.200000      3.7238209E-11
   7.260000      2.6891990E-11
   7.320000      9.9128370E-12
   7.380000     -1.4631896E-11
   7.440000     -4.7396097E-11
   7.500000     -8.8668829E-11
   7.560000     -1.3834456E-10
   7.620000     -1.9596549E-10
   7.680000     -2.6082927E-10
   7.740000     -3.3213329E-10
   7.800000     -4.0911172E-10
   7.860000     -4.9112314E-10
   7.920000     -5.7766159E-10
   7.980000     -6.6828770E-10
   8.040000     -7.6250040E-10
   8.100000     -8.5958413E-10
   8.160000     -9.5847152E-10
   8.220000     -1.0576541E-09
   8.280000     -1.1551647E-09
   8.340000     -1.2486439E-09
   8.400000     -1.3354876E-09
   8.460000     -1.4130618E-09
   8.520000     -1.4789517E-09
   8.580000     -1.5311981E-09
   8.640000     -1.5684711E-09
   8.700000     -1.5901432E-09
   8.760000     -1.5962484E-09
   8.820000     -1.5873592E-09
   8.880000     -1.5644352E-09
   8.940000     -1.5287085E-09
   9.000000     -1.4816434E-09
   9.060000     -1.4249615E-09
   9.120000     -1.3606780E-09
   9.180000     -1.2910705E-09
   9.240000     -1.2185291E-09
   9.300000     -1.1452889E-09
   9.360000     -1.0731148E-09
   9.420000     -1.0030491E-09
   9.480000     -9.3532204E-10
   9.540000     -8.6946816E-10
   9.600000     -8.0459772E-10
   9.660000     -7.3971340E-10
   9.720000     -6.7394279E-10
   9.780000     -6.0661187E-10
   9.840000     -5.3717042E-10
   9.900000     -4.6506501E-10
   9.960000     -3.8968226E-10
   10.02000     -3.1044239E-10
   10.08000     -2.2703468E-10
   10.14000     -1.3969284E-10
   10.20000     -4.9369911E-11
   10.26000      4.2294376E-11
   10.32000      1.3322533E-10
   10.38000      2.2129228E-10
   10.44000      3.0466377E-10
   10.50000      3.8200618E-10
   10.56000      4.5247819E-10
   10.62000      5.1557902E-10
   10.68000      5.7097882E-10
   10.74000      6.1845584E-10
   10.80000      6.5799133E-10
   10.86000      6.8996936E-10
   10.92000      7.1535167E-10
   10.98000      7.3568879E-10
   11.04000      7.5289547E-10
   11.10000      7.6883228E-10
   11.16000      7.8483858E-10
   11.22000      8.0140350E-10
   11.28000      8.1812157E-10
   11.34000      8.3396728E-10
   11.40000      8.4779017E-10
   11.46000      8.5883239E-10
   11.52000      8.6705843E-10
   11.58000      8.7316143E-10
   11.64000      8.7825675E-10
   11.70000      8.8341373E-10
   11.76000      8.8925495E-10
   11.82000      8.9582530E-10
   11.88000      9.0280661E-10
   11.94000      9.0998059E-10
   12.00000      9.1771563E-10
   12.06000      9.2721975E-10
   12.12000      9.4039942E-10
   12.18000      9.5933639E-10
   12.24000      9.8556896E-10
   12.30000      1.0194547E-09
   12.36000      1.0598631E-09
   12.42000      1.1043153E-09
   12.48000      1.1495195E-09
   12.54000      1.1921162E-09
   12.60000      1.2294037E-09
   12.66000      1.2598405E-09
   12.72000      1.2832171E-09
   12.78000      1.3004875E-09
   12.84000      1.3133311E-09
   12.90000      1.3235815E-09
   12.96000      1.3326821E-09
   13.02000      1.3413306E-09
   13.08000      1.3494190E-09
   13.14000      1.3562876E-09
   13.20000      1.3611926E-09
   13.26000      1.3637962E-09
   13.32000      1.3644730E-09
   13.38000      1.3642975E-09
   13.44000      1.3647158E-09
   13.50000      1.3670359E-09
   13.56000      1.3719350E-09
   13.62000      1.3791472E-09
   13.68000      1.3874041E-09
   13.74000      1.3946023E-09
   13.80000      1.3981373E-09
   13.86000      1.3953549E-09
   13.92000      1.3841062E-09
   13.98000      1.3633741E-09
   14.04000      1.3338645E-09
   14.10000      1.2983635E-09
   14.16000      1.2616342E-09
   14.22000      1.2297282E-09
   14.28000      1.2087913E-09
   14.34000      1.2036767E-09
   14.40000      1.2167948E-09
   14.46000      1.2475759E-09
   14.52000      1.2926923E-09
   14.58000      1.3469095E-09
   14.64000      1.4042315E-09
   14.70000      1.4589661E-09
   14.76000      1.5064462E-09
   14.82000      1.5433412E-09
   14.88000      1.5676388E-09
   14.94000      1.5784635E-09
   15.00000      1.5758760E-09
   15.06000      1.5607415E-09
   15.12000      1.5346825E-09
   15.18000      1.5000772E-09
   15.24000      1.4600159E-09
   15.30000      1.4181011E-09
   15.36000      1.3780008E-09
   15.42000      1.3427653E-09
   15.48000      1.3140619E-09
   15.54000      1.2916215E-09
   15.60000      1.2732094E-09
   15.66000      1.2552724E-09
   15.72000      1.2341387E-09
   15.78000      1.2073550E-09
   15.84000      1.1746412E-09
   15.90000      1.1380749E-09
   15.96000      1.1014477E-09
   16.02000      1.0690882E-09
   16.08000      1.0446237E-09
   16.14000      1.0300896E-09
   16.20000      1.0255469E-09
   16.26000      1.0291221E-09
   16.32000      1.0372828E-09
   16.38000      1.0452318E-09
   16.44000      1.0474484E-09
   16.50000      1.0384580E-09
   16.56000      1.0138024E-09
   16.62000      9.7097663E-10
   16.68000      9.0996422E-10
   16.74000      8.3307161E-10
   16.80000      7.4405060E-10
   16.86000      6.4684491E-10
   16.92000      5.4449073E-10
   16.98000      4.3861545E-10
   17.04000      3.2964867E-10
   17.10000      2.1749624E-10
   17.16000      1.0222872E-10
   17.22000     -1.5583500E-11
   17.28000     -1.3498661E-10
   17.34000     -2.5502891E-10
   17.40000     -3.7511150E-10
   17.46000     -4.9507876E-10
   17.52000     -6.1500971E-10
   17.58000     -7.3482498E-10
   17.64000     -8.5386342E-10
   17.70000     -9.7053365E-10
   17.76000     -1.0820885E-09
   17.82000     -1.1845792E-09
   17.88000     -1.2730825E-09
   17.94000     -1.3422972E-09
   18.00000     -1.3874956E-09
   18.06000     -1.4056298E-09
   18.12000     -1.3962381E-09
   18.18000     -1.3617992E-09
   18.24000     -1.3073804E-09
   18.30000     -1.2397010E-09
   18.36000     -1.1659576E-09
   18.42000     -1.0927780E-09
   18.48000     -1.0255228E-09
   18.54000     -9.6794062E-10
   18.60000     -9.2207053E-10
   18.66000     -8.8830615E-10
   18.72000     -8.6563545E-10
   18.78000     -8.5211138E-10
   18.84000     -8.4551727E-10
   18.90000     -8.4402235E-10
   18.96000     -8.4652418E-10
   19.02000     -8.5246826E-10
   19.08000     -8.6121338E-10
   19.14000     -8.7130814E-10
   19.20000     -8.8016078E-10
   19.26000     -8.8440716E-10
   19.32000     -8.8090113E-10
   19.38000     -8.6788721E-10
   19.44000     -8.4579155E-10
   19.50000     -8.1725804E-10
   19.56000     -7.8642848E-10
   19.62000     -7.5780709E-10
   19.68000     -7.3516337E-10
   19.74000     -7.2080797E-10
   19.80000     -7.1533918E-10
   19.86000     -7.1777395E-10
   19.92000     -7.2591988E-10
   19.98000     -7.3688200E-10
   20.04000     -7.4762768E-10
   20.10000     -7.5549866E-10
   20.16000     -7.5851442E-10
   20.22000     -7.5533396E-10
   20.28000     -7.4490164E-10
   20.34000     -7.2601053E-10
   20.40000     -6.9713835E-10
   20.46000     -6.5680361E-10
   20.52000     -6.0438310E-10
   20.58000     -5.4099031E-10
   20.64000     -4.6986937E-10
   20.70000     -3.9593753E-10
   20.76000     -3.2453534E-10
   20.82000     -2.5987801E-10
   20.88000     -2.0389092E-10
   20.94000     -1.5594524E-10
   21.00000     -1.1358365E-10
   21.06000     -7.3880096E-11
   21.12000     -3.4830826E-11
   21.18000      3.7814040E-12
   21.24000      4.0343420E-11
   21.30000      7.2146726E-11
   21.36000      9.6590368E-11
   21.42000      1.1239901E-10
   21.48000      1.2039952E-10
   21.54000      1.2352680E-10
   21.60000      1.2597910E-10
   21.66000      1.3177270E-10
   21.72000      1.4324376E-10
   21.78000      1.6015482E-10
   21.84000      1.7986963E-10
   21.90000      1.9859848E-10
   21.96000      2.1319155E-10
   22.02000      2.2265897E-10
   22.08000      2.2871249E-10
   22.14000      2.3511204E-10
   22.20000      2.4619293E-10
   22.26000      2.6531144E-10
   22.32000      2.9388789E-10
   22.38000      3.3132455E-10
   22.44000      3.7560685E-10
   22.50000      4.2414353E-10
   22.56000      4.7446341E-10
   22.62000      5.2463422E-10
   22.68000      5.7346961E-10
   22.74000      6.2060002E-10
   22.80000      6.6635680E-10
   22.86000      7.1133865E-10
   22.92000      7.5565121E-10
   22.98000      7.9808449E-10
   23.04000      8.3571361E-10
   23.10000      8.6434032E-10
   23.16000      8.7980423E-10
   23.22000      8.7968582E-10
   23.28000      8.6462976E-10
   23.34000      8.3864571E-10
   23.40000      8.0824164E-10
   23.46000      7.8079515E-10
   23.52000      7.6284740E-10
   23.58000      7.5888251E-10
   23.64000      7.7078033E-10
   23.70000      7.9780427E-10
   23.76000      8.3691371E-10
   23.82000      8.8333107E-10
   23.88000      9.3143060E-10
   23.94000      9.7593211E-10
   24.00000      1.0131019E-09
   24.06000      1.0414315E-09
   24.12000      1.0613421E-09
   24.18000      1.0739379E-09
   24.24000      1.0794214E-09
   24.30000      1.0760951E-09
   24.36000      1.0606134E-09
   24.42000      1.0294378E-09
   24.48000      9.8069963E-10
   24.54000      9.1540908E-10
   24.60000      8.3732915E-10
   24.66000      7.5162881E-10
   24.72000      6.6310696E-10
   24.78000      5.7491156E-10
   24.84000      4.8822896E-10
   24.90000      4.0275572E-10
   24.96000      3.1736833E-10
   25.02000      2.3051883E-10
   25.08000      1.4033992E-10
   25.14000      4.4819252E-11
   25.20000     -5.7635251E-11
   25.26000     -1.6734078E-10
   25.32000     -2.8274089E-10
   25.38000     -4.0065559E-10
   25.44000     -5.1750748E-10
   25.50000     -6.3097005E-10
   25.56000     -7.4108969E-10
   25.62000     -8.5016133E-10
   25.68000     -9.6137587E-10
   25.74000     -1.0770229E-09
   25.80000     -1.1972850E-09
   25.86000     -1.3202442E-09
   25.92000     -1.4429113E-09
   25.98000     -1.5624747E-09
   26.04000     -1.6769420E-09
   26.10000     -1.7849040E-09
   26.16000     -1.8848381E-09
   26.22000     -1.9746877E-09
   26.28000     -2.0521842E-09
   26.34000     -2.1157569E-09
   26.40000     -2.1653939E-09
   26.46000     -2.2028177E-09
   26.52000     -2.2308260E-09
   26.58000     -2.2522142E-09
   26.64000     -2.2689384E-09
   26.70000     -2.2819173E-09
   26.76000     -2.2913542E-09
   26.82000     -2.2970852E-09
   26.88000     -2.2985331E-09
   26.94000     -2.2942777E-09
   27.00000     -2.2816811E-09
   27.06000     -2.2571176E-09
   27.12000     -2.2169733E-09
   27.18000     -2.1590607E-09
   27.24000     -2.0837629E-09
   27.30000     -1.9943396E-09
   27.36000     -1.8963162E-09
   27.42000     -1.7963598E-09
   27.48000     -1.7012278E-09
   27.54000     -1.6171449E-09
   27.60000     -1.5495674E-09
   27.66000     -1.5030125E-09
   27.72000     -1.4806806E-09
   27.78000     -1.4838714E-09
   27.84000     -1.5114681E-09
   27.90000     -1.5598063E-09
   27.96000     -1.6230626E-09
   28.02000     -1.6940489E-09
   28.08000     -1.7651766E-09
   28.14000     -1.8294170E-09
   28.20000     -1.8812110E-09
   28.26000     -1.9173094E-09
   28.32000     -1.9374122E-09
   28.38000     -1.9443387E-09
   28.44000     -1.9434645E-09
   28.50000     -1.9414212E-09
   28.56000     -1.9444006E-09
   28.62000     -1.9566266E-09
   28.68000     -1.9794815E-09
   28.74000     -2.0114155E-09
   28.80000     -2.0484137E-09
   28.86000     -2.0846560E-09
   28.92000     -2.1131783E-09
   28.98000     -2.1266200E-09
   29.04000     -2.1182687E-09
   29.10000     -2.0834126E-09
   29.16000     -2.0206401E-09
   29.22000     -1.9324822E-09
   29.28000     -1.8249429E-09
   29.34000     -1.7059910E-09
   29.40000     -1.5836588E-09
   29.46000     -1.4646300E-09
   29.52000     -1.3538984E-09
   29.58000     -1.2554212E-09
   29.64000     -1.1730983E-09
   29.70000     -1.1112743E-09
   29.76000     -1.0743226E-09
   29.82000     -1.0655027E-09
   29.88000     -1.0857238E-09
   29.94000     -1.1328812E-09
   30.00000     -1.2020752E-09
   30.06000     -1.2865882E-09
   30.12000     -1.3792388E-09
   30.18000     -1.4737488E-09
   30.24000     -1.5658894E-09
   30.30000     -1.6542477E-09
   30.36000     -1.7404052E-09
   30.42000     -1.8282885E-09
   30.48000     -1.9226261E-09
   30.54000     -2.0268167E-09
   30.60000     -2.1409290E-09
   30.66000     -2.2606681E-09
   30.72000     -2.3778184E-09
   30.78000     -2.4820306E-09
   30.84000     -2.5632267E-09
   30.90000     -2.6136973E-09
   30.96000     -2.6292526E-09
   31.02000     -2.6093363E-09
   31.08000     -2.5564275E-09
   31.14000     -2.4751592E-09
   31.20000     -2.3713815E-09
   31.26000     -2.2512197E-09
   31.32000     -2.1201763E-09
   31.38000     -1.9825166E-09
   31.44000     -1.8412746E-09
   31.50000     -1.6989982E-09
   31.56000     -1.5588686E-09
   31.62000     -1.4254149E-09
   31.68000     -1.3041030E-09
   31.74000     -1.1997103E-09
   31.80000     -1.1142683E-09
   31.86000     -1.0458465E-09
   31.92000     -9.8914510E-10
   31.98000     -9.3782893E-10
   32.04000     -8.8743024E-10
   32.10000     -8.3719259E-10
   32.16000     -7.8979817E-10
   32.22000     -7.4918216E-10
   32.28000     -7.1777156E-10
   32.34000     -6.9476386E-10
   32.40000     -6.7631217E-10
   32.46000     -6.5724270E-10
   32.52000     -6.3303979E-10
   32.58000     -6.0085631E-10
   32.64000     -5.5914834E-10
   32.70000     -5.0653304E-10
   32.76000     -4.4092643E-10
   32.82000     -3.5966269E-10
   32.88000     -2.6048297E-10
   32.94000     -1.4265607E-10
   33.00000     -7.4989268E-12
   33.06000      1.4187729E-10
   33.12000      3.0117622E-10
   33.18000      4.6532511E-10
   33.24000      6.2853667E-10
   33.30000      7.8443346E-10
   33.36000      9.2681468E-10
   33.42000      1.0512045E-09
   33.48000      1.1565687E-09
   33.54000      1.2461419E-09
   33.60000      1.3265893E-09
   33.66000      1.4056551E-09
   33.72000      1.4893874E-09
   33.78000      1.5803282E-09
   33.84000      1.6774790E-09
   33.90000      1.7777692E-09
   33.96000      1.8779345E-09
   34.02000      1.9756867E-09
   34.08000      2.0697650E-09
   34.14000      2.1593407E-09
   34.20000      2.2436084E-09
   34.26000      2.3220226E-09
   34.32000      2.3948652E-09
   34.38000      2.4633704E-09
   34.44000      2.5288842E-09
   34.50000      2.5913656E-09
   34.56000      2.6482925E-09
   34.62000      2.6950429E-09
   34.68000      2.7269869E-09
   34.74000      2.7423452E-09
   34.80000      2.7441873E-09
   34.86000      2.7402873E-09
   34.92000      2.7407443E-09
   34.98000      2.7545612E-09
   35.04000      2.7869025E-09
   35.10000      2.8382441E-09
   35.16000      2.9054301E-09
   35.22000      2.9836245E-09
   35.28000      3.0679042E-09
   35.34000      3.1538550E-09
   35.40000      3.2374396E-09
   35.46000      3.3149343E-09
   35.52000      3.3835152E-09
   35.58000      3.4423582E-09
   35.64000      3.4934717E-09
   35.70000      3.5414456E-09
   35.76000      3.5918706E-09
   35.82000      3.6489847E-09
   35.88000      3.7135894E-09
   35.94000      3.7821337E-09
   36.00000      3.8472923E-09
   36.06000      3.8997121E-09
   36.12000      3.9302503E-09
   36.18000      3.9320618E-09
   36.24000      3.9020795E-09
   36.30000      3.8416075E-09
   36.36000      3.7558192E-09
   36.42000      3.6521344E-09
   36.48000      3.5377887E-09
   36.54000      3.4174144E-09
   36.60000      3.2917027E-09
   36.66000      3.1579674E-09
   36.72000      3.0125888E-09
   36.78000      2.8542959E-09
   36.84000      2.6866429E-09
   36.90000      2.5183156E-09
   36.96000      2.3609559E-09
   37.02000      2.2254851E-09
   37.08000      2.1186486E-09
   37.14000      2.0413009E-09
   37.20000      1.9889435E-09
   37.26000      1.9538693E-09
   37.32000      1.9276318E-09
   37.38000      1.9027375E-09
   37.44000      1.8731947E-09
   37.50000      1.8342958E-09
   37.56000      1.7822671E-09
   37.62000      1.7141899E-09
   37.68000      1.6281302E-09
   37.74000      1.5231995E-09
   37.80000      1.3993942E-09
   37.86000      1.2573936E-09
   37.92000      1.0986291E-09
   37.98000      9.2572588E-10
   38.04000      7.4296896E-10
   38.10000      5.5617588E-10
   38.16000      3.7157349E-10
   38.22000      1.9393340E-10
   38.28000      2.4899150E-11
   38.34000     -1.3739042E-10
   38.40000     -2.9684438E-10
   38.46000     -4.5663109E-10
   38.52000     -6.1644373E-10
   38.58000     -7.7133999E-10
   38.64000     -9.1292263E-10
   38.70000     -1.0323814E-09
   38.76000     -1.1239201E-09
   38.82000     -1.1869006E-09
   38.88000     -1.2257564E-09
   38.94000     -1.2478860E-09
   39.00000     -1.2606797E-09
   39.06000     -1.2690701E-09
   39.12000     -1.2744998E-09
   39.18000     -1.2753767E-09
   39.24000     -1.2684285E-09
   39.30000     -1.2501928E-09
   39.36000     -1.2181168E-09
   39.42000     -1.1711313E-09
   39.48000     -1.1097971E-09
   39.54000     -1.0361323E-09
   39.60000     -9.5313490E-10
   39.66000     -8.6402269E-10
   39.72000     -7.7136098E-10
   39.78000     -6.7643935E-10
   39.84000     -5.7927185E-10
   39.90000     -4.7932858E-10
   39.96000     -3.7667261E-10
   40.02000     -2.7284744E-10
   40.08000     -1.7089496E-10
   40.14000     -7.4320938E-11
   40.20000      1.4561586E-11
   40.26000      9.6055268E-11
   40.32000      1.7345554E-10
   40.38000      2.5207694E-10
   40.44000      3.3731890E-10
   40.50000      4.3264808E-10
   40.56000      5.3839150E-10
   40.62000      6.5179284E-10
   40.68000      7.6816065E-10
   40.74000      8.8247432E-10
   40.80000      9.9073016E-10
   40.86000      1.0905806E-09
   40.92000      1.1812289E-09
   40.98000      1.2628402E-09
   41.04000      1.3358131E-09
   41.10000      1.4001504E-09
   41.16000      1.4550346E-09
   41.22000      1.4986548E-09
   41.28000      1.5283486E-09
   41.34000      1.5411106E-09
   41.40000      1.5344181E-09
   41.46000      1.5071306E-09
   41.52000      1.4600805E-09
   41.58000      1.3960074E-09
   41.64000      1.3187685E-09
   41.70000      1.2321226E-09
   41.76000      1.1386561E-09
   41.82000      1.0393830E-09
   41.88000      9.3422159E-10
   41.94000      8.2308688E-10
   42.00000      7.0701900E-10
   42.06000      5.8876648E-10
   42.12000      4.7255339E-10
   42.18000      3.6318737E-10
   42.24000      2.6496544E-10
   42.30000      1.8085083E-10
   42.36000      1.1217051E-10
   42.42000      5.8784422E-11
   42.48000      1.9489847E-11
   42.54000     -7.5743335E-12
   42.60000     -2.4629566E-11
   42.66000     -3.4039029E-11
   42.72000     -3.8103371E-11
   42.78000     -3.8850301E-11
   42.84000     -3.7856839E-11
   42.90000     -3.6146561E-11
   42.96000     -3.4157632E-11
   43.02000     -3.1744850E-11
   43.08000     -2.8214594E-11
   43.14000     -2.2475796E-11
   43.20000     -1.3427459E-11
   43.26000     -6.0556486E-13
   43.32000      1.5107532E-11
   43.38000      3.1109625E-11
   43.44000      4.3434725E-11
   43.50000      4.7933407E-11
   43.56000      4.1894505E-11
   43.62000      2.5345623E-11
   43.68000      1.2723799E-12
   43.74000     -2.5543524E-11
   43.80000     -5.0653821E-11
   43.86000     -7.2062939E-11
   43.92000     -9.1290787E-11
   43.98000     -1.1283438E-10
   44.04000     -1.4228858E-10
   44.10000     -1.8404020E-10
   44.16000     -2.3959101E-10
   44.22000     -3.0714215E-10
   44.28000     -3.8237138E-10
   44.34000     -4.5978005E-10
   44.40000     -5.3387655E-10
   44.46000     -5.9979155E-10
   44.52000     -6.5340117E-10
   44.58000     -6.9133554E-10
   44.64000     -7.1118861E-10
   44.70000     -7.1192990E-10
   44.76000     -6.9421913E-10
   44.82000     -6.6028250E-10
   44.88000     -6.1325456E-10
   44.94000     -5.5624189E-10
   45.00000     -4.9155724E-10
   45.06000     -4.2047607E-10
   45.12000     -3.4354833E-10
   45.18000     -2.6118874E-10
   45.24000     -1.7417318E-10
   45.30000     -8.3823615E-11
   45.36000      8.0770599E-12
   45.42000      9.9448755E-11
   45.48000      1.8802628E-10
   45.54000      2.7148683E-10
   45.60000      3.4779296E-10
   45.66000      4.1586534E-10
   45.72000      4.7641646E-10
   45.78000      5.3249544E-10
   45.84000      5.8926086E-10
   45.90000      6.5280681E-10
   45.96000      7.2838113E-10
   46.02000      8.1875051E-10
   46.08000      9.2350216E-10
   46.14000      1.0396601E-09
   46.20000      1.1633450E-09
   46.26000      1.2916694E-09
   46.32000      1.4239387E-09
   46.38000      1.5615776E-09
   46.44000      1.7068380E-09
   46.50000      1.8609108E-09
   46.56000      2.0223156E-09
   46.62000      2.1862683E-09
   46.68000      2.3452817E-09
   46.74000      2.4907538E-09
   46.80000      2.6149578E-09
   46.86000      2.7127565E-09
   46.92000      2.7824962E-09
   46.98000      2.8258242E-09
   47.04000      2.8465117E-09
   47.10000      2.8486684E-09
   47.16000      2.8349563E-09
   47.22000      2.8054215E-09
   47.28000      2.7573837E-09
   47.34000      2.6864493E-09
   47.40000      2.5882978E-09
   47.46000      2.4605900E-09
   47.52000      2.3043150E-09
   47.58000      2.1241178E-09
   47.64000      1.9275419E-09
   47.70000      1.7234880E-09
   47.76000      1.5203913E-09
   47.82000      1.3246134E-09
   47.88000      1.1394057E-09
   47.94000      9.6462127E-10
   48.00000      7.9720403E-10
   48.06000      6.3235683E-10
   48.12000      4.6515219E-10
   48.18000      2.9219793E-10
   48.24000      1.1287288E-10
   48.30000     -7.0301473E-11
   48.36000     -2.5233843E-10
   48.42000     -4.2731627E-10
   48.48000     -5.9021210E-10
   48.54000     -7.3834988E-10
   48.60000     -8.7192914E-10
   48.66000     -9.9349284E-10
   48.72000     -1.1066296E-09
   48.78000     -1.2144875E-09
   48.84000     -1.3186987E-09
   48.90000     -1.4190792E-09
   48.96000     -1.5141346E-09
   49.02000     -1.6020895E-09
   49.08000     -1.6819945E-09
   49.14000     -1.7544755E-09
   49.20000     -1.8218305E-09
   49.26000     -1.8874364E-09
   49.32000     -1.9546746E-09
   49.38000     -2.0257871E-09
   49.44000     -2.1011237E-09
   49.50000     -2.1791027E-09
   49.56000     -2.2569075E-09
   49.62000     -2.3316373E-09
   49.68000     -2.4014133E-09
   49.74000     -2.4660098E-09
   49.80000     -2.5268088E-09
   49.86000     -2.5862117E-09
   49.92000     -2.6468405E-09
   49.98000     -2.7108573E-09
   50.04000     -2.7795442E-09
   50.10000     -2.8530980E-09
   50.16000     -2.9305263E-09
   50.22000     -3.0096137E-09
   50.28000     -3.0870764E-09
   50.34000     -3.1590490E-09
   50.40000     -3.2219121E-09
   50.46000     -3.2732315E-09
   50.52000     -3.3124361E-09
   50.58000     -3.3409198E-09
   50.64000     -3.3615308E-09
   50.70000     -3.3777121E-09
   50.76000     -3.3926877E-09
   50.82000     -3.4089671E-09
   50.88000     -3.4281677E-09
   50.94000     -3.4509509E-09
   51.00000     -3.4768883E-09
   51.06000     -3.5042933E-09
   51.12000     -3.5302714E-09
   51.18000     -3.5512389E-09
   51.24000     -3.5639027E-09
   51.30000     -3.5663208E-09
   51.36000     -3.5584935E-09
   51.42000     -3.5421122E-09
   51.48000     -3.5195611E-09
   51.54000     -3.4927312E-09
   51.60000     -3.4623482E-09
   51.66000     -3.4282066E-09
   51.72000     -3.3901728E-09
   51.78000     -3.3493368E-09
   51.84000     -3.3086358E-09
   51.90000     -3.2726015E-09
   51.96000     -3.2463858E-09
   52.02000     -3.2345822E-09
   52.08000     -3.2403820E-09
   52.14000     -3.2653411E-09
   52.20000     -3.3097147E-09
   52.26000     -3.3731646E-09
   52.32000     -3.4556455E-09
   52.38000     -3.5583754E-09
   52.44000     -3.6847885E-09
   52.50000     -3.8412455E-09
   52.56000     -4.0371639E-09
   52.62000     -4.2843080E-09
   52.68000     -4.5953188E-09
   52.74000     -4.9819562E-09
   52.80000     -5.4537868E-09
   52.86000     -6.0178889E-09
   52.92000     -6.6796959E-09
   52.98000     -7.4445139E-09
   53.04000     -8.3190104E-09
   53.10000     -9.3120214E-09
   53.16000     -1.0434547E-08
   53.22000     -1.1699147E-08
   53.28000     -1.3119232E-08
   53.34000     -1.4708480E-08
   53.40000     -1.6480362E-08
   53.46000     -1.8447528E-08
   53.52000     -2.0620908E-08
   53.58000     -2.3008758E-08
   53.64000     -2.5616014E-08
   53.70000     -2.8444447E-08
   53.76000     -3.1493620E-08
   53.82000     -3.4762163E-08
   53.88000     -3.8248523E-08
   53.94000     -4.1950546E-08
   54.00000     -4.5863771E-08
   54.06000     -4.9978976E-08
   54.12000     -5.4280047E-08
   54.18000     -5.8743023E-08
   54.24000     -6.3336692E-08
   54.30000     -6.8024107E-08
   54.36000     -7.2764138E-08
   54.42000     -7.7511942E-08
   54.48000     -8.2218122E-08
   54.54000     -8.6826937E-08
   54.60000     -9.1274487E-08
   54.66000     -9.5487721E-08
   54.72000     -9.9384394E-08
   54.78000     -1.0287388E-07
   54.84000     -1.0585774E-07
   54.90000     -1.0822998E-07
   54.96000     -1.0987691E-07
   55.02000     -1.1067718E-07
   55.08000     -1.1050285E-07
   55.14000     -1.0922110E-07
   55.20000     -1.0669631E-07
   55.26000     -1.0279132E-07
   55.32000     -9.7367526E-08
   55.38000     -9.0284196E-08
   55.44000     -8.1398134E-08
   55.50000     -7.0565044E-08
   55.56000     -5.7642819E-08