 -0.750000000       0.00000000    
 -0.689999998       0.00000000    
 -0.629999995       0.00000000    
 -0.569999993       0.00000000    
 -0.509999990       0.00000000    
 -0.449999988      -2.58747528E-21
 -0.389999986      -1.81023129E-20
 -0.330000013      -5.56735139E-20
 -0.270000011      -6.63497208E-20
 -0.209999993       1.70206189E-19
 -0.150000006       1.12494040E-18
  -9.00000036E-02   3.34978783E-18
  -2.99999993E-02   6.84171176E-18
   2.99999993E-02   9.98272996E-18
   9.00000036E-02   8.58088299E-18
  0.150000006      -4.04251479E-18
  0.209999993      -3.49630054E-17
  0.270000011      -8.71111579E-17
  0.330000013      -1.52663461E-16
  0.389999986      -2.05793722E-16
  0.449999988      -1.97818549E-16
  0.509999990      -6.03828678E-17
  0.569999993       2.74998696E-16
  0.629999995       8.33700225E-16
  0.689999998       1.53369715E-15
  0.750000000       2.12407361E-15
  0.810000002       2.17495932E-15
  0.870000005       1.17653522E-15
  0.930000007      -1.22482457E-15
  0.990000010      -4.90100421E-15
   1.04999995      -8.97158070E-15
   1.11000001      -1.17913000E-14
   1.16999996      -1.13542132E-14
   1.23000002      -6.10146038E-15
   1.28999996       4.12441094E-15
   1.35000002       1.74245892E-14
   1.40999997       2.99288623E-14
   1.47000003       3.68016876E-14
   1.52999997       3.39252789E-14
   1.59000003       1.96330836E-14
   1.64999998      -4.24533803E-15
   1.71000004      -3.25147217E-14
   1.76999998      -5.79022507E-14
   1.83000004      -7.30067252E-14
   1.88999999      -7.22233552E-14
   1.95000005      -5.31399536E-14
   2.00999999      -1.72743713E-14
   2.06999993       2.97192521E-14
   2.13000011       7.83161378E-14
   2.19000006       1.16112550E-13
   2.25000000       1.30008363E-13
   2.30999994       1.09782551E-13
   2.36999989       5.24587765E-14
   2.43000007      -3.40988698E-14
   2.49000001      -1.30356392E-13
   2.54999995      -2.08435401E-13
   2.60999990      -2.39384386E-13
   2.67000008      -2.02324634E-13
   2.73000002      -9.22958744E-14
   2.78999996       7.60252118E-14
   2.84999990       2.69909556E-13
   2.91000009       4.44629251E-13
   2.97000003       5.51943474E-13
   3.02999997       5.49161899E-13
   3.08999991       4.08036533E-13
   3.15000010       1.23562808E-13
   3.21000004      -2.77780457E-13
   3.26999998      -7.32751099E-13
   3.32999992      -1.14341880E-12
   3.39000010      -1.39106673E-12
   3.45000005      -1.36324047E-12
   3.50999999      -9.89425772E-13
   3.56999993      -2.74811369E-13
   3.63000011       6.81247756E-13
   3.69000006       1.69274295E-12
   3.75000000       2.52310347E-12
   3.80999994       2.94196633E-12
   3.86999989       2.78628704E-12
   3.93000007       2.00690528E-12
   3.99000001       6.86332447E-13
   4.05000019      -9.76454594E-13
   4.11000013      -2.70716284E-12
   4.17000008      -4.20815292E-12
   4.23000002      -5.20420122E-12
   4.28999996      -5.46970238E-12
   4.34999990      -4.83413049E-12
   4.40999985      -3.17275199E-12
   4.46999979      -3.96872070E-13
   4.53000021       3.54055435E-12
   4.59000015       8.61342161E-12
   4.65000010       1.46655327E-11
   4.71000004       2.13417704E-11
   4.76999998       2.80311729E-11
   4.82999992       3.38481465E-11
   4.88999987       3.76701344E-11
   4.94999981       3.82328717E-11
   5.01000023       3.42636128E-11
   5.07000017       2.46161650E-11
   5.13000011       8.36666153E-12
   5.19000006      -1.51612212E-11
   5.25000000      -4.64507668E-11
   5.30999994      -8.59088217E-11
   5.36999989      -1.34004946E-10
   5.42999983      -1.91384159E-10
   5.48999977      -2.58910088E-10
   5.55000019      -3.37614242E-10
   5.61000013      -4.28551750E-10
   5.67000008      -5.32588418E-10
   5.73000002      -6.50160092E-10
   5.78999996      -7.81052667E-10
   5.84999990      -9.24248011E-10
   5.90999985      -1.07787113E-09
   5.96999979      -1.23925759E-09
   6.03000021      -1.40514389E-09
   6.09000015      -1.57196423E-09
   6.15000010      -1.73621939E-09
   6.21000004      -1.89486560E-09
   6.26999998      -2.04566253E-09
   6.32999992      -2.18740559E-09
   6.38999987      -2.31998953E-09
   6.44999981      -2.44426634E-09
   6.51000023      -2.56171284E-09
   6.57000017      -2.67398059E-09
   6.63000011      -2.78243428E-09
   6.69000006      -2.88780533E-09
   6.75000000      -2.99005842E-09
   6.80999994      -3.08849524E-09
   6.86999989      -3.18203597E-09
   6.92999983      -3.26955663E-09
   6.98999977      -3.35013817E-09
   7.05000019      -3.42314088E-09
   7.11000013      -3.48808782E-09
   7.17000008      -3.54445340E-09
   7.23000002      -3.59148000E-09
   7.28999996      -3.62814312E-09
   7.34999990      -3.65329345E-09
   7.40999985      -3.66592290E-09
   7.46999979      -3.66543262E-09
   7.53000021      -3.65178332E-09
   7.59000015      -3.62548547E-09
   7.65000010      -3.58745145E-09
   7.71000004      -3.53881591E-09
   7.76999998      -3.48080742E-09
   7.82999992      -3.41470585E-09
   7.88999987      -3.34184347E-09
   7.94999981      -3.26355587E-09
   8.01000023      -3.18101656E-09
   8.06999969      -3.09496584E-09
   8.13000011      -3.00541880E-09
   8.18999958      -2.91149949E-09
   8.25000000      -2.81150347E-09
   8.31000042      -2.70321698E-09
   8.36999989      -2.58441757E-09
   8.43000031      -2.45341703E-09
   8.48999977      -2.30952035E-09
   8.55000019      -2.15331575E-09
   8.60999966      -1.98679073E-09
   8.67000008      -1.81327930E-09
   8.72999954      -1.63724356E-09
   8.78999996      -1.46385826E-09
   8.85000038      -1.29838074E-09
   8.90999985      -1.14535437E-09
   8.97000027      -1.00780617E-09
   9.02999973      -8.86686558E-10
   9.09000015      -7.80786713E-10
   9.14999962      -6.87233825E-10
   9.21000004      -6.02437267E-10
   9.27000046      -5.23149191E-10
   9.32999992      -4.47226117E-10
   9.39000034      -3.73790193E-10
   9.44999981      -3.02758429E-10
   9.51000023      -2.34006314E-10
   9.56999969      -1.66614569E-10
   9.63000011      -9.86108070E-11
   9.68999958      -2.73731298E-11
   9.75000000       4.94699282E-11
   9.81000042       1.33063227E-10
   9.86999989       2.22740798E-10
   9.93000031       3.16120130E-10
   9.98999977       4.09843492E-10
   10.0500002       5.00643860E-10
   10.1099997       5.86285909E-10
   10.1700001       6.66025846E-10
   10.2299995       7.40480732E-10
   10.2900000       8.11065659E-10
   10.3500004       8.79313400E-10
   10.4099998       9.46370093E-10
   10.4700003       1.01280329E-09
   10.5299997       1.07866283E-09
   10.5900002       1.14361909E-09
   10.6499996       1.20702059E-09
   10.7100000       1.26782274E-09
   10.7700005       1.32448996E-09
   10.8299999       1.37502942E-09
   10.8900003       1.41727741E-09
   10.9499998       1.44941958E-09
   11.0100002       1.47058377E-09
   11.0699997       1.48127688E-09
   11.1300001       1.48346757E-09
   11.1899996       1.48025625E-09
   11.2500000       1.47522161E-09
   11.3100004       1.47164592E-09
   11.3699999       1.47184309E-09
   11.4300003       1.47675872E-09
   11.4899998       1.48591517E-09
   11.5500002       1.49769053E-09
   11.6099997       1.50984680E-09
   11.6700001       1.52019464E-09
   11.7299995       1.52724644E-09
   11.7900000       1.53069801E-09
   11.8500004       1.53159296E-09
   11.9099998       1.53208679E-09
   11.9700003       1.53484825E-09
   12.0299997       1.54227120E-09
   12.0900002       1.55576074E-09
   12.1499996       1.57534885E-09
   12.2100000       1.59976510E-09
   12.2700005       1.62689684E-09
   12.3299999       1.65441294E-09
   12.3900003       1.68027625E-09
   12.4499998       1.70296843E-09
   12.5100002       1.72143388E-09
   12.5699997       1.73490800E-09
   12.6300001       1.74284032E-09
   12.6899996       1.74501558E-09
   12.7500000       1.74180070E-09
   12.8100004       1.73430359E-09
   12.8699999       1.72423364E-09
   12.9300003       1.71340964E-09
   12.9899998       1.70308201E-09
   13.0500002       1.69339420E-09
   13.1099997       1.68328496E-09
   13.1700001       1.67094194E-09
   13.2299995       1.65463865E-09
   13.2900000       1.63358560E-09
   13.3500004       1.60840763E-09
   13.4099998       1.58102642E-09
   13.4700003       1.55400681E-09
   13.5299997       1.52964630E-09
   13.5900002       1.50917034E-09
   13.6499996       1.49230672E-09
   13.7100000       1.47733059E-09
   13.7700005       1.46149670E-09
   13.8299999       1.44169088E-09
   13.8900003       1.41514145E-09
   13.9499998       1.38007417E-09
   14.0100002       1.33622557E-09
   14.0699997       1.28511568E-09
   14.1300001       1.22996135E-09
   14.1899996       1.17513976E-09
   14.2500000       1.12522802E-09
   14.3100004       1.08382003E-09
   14.3699999       1.05247189E-09
   14.4300003       1.03016284E-09
   14.4899998       1.01352471E-09
   14.5500002       9.97823935E-10
   14.6099997       9.78384485E-10
   14.6700001       9.51953627E-10
   14.7299995       9.17519782E-10
   14.7900000       8.76309414E-10
   14.8500004       8.31013647E-10
   14.9099998       7.84601828E-10
   14.9700003       7.39220296E-10
   15.0299997       6.95604851E-10
   15.0900002       6.53186782E-10
   15.1499996       6.10757778E-10
   15.2100000       5.67326242E-10
   15.2700005       5.22738797E-10
   15.3299999       4.77780204E-10
   15.3900003       4.33727443E-10
   15.4499998       3.91593757E-10
   15.5100002       3.51439156E-10
   15.5699997       3.12085108E-10
   15.6300001       2.71383499E-10
   15.6899996       2.26942590E-10
   15.7500000       1.77022258E-10
   15.8100004       1.21249524E-10
   15.8699999       6.08850956E-11
   15.9300003      -1.45438772E-12
   15.9899998      -6.25240276E-11
   16.0499992      -1.19392565E-10
   16.1100006      -1.70304187E-10
   16.1700001      -2.15191864E-10
   16.2299995      -2.55670929E-10
   16.2900009      -2.94485630E-10
   16.3500004      -3.34551387E-10
   16.4099998      -3.77884529E-10
   16.4699993      -4.24787733E-10
   16.5300007      -4.73615092E-10
   16.5900002      -5.21256982E-10
   16.6499996      -5.64217173E-10
   16.7099991      -5.99903127E-10
   16.7700005      -6.27632446E-10
   16.8299999      -6.48945619E-10
   16.8899994      -6.67087441E-10
   16.9500008      -6.85853985E-10
   17.0100002      -7.08255066E-10
   17.0699997      -7.35495220E-10
   17.1299992      -7.66611219E-10
   17.1900005      -7.98815070E-10
   17.2500000      -8.28321189E-10
   17.3099995      -8.51301918E-10
   17.3700008      -8.64660454E-10
   17.4300003      -8.66474337E-10
   17.4899998      -8.56141269E-10
   17.5499992      -8.34354530E-10
   17.6100006      -8.03021150E-10
   17.6700001      -7.65143560E-10
   17.7299995      -7.24601823E-10
   17.7900009      -6.85748958E-10
   17.8500004      -6.52797372E-10
   17.9099998      -6.29079233E-10
   17.9699993      -6.16362072E-10
   18.0300007      -6.14425621E-10
   18.0900002      -6.21055873E-10
   18.1499996      -6.32493724E-10
   18.2099991      -6.44244769E-10
   18.2700005      -6.52053411E-10
   18.3299999      -6.52801424E-10
   18.3899994      -6.45123233E-10
   18.4500008      -6.29613417E-10
   18.5100002      -6.08620210E-10
   18.5699997      -5.85723747E-10
   18.6299992      -5.65062108E-10
   18.6900005      -5.50678225E-10
   18.7500000      -5.46007128E-10
   18.8099995      -5.53549484E-10
   18.8700008      -5.74705505E-10
   18.9300003      -6.09708950E-10
   18.9899998      -6.57613408E-10
   19.0499992      -7.16323445E-10
   19.1100006      -7.82704068E-10
   19.1700001      -8.52818094E-10
   19.2299995      -9.22317278E-10
   19.2900009      -9.86963400E-10
   19.3500004      -1.04320752E-09
   19.4099998      -1.08872422E-09
   19.4699993      -1.12279697E-09
   19.5300007      -1.14647969E-09
   19.5900002      -1.16249232E-09
   19.6499996      -1.17484955E-09
   19.7099991      -1.18825527E-09
   19.7700005      -1.20733989E-09
   19.8299999      -1.23585220E-09
   19.8899994      -1.27595834E-09
   19.9500008      -1.32779765E-09
   20.0100002      -1.38940559E-09
   20.0699997      -1.45702184E-09
   20.1299992      -1.52568769E-09
   20.1900005      -1.58994717E-09
   20.2500000      -1.64445058E-09
   20.3099995      -1.68431591E-09
   20.3700008      -1.70524217E-09
   20.4300003      -1.70348458E-09
   20.4899998      -1.67587011E-09
   20.5499992      -1.61998470E-09
   20.6100006      -1.53454172E-09
   20.6700001      -1.41979839E-09
   20.7299995      -1.27781263E-09
   20.7900009      -1.11237075E-09
   20.8500004      -9.28555122E-10
   20.9099998      -7.32083283E-10
   20.9699993      -5.28650346E-10
   21.0300007      -3.23487875E-10
   21.0900002      -1.21216565E-10
   21.1499996       7.40954242E-11
   21.2099991       2.58870647E-10
   21.2700005       4.30146030E-10
   21.3299999       5.85942461E-10
   21.3899994       7.25765226E-10
   21.4500008       8.50984005E-10
   21.5100002       9.64833990E-10
   21.5699997       1.07189357E-09
   21.6299992       1.17709853E-09
   21.6900005       1.28455124E-09
   21.7500000       1.39649381E-09
   21.8099995       1.51279356E-09
   21.8700008       1.63113667E-09
   21.9300003       1.74789105E-09
   21.9899998       1.85936055E-09
   22.0499992       1.96300043E-09
   22.1100006       2.05815764E-09
   22.1700001       2.14605822E-09
   22.2299995       2.22903962E-09
   22.2900009       2.30932806E-09
   22.3500004       2.38784859E-09
   22.4099998       2.46356668E-09
   22.4699993       2.53365129E-09
   22.5300007       2.59442667E-09
   22.5900002       2.64275934E-09
   22.6499996       2.67734634E-09
   22.7099991       2.69941602E-09
   22.7700005       2.71256906E-09
   22.8299999       2.72182521E-09
   22.8899994       2.73220602E-09
   22.9500008       2.74734746E-09
   23.0100002       2.76860956E-09
   23.0699997       2.79497470E-09
   23.1299992       2.82376145E-09
   23.1900005       2.85190249E-09
   23.2500000       2.87732371E-09
   23.3099995       2.89989188E-09
   23.3700008       2.92151503E-09
   23.4300003       2.94528202E-09
   23.4899998       2.97390179E-09
   23.5499992       3.00805292E-09
   23.6100006       3.04534997E-09
   23.6700001       3.08046122E-09
   23.7299995       3.10645931E-09
   23.7900009       3.11696668E-09
   23.8500004       3.10829229E-09
   23.9099998       3.08073278E-09
   23.9699993       3.03853565E-09
   24.0300007       2.98857339E-09
   24.0900002       2.93827451E-09
   24.1499996       2.89361290E-09
   24.2099991       2.85784818E-09
   24.2700005       2.83134782E-09
   24.3299999       2.81236590E-09
   24.3899994       2.79832224E-09
   24.4500008       2.78702106E-09
   24.5100002       2.77737366E-09
   24.5699997       2.76944423E-09
   24.6299992       2.76390955E-09
   24.6900005       2.76121526E-09
   24.7500000       2.76077139E-09
   24.8099995       2.76047873E-09
   24.8700008       2.75673662E-09
   24.9300003       2.74491030E-09
   24.9899998       2.72008749E-09
   25.0499992       2.67787903E-09
   25.1100006       2.61505018E-09
   25.1700001       2.52987475E-09
   25.2299995       2.42223330E-09
   25.2900009       2.29355912E-09
   25.3500004       2.14672768E-09
   25.4099998       1.98590322E-09
   25.4699993       1.81626847E-09
   25.5300007       1.64354252E-09
   25.5900002       1.47327284E-09
   25.6499996       1.31001843E-09
   25.7099991       1.15666565E-09
   25.7700005       1.01412301E-09
   25.8299999       8.81543727E-10
   25.8899994       7.57028884E-10
   25.9500008       6.38598452E-10
   26.0100002       5.25119170E-10
   26.0699997       4.16897905E-10
   26.1299992       3.15747123E-10
   26.1900005       2.24477964E-10
   26.2500000       1.45924328E-10
   26.3099995       8.17437298E-11
   26.3700008       3.13449475E-11
   26.4300003      -8.67824302E-12
   26.4899998      -4.43185905E-11
   26.5499992      -8.30750191E-11
   26.6100006      -1.32279798E-10
   26.6700001      -1.97372368E-10
   26.7299995      -2.80753976E-10
   26.7900009      -3.81684878E-10
   26.8500004      -4.97283326E-10
   26.9099998      -6.24223950E-10
   26.9699993      -7.60418839E-10
   27.0300007      -9.05962028E-10
   27.0900002      -1.06292464E-09
   27.1499996      -1.23407518E-09
   27.2099991      -1.42104539E-09
   27.2700005      -1.62268721E-09
   27.3299999      -1.83428617E-09
   27.3899994      -2.04797823E-09
   27.4500008      -2.25428165E-09
   27.5100002      -2.44428056E-09
   27.5699997      -2.61175814E-09
   27.6299992      -2.75459833E-09
   27.6900005      -2.87497026E-09
   27.7500000      -2.97820923E-09
   27.8099995      -3.07072345E-09
   27.8700008      -3.15761550E-09
   27.9300003      -3.24082605E-09
   27.9899998      -3.31845418E-09
   28.0499992      -3.38548056E-09
   28.1100006      -3.43561979E-09
   28.1700001      -3.46360984E-09
   28.2299995      -3.46711237E-09
   28.2900009      -3.44758599E-09
   28.3500004      -3.40990347E-09
   28.4099998      -3.36093997E-09
   28.4699993      -3.30767214E-09
   28.5300007      -3.25542548E-09
   28.5900002      -3.20676730E-09
   28.6499996      -3.16130122E-09
   28.7099991      -3.11633541E-09
   28.7700005      -3.06817105E-09
   28.8299999      -3.01360692E-09
   28.8899994      -2.95121283E-09
   28.9500008      -2.88199242E-09
   29.0100002      -2.80922885E-09
   29.0699997      -2.73758483E-09
   29.1299992      -2.67177769E-09
   29.1900005      -2.61530864E-09
   29.2500000      -2.56969179E-09
   29.3099995      -2.53442156E-09
   29.3700008      -2.50761456E-09
   29.4300003      -2.48702459E-09
   29.4899998      -2.47103804E-09
   29.5499992      -2.45933207E-09
   29.6100006      -2.45304643E-09
   29.6700001      -2.45448417E-09
   29.7299995      -2.46644438E-09
   29.7900009      -2.49131804E-09
   29.8500004      -2.53008769E-09
   29.9099998      -2.58143085E-09
   29.9699993      -2.64117839E-09
   30.0300007      -2.70240785E-09
   30.0900002      -2.75632761E-09
   30.1499996      -2.79389001E-09
   30.2099991      -2.80778534E-09
   30.2700005      -2.79427081E-09
   30.3299999      -2.75428746E-09
   30.3899994      -2.69350031E-09
   30.4500008      -2.62121658E-09
   30.5100002      -2.54846388E-09
   30.5699997      -2.48572407E-09
   30.6299992      -2.44087572E-09
   30.6900005      -2.41784015E-09
   30.7500000      -2.41623810E-09
   30.8099995      -2.43213405E-09
   30.8700008      -2.45966247E-09
   30.9300003      -2.49307286E-09
   30.9899998      -2.52855492E-09
   31.0499992      -2.56521959E-09
   31.1100006      -2.60485877E-09
   31.1700001      -2.65053779E-09
   31.2299995      -2.70454747E-09
   31.2900009      -2.76654033E-09
   31.3500004      -2.83265167E-09
   31.4099998      -2.89604185E-09
   31.4699993      -2.94872526E-09
   31.5300007      -2.98401459E-09
   31.5900002      -2.99864200E-09
   31.6499996      -2.99371083E-09
   31.7099991      -2.97407432E-09
   31.7700005      -2.94632874E-09
   31.8299999      -2.91612201E-09
   31.8899994      -2.88574964E-09
   31.9500008      -2.85292612E-09
   32.0099983      -2.81122281E-09
   32.0699997      -2.75208367E-09
   32.1300011      -2.66776534E-09
   32.1899986      -2.55419486E-09
   32.2500000      -2.41274378E-09
   32.3100014      -2.25027330E-09
   32.3699989      -2.07743645E-09
   32.4300003      -1.90584082E-09
   32.4900017      -1.74507975E-09
   32.5499992      -1.60063351E-09
   32.6100006      -1.47326185E-09
   32.6699982      -1.35990075E-09
   32.7299995      -1.25553434E-09
   32.7900009      -1.15523735E-09
   32.8499985      -1.05565823E-09
   32.9099998      -9.55562185E-10
   32.9700012      -8.55471527E-10
   33.0299988      -7.56753216E-10
   33.0900002      -6.60614285E-10
   33.1500015      -5.67382863E-10
   33.2099991      -4.76277351E-10
   33.2700005      -3.85674631E-10
   33.3300018      -2.93740199E-10
   33.3899994      -1.99179798E-10
   33.4500008      -1.01822321E-10
   33.5099983      -2.76500589E-12
   33.5699997       9.60678412E-11
   33.6300011       1.92883431E-10
   33.6899986       2.87179142E-10
   33.7500000       3.80623227E-10
   33.8100014       4.77213880E-10
   33.8699989       5.82527693E-10
   33.9300003       7.02253977E-10
   33.9900017       8.40539360E-10
   34.0499992       9.98773841E-10
   34.1100006       1.17526378E-09
   34.1699982       1.36584888E-09
   34.2299995       1.56511992E-09
   34.2900009       1.76768777E-09
   34.3499985       1.96901828E-09
   34.4099998       2.16564100E-09
   34.4700012       2.35487208E-09
   34.5299988       2.53440313E-09
   34.5900002       2.70209277E-09
   34.6500015       2.85610691E-09
   34.7099991       2.99530756E-09
   34.7700005       3.11964032E-09
   34.8300018       3.23027005E-09
   34.8899994       3.32935968E-09
   34.9500008       3.41956397E-09
   35.0099983       3.50343909E-09
   35.0699997       3.58297503E-09
   35.1300011       3.65938302E-09
   35.1899986       3.73313336E-09
   35.2500000       3.80414544E-09
   35.3100014       3.87199073E-09
   35.3699989       3.93600708E-09
   35.4300003       3.99531297E-09
   35.4900017       4.04881062E-09
   35.5499992       4.09530987E-09
   35.6100006       4.13388301E-09
   35.6699982       4.16442880E-09
   35.7299995       4.18827684E-09
   35.7900009       4.20850599E-09
   35.8499985       4.22968416E-09
   35.9099998       4.25689306E-09
   35.9700012       4.29422453E-09
   36.0299988       4.34326397E-09
   36.0900002       4.40219772E-09
   36.1500015       4.46603732E-09
   36.2099991       4.52802684E-09
   36.2700005       4.58174876E-09
   36.3300018       4.62307304E-09
   36.3899994       4.65108174E-09
   36.4500008       4.66750150E-09
   36.5099983       4.67484007E-09
   36.5699997       4.67404204E-09
   36.6300011       4.66273287E-09
   36.6899986       4.63491201E-09
   36.7500000       4.58233629E-09
   36.8100014       4.49709869E-09
   36.8699989       4.37438219E-09
   36.9300003       4.21428092E-09
   36.9900017       4.02194500E-09
   37.0499992       3.80598841E-09
   37.1100006       3.57576502E-09
   37.1699982       3.33854167E-09
   37.2299995       3.09760440E-09
   37.2900009       2.85195290E-09
   37.3499985       2.59762922E-09
   37.4099998       2.33010566E-09
   37.4700012       2.04678940E-09
   37.5299988       1.74867998E-09
   37.5900002       1.44056622E-09
   37.6500015       1.12973830E-09
   37.7099991       8.23763169E-10
   37.7700005       5.28224187E-10
   37.8300018       2.45294673E-10
   37.8899994      -2.63641955E-11
   37.9500008      -2.90457214E-10
   38.0099983      -5.51234891E-10
   38.0699997      -8.11789858E-10
   38.1300011      -1.07312337E-09
   38.1899986      -1.33423628E-09
   38.2500000      -1.59303948E-09
   38.3100014      -1.84757043E-09
   38.3699989      -2.09695261E-09
   38.4300003      -2.34173037E-09
   38.4900017      -2.58351074E-09
   38.5499992      -2.82412138E-09
   38.6100006      -3.06463632E-09
   38.6699982      -3.30462036E-09
   38.7299995      -3.54183549E-09
   38.7900009      -3.77249432E-09
   38.8499985      -3.99197564E-09
   38.9099998      -4.19578017E-09
   38.9700012      -4.38041159E-09
   39.0299988      -4.54387150E-09
   39.0900002      -4.68559813E-09
   39.1500015      -4.80588014E-09
   39.2099991      -4.90502305E-09
   39.2700005      -4.98268404E-09
   39.3300018      -5.03769337E-09
   39.3899994      -5.06847408E-09
   39.4500008      -5.07380804E-09
   39.5099983      -5.05351849E-09
   39.5699997      -5.00863484E-09
   39.6300011      -4.94090813E-09
   39.6899986      -4.85190599E-09
   39.7500000      -4.74221684E-09
   39.8100014      -4.61127714E-09
   39.8699989      -4.45803039E-09
   39.9300003      -4.28216662E-09
   39.9900017      -4.08530099E-09
   40.0499992      -3.87139565E-09
   40.1100006      -3.64603392E-09
   40.1699982      -3.41470052E-09
   40.2299995      -3.18076210E-09
   40.2900009      -2.94406965E-09
   40.3499985      -2.70090572E-09
   40.4099998      -2.44545650E-09
   40.4700012      -2.17230389E-09
   40.5299988      -1.87896054E-09
   40.5900002      -1.56738500E-09
   40.6500015      -1.24380906E-09
   40.7099991      -9.16870024E-10
   40.7700005      -5.94739646E-10
   40.8300018      -2.82343482E-10
   40.8899994       2.02566696E-11
   40.9500008       3.17699894E-10
   41.0099983       6.17441986E-10
   41.0699997       9.26849875E-10
   41.1300011       1.25032407E-09
   41.1899986       1.58745350E-09
   41.2500000       1.93279259E-09
   41.3100014       2.27725838E-09
   41.3699989       2.61059241E-09
   41.4300003       2.92400903E-09
   41.4900017       3.21215921E-09
   41.5499992       3.47382811E-09
   41.6100006       3.71125752E-09
   41.6699982       3.92844290E-09
   41.7299995       4.12906731E-09
   41.7900009       4.31481606E-09
   41.8499985       4.48463222E-09
   41.9099998       4.63513805E-09
   41.9700012       4.76201878E-09
   42.0299988       4.86185847E-09
   42.0900002       4.93374896E-09
   42.1500015       4.98006569E-09
   42.2099991       5.00610220E-09
   42.2700005       5.01863573E-09
   42.3300018       5.02388708E-09
   42.3899994       5.02558439E-09
   42.4500008       5.02382802E-09
   42.5099983       5.01520381E-09
   42.5699997       4.99414377E-09
   42.6300011       4.95507191E-09
   42.6899986       4.89454433E-09
   42.7500000       4.81259033E-09
   42.8100014       4.71274131E-09
   42.8699989       4.60075178E-09
   42.9300003       4.48253346E-09
   42.9900017       4.36210046E-09
   43.0499992       4.24030500E-09
   43.1100006       4.11475698E-09
   43.1699982       3.98084765E-09
   43.2299995       3.83339982E-09
   43.2900009       3.66830699E-09
   43.3499985       3.48367579E-09
   43.4099998       3.28026251E-09
   43.4700012       3.06127546E-09
   43.5299988       2.83175172E-09
   43.5900002       2.59770161E-09
   43.6500015       2.36515385E-09
   43.7099991       2.13920015E-09
   43.7700005       1.92320182E-09
   43.8300018       1.71838632E-09
   43.8899994       1.52405555E-09
   43.9500008       1.33845401E-09
   44.0099983       1.16008025E-09
   44.0699997       9.88978011E-10
   44.1300011       8.27489910E-10
   44.1899986       6.80130008E-10
   44.2500000       5.52579982E-10
   44.3100014       4.50159715E-10
   44.3699989       3.76302739E-10
   44.4300003       3.31525779E-10
   44.4900017       3.13163245E-10
   44.5499992       3.15878906E-10
   44.6100006       3.32772143E-10
   44.6699982       3.56804031E-10
   44.7299995       3.82244708E-10
   44.7900009       4.05839723E-10
   44.8499985       4.27405222E-10
   44.9099998       4.49634996E-10
   44.9700012       4.77074436E-10
   45.0299988       5.14484677E-10
   45.0900002       5.65071157E-10
   45.1500015       6.29168717E-10
   45.2099991       7.03856362E-10
   45.2700005       7.83652587E-10
   45.3300018       8.62042326E-10
   45.3899994       9.33291555E-10
   45.4500008       9.93929272E-10
   45.5099983       1.04344111E-09
   45.5699997       1.08402176E-09
   45.6300011       1.11955079E-09
   45.6899986       1.15417009E-09
   45.7500000       1.19092769E-09
   45.8100014       1.23090205E-09
   45.8699989       1.27307465E-09
   45.9300003       1.31499955E-09
   45.9900017       1.35406031E-09
   46.0499992       1.38888545E-09
   46.1100006       1.42039003E-09
   46.1699982       1.45200119E-09
   46.2299995       1.48890533E-09
   46.2900009       1.53653079E-09
   46.3499985       1.59878866E-09
   46.4099998       1.67669734E-09
   46.4700012       1.76787307E-09
   46.5299988       1.86704407E-09
   46.5900002       1.96739824E-09
   46.6500015       2.06234052E-09
   46.7099991       2.14716489E-09
   46.7700005       2.22020979E-09
   46.8300018       2.28321051E-09
   46.8899994       2.34072250E-09
   46.9500008       2.39868636E-09
   47.0099983       2.46243514E-09
   47.0699997       2.53467736E-09
   47.1300011       2.61411470E-09
   47.1899986       2.69527511E-09
   47.2500000       2.76979040E-09
   47.3100014       2.82882961E-09
   47.3699989       2.86591018E-09
   47.4300003       2.87908941E-09
   47.4900017       2.87171220E-09
   47.5499992       2.85138935E-09
   47.6100006       2.82753021E-09
   47.6699982       2.80824297E-09
   47.7299995       2.79760948E-09
   47.7900009       2.79417467E-09
   47.8499985       2.79107559E-09
   47.9099998       2.77773227E-09
   47.9700012       2.74258682E-09
   48.0299988       2.67609557E-09
   48.0900002       2.57312371E-09
   48.1500015       2.43405074E-09
   48.2099991       2.26427854E-09
   48.2700005       2.07233919E-09
   48.3300018       1.86725413E-09
   48.3899994       1.65607394E-09
   48.4500008       1.44243462E-09
   48.5099983       1.22656729E-09
   48.5699997       1.00662512E-09
   48.6300011       7.80701448E-10
   48.6899986       5.48709134E-10
   48.7500000       3.13429893E-10
   48.8100014       8.04233832E-11
   48.8699989      -1.43085072E-10
   48.9300003      -3.49919038E-10
   48.9900017      -5.34738198E-10
   49.0499992      -6.95414948E-10
   49.1100006      -8.33642544E-10
   49.1699982      -9.54576529E-10
   49.2299995      -1.06551767E-09
   49.2900009      -1.17389620E-09
   49.3499985      -1.28509492E-09
   49.4099998      -1.40080492E-09
   49.4700012      -1.51854362E-09
   49.5299988      -1.63260305E-09
   49.5900002      -1.73616188E-09
   49.6500015      -1.82379656E-09
   49.7099991      -1.89343696E-09
   49.7700005      -1.94701610E-09
   49.8300018      -1.98960937E-09
   49.8899994      -2.02746842E-09
   49.9500008      -2.06576778E-09
   50.0099983      -2.10690887E-09
   50.0699997      -2.14991647E-09
   50.1300011      -2.19099316E-09
   50.1899986      -2.22488761E-09
   50.2500000      -2.24655961E-09
   50.3100014      -2.25265007E-09
   50.3699989      -2.24243801E-09
   50.4300003      -2.21813101E-09
   50.4900017      -2.18445773E-09
   50.5499992      -2.14760787E-09
   50.6100006      -2.11366880E-09