  -2.400000      0.0000000E+00
  -2.340000      0.0000000E+00
  -2.280000      0.0000000E+00
  -2.220000      0.0000000E+00
  -2.160000      0.0000000E+00
  -2.100000      0.0000000E+00
  -2.040000      0.0000000E+00
  -1.980000      0.0000000E+00
  -1.920000     -2.8205650E-27
  -1.860000     -7.9683561E-26
  -1.800000     -7.5497893E-25
  -1.740000     -3.9871582E-24
  -1.680000     -1.3550824E-23
  -1.620000     -2.9554857E-23
  -1.560000     -2.9075179E-23
  -1.500000      6.3562265E-23
  -1.440000      3.7470605E-22
  -1.380000      9.5777630E-22
  -1.320000      1.4797877E-21
  -1.260000      8.4637646E-22
  -1.200000     -2.7365859E-21
  -1.140000     -1.0512272E-20
  -1.080000     -2.0413496E-20
  -1.020000     -2.4029724E-20
 -0.9600000     -6.7238652E-21
 -0.9000000      4.4803298E-20
 -0.8400000      1.2636058E-19
 -0.7800000      1.9865487E-19
 -0.7200000      1.8510871E-19
 -0.6600000      4.0896177E-21
 -0.6000000     -3.6116815E-19
 -0.5400000     -7.8627038E-19
 -0.4800000     -9.9016911E-19
 -0.4200000     -6.4950976E-19
 -0.3600000      3.5266217E-19
 -0.3000000      1.6646503E-18
 -0.2400000      2.4267434E-18
 -0.1800000      1.6766834E-18
 -0.1200000     -8.1705742E-19
 -5.9999999E-02 -3.7315590E-18
  0.0000000E+00 -4.1660823E-18
  5.9999999E-02  8.8479850E-19
  0.1200000      1.1672417E-17
  0.1800000      2.2901754E-17
  0.2400000      2.3550532E-17
  0.3000000      1.5586188E-18
  0.3600000     -4.6760619E-17
  0.4200000     -1.0673190E-16
  0.4800000     -1.4229005E-16
  0.5400000     -1.0713144E-16
  0.6000000      2.8847772E-17
  0.6600000      2.4742801E-16
  0.7200000      4.6376107E-16
  0.7800000      5.4269142E-16
  0.8400000      3.5765315E-16
  0.9000000     -1.2501412E-16
  0.9600000     -7.7915988E-16
   1.020000     -1.3208199E-15
   1.080000     -1.4086022E-15
   1.140000     -8.2089923E-16
   1.200000      3.6957734E-16
   1.260000      1.7326071E-15
   1.320000      2.6075479E-15
   1.380000      2.4088512E-15
   1.440000      9.8353538E-16
   1.500000     -1.1788766E-15
   1.560000     -3.0549817E-15
   1.620000     -3.5421306E-15
   1.680000     -2.0835204E-15
   1.740000      8.6473255E-16
   1.800000      3.8469928E-15
   1.860000      5.0203037E-15
   1.920000      3.1548136E-15
   1.980000     -1.4733160E-15
   2.040000     -6.8508474E-15
   2.100000     -9.9560473E-15
   2.160000     -8.2535272E-15
   2.220000     -1.2736320E-15
   2.280000      8.6054338E-15
   2.340000      1.6791817E-14
   2.400000      1.8483045E-14
   2.460000      1.1220239E-14
   2.520000     -3.2860465E-15
   2.580000     -1.9182537E-14
   2.640000     -2.8686021E-14
   2.700000     -2.5714841E-14
   2.760000     -9.3006606E-15
   2.820000      1.5006535E-14
   2.880000      3.6774335E-14
   2.940000      4.5010640E-14
   3.000000      3.3420271E-14
   3.060000      4.1367014E-15
   3.120000     -3.2104897E-14
   3.180000     -5.9906805E-14
   3.240000     -6.5880041E-14
   3.300000     -4.5172054E-14
   3.360000     -4.6942443E-15
   3.420000      3.8895434E-14
   3.480000      6.6104315E-14
   3.540000      6.3659811E-14
   3.600000      3.1593411E-14
   3.660000     -1.5300951E-14
   3.720000     -5.3008077E-14
   3.780000     -5.8988797E-14
   3.840000     -2.3483197E-14
   3.900000      4.3942660E-14
   3.960000      1.1626881E-13
   4.020000      1.5930557E-13
   4.080000      1.4633638E-13
   4.140000      7.0602900E-14
   4.200000     -5.0376265E-14
   4.260000     -1.8114508E-13
   4.320000     -2.8276123E-13
   4.380000     -3.2866383E-13
   4.440000     -3.1419485E-13
   4.500000     -2.5483692E-13
   4.560000     -1.7382897E-13
   4.620000     -8.5534166E-14
   4.680000      1.6189420E-14
   4.740000      1.5707498E-13
   4.800000      3.6729021E-13
   4.860000      6.5770718E-13
   4.920000      9.9859118E-13
   4.980000      1.3121608E-12
   5.040000      1.4854614E-12
   5.100000      1.4015414E-12
   5.160000      9.7877034E-13
   5.220000      2.0406199E-13
   5.280000     -8.5232797E-13
   5.340000     -2.0456833E-12
   5.400000     -3.1855592E-12
   5.460000     -4.0735050E-12
   5.520000     -4.5368943E-12
   5.580000     -4.4495735E-12
   5.640000     -3.7372488E-12
   5.700000     -2.3728452E-12
   5.760000     -3.7115027E-13
   5.820000      2.2087742E-12
   5.880000      5.2499467E-12
   5.940000      8.5558297E-12
   6.000000      1.1829157E-11
   6.060000      1.4661253E-11
   6.120000      1.6539090E-11
   6.180000      1.6871657E-11
   6.240000      1.5030859E-11
   6.300000      1.0397513E-11
   6.360000      2.4017051E-12
   6.420000     -9.4509678E-12
   6.480000     -2.5570747E-11
   6.540000     -4.6290170E-11
   6.600000     -7.1878017E-11
   6.660000     -1.0255094E-10
   6.720000     -1.3847420E-10
   6.780000     -1.7974819E-10
   6.840000     -2.2638433E-10
   6.900000     -2.7828045E-10
   6.960000     -3.3520905E-10
   7.020000     -3.9682888E-10
   7.080000     -4.6272258E-10
   7.140000     -5.3245125E-10
   7.200000     -6.0560734E-10
   7.260000     -6.8184325E-10
   7.320000     -7.6085727E-10
   7.380000     -8.4233248E-10
   7.440000     -9.2584074E-10
   7.500000     -1.0107378E-09
   7.560000     -1.0960844E-09
   7.620000     -1.1806197E-09
   7.680000     -1.2628020E-09
   7.740000     -1.3409098E-09
   7.800000     -1.4131807E-09
   7.860000     -1.4779554E-09
   7.920000     -1.5337979E-09
   7.980000     -1.5795749E-09
   8.040000     -1.6144915E-09
   8.100000     -1.6380951E-09
   8.160000     -1.6502610E-09
   8.220000     -1.6511745E-09
   8.280000     -1.6413078E-09
   8.340000     -1.6213846E-09
   8.400000     -1.5923175E-09
   8.460000     -1.5551125E-09
   8.520000     -1.5107443E-09
   8.580000     -1.4600285E-09
   8.640000     -1.4035225E-09
   8.700000     -1.3414903E-09
   8.760000     -1.2739496E-09
   8.820000     -1.2007977E-09
   8.880000     -1.1219835E-09
   8.940000     -1.0376808E-09
   9.000000     -9.4841157E-10
   9.060000     -8.5508939E-10
   9.120000     -7.5897066E-10
   9.180000     -6.6153416E-10
   9.240000     -5.6432087E-10
   9.300000     -4.6877441E-10
   9.360000     -3.7611336E-10
   9.420000     -2.8725033E-10
   9.480000     -2.0275884E-10
   9.540000     -1.2287714E-10
   9.600000     -4.7536620E-11
   9.660000      2.3595544E-11
   9.720000      9.1062449E-11
   9.780000      1.5554844E-10
   9.840000      2.1778755E-10
   9.900000      2.7844554E-10
   9.960000      3.3797898E-10
   10.02000      3.9649031E-10
   10.08000      4.5361193E-10
   10.14000      5.0845961E-10
   10.20000      5.5969074E-10
   10.26000      6.0567962E-10
   10.32000      6.4478839E-10
   10.38000      6.7567696E-10
   10.44000      6.9757633E-10
   10.50000      7.1045864E-10
   10.56000      7.1506817E-10
   10.62000      7.1282580E-10
   10.68000      7.0565231E-10
   10.74000      6.9576900E-10
   10.80000      6.8551020E-10
   10.86000      6.7715261E-10
   10.92000      6.7273742E-10
   10.98000      6.7387218E-10
   11.04000      6.8152894E-10
   11.10000      6.9590050E-10
   11.16000      7.1639156E-10
   11.22000      7.4178774E-10
   11.28000      7.7057533E-10
   11.34000      8.0130158E-10
   11.40000      8.3283153E-10
   11.46000      8.6439167E-10
   11.52000      8.9539604E-10
   11.58000      9.2516789E-10
   11.64000      9.5274433E-10
   11.70000      9.7692077E-10
   11.76000      9.9657416E-10
   11.82000      1.0111468E-09
   11.88000      1.0210585E-09
   11.94000      1.0278118E-09
   12.00000      1.0336806E-09
   12.06000      1.0410506E-09
   12.12000      1.0516595E-09
   12.18000      1.0660367E-09
   12.24000      1.0833797E-09
   12.30000      1.1019273E-09
   12.36000      1.1196869E-09
   12.42000      1.1352418E-09
   12.48000      1.1483355E-09
   12.54000      1.1600225E-09
   12.60000      1.1723412E-09
   12.66000      1.1876389E-09
   12.72000      1.2077915E-09
   12.78000      1.2335982E-09
   12.84000      1.2645572E-09
   12.90000      1.2990952E-09
   12.96000      1.3351521E-09
   13.02000      1.3708963E-09
   13.08000      1.4052813E-09
   13.14000      1.4382219E-09
   13.20000      1.4703144E-09
   13.26000      1.5022221E-09
   13.32000      1.5340026E-09
   13.38000      1.5646922E-09
   13.44000      1.5923667E-09
   13.50000      1.6146989E-09
   13.56000      1.6298050E-09
   13.62000      1.6370354E-09
   13.68000      1.6373642E-09
   13.74000      1.6331784E-09
   13.80000      1.6274988E-09
   13.86000      1.6228959E-09
   13.92000      1.6204833E-09
   13.98000      1.6193668E-09
   14.04000      1.6167732E-09
   14.10000      1.6088481E-09
   14.16000      1.5918761E-09
   14.22000      1.5635113E-09
   14.28000      1.5235853E-09
   14.34000      1.4741893E-09
   14.40000      1.4189880E-09
   14.46000      1.3620071E-09
   14.52000      1.3063557E-09
   14.58000      1.2533844E-09
   14.64000      1.2026083E-09
   14.70000      1.1524165E-09
   14.76000      1.1012518E-09
   14.82000      1.0487453E-09
   14.88000      9.9631270E-10
   14.94000      9.4695574E-10
   15.00000      9.0435176E-10
   15.06000      8.7160412E-10
   15.12000      8.5013457E-10
   15.18000      8.3910495E-10
   15.24000      8.3551344E-10
   15.30000      8.3485768E-10
   15.36000      8.3208468E-10
   15.42000      8.2252710E-10
   15.48000      8.0260715E-10
   15.54000      7.7022189E-10
   15.60000      7.2482692E-10
   15.66000      6.6728523E-10
   15.72000      5.9954802E-10
   15.78000      5.2422094E-10
   15.84000      4.4406812E-10
   15.90000      3.6152584E-10
   15.96000      2.7832495E-10
   16.02000      1.9532993E-10
   16.08000      1.1267416E-10
   16.14000      3.0194205E-11
   16.20000     -5.1940244E-11
   16.26000     -1.3260777E-10
   16.32000     -2.0938283E-10
   16.38000     -2.7865799E-10
   16.44000     -3.3629807E-10
   16.50000     -3.7867345E-10
   16.56000     -4.0373374E-10
   16.62000     -4.1172066E-10
   16.68000     -4.0522341E-10
   16.74000     -3.8852491E-10
   16.80000     -3.6646389E-10
   16.86000     -3.4322134E-10
   16.92000     -3.2144246E-10
   16.98000     -3.0194289E-10
   17.04000     -2.8400568E-10
   17.10000     -2.6607511E-10
   17.16000     -2.4656713E-10
   17.22000     -2.2454605E-10
   17.28000     -2.0010485E-10
   17.34000     -1.7437723E-10
   17.40000     -1.4918268E-10
   17.46000     -1.2638587E-10
   17.52000     -1.0715384E-10
   17.58000     -9.1389445E-11
   17.64000     -7.7632879E-11
   17.70000     -6.3585914E-11
   17.76000     -4.7139646E-11
   17.82000     -2.7496538E-11
   17.88000     -5.8455588E-12
   17.94000      1.4805721E-11
   18.00000      3.0650395E-11
   18.06000      3.8522619E-11
   18.12000      3.7088631E-11
   18.18000      2.7228414E-11
   18.24000      1.1457957E-11
   18.30000     -7.2745911E-12
   18.36000     -2.6805582E-11
   18.42000     -4.6435102E-11
   18.48000     -6.6864875E-11
   18.54000     -8.9586810E-11
   18.60000     -1.1613030E-10
   18.66000     -1.4751972E-10
   18.72000     -1.8405931E-10
   18.78000     -2.2534354E-10
   18.84000     -2.7033317E-10
   18.90000     -3.1743988E-10
   18.96000     -3.6469489E-10
   19.02000     -4.1009923E-10
   19.08000     -4.5212822E-10
   19.14000     -4.9018911E-10
   19.20000     -5.2476173E-10
   19.26000     -5.5707172E-10
   19.32000     -5.8838928E-10
   19.38000     -6.1925337E-10
   19.44000     -6.4895295E-10
   19.50000     -6.7542993E-10
   19.56000     -6.9554668E-10
   19.62000     -7.0552919E-10
   19.68000     -7.0144579E-10
   19.74000     -6.7972339E-10
   19.80000     -6.3778721E-10
   19.86000     -5.7482569E-10
   19.92000     -4.9247262E-10
   19.98000     -3.9504433E-10
   20.04000     -2.8903516E-10
   20.10000     -1.8188850E-10
   20.16000     -8.0448322E-11
   20.22000      1.0296717E-11
   20.28000      8.7697627E-11
   20.34000      1.5109239E-10
   20.40000      2.0098789E-10
   20.46000      2.3833266E-10
   20.52000      2.6426289E-10
   20.58000      2.8031055E-10
   20.64000      2.8872932E-10
   20.70000      2.9254368E-10
   20.76000      2.9516845E-10
   20.82000      2.9977953E-10
   20.88000      3.0878833E-10
   20.94000      3.2367012E-10
   21.00000      3.4512154E-10
   21.06000      3.7330367E-10
   21.12000      4.0793458E-10
   21.18000      4.4820780E-10
   21.24000      4.9273707E-10
   21.30000      5.3975480E-10
   21.36000      5.8758676E-10
   21.42000      6.3514266E-10
   21.48000      6.8205069E-10
   21.54000      7.2825768E-10
   21.60000      7.7330281E-10
   21.66000      8.1577833E-10
   21.72000      8.5346102E-10
   21.78000      8.8421115E-10
   21.84000      9.0722307E-10
   21.90000      9.2392388E-10
   21.96000      9.3795738E-10
   22.02000      9.5418118E-10
   22.08000      9.7713726E-10
   22.14000      1.0096898E-09
   22.20000      1.0523507E-09
   22.26000      1.1033802E-09
   22.32000      1.1593697E-09
   22.38000      1.2159161E-09
   22.44000      1.2681766E-09
   22.50000      1.3113525E-09
   22.56000      1.3412457E-09
   22.62000      1.3549095E-09
   22.68000      1.3511987E-09
   22.74000      1.3309356E-09
   22.80000      1.2965584E-09
   22.86000      1.2514065E-09
   22.92000      1.1990102E-09
   22.98000      1.1427030E-09
   23.04000      1.0855939E-09
   23.10000      1.0306441E-09
   23.16000      9.8051678E-10
   23.22000      9.3708608E-10
   23.28000      9.0083829E-10
   23.34000      8.7059182E-10
   23.40000      8.4383356E-10
   23.46000      8.1758988E-10
   23.52000      7.8939183E-10
   23.58000      7.5783324E-10
   23.64000      7.2251022E-10
   23.70000      6.8356260E-10
   23.76000      6.4129468E-10
   23.82000      5.9623118E-10
   23.88000      5.4956129E-10
   23.94000      5.0354421E-10
   24.00000      4.6139093E-10
   24.06000      4.2645873E-10
   24.12000      4.0107367E-10
   24.18000      3.8558073E-10
   24.24000      3.7810921E-10
   24.30000      3.7511069E-10
   24.36000      3.7229356E-10
   24.42000      3.6544023E-10
   24.48000      3.5081910E-10
   24.54000      3.2528474E-10
   24.60000      2.8638256E-10
   24.66000      2.3266528E-10
   24.72000      1.6409643E-10
   24.78000      8.2155734E-11
   24.84000     -1.0673905E-11
   24.90000     -1.1197419E-10
   24.96000     -2.2051104E-10
   25.02000     -3.3675221E-10
   25.08000     -4.6241150E-10
   25.14000     -5.9920713E-10
   25.20000     -7.4749290E-10
   25.26000     -9.0549201E-10
   25.32000     -1.0695017E-09
   25.38000     -1.2348871E-09
   25.44000     -1.3973077E-09
   25.50000     -1.5536157E-09
   25.56000     -1.7021671E-09
   25.62000     -1.8426374E-09
   25.68000     -1.9755928E-09
   25.74000     -2.1019999E-09
   25.80000     -2.2227087E-09
   25.86000     -2.3379167E-09
   25.92000     -2.4467426E-09
   25.98000     -2.5471683E-09
   26.04000     -2.6365676E-09
   26.10000     -2.7127443E-09
   26.16000     -2.7750244E-09
   26.22000     -2.8247880E-09
   26.28000     -2.8650486E-09
   26.34000     -2.8992306E-09
   26.40000     -2.9297968E-09
   26.46000     -2.9575040E-09
   26.52000     -2.9816805E-09
   26.58000     -3.0012841E-09
   26.64000     -3.0160028E-09
   26.70000     -3.0266762E-09
   26.76000     -3.0347993E-09
   26.82000     -3.0414931E-09
   26.88000     -3.0466660E-09
   26.94000     -3.0489167E-09
   27.00000     -3.0461806E-09
   27.06000     -3.0366469E-09
   27.12000     -3.0193357E-09
   27.18000     -2.9940614E-09
   27.24000     -2.9609968E-09
   27.30000     -2.9203313E-09
   27.36000     -2.8723852E-09
   27.42000     -2.8181162E-09
   27.48000     -2.7595630E-09
   27.54000     -2.6997442E-09
   27.60000     -2.6418758E-09
   27.66000     -2.5882656E-09
   27.72000     -2.5395104E-09
   27.78000     -2.4944815E-09
   27.84000     -2.4511335E-09
   27.90000     -2.4077020E-09
   27.96000     -2.3636852E-09
   28.02000     -2.3201892E-09
   28.08000     -2.2796036E-09
   28.14000     -2.2448945E-09
   28.20000     -2.2188664E-09
   28.26000     -2.2036257E-09
   28.32000     -2.2002946E-09
   28.38000     -2.2089504E-09
   28.44000     -2.2287978E-09
   28.50000     -2.2586175E-09
   28.56000     -2.2974442E-09
   28.62000     -2.3452480E-09
   28.68000     -2.4032536E-09
   28.74000     -2.4736129E-09
   28.80000     -2.5584341E-09
   28.86000     -2.6585740E-09
   28.92000     -2.7727867E-09
   28.98000     -2.8977163E-09
   29.04000     -3.0287928E-09
   29.10000     -3.1616307E-09
   29.16000     -3.2932868E-09
   29.22000     -3.4228342E-09
   29.28000     -3.5510732E-09
   29.34000     -3.6795871E-09
   29.40000     -3.8095660E-09
   29.46000     -3.9408157E-09
   29.52000     -4.0712136E-09
   29.58000     -4.1967110E-09
   29.64000     -4.3118797E-09
   29.70000     -4.4108961E-09
   29.76000     -4.4887352E-09
   29.82000     -4.5422022E-09
   29.88000     -4.5703792E-09
   29.94000     -4.5742179E-09
   30.00000     -4.5553996E-09
   30.06000     -4.5149764E-09
   30.12000     -4.4524979E-09
   30.18000     -4.3661528E-09
   30.24000     -4.2539190E-09
   30.30000     -4.1151780E-09
   30.36000     -3.9519739E-09
   30.42000     -3.7692773E-09
   30.48000     -3.5741363E-09
   30.54000     -3.3741394E-09
   30.60000     -3.1758787E-09
   30.66000     -2.9839788E-09
   30.72000     -2.8008700E-09
   30.78000     -2.6271427E-09
   30.84000     -2.4621656E-09
   30.90000     -2.3047322E-09
   30.96000     -2.1536604E-09
   31.02000     -2.0083275E-09
   31.08000     -1.8690614E-09
   31.14000     -1.7372174E-09
   31.20000     -1.6148014E-09
   31.26000     -1.5036861E-09
   31.32000     -1.4047173E-09
   31.38000     -1.3171203E-09
   31.44000     -1.2384886E-09
   31.50000     -1.1653339E-09
   31.56000     -1.0938774E-09
   31.62000     -1.0206832E-09
   31.68000     -9.4289365E-10
   31.74000     -8.5811830E-10
   31.80000     -7.6422485E-10
   31.86000     -6.5926531E-10
   31.92000     -5.4159394E-10
   31.98000     -4.1005219E-10
   32.04000     -2.6406635E-10
   32.10000     -1.0363558E-10
   32.16000      7.0657917E-11
   32.22000      2.5746644E-10
   32.28000      4.5433254E-10
   32.34000      6.5741707E-10
   32.40000      8.6161517E-10
   32.46000      1.0612146E-09
   32.52000      1.2509145E-09
   32.58000      1.4267492E-09
   32.64000      1.5864607E-09
   32.70000      1.7291613E-09
   32.76000      1.8545482E-09
   32.82000      1.9621955E-09
   32.88000      2.0513578E-09
   32.94000      2.1213715E-09
   33.00000      2.1723414E-09
   33.06000      2.2056523E-09
   33.12000      2.2240016E-09
   33.18000      2.2309952E-09
   33.24000      2.2306075E-09
   33.30000      2.2268005E-09
   33.36000      2.2233553E-09
   33.42000      2.2237188E-09
   33.48000      2.2305942E-09
   33.54000      2.2452296E-09
   33.60000      2.2666655E-09
   33.66000      2.2914048E-09
   33.72000      2.3138635E-09
   33.78000      2.3276017E-09
   33.84000      2.3269404E-09
   33.90000      2.3083737E-09
   33.96000      2.2712887E-09
   34.02000      2.2178295E-09
   34.08000      2.1520619E-09
   34.14000      2.0787974E-09
   34.20000      2.0024542E-09
   34.26000      1.9262654E-09
   34.32000      1.8520527E-09
   34.38000      1.7806830E-09
   34.44000      1.7131226E-09
   34.50000      1.6517355E-09
   34.56000      1.6012041E-09
   34.62000      1.5684175E-09
   34.68000      1.5610113E-09
   34.74000      1.5848893E-09
   34.80000      1.6417036E-09
   34.86000      1.7275004E-09
   34.92000      1.8333421E-09
   34.98000      1.9478072E-09
   35.04000      2.0603466E-09
   35.10000      2.1640412E-09
   35.16000      2.2566564E-09
   35.22000      2.3397866E-09
   35.28000      2.4168358E-09
   35.34000      2.4910018E-09
   35.40000      2.5641460E-09
   35.46000      2.6366866E-09
   35.52000      2.7079998E-09
   35.58000      2.7766660E-09
   35.64000      2.8403151E-09
   35.70000      2.8954101E-09
   35.76000      2.9375904E-09
   35.82000      2.9629004E-09
   35.88000      2.9695360E-09
   35.94000      2.9591753E-09
   36.00000      2.9369636E-09
   36.06000      2.9098850E-09
   36.12000      2.8842080E-09
   36.18000      2.8633058E-09
   36.24000      2.8470148E-09
   36.30000      2.8328582E-09
   36.36000      2.8183957E-09
   36.42000      2.8033509E-09
   36.48000      2.7903120E-09
   36.54000      2.7836455E-09
   36.60000      2.7872296E-09
   36.66000      2.8021718E-09
   36.72000      2.8255709E-09
   36.78000      2.8507483E-09
   36.84000      2.8686735E-09
   36.90000      2.8699065E-09
   36.96000      2.8464247E-09
   37.02000      2.7929719E-09
   37.08000      2.7078375E-09
   37.14000      2.5930373E-09
   37.20000      2.4538225E-09
   37.26000      2.2974753E-09
   37.32000      2.1315454E-09
   37.38000      1.9620157E-09
   37.44000      1.7920662E-09
   37.50000      1.6219719E-09
   37.56000      1.4501930E-09
   37.62000      1.2751504E-09
   37.68000      1.0968605E-09
   37.74000      9.1771418E-10
   37.80000      7.4216822E-10
   37.86000      5.7565192E-10
   37.92000      4.2328924E-10
   37.98000      2.8894495E-10
   38.04000      1.7477532E-10
   38.10000      8.1153501E-11
   38.16000      6.7562813E-12
   38.22000     -5.1263396E-11
   38.28000     -9.6917654E-11
   38.34000     -1.3471926E-10
   38.40000     -1.6878209E-10
   38.46000     -2.0200315E-10
   38.52000     -2.3572705E-10
   38.58000     -2.7009625E-10
   38.64000     -3.0491001E-10
   38.70000     -3.4049952E-10
   38.76000     -3.7810938E-10
   38.82000     -4.1958284E-10
   38.88000     -4.6659121E-10
   38.94000     -5.1993371E-10
   39.00000     -5.7937299E-10
   39.06000     -6.4411548E-10
   39.12000     -7.1363027E-10
   39.18000     -7.8828943E-10
   39.24000     -8.6943058E-10
   39.30000     -9.5877495E-10
   39.36000     -1.0574703E-09
   39.42000     -1.1651673E-09
   39.48000     -1.2794532E-09
   39.54000     -1.3957702E-09
   39.60000     -1.5077789E-09
   39.66000     -1.6080723E-09
   39.72000     -1.6891410E-09
   39.78000     -1.7444687E-09
   39.84000     -1.7695427E-09
   39.90000     -1.7624944E-09
   39.96000     -1.7241157E-09
   40.02000     -1.6572206E-09
   40.08000     -1.5656022E-09
   40.14000     -1.4530511E-09
   40.20000     -1.3228458E-09
   40.26000     -1.1778492E-09
   40.32000     -1.0209741E-09
   40.38000     -8.5557023E-10
   40.44000     -6.8534950E-10
   40.50000     -5.1379562E-10
   40.56000     -3.4335129E-10
   40.62000     -1.7485065E-10
   40.68000     -7.5476344E-12
   40.74000      1.6022543E-10
   40.80000      3.3005537E-10
   40.86000      5.0253574E-10
   40.92000      6.7679579E-10
   40.98000      8.5059881E-10
   41.04000      1.0209092E-09
   41.10000      1.1846991E-09
   41.16000      1.3397434E-09
   41.22000      1.4851935E-09
   41.28000      1.6217758E-09
   41.34000      1.7515347E-09
   41.40000      1.8771449E-09
   41.46000      2.0009614E-09
   41.52000      2.1241000E-09
   41.58000      2.2458699E-09
   41.64000      2.3637645E-09
   41.70000      2.4739963E-09
   41.76000      2.5723355E-09
   41.82000      2.6549198E-09
   41.88000      2.7187566E-09
   41.94000      2.7618350E-09
   42.00000      2.7829430E-09
   42.06000      2.7814018E-09
   42.12000      2.7569027E-09
   42.18000      2.7095464E-09
   42.24000      2.6400679E-09
   42.30000      2.5501448E-09
   42.36000      2.4426225E-09
   42.42000      2.3214963E-09
   42.48000      2.1915143E-09
   42.54000      2.0574142E-09
   42.60000      1.9229847E-09
   42.66000      1.7903237E-09
   42.72000      1.6596864E-09
   42.78000      1.5301238E-09
   42.84000      1.4007443E-09
   42.90000      1.2720750E-09
   42.96000      1.1468756E-09
   43.02000      1.0299741E-09
   43.08000      9.2716063E-10
   43.14000      8.4364260E-10
   43.20000      7.8274576E-10
   43.26000      7.4535683E-10
   43.32000      7.3016349E-10
   43.38000      7.3434198E-10
   43.44000      7.5421613E-10
   43.50000      7.8559564E-10
   43.56000      8.2383605E-10
   43.62000      8.6388802E-10
   43.68000      9.0058261E-10
   43.74000      9.2918279E-10
   43.80000      9.4601216E-10
   43.86000      9.4891739E-10
   43.92000      9.3744879E-10
   43.98000      9.1281027E-10
   44.04000      8.7768182E-10
   44.10000      8.3591423E-10
   44.16000      7.9197082E-10
   44.22000      7.5001794E-10
   44.28000      7.1280409E-10
   44.34000      6.8077360E-10
   44.40000      6.5196359E-10
   44.46000      6.2296562E-10
   44.52000      5.9066774E-10
   44.58000      5.5397303E-10
   44.64000      5.1458349E-10
   44.70000      4.7638493E-10
   44.76000      4.4374557E-10
   44.82000      4.1967282E-10
   44.88000      4.0485393E-10
   44.94000      3.9806369E-10
   45.00000      3.9759007E-10
   45.06000      4.0273246E-10
   45.12000      4.1443204E-10
   45.18000      4.3467130E-10
   45.24000      4.6504067E-10
   45.30000      5.0533672E-10
   45.36000      5.5296662E-10
   45.42000      6.0341598E-10
   45.48000      6.5146011E-10
   45.54000      6.9251399E-10
   45.60000      7.2362988E-10
   45.66000      7.4397682E-10
   45.72000      7.5489293E-10
   45.78000      7.5963535E-10
   45.84000      7.6283518E-10
   45.90000      7.6959811E-10
   45.96000      7.8432183E-10
   46.02000      8.0956153E-10
   46.08000      8.4543944E-10
   46.14000      8.8996360E-10
   46.20000      9.4019670E-10
   46.26000      9.9373654E-10
   46.32000      1.0497628E-09
   46.38000      1.1091225E-09
   46.44000      1.1734737E-09
   46.50000      1.2440261E-09
   46.56000      1.3206063E-09
   46.62000      1.4015191E-09
   46.68000      1.4841702E-09
   46.74000      1.5659913E-09
   46.80000      1.6451038E-09
   46.86000      1.7204126E-09
   46.92000      1.7911984E-09
   46.98000      1.8565409E-09
   47.04000      1.9149067E-09
   47.10000      1.9640483E-09
   47.16000      2.0011504E-09
   47.22000      2.0230810E-09
   47.28000      2.0266766E-09
   47.34000      2.0090929E-09
   47.40000      1.9682787E-09
   47.46000      1.9035364E-09
   47.52000      1.8160006E-09
   47.58000      1.7088077E-09
   47.64000      1.5867919E-09
   47.70000      1.4557138E-09
   47.76000      1.3211856E-09
   47.82000      1.1875585E-09
   47.88000      1.0570429E-09
   47.94000      9.2929570E-10
   48.00000      8.0164064E-10
   48.06000      6.6997036E-10
   48.12000      5.3019489E-10
   48.18000      3.7986056E-10
   48.24000      2.1938329E-10
   48.30000      5.2355648E-11
   48.36000     -1.1532082E-10
   48.42000     -2.7725117E-10
   48.48000     -4.2864123E-10
   48.54000     -5.6784288E-10
   48.60000     -6.9675582E-10
   48.66000     -8.2000573E-10
   48.72000     -9.4333930E-10
   48.78000     -1.0719382E-09
   48.84000     -1.2092538E-09
   48.90000     -1.3566122E-09
   48.96000     -1.5134687E-09
   49.02000     -1.6779986E-09
   49.08000     -1.8477323E-09
   49.14000     -2.0200728E-09
   49.20000     -2.1926463E-09
   49.26000     -2.3634485E-09
   49.32000     -2.5307496E-09
   49.38000     -2.6927629E-09
   49.44000     -2.8472149E-09
   49.50000     -2.9910918E-09
   49.56000     -3.1208331E-09
   49.62000     -3.2330496E-09
   49.68000     -3.3255472E-09
   49.74000     -3.3982075E-09
   49.80000     -3.4532932E-09
   49.86000     -3.4949998E-09
   49.92000     -3.5284466E-09
   49.98000     -3.5585093E-09
   50.04000     -3.5888934E-09
   50.10000     -3.6216270E-09
   50.16000     -3.6569208E-09
   50.22000     -3.6932917E-09
   50.28000     -3.7279149E-09
   50.34000     -3.7572994E-09
   50.40000     -3.7783181E-09
   50.46000     -3.7894097E-09
   50.52000     -3.7914760E-09
   50.58000     -3.7879500E-09
   50.64000     -3.7837822E-09
   50.70000     -3.7836441E-09
   50.76000     -3.7901038E-09
   50.82000     -3.8026315E-09
   50.88000     -3.8178944E-09
   50.94000     -3.8311407E-09
   51.00000     -3.8379349E-09
   51.06000     -3.8354289E-09
   51.12000     -3.8227412E-09
   51.18000     -3.8005910E-09
   51.24000     -3.7707166E-09
   51.30000     -3.7355621E-09
   51.36000     -3.6983347E-09
   51.42000     -3.6631489E-09
   51.48000     -3.6348737E-09
   51.54000     -3.6185723E-09
   51.60000     -3.6187933E-09
   51.66000     -3.6391890E-09
   51.72000     -3.6827559E-09
   51.78000     -3.7525623E-09
   51.84000     -3.8524766E-09
   51.90000     -3.9873860E-09
   51.96000     -4.1627453E-09
   52.02000     -4.3837631E-09
   52.08000     -4.6547637E-09
   52.14000     -4.9791251E-09
   52.20000     -5.3597922E-09
   52.26000     -5.7999738E-09
   52.32000     -6.3035972E-09
   52.38000     -6.8753652E-09
   52.44000     -7.5206046E-09
   52.50000     -8.2452543E-09
   52.56000     -9.0561549E-09
   52.62000     -9.9614548E-09
   52.68000     -1.0970750E-08
   52.74000     -1.2094644E-08
   52.80000     -1.3343811E-08
   52.86000     -1.4727975E-08
   52.92000     -1.6255306E-08
   52.98000     -1.7932440E-08
   53.04000     -1.9764935E-08
   53.10000     -2.1757767E-08
   53.16000     -2.3915531E-08
   53.22000     -2.6242372E-08
   53.28000     -2.8741894E-08
   53.34000     -3.1417187E-08
   53.40000     -3.4270847E-08
   53.46000     -3.7304584E-08
   53.52000     -4.0518042E-08
   53.58000     -4.3906926E-08
   53.64000     -4.7460997E-08
   53.70000     -5.1162761E-08
   53.76000     -5.4987442E-08
   53.82000     -5.8904131E-08
   53.88000     -6.2877412E-08
   53.94000     -6.6868594E-08
   54.00000     -7.0835966E-08
   54.06000     -7.4734139E-08
   54.12000     -7.8512898E-08
   54.18000     -8.2116102E-08
   54.24000     -8.5480863E-08
   54.30000     -8.8536851E-08
   54.36000     -9.1205656E-08
   54.42000     -9.3400246E-08
   54.48000     -9.5025008E-08
   54.54000     -9.5976603E-08
   54.60000     -9.6145634E-08
   54.66000     -9.5418635E-08
   54.72000     -9.3679830E-08
   54.78000     -9.0811959E-08
   54.84000     -8.6696353E-08
   54.90000     -8.1212775E-08
   54.96000     -7.4239608E-08
   55.02000     -6.5654760E-08
   55.08000     -5.5337296E-08
   55.14000     -4.3169464E-08
   55.20000     -2.9039024E-08
   55.26000     -1.2841557E-08
   55.32000      5.5169656E-09
   55.38000      2.6117624E-08
   55.44000      4.9026234E-08
   55.50000      7.4291655E-08
   55.56000      1.0194491E-07