 -0.750000000       0.00000000    
 -0.689999998       0.00000000    
 -0.629999995       0.00000000    
 -0.569999993       0.00000000    
 -0.509999990       0.00000000    
 -0.449999988      -6.15297218E-22
 -0.389999986      -3.30046135E-21
 -0.330000013       3.07876240E-21
 -0.270000011       9.93135145E-20
 -0.209999993       5.34515633E-19
 -0.150000006       1.71082106E-18
  -9.00000036E-02   3.67271294E-18
  -2.99999993E-02   4.74378445E-18
   2.99999993E-02  -2.78694312E-19
   9.00000036E-02  -2.03257781E-17
  0.150000006      -6.30882712E-17
  0.209999993      -1.22170963E-16
  0.270000011      -1.59240751E-16
  0.330000013      -9.40506276E-17
  0.389999986       1.75919399E-16
  0.449999988       7.07445306E-16
  0.509999990       1.40135280E-15
  0.569999993       1.90217194E-15
  0.629999995       1.60465574E-15
  0.689999998      -1.32865707E-16
  0.750000000      -3.54698647E-15
  0.810000002      -7.94049935E-15
  0.870000005      -1.13865013E-14
  0.930000007      -1.10518843E-14
  0.990000010      -4.35111465E-15
   1.04999995       9.30167029E-15
   1.11000001       2.69215853E-14
   1.16999996       4.16598281E-14
   1.23000002       4.46281636E-14
   1.28999996       2.87432059E-14
   1.35000002      -6.80089445E-15
   1.40999997      -5.37600732E-14
   1.47000003      -9.59234523E-14
   1.52999997      -1.14636003E-13
   1.59000003      -9.69262377E-14
   1.64999998      -4.24273653E-14
   1.71000004       3.48724142E-14
   1.76999998       1.11776934E-13
   1.83000004       1.65882133E-13
   1.88999999       1.85161362E-13
   1.95000005       1.71400491E-13
   2.00999999       1.34922848E-13
   2.06999993       8.35299169E-14
   2.13000011       1.32122910E-14
   2.19000006      -9.13380699E-14
   2.25000000      -2.43342239E-13
   2.30999994      -4.32995707E-13
   2.36999989      -6.11464492E-13
   2.43000007      -6.93351409E-13
   2.49000001      -5.83990538E-13
   2.54999995      -2.24987374E-13
   2.60999990       3.60940498E-13
   2.67000008       1.04943517E-12
   2.73000002       1.63492668E-12
   2.78999996       1.89186644E-12
   2.84999990       1.65724444E-12
   2.91000009       9.02252123E-13
   2.97000003      -2.38074399E-13
   3.02999997      -1.49320855E-12
   3.08999991      -2.53614599E-12
   3.15000010      -3.08454217E-12
   3.21000004      -2.98595935E-12
   3.26999998      -2.25590857E-12
   3.32999992      -1.05747724E-12
   3.39000010       3.64085444E-13
   3.45000005       1.76042232E-12
   3.50999999       2.93815081E-12
   3.56999993       3.77449591E-12
   3.63000011       4.19240771E-12
   3.69000006       4.11951636E-12
   3.75000000       3.46531853E-12
   3.80999994       2.14255458E-12
   3.86999989       1.34540328E-13
   3.93000007      -2.41879368E-12
   3.99000001      -5.16265503E-12
   4.05000019      -7.54156026E-12
   4.11000013      -8.90550481E-12
   4.17000008      -8.68865223E-12
   4.23000002      -6.60496701E-12
   4.28999996      -2.78923239E-12
   4.34999990       2.17489221E-12
   4.40999985       7.35965542E-12
   4.46999979       1.17025738E-11
   4.53000021       1.42548499E-11
   4.59000015       1.43927153E-11
   4.65000010       1.19354934E-11
   4.71000004       7.15433875E-12
   4.76999998       6.96789414E-13
   4.82999992      -6.52452701E-12
   4.88999987      -1.34352677E-11
   4.94999981      -1.88783156E-11
   5.01000023      -2.16848813E-11
   5.07000017      -2.07724983E-11
   5.13000011      -1.52945781E-11
   5.19000006      -4.83006820E-12
   5.25000000       1.04422504E-11
   5.30999994       2.96660578E-11
   5.36999989       5.13951139E-11
   5.42999983       7.38615905E-11
   5.48999977       9.53664786E-11
   5.55000019       1.14672633E-10
   5.61000013       1.31265124E-10
   5.67000008       1.45386189E-10
   5.73000002       1.57836563E-10
   5.78999996       1.69625022E-10
   5.84999990       1.81602219E-10
   5.90999985       1.94209010E-10
   5.96999979       2.07409548E-10
   6.03000021       2.20796534E-10
   6.09000015       2.33791708E-10
   6.15000010       2.45846260E-10
   6.21000004       2.56572957E-10
   6.26999998       2.65795858E-10
   6.32999992       2.73544964E-10
   6.38999987       2.80038187E-10
   6.44999981       2.85674207E-10
   6.51000023       2.91029811E-10
   6.57000017       2.96835584E-10
   6.63000011       3.03908038E-10
   6.69000006       3.13039400E-10
   6.75000000       3.24870575E-10
   6.80999994       3.39783202E-10
   6.86999989       3.57834817E-10
   6.92999983       3.78740261E-10
   6.98999977       4.01884831E-10
   7.05000019       4.26353869E-10
   7.11000013       4.50978338E-10
   7.17000008       4.74410011E-10
   7.23000002       4.95241181E-10
   7.28999996       5.12160203E-10
   7.34999990       5.24098931E-10
   7.40999985       5.30299249E-10
   7.46999979       5.30224753E-10
   7.53000021       5.23287746E-10
   7.59000015       5.08431908E-10
   7.65000010       4.83690921E-10
   7.71000004       4.45887910E-10
   7.76999998       3.90626198E-10
   7.82999992       3.12639775E-10
   7.88999987       2.06447776E-10
   7.94999981       6.71386974E-11
   8.01000023      -1.08952077E-10
   8.06999969      -3.23876981E-10
   8.13000011      -5.78111392E-10
   8.18999958      -8.70920669E-10
   8.25000000      -1.20086274E-09
   8.31000042      -1.56619229E-09
   8.36999989      -1.96500105E-09
   8.43000031      -2.39507147E-09
   8.48999977      -2.85356117E-09
   8.55000019      -3.33670114E-09
   8.60999966      -3.83964993E-09
   8.67000008      -4.35652669E-09
   8.72999954      -4.88052265E-09
   8.78999996      -5.40393685E-09
   8.85000038      -5.91804028E-09
   8.90999985      -6.41280229E-09
   8.97000027      -6.87665747E-09
   9.02999973      -7.29655136E-09
   9.09000015      -7.65843211E-09
   9.14999962      -7.94820298E-09
   9.21000004      -8.15298495E-09
   9.27000046      -8.26240232E-09
   9.32999992      -8.26961966E-09
   9.39000034      -8.17196266E-09
   9.44999981      -7.97105848E-09
   9.51000023      -7.67256836E-09
   9.56999969      -7.28561034E-09
   9.63000011      -6.82195589E-09
   9.68999958      -6.29504715E-09
   9.75000000      -5.71891157E-09
   9.81000042      -5.10705656E-09
   9.86999989      -4.47150716E-09
   9.93000031      -3.82217147E-09
   9.98999977      -3.16667403E-09
   10.0500002      -2.51068943E-09
   10.1099997      -1.85866977E-09
   10.1700001      -1.21474653E-09
   10.2299995      -5.83551762E-10
   10.2900000       2.92548936E-11
   10.3500004       6.16862450E-10
   10.4099998       1.17158649E-09
   10.4700003       1.68546643E-09
   10.5299997       2.15106666E-09
   10.5900002       2.56235300E-09
   10.6499996       2.91552138E-09
   10.7100000       3.20963833E-09
   10.7700005       3.44694540E-09
   10.8299999       3.63269748E-09
   10.8900003       3.77448606E-09
   10.9499998       3.88112742E-09
   11.0100002       3.96135258E-09
   11.0699997       4.02262623E-09
   11.1300001       4.07040224E-09
   11.1899996       4.10798684E-09
   11.2500000       4.13695034E-09
   11.3100004       4.15781543E-09
   11.3699999       4.17066381E-09
   11.4300003       4.17535650E-09
   11.4899998       4.17129353E-09
   11.5500002       4.15686685E-09
   11.6099997       4.12895407E-09
   11.6700001       4.08280121E-09
   11.7299995       4.01249789E-09
   11.7900000       3.91198274E-09
   11.8500004       3.77630993E-09
   11.9099998       3.60275654E-09
   11.9700003       3.39143980E-09
   12.0299997       3.14526183E-09
   12.0900002       2.86923685E-09
   12.1499996       2.56944621E-09
   12.2100000       2.25194330E-09
   12.2700005       1.92192218E-09
   12.3299999       1.58334579E-09
   12.3900003       1.23909405E-09
   12.4499998       8.91520857E-10
   12.5100002       5.43198708E-10
   12.5699997       1.97548616E-10
   12.6300001      -1.40924800E-10
   12.6899996      -4.66961803E-10
   12.7500000      -7.75410403E-10
   12.8100004      -1.06237308E-09
   12.8699999      -1.32622946E-09
   12.9300003      -1.56811819E-09
   12.9899998      -1.79162973E-09
   13.0500002      -2.00177119E-09
   13.1099997      -2.20356955E-09
   13.1700001      -2.40085796E-09
   13.2299995      -2.59573785E-09
   13.2900000      -2.78891576E-09
   13.3500004      -2.98073943E-09
   13.4099998      -3.17243742E-09
   13.4700003      -3.36698069E-09
   13.5299997      -3.56917407E-09
   13.5900002      -3.78493592E-09
   13.6499996      -4.02011135E-09
   13.7100000      -4.27936486E-09
   13.7700005      -4.56564830E-09
   13.8299999      -4.88046048E-09
   13.8900003      -5.22476595E-09
   13.9499998      -5.60013813E-09
   14.0100002      -6.00961014E-09
   14.0699997      -6.45783471E-09
   14.1300001      -6.95041091E-09
   14.1899996      -7.49255502E-09
   14.2500000      -8.08752176E-09
   14.3100004      -8.73526584E-09
   14.3699999      -9.43178513E-09
   14.4300003      -1.01693560E-08
   14.4899998      -1.09376117E-08
   14.5500002      -1.17251222E-08
   14.6099997      -1.25209816E-08
   14.6700001      -1.33159022E-08
   14.7299995      -1.41025600E-08
   14.7900000      -1.48752193E-08
   14.8500004      -1.56290003E-08
   14.9099998      -1.63592642E-08
   14.9700003      -1.70614953E-08
   15.0299997      -1.77316970E-08
   15.0900002      -1.83670625E-08
   15.1499996      -1.89663822E-08
   15.2100000      -1.95297627E-08
   15.2700005      -2.00575823E-08
   15.3299999      -2.05489030E-08
   15.3900003      -2.09998845E-08
   15.4499998      -2.14028155E-08
   15.5100002      -2.17460769E-08
   15.5699997      -2.20151595E-08
   15.6300001      -2.21944472E-08
   15.6899996      -2.22693757E-08
   15.7500000      -2.22285284E-08
   15.8100004      -2.20653060E-08
   15.8699999      -2.17789076E-08
   15.9300003      -2.13745039E-08
   15.9899998      -2.08626449E-08
   16.0499992      -2.02581436E-08
   16.1100006      -1.95787102E-08
   16.1700001      -1.88437621E-08
   16.2299995      -1.80735462E-08
   16.2900009      -1.72886114E-08
   16.3500004      -1.65093397E-08
   16.4099998      -1.57552300E-08
   16.4699993      -1.50437796E-08
   16.5300007      -1.43890366E-08
   16.5900002      -1.38002445E-08
   16.6499996      -1.32810305E-08
   16.7099991      -1.28294566E-08
   16.7700005      -1.24389787E-08
   16.8299999      -1.21000063E-08
   16.8899994      -1.18016636E-08
   16.9500008      -1.15333618E-08
   17.0100002      -1.12859535E-08
   17.0699997      -1.10524496E-08
   17.1299992      -1.08283080E-08
   17.1900005      -1.06113820E-08
   17.2500000      -1.04015738E-08
   17.3099995      -1.02002700E-08
   17.3700008      -1.00096518E-08
   17.4300003      -9.83202320E-09
   17.4899998      -9.66918545E-09
   17.5499992      -9.52188373E-09
   17.6100006      -9.38927602E-09
   17.6700001      -9.26846244E-09
   17.7299995      -9.15424625E-09
   17.7900009      -9.03935504E-09
   17.8500004      -8.91533158E-09
   17.9099998      -8.77399309E-09
   17.9699993      -8.60907345E-09
   18.0300007      -8.41747827E-09
   18.0900002      -8.19965340E-09
   18.1499996      -7.95896682E-09
   18.2099991      -7.70042252E-09
   18.2700005      -7.42931894E-09
   18.3299999      -7.15039405E-09
   18.3899994      -6.86767399E-09
   18.4500008      -6.58482247E-09
   18.5100002      -6.30554586E-09
   18.5699997      -6.03364914E-09
   18.6299992      -5.77260995E-09
   18.6900005      -5.52478907E-09
   18.7500000      -5.29056043E-09
   18.8099995      -5.06760367E-09
   18.8700008      -4.85048668E-09
   18.9300003      -4.63063676E-09
   18.9899998      -4.39679004E-09
   19.0499992      -4.13603729E-09
   19.1100006      -3.83546395E-09
   19.1700001      -3.48411167E-09
   19.2299995      -3.07472492E-09
   19.2900009      -2.60462896E-09
   19.3500004      -2.07534434E-09
   19.4099998      -1.49103063E-09
   19.4699993      -8.56389237E-10
   19.5300007      -1.74887008E-10
   19.5900002       5.52013768E-10
   19.6499996       1.32445410E-09
   19.7099991       2.14299489E-09
   19.7700005       3.00733105E-09
   19.8299999       3.91548705E-09
   19.8899994       4.86370277E-09
   19.9500008       5.84681992E-09
   20.0100002       6.85878376E-09
   20.0699997       7.89295829E-09
   20.1299992       8.94216523E-09
   20.1900005       9.99859751E-09
   20.2500000       1.10538201E-08
   20.3099995       1.20990009E-08
   20.3700008       1.31254101E-08
   20.4300003       1.41251055E-08
   20.4899998       1.50916755E-08
   20.5499992       1.60209055E-08
   20.6100006       1.69112599E-08
   20.6700001       1.77640818E-08
   20.7299995       1.85834939E-08
   20.7900009       1.93761380E-08
   20.8500004       2.01508215E-08
   20.9099998       2.09182094E-08
   20.9699993       2.16904894E-08
   21.0300007       2.24807870E-08
   21.0900002       2.33021353E-08
   21.1499996       2.41659883E-08
   21.2099991       2.50806114E-08
   21.2700005       2.60498609E-08
   21.3299999       2.70728400E-08
   21.3899994       2.81444841E-08
   21.4500008       2.92566487E-08
   21.5100002       3.03990291E-08
   21.5699997       3.15593951E-08
   21.6299992       3.27231291E-08
   21.6900005       3.38725350E-08
   21.7500000       3.49865417E-08
   21.8099995       3.60411399E-08
   21.8700008       3.70102100E-08
   21.9300003       3.78663145E-08
   21.9899998       3.85809500E-08
   22.0499992       3.91246182E-08
   22.1100006       3.94674018E-08
   22.1700001       3.95808364E-08
   22.2299995       3.94413000E-08
   22.2900009       3.90338464E-08
   22.3500004       3.83550152E-08
   22.4099998       3.74131233E-08
   22.4699993       3.62256891E-08
   22.5300007       3.48151232E-08
   22.5900002       3.32045822E-08
   22.6499996       3.14158264E-08
   22.7099991       2.94697546E-08
   22.7700005       2.73888752E-08
   22.8299999       2.51999950E-08
   22.8899994       2.29355503E-08
   22.9500008       2.06327790E-08
   23.0100002       1.83310149E-08
   23.0699997       1.60680713E-08
   23.1299992       1.38766323E-08
   23.1900005       1.17812533E-08
   23.2500000       9.79622072E-09
   23.3099995       7.92449395E-09
   23.3700008       6.15814555E-09
   23.4300003       4.48068338E-09
   23.4899998       2.87121238E-09
   23.5499992       1.30957478E-09
   23.6100006      -2.19085652E-10
   23.6700001      -1.72199321E-09
   23.7299995      -3.19953997E-09
   23.7900009      -4.64883154E-09
   23.8500004      -6.06838446E-09
   23.9099998      -7.46188000E-09
   23.9699993      -8.83930085E-09
   24.0300007      -1.02149036E-08
   24.0900002      -1.16027481E-08
   24.1499996      -1.30113991E-08
   24.2099991      -1.44396788E-08
   24.2700005      -1.58749938E-08
   24.3299999      -1.72949530E-08
   24.3899994      -1.86720506E-08
   24.4500008      -1.99801917E-08
   24.5100002      -2.12011599E-08
   24.5699997      -2.23289582E-08
   24.6299992      -2.33703830E-08
   24.6900005      -2.43413876E-08
   24.7500000      -2.52603112E-08
   24.8099995      -2.61402118E-08
   24.8700008      -2.69829563E-08
   24.9300003      -2.77771761E-08
   24.9899998      -2.85006543E-08
   25.0499992      -2.91262854E-08
   25.1100006      -2.96295166E-08
   25.1700001      -2.99949257E-08
   25.2299995      -3.02200824E-08
   25.2900009      -3.03157464E-08
   25.3500004      -3.03026049E-08
   25.4099998      -3.02055128E-08
   25.4699993      -3.00469694E-08
   25.5300007      -2.98417611E-08
   25.5900002      -2.95944709E-08
   25.6499996      -2.93007769E-08
   25.7099991      -2.89520603E-08
   25.7700005      -2.85416135E-08
   25.8299999      -2.80698966E-08
   25.8899994      -2.75465126E-08
   25.9500008      -2.69879532E-08
   26.0100002      -2.64118700E-08
   26.0699997      -2.58302038E-08
   26.1299992      -2.52438763E-08
   26.1900005      -2.46410607E-08
   26.2500000      -2.39995934E-08
   26.3099995      -2.32925341E-08
   26.3700008      -2.24951311E-08
   26.4300003      -2.15912408E-08
   26.4899998      -2.05776995E-08
   26.5499992      -1.94657517E-08
   26.6100006      -1.82791222E-08
   26.6700001      -1.70489169E-08
   26.7299995      -1.58062168E-08
   26.7900009      -1.45742245E-08
   26.8500004      -1.33621807E-08
   26.9099998      -1.21633432E-08
   26.9699993      -1.09580203E-08
   27.0300007      -9.72093872E-09
   27.0900002      -8.43045100E-09
   27.1499996      -7.07632264E-09
   27.2099991      -5.66337377E-09
   27.2700005      -4.20995416E-09
   27.3299999      -2.74220202E-09
   27.3899994      -1.28649991E-09
   27.4500008       1.37130945E-10
   27.5100002       1.51860879E-09
   27.5699997       2.85750690E-09
   27.6299992       4.15927648E-09
   27.6900005       5.42923573E-09
   27.7500000       6.66602906E-09
   27.8099995       7.85639021E-09
   27.8700008       8.97280827E-09
   27.9300003       9.97509808E-09
   27.9899998       1.08158975E-08
   28.0499992       1.14487939E-08
   28.1100006       1.18368568E-08
   28.1700001       1.19589254E-08
   28.2299995       1.18116770E-08
   28.2900009       1.14069127E-08
   28.3500004       1.07651310E-08
   28.4099998       9.90770488E-09
   28.4699993       8.85027696E-09
   28.5300007       7.59938423E-09
   28.5900002       6.15308382E-09
   28.6499996       4.50501458E-09
   28.7099991       2.65034239E-09
   28.7700005       5.91548310E-10
   28.8299999      -1.65783343E-09
   28.8899994      -4.07276657E-09
   28.9500008      -6.61978561E-09
   29.0100002      -9.26267596E-09
   29.0699997      -1.19689432E-08
   29.1299992      -1.47148880E-08
   29.1900005      -1.74875403E-08
   29.2500000      -2.02827728E-08
   29.3099995      -2.31002755E-08
   29.3700008      -2.59371227E-08
   29.4300003      -2.87820114E-08
   29.4899998      -3.16118438E-08
   29.5499992      -3.43914088E-08
   29.6100006      -3.70760276E-08
   29.6700001      -3.96162818E-08
   29.7299995      -4.19637658E-08
   29.7900009      -4.40767245E-08
   29.8500004      -4.59244021E-08
   29.9099998      -4.74891628E-08
   29.9699993      -4.87657097E-08
   30.0300007      -4.97573041E-08
   30.0900002      -5.04700353E-08
   30.1499996      -5.09068308E-08
   30.2099991      -5.10633384E-08
   30.2700005      -5.09273477E-08
   30.3299999      -5.04820363E-08
   30.3899994      -4.97120531E-08
   30.4500008      -4.86102607E-08
   30.5100002      -4.71827555E-08
   30.5699997      -4.54504274E-08
   30.6299992      -4.34465797E-08
   30.6900005      -4.12112513E-08
   30.7500000      -3.87840302E-08
   30.8099995      -3.61971573E-08
   30.8700008      -3.34709469E-08
   30.9300003      -3.06125614E-08
   30.9899998      -2.76187713E-08
   31.0499992      -2.44819685E-08
   31.1100006      -2.11979980E-08
   31.1700001      -1.77735107E-08
   31.2299995      -1.42305012E-08
   31.2900009      -1.06063203E-08
   31.3500004      -6.94886104E-09
   31.4099998      -3.30819128E-09
   31.4699993       2.72741191E-10
   31.5300007       3.76529652E-09
   31.5900002       7.15779169E-09
   31.6499996       1.04526929E-08
   31.7099991       1.36592595E-08
   31.7700005       1.67840604E-08
   31.8299999       1.98225063E-08
   31.8899994       2.27542056E-08
   31.9500008       2.55437733E-08
   32.0099983       2.81469728E-08
   32.0699997       3.05203933E-08
   32.1300011       3.26316680E-08
   32.1899986       3.44668152E-08
   32.2500000       3.60322154E-08
   32.3100014       3.73501408E-08
   32.3699989       3.84490590E-08
   32.4300003       3.93516295E-08
   32.4900017       4.00644460E-08
   32.5499992       4.05731448E-08
   32.6100006       4.08449345E-08
   32.6699982       4.08380529E-08
   32.7299995       4.05152534E-08
   32.7900009       3.98567614E-08
   32.8499985       3.88682935E-08
   32.9099998       3.75811879E-08
   32.9700012       3.60444581E-08
   33.0299988       3.43113804E-08
   33.0900002       3.24251097E-08
   33.1500015       3.04081880E-08
   33.2099991       2.82593735E-08
   33.2700005       2.59587978E-08
   33.3300018       2.34794886E-08
   33.3899994       2.08014459E-08
   33.4500008       1.79235080E-08
   33.5099983       1.48693102E-08
   33.5699997       1.16854268E-08
   33.6300011       8.43237835E-09
   33.6899986       5.17135224E-09
   33.7500000       1.95075578E-09
   33.8100014      -1.20322918E-09
   33.8699989      -4.28914149E-09
   33.9300003      -7.32496552E-09
   33.9900017      -1.03367181E-08
   34.0499992      -1.33445335E-08
   34.1100006      -1.63507767E-08
   34.1699982      -1.93341716E-08
   34.2299995      -2.22518839E-08
   34.2900009      -2.50489087E-08
   34.3499985      -2.76714918E-08
   34.4099998      -3.00799563E-08
   34.4700012      -3.22565690E-08
   34.5299988      -3.42058755E-08
   34.5900002      -3.59475649E-08
   34.6500015      -3.75046731E-08
   34.7099991      -3.88912298E-08
   34.7700005      -4.01038101E-08
   34.8300018      -4.11197512E-08
   34.8899994      -4.19027764E-08
   34.9500008      -4.24140296E-08
   35.0099983      -4.26249223E-08
   35.0699997      -4.25273967E-08
   35.1300011      -4.21382111E-08
   35.1899986      -4.14955892E-08
   35.2500000      -4.06492333E-08
   35.3100014      -3.96469311E-08
   35.3699989      -3.85221526E-08
   35.4300003      -3.72868563E-08
   35.4900017      -3.59318406E-08
   35.5499992      -3.44345210E-08
   35.6100006      -3.27712790E-08
   35.6699982      -3.09301704E-08
   35.7299995      -2.89196240E-08
   35.7900009      -2.67703886E-08
   35.8499985      -2.45302250E-08
   35.9099998      -2.22534382E-08
   35.9700012      -1.99888017E-08
   36.0299988      -1.77698283E-08
   36.0900002      -1.56104409E-08
   36.1500015      -1.35071163E-08
   36.2099991      -1.14466330E-08
   36.2700005      -9.41661238E-09
   36.3300018      -7.41533857E-09
   36.3899994      -5.45749534E-09
   36.4500008      -3.57388696E-09
   36.5099983      -1.80517989E-09
   36.5699997      -1.91776553E-10
   36.6300011       1.23670940E-09
   36.6899986       2.46871634E-09
   36.7500000       3.51219920E-09
   36.8100014       4.38981074E-09
   36.8699989       5.12953768E-09
   36.9300003       5.75414782E-09
   36.9900017       6.27314645E-09
   37.0499992       6.67997480E-09
   37.1100006       6.95523772E-09
   37.1699982       7.07461867E-09
   37.2299995       7.01854042E-09
   37.2900009       6.78018175E-09
   37.3499985       6.36916253E-09
   37.4099998       5.80979576E-09
   37.4700012       5.13473175E-09
   37.5299988       4.37628644E-09
   37.5900002       3.55846597E-09
   37.6500015       2.69235101E-09
   37.7099991       1.77630566E-09
   37.7700005       8.00845890E-10
   37.8300018      -2.43564141E-10
   37.8899994      -1.35848011E-09
   37.9500008      -2.53198706E-09
   38.0099983      -3.73768838E-09
   38.0699997      -4.93862595E-09
   38.1300011      -6.09492190E-09
   38.1899986      -7.17265358E-09
   38.2500000      -8.15103451E-09
   38.3100014      -9.02553765E-09
   38.3699989      -9.80600934E-09
   38.4300003      -1.05105746E-08
   38.4900017      -1.11576437E-08
   38.5499992      -1.17589334E-08
   38.6100006      -1.23160042E-08
   38.6699982      -1.28214221E-08
   38.7299995      -1.32639126E-08
   38.7900009      -1.36353995E-08
   38.8499985      -1.39371954E-08
   38.9099998      -1.41830787E-08
   38.9700012      -1.43982284E-08
   39.0299988      -1.46145593E-08
   39.0900002      -1.48643062E-08
   39.1500015      -1.51741411E-08
   39.2099991      -1.55617403E-08
   39.2700005      -1.60356741E-08
   39.3300018      -1.65981717E-08
   39.3899994      -1.72492598E-08
   39.4500008      -1.79904145E-08
   39.5099983      -1.88261104E-08
   39.5699997      -1.97626129E-08
   39.6300011      -2.08045385E-08
   39.6899986      -2.19506049E-08
   39.7500000      -2.31904789E-08
   39.8100014      -2.45041232E-08
   39.8699989      -2.58642423E-08
   39.9300003      -2.72410432E-08
   39.9900017      -2.86076496E-08
   40.0499992      -2.99441361E-08
   40.1100006      -3.12387272E-08
   40.1699982      -3.24856870E-08
   40.2299995      -3.36807844E-08
   40.2900009      -3.48161464E-08
   40.3499985      -3.58764218E-08
   40.4099998      -3.68378927E-08
   40.4700012      -3.76708655E-08
   40.5299988      -3.83445915E-08
   40.5900002      -3.88330861E-08
   40.6500015      -3.91197936E-08
   40.7099991      -3.91995130E-08
   40.7700005      -3.90769692E-08
   40.8300018      -3.87625931E-08
   40.8899994      -3.82670571E-08
   40.9500008      -3.75966955E-08
   41.0099983      -3.67515121E-08
   41.0699997      -3.57265861E-08
   41.1300011      -3.45163151E-08
   41.1899986      -3.31198144E-08
   41.2500000      -3.15452624E-08
   41.3100014      -2.98114209E-08
   41.3699989      -2.79455126E-08
   41.4300003      -2.59781263E-08
   41.4900017      -2.39367335E-08
   41.5499992      -2.18399467E-08
   41.6100006      -1.96942977E-08
   41.6699982      -1.74943580E-08
   41.7299995      -1.52261084E-08
   41.7900009      -1.28724711E-08
   41.8499985      -1.04194511E-08
   41.9099998      -7.86122367E-09
   41.9700012      -5.20284482E-09
   42.0299988      -2.45989251E-09
   42.0900002       3.44791667E-10
   42.1500015       3.18623439E-09
   42.2099991       6.04265216E-09
   42.2700005       8.89914009E-09
   42.3300018       1.17483880E-08
   42.3899994       1.45881502E-08
   42.4500008       1.74164398E-08
   42.5099983       2.02263575E-08
   42.5699997       2.30026878E-08
   42.6300011       2.57217518E-08
   42.6899986       2.83546893E-08
   42.7500000       3.08730570E-08
   42.8100014       3.32546151E-08
   42.8699989       3.54872540E-08
   42.9300003       3.75697873E-08
   42.9900017       3.95094517E-08
   43.0499992       4.13173176E-08
   43.1100006       4.30033857E-08
   43.1699982       4.45730173E-08
   43.2299995       4.60257894E-08
   43.2900009       4.73568633E-08
   43.3499985       4.85600573E-08
   43.4099998       4.96314030E-08
   43.4700012       5.05718880E-08
   43.5299988       5.13885787E-08
   43.5900002       5.20938173E-08
   43.6500015       5.27029513E-08
   43.7099991       5.32313180E-08
   43.7700005       5.36916005E-08
   43.8300018       5.40922507E-08
   43.8899994       5.44375069E-08
   43.9500008       5.47287300E-08
   44.0099983       5.49664598E-08
   44.0699997       5.51522703E-08
   44.1300011       5.52895685E-08
   44.1899986       5.53830155E-08
   44.2500000       5.54368391E-08
   44.3100014       5.54527624E-08
   44.3699989       5.54285045E-08
   44.4300003       5.53574502E-08
   44.4900017       5.52296875E-08
   44.5499992       5.50337909E-08
   44.6100006       5.47587398E-08
   44.6699982       5.43951906E-08
   44.7299995       5.39358744E-08
   44.7900009       5.33752775E-08
   44.8499985       5.27090194E-08
   44.9099998       5.19332950E-08
   44.9700012       5.10445943E-08
   45.0299988       5.00396631E-08
   45.0900002       4.89156164E-08
   45.1500015       4.76702553E-08
   45.2099991       4.63026097E-08
   45.2700005       4.48136745E-08
   45.3300018       4.32071126E-08
   45.3899994       4.14894927E-08
   45.4500008       3.96696436E-08
   45.5099983       3.77572249E-08
   45.5699997       3.57609871E-08
   45.6300011       3.36876376E-08
   45.6899986       3.15421111E-08
   45.7500000       2.93292821E-08
   45.8100014       2.70564087E-08
   45.8699989       2.47350087E-08
   45.9300003       2.23809380E-08
   45.9900017       2.00122834E-08
   46.0499992       1.76457693E-08
   46.1100006       1.52931534E-08
   46.1699982       1.29592230E-08
   46.2299995       1.06422577E-08
   46.2900009       8.33681657E-09
   46.3499985       6.03773431E-09
   46.4099998       3.74386566E-09
   46.4700012       1.46041368E-09
   46.5299988      -8.00660149E-10
   46.5900002      -3.02191761E-09
   46.6500015      -5.18277332E-09
   46.7099991      -7.26208604E-09
   46.7700005      -9.24034715E-09
   46.8300018      -1.11010028E-08
   46.8899994      -1.28306850E-08
   46.9500008      -1.44183963E-08
   47.0099983      -1.58540310E-08
   47.0699997      -1.71268404E-08
   47.1300011      -1.82246005E-08
   47.1899986      -1.91339868E-08
   47.2500000      -1.98422185E-08
   47.3100014      -2.03395327E-08
   47.3699989      -2.06216288E-08
   47.4300003      -2.06912460E-08
   47.4900017      -2.05583230E-08
   47.5499992      -2.02385486E-08
   47.6100006      -1.97506402E-08
   47.6699982      -1.91129388E-08
   47.7299995      -1.83400157E-08
   47.7900009      -1.74401951E-08
   47.8499985      -1.64147167E-08
   47.9099998      -1.52590989E-08
   47.9700012      -1.39666705E-08
   48.0299988      -1.25335049E-08
   48.0900002      -1.09633422E-08
   48.1500015      -9.27078592E-09
   48.2099991      -7.48150697E-09
   48.2700005      -5.62918245E-09
   48.3300018      -3.75003362E-09
   48.3899994      -1.87671323E-09
   48.4500008      -3.34010909E-11
   48.5099983       1.76659576E-09
   48.5699997       3.52037666E-09
   48.6300011       5.23262988E-09
   48.6899986       6.91146340E-09
   48.7500000       8.56396110E-09
   48.8100014       1.01923909E-08
   48.8699989       1.17918200E-08
   48.9300003       1.33496663E-08
   48.9900017       1.48474282E-08
   49.0499992       1.62642309E-08
   49.1100006       1.75811898E-08
   49.1699982       1.87850180E-08
   49.2299995       1.98694359E-08
   49.2900009       2.08337116E-08
   49.3499985       2.16788614E-08
   49.4099998       2.24032579E-08
   49.4700012       2.29996555E-08
   49.5299988       2.34551258E-08
   49.5900002       2.37539997E-08
   49.6500015       2.38825635E-08
   49.7099991       2.38335254E-08
   49.7700005       2.36084485E-08
   49.8300018       2.32173569E-08
   49.8899994       2.26758594E-08
   49.9500008       2.20010001E-08
   50.0099983       2.12072067E-08
   50.0699997       2.03034105E-08
   50.1300011       1.92919174E-08
   50.1899986       1.81691320E-08
   50.2500000       1.69280074E-08
   50.3100014       1.55616533E-08
   50.3699989       1.40673677E-08
   50.4300003       1.24499779E-08
   50.4900017       1.07233911E-08
   50.5499992       8.90969964E-09
   50.6100006       7.03598380E-09