 -0.750000000       0.00000000    
 -0.689999998       0.00000000    
 -0.629999995       0.00000000    
 -0.569999993       0.00000000    
 -0.509999990       0.00000000    
 -0.449999988       4.18917931E-20
 -0.389999986       3.35655908E-19
 -0.330000013       1.30450539E-18
 -0.270000011       3.02000230E-18
 -0.209999993       3.60692065E-18
 -0.150000006      -2.38086569E-18
  -9.00000036E-02  -2.22941123E-17
  -2.99999993E-02  -5.67614645E-17
   2.99999993E-02  -8.57210578E-17
   9.00000036E-02  -6.11793369E-17
  0.150000006       7.42768552E-17
  0.209999993       3.33949860E-16
  0.270000011       6.20522891E-16
  0.330000013       7.04621827E-16
  0.389999986       3.11034548E-16
  0.449999988      -6.81172197E-16
  0.509999990      -2.02211710E-15
  0.569999993      -3.03654916E-15
  0.629999995      -2.87683835E-15
  0.689999998      -1.04702738E-15
  0.750000000       2.08675397E-15
  0.810000002       5.21340436E-15
  0.870000005       6.67565766E-15
  0.930000007       5.55823571E-15
  0.990000010       2.58765008E-15
   1.04999995       2.91927788E-17
   1.11000001       2.39050380E-16
   1.16999996       3.48121478E-15
   1.23000002       6.48478302E-15
   1.28999996       3.28227639E-15
   1.35000002      -1.12310809E-14
   1.40999997      -3.64588053E-14
   1.47000003      -6.29911298E-14
   1.52999997      -7.42291292E-14
   1.59000003      -5.36550683E-14
   1.64999998       4.80039829E-15
   1.71000004       8.87700015E-14
   1.76999998       1.67625625E-13
   1.83000004       2.03336209E-13
   1.88999999       1.68756854E-13
   1.95000005       6.47480116E-14
   2.00999999      -7.40304424E-14
   2.06999993      -1.90694086E-13
   2.13000011      -2.32454328E-13
   2.19000006      -1.79907467E-13
   2.25000000      -6.31350779E-14
   2.30999994       4.75234442E-14
   2.36999989       7.62002223E-14
   2.43000007      -1.28750211E-14
   2.49000001      -1.83184888E-13
   2.54999995      -3.29462992E-13
   2.60999990      -3.23935486E-13
   2.67000008      -8.93055839E-14
   2.73000002       3.36806212E-13
   2.78999996       7.85288772E-13
   2.84999990       1.00915858E-12
   2.91000009       7.96366228E-13
   2.97000003       9.58521660E-14
   3.02999997      -9.06921727E-13
   3.08999991      -1.81627651E-12
   3.15000010      -2.16368980E-12
   3.21000004      -1.61049180E-12
   3.26999998      -1.28959059E-13
   3.32999992       1.92866816E-12
   3.39000010       3.92184375E-12
   3.45000005       5.15041568E-12
   3.50999999       5.12716388E-12
   3.56999993       3.77020594E-12
   3.63000011       1.41960629E-12
   3.69000006      -1.33799753E-12
   3.75000000      -3.95768444E-12
   3.80999994      -6.19443342E-12
   3.86999989      -8.19120292E-12
   3.93000007      -1.03317025E-11
   3.99000001      -1.29079828E-11
   4.05000019      -1.57546476E-11
   4.11000013      -1.80381907E-11
   4.17000008      -1.83385668E-11
   4.23000002      -1.50394038E-11
   4.28999996      -6.90633314E-12
   4.34999990       6.35722941E-12
   4.40999985       2.37874078E-11
   4.46999979       4.31893341E-11
   4.53000021       6.14957529E-11
   4.59000015       7.53046583E-11
   4.65000010       8.13918932E-11
   4.71000004       7.70368491E-11
   4.76999998       6.01142469E-11
   4.82999992       2.90358935E-11
   4.88999987      -1.72942164E-11
   4.94999981      -7.93575136E-11
   5.01000023      -1.56674534E-10
   5.07000017      -2.47315390E-10
   5.13000011      -3.47459006E-10
   5.19000006      -4.51225723E-10
   5.25000000      -5.50939516E-10
   5.30999994      -6.37838449E-10
   5.36999989      -7.03097913E-10
   5.42999983      -7.38922645E-10
   5.48999977      -7.39446226E-10
   5.55000019      -7.01240843E-10
   5.61000013      -6.23369800E-10
   5.67000008      -5.07053399E-10
   5.73000002      -3.55115742E-10
   5.78999996      -1.71418074E-10
   5.84999990       3.95599387E-11
   5.90999985       2.72922712E-10
   5.96999979       5.23398602E-10
   6.03000021       7.85366328E-10
   6.09000015       1.05305020E-09
   6.15000010       1.32101252E-09
   6.21000004       1.58493429E-09
   6.26999998       1.84250171E-09
   6.32999992       2.09409179E-09
   6.38999987       2.34292674E-09
   6.44999981       2.59450861E-09
   6.51000023       2.85538326E-09
   6.57000017       3.13156212E-09
   6.63000011       3.42708040E-09
   6.69000006       3.74315157E-09
   6.75000000       4.07812717E-09
   6.80999994       4.42815651E-09
   6.86999989       4.78813034E-09
   6.92999983       5.15241094E-09
   6.98999977       5.51499335E-09
   7.05000019       5.86908566E-09
   7.11000013       6.20643226E-09
   7.17000008       6.51692211E-09
   7.23000002       6.78894452E-09
   7.28999996       7.01065472E-09
   7.34999990       7.17188176E-09
   7.40999985       7.26608507E-09
   7.46999979       7.29169480E-09
   7.53000021       7.25234450E-09
   7.59000015       7.15593496E-09
   7.65000010       7.01289693E-09
   7.71000004       6.83429580E-09
   7.76999998       6.63040733E-09
   7.82999992       6.41015863E-09
   7.88999987       6.18139806E-09
   7.94999981       5.95161831E-09
   8.01000023       5.72857939E-09
   8.06999969       5.52040147E-09
   8.13000011       5.33496802E-09
   8.18999958       5.17888443E-09
   8.25000000       5.05643172E-09
   8.31000042       4.96901364E-09
   8.36999989       4.91535257E-09
   8.43000031       4.89237229E-09
   8.48999977       4.89638552E-09
   8.55000019       4.92410024E-09
   8.60999966       4.97303843E-09
   8.67000008       5.04123721E-09
   8.72999954       5.12641041E-09
   8.78999996       5.22495824E-09
   8.85000038       5.33125677E-09
   8.90999985       5.43754419E-09
   8.97000027       5.53448576E-09
   9.02999973       5.61228974E-09
   9.09000015       5.66206548E-09
   9.14999962       5.67706993E-09
   9.21000004       5.65350033E-09
   9.27000046       5.59062663E-09
   9.32999992       5.49020296E-09
   9.39000034       5.35533795E-09
   9.44999981       5.18913623E-09
   9.51000023       4.99352737E-09
   9.56999969       4.76862061E-09
   9.63000011       4.51273596E-09
   9.68999958       4.22300017E-09
   9.75000000       3.89617894E-09
   9.81000042       3.52937146E-09
   9.86999989       3.12031068E-09
   9.93000031       2.66726463E-09
   9.98999977       2.16876894E-09
   10.0500002       1.62352987E-09
   10.1099997       1.03075881E-09
   10.1700001       3.90967175E-10
   10.2299995      -2.92996849E-10
   10.2900000      -1.01506026E-09
   10.3500004      -1.76558024E-09
   10.4099998      -2.53178500E-09
   10.4700003      -3.29900440E-09
   10.5299997      -4.05244327E-09
   10.5900002      -4.77906914E-09
   10.6499996      -5.46911227E-09
   10.7100000      -6.11674844E-09
   10.7700005      -6.71974565E-09
   10.8299999      -7.27816296E-09
   10.8900003      -7.79251064E-09
   10.9499998      -8.26198132E-09
   11.0100002      -8.68335714E-09
   11.0699997      -9.05093422E-09
   11.1300001      -9.35739664E-09
   11.1899996      -9.59527124E-09
   11.2500000      -9.75838876E-09
   11.3100004      -9.84298687E-09
   11.3699999      -9.84838699E-09
   11.4300003      -9.77742864E-09
   11.4899998      -9.63693392E-09
   11.5500002      -9.43817291E-09
   11.6099997      -9.19704757E-09
   11.6700001      -8.93347352E-09
   11.7299995      -8.66964012E-09
   11.7900000      -8.42729619E-09
   11.8500004      -8.22476931E-09
   11.9099998      -8.07466716E-09
   11.9700003      -7.98303113E-09
   12.0299997      -7.95008681E-09
   12.0900002      -7.97206390E-09
   12.1499996      -8.04315547E-09
   12.2100000      -8.15680679E-09
   12.2700005      -8.30604030E-09
   12.3299999      -8.48312620E-09
   12.3900003      -8.67923688E-09
   12.4499998      -8.88463347E-09
   12.5100002      -9.08952202E-09
   12.5699997      -9.28525523E-09
   12.6300001      -9.46543288E-09
   12.6899996      -9.62652447E-09
   12.7500000      -9.76798198E-09
   12.8100004      -9.89197435E-09
   12.8699999      -1.00028927E-08
   12.9300003      -1.01065796E-08
   12.9899998      -1.02091793E-08
   13.0500002      -1.03155982E-08
   13.1099997      -1.04279101E-08
   13.1700001      -1.05443370E-08
   13.2299995      -1.06594067E-08
   13.2900000      -1.07654605E-08
   13.3500004      -1.08550227E-08
   13.4099998      -1.09230269E-08
   13.4700003      -1.09678941E-08
   13.5299997      -1.09910099E-08
   13.5900002      -1.09949250E-08
   13.6499996      -1.09812364E-08
   13.7100000      -1.09491403E-08
   13.7700005      -1.08951399E-08
   13.8299999      -1.08137135E-08
   13.8900003      -1.06982680E-08
   13.9499998      -1.05418030E-08
   14.0100002      -1.03372102E-08
   14.0699997      -1.00776054E-08
   14.1300001      -9.75723591E-09
   14.1899996      -9.37307298E-09
   14.2500000      -8.92656171E-09
   14.3100004      -8.42460146E-09
   14.3699999      -7.87898369E-09
   14.4300003      -7.30427496E-09
   14.4899998      -6.71493039E-09
   14.5500002      -6.12291107E-09
   14.6099997      -5.53675328E-09
   14.6700001      -4.96221553E-09
   14.7299995      -4.40376091E-09
   14.7900000      -3.86578769E-09
   14.8500004      -3.35288441E-09
   14.9099998      -2.86922019E-09
   14.9700003      -2.41786902E-09
   15.0299997      -2.00093520E-09
   15.0900002      -1.62074387E-09
   15.1499996      -1.28147726E-09
   15.2100000      -9.90105664E-10
   15.2700005      -7.55686680E-10
   15.3299999      -5.86993232E-10
   15.3900003      -4.89459917E-10
   15.4499998      -4.62927613E-10
   15.5100002      -5.01305941E-10
   15.5699997      -5.94249705E-10
   15.6300001      -7.29883820E-10
   15.6899996      -8.97153352E-10
   15.7500000      -1.08676679E-09
   15.8100004      -1.29065747E-09
   15.8699999      -1.50078638E-09
   15.9300003      -1.70836600E-09
   15.9899998      -1.90410332E-09
   16.0499992      -2.07920747E-09
   16.1100006      -2.22628627E-09
   16.1700001      -2.33933983E-09
   16.2299995      -2.41274112E-09
   16.2900009      -2.43995313E-09
   16.3500004      -2.41307374E-09
   16.4099998      -2.32390329E-09
   16.4699993      -2.16623675E-09
   16.5300007      -1.93818361E-09
   16.5900002      -1.64307956E-09
   16.6499996      -1.28824307E-09
   16.7099991      -8.82045936E-10
   16.7700005      -4.30790709E-10
   16.8299999       6.29124877E-11
   16.8899994       5.99390759E-10
   16.9500008       1.17924681E-09
   17.0100002       1.80037074E-09
   17.0699997       2.45640086E-09
   17.1299992       3.13757886E-09
   17.1900005       3.83355259E-09
   17.2500000       4.53657201E-09
   17.3099995       5.24330801E-09
   17.3700008       5.95434635E-09
   17.4300003       6.67174316E-09
   17.4899998       7.39612904E-09
   17.5499992       8.12504197E-09
   17.6100006       8.85341844E-09
   17.6700001       9.57585744E-09
   17.7299995       1.02892441E-08
   17.7900009       1.09940599E-08
   17.8500004       1.16934045E-08
   17.9099998       1.23899895E-08
   17.9699993       1.30824596E-08
   18.0300007       1.37627936E-08
   18.0900002       1.44160923E-08
   18.1499996       1.50229802E-08
   18.2099991       1.55637725E-08
   18.2700005       1.60228630E-08
   18.3299999       1.63918816E-08
   18.3899994       1.66707164E-08
   18.4500008       1.68663732E-08
   18.5100002       1.69903362E-08
   18.5699997       1.70554788E-08
   18.6299992       1.70734271E-08
   18.6900005       1.70530239E-08
   18.7500000       1.70000529E-08
   18.8099995       1.69180385E-08
   18.8700008       1.68096772E-08
   18.9300003       1.66783121E-08
   18.9899998       1.65289542E-08
   19.0499992       1.63684586E-08
   19.1100006       1.62047300E-08
   19.1700001       1.60452025E-08
   19.2299995       1.58950346E-08
   19.2900009       1.57557274E-08
   19.3500004       1.56246394E-08
   19.4099998       1.54956759E-08
   19.4699993       1.53608948E-08
   19.5300007       1.52124535E-08
   19.5900002       1.50441846E-08
   19.6499996       1.48522865E-08
   19.7099991       1.46350301E-08
   19.7700005       1.43918424E-08
   19.8299999       1.41224090E-08
   19.8899994       1.38263552E-08
   19.9500008       1.35036453E-08
   20.0100002       1.31554048E-08
   20.0699997       1.27845450E-08
   20.1299992       1.23956658E-08
   20.1900005       1.19941035E-08
   20.2500000       1.15845129E-08
   20.3099995       1.11697060E-08
   20.3700008       1.07503881E-08
   20.4300003       1.03259845E-08
   20.4899998       9.89616922E-09
   20.5499992       9.46231360E-09
   20.6100006       9.02811692E-09
   20.6700001       8.59911164E-09
   20.7299995       8.18131163E-09
   20.7900009       7.77972087E-09
   20.8500004       7.39739603E-09
   20.9099998       7.03540559E-09
   20.9699993       6.69349909E-09
   21.0300007       6.37093045E-09
   21.0900002       6.06683992E-09
   21.1499996       5.77994319E-09
   21.2099991       5.50770096E-09
   21.2700005       5.24547072E-09
   21.3299999       4.98616570E-09
   21.3899994       4.72071093E-09
   21.4500008       4.43919523E-09
   21.5100002       4.13234558E-09
   21.5699997       3.79286114E-09
   21.6299992       3.41626816E-09
   21.6900005       3.00118197E-09
   21.7500000       2.54909271E-09
   21.8099995       2.06388950E-09
   21.8700008       1.55133706E-09
   21.9300003       1.01863484E-09
   21.9899998       4.74080997E-10
   22.0499992      -7.32285760E-11
   22.1100006      -6.13755102E-10
   22.1700001      -1.13799470E-09
   22.2299995      -1.63707314E-09
   22.2900009      -2.10337014E-09
   22.3500004      -2.53102761E-09
   22.4099998      -2.91621949E-09
   22.4699993      -3.25713456E-09
   22.5300007      -3.55374308E-09
   22.5900002      -3.80748055E-09
   22.6499996      -4.02097022E-09
   22.7099991      -4.19779989E-09
   22.7700005      -4.34226211E-09
   22.8299999      -4.45889725E-09
   22.8899994      -4.55177585E-09
   22.9500008      -4.62358418E-09
   23.0100002      -4.67476635E-09
   23.0699997      -4.70300732E-09
   23.1299992      -4.70325290E-09
   23.1900005      -4.66829331E-09
   23.2500000      -4.58970906E-09
   23.3099995      -4.45893455E-09
   23.3700008      -4.26821289E-09
   23.4300003      -4.01135258E-09
   23.4899998      -3.68429820E-09
   23.5499992      -3.28554584E-09
   23.6100006      -2.81639978E-09
   23.6700001      -2.28099761E-09
   23.7299995      -1.68605119E-09
   23.7900009      -1.04034004E-09
   23.8500004      -3.54101137E-10
   23.9099998       3.61498192E-10
   23.9699993       1.09468379E-09
   24.0300007       1.83324067E-09
   24.0900002       2.56471622E-09
   24.1499996       3.27689431E-09
   24.2099991       3.95864497E-09
   24.2700005       4.60102489E-09
   24.3299999       5.19827292E-09
   24.3899994       5.74825609E-09
   24.4500008       6.25203223E-09
   24.5100002       6.71250211E-09
   24.5699997       7.13247506E-09
   24.6299992       7.51274953E-09
   24.6900005       7.85090126E-09
   24.7500000       8.14123613E-09
   24.8099995       8.37598080E-09
   24.8700008       8.54728022E-09
   24.9300003       8.64918182E-09
   24.9899998       8.67878036E-09
   25.0499992       8.63598526E-09
   25.1100006       8.52200355E-09
   25.1700001       8.33726244E-09
   25.2299995       8.07979283E-09
   25.2900009       7.74496733E-09
   25.3500004       7.32682182E-09
   25.4099998       6.82039003E-09
   25.4699993       6.22395691E-09
   25.5300007       5.54010215E-09
   25.5900002       4.77505191E-09
   25.6499996       3.93669897E-09
   25.7099991       3.03236503E-09
   25.7700005       2.06747752E-09
   25.8299999       1.04579934E-09
   25.8899994      -2.90178645E-11
   25.9500008      -1.15150789E-09
   26.0100002      -2.31321517E-09
   26.0699997      -3.50292817E-09
   26.1299992      -4.70818140E-09
   26.1900005      -5.91719607E-09
   26.2500000      -7.12024706E-09
   26.3099995      -8.30980795E-09
   26.3700008      -9.47950074E-09
   26.4300003      -1.06224638E-08
   26.4899998      -1.17299699E-08
   26.5499992      -1.27908715E-08
   26.6100006      -1.37920386E-08
   26.6700001      -1.47195447E-08
   26.7299995      -1.55601825E-08
   26.7900009      -1.63029412E-08
   26.8500004      -1.69402359E-08
   26.9099998      -1.74686967E-08
   26.9699993      -1.78893860E-08
   27.0300007      -1.82072561E-08
   27.0900002      -1.84298479E-08
   27.1499996      -1.85654745E-08
   27.2099991      -1.86214155E-08
   27.2700005      -1.86027442E-08
   27.3299999      -1.85122175E-08
   27.3899994      -1.83512192E-08
   27.4500008      -1.81212627E-08
   27.5100002      -1.78252719E-08
   27.5699997      -1.74680217E-08
   27.6299992      -1.70554859E-08
   27.6900005      -1.65934342E-08
   27.7500000      -1.60859255E-08
   27.8099995      -1.55344555E-08
   27.8700008      -1.49382089E-08
   27.9300003      -1.42953507E-08
   27.9899998      -1.36049056E-08
   28.0499992      -1.28684476E-08
   28.1100006      -1.20909283E-08
   28.1700001      -1.12802310E-08
   28.2299995      -1.04455609E-08
   28.2900009      -9.59522239E-09
   28.3500004      -8.73460682E-09
   28.4099998      -7.86514232E-09
   28.4699993      -6.98458269E-09
   28.5300007      -6.08839823E-09
   28.5900002      -5.17158671E-09
   28.6499996      -4.23005853E-09
   28.7099991      -3.26105853E-09
   28.7700005      -2.26269048E-09
   28.8299999      -1.23316990E-09
   28.8899994      -1.70646303E-10
   28.9500008       9.25887644E-10
   29.0100002       2.05472950E-09
   29.0699997       3.20940829E-09
   29.1299992       4.37741221E-09
   29.1900005       5.54037438E-09
   29.2500000       6.67570488E-09
   29.3099995       7.75901476E-09
   29.3700008       8.76646311E-09
   29.4300003       9.67634683E-09
   29.4899998       1.04698419E-08
   29.5499992       1.11312142E-08
   29.6100006       1.16479795E-08
   29.6700001       1.20112960E-08
   29.7299995       1.22165407E-08
   29.7900009       1.22638610E-08
   29.8500004       1.21585400E-08
   29.9099998       1.19111778E-08
   29.9699993       1.15377601E-08
   30.0300007       1.10595426E-08
   30.0900002       1.05024389E-08
   30.1499996       9.89550308E-09
   30.2099991       9.26835764E-09
   30.2700005       8.64794458E-09
   30.3299999       8.05547629E-09
   30.3899994       7.50456319E-09
   30.4500008       7.00102687E-09
   30.5100002       6.54410570E-09
   30.5699997       6.12810336E-09
   30.6299992       5.74347059E-09
   30.6900005       5.37690381E-09
   30.7500000       5.01092945E-09
   30.8099995       4.62405492E-09
   30.8700008       4.19239443E-09
   30.9300003       3.69287889E-09
   30.9899998       3.10712389E-09
   31.0499992       2.42451015E-09
   31.1100006       1.64332725E-09
   31.1700001       7.69832309E-10
   31.2299995      -1.83850477E-10
   31.2900009      -1.20158761E-09
   31.3500004      -2.26384467E-09
   31.4099998      -3.34706041E-09
   31.4699993      -4.42279724E-09
   31.5300007      -5.45801182E-09
   31.5900002      -6.41726716E-09
   31.6499996      -7.26664240E-09
   31.7099991      -7.97810884E-09
   31.7700005      -8.53281712E-09
   31.8299999      -8.92220609E-09
   31.8899994      -9.14685572E-09
   31.9500008      -9.21392473E-09
   32.0099983      -9.13447185E-09
   32.0699997      -8.92167940E-09
   32.1300011      -8.59035509E-09
   32.1899986      -8.15729617E-09
   32.2500000      -7.64171393E-09
   32.3100014      -7.06497350E-09
   32.3699989      -6.44932685E-09
   32.4300003      -5.81590998E-09
   32.4900017      -5.18265475E-09
   32.5499992      -4.56289362E-09
   32.6100006      -3.96513533E-09
   32.6699982      -3.39404038E-09
   32.7299995      -2.85211632E-09
   32.7900009      -2.34140329E-09
   32.8499985      -1.86447702E-09
   32.9099998      -1.42448175E-09
   32.9700012      -1.02438535E-09
   33.0299988      -6.66008693E-10
   33.0900002      -3.49425489E-10
   33.1500015      -7.30490529E-11
   33.2099991       1.65693001E-10
   33.2700005       3.69502179E-10
   33.3300018       5.40605560E-10
   33.3899994       6.80597245E-10
   33.4500008       7.90600474E-10
   33.5099983       8.71451744E-10
   33.5699997       9.23688126E-10
   33.6300011       9.47377843E-10
   33.6899986       9.42053102E-10
   33.7500000       9.07005138E-10
   33.8100014       8.41968106E-10
   33.8699989       7.47899243E-10
   33.9300003       6.27400409E-10
   33.9900017       4.84440543E-10
   34.0499992       3.23389371E-10
   34.1100006       1.47735615E-10
   34.1699982      -4.09734295E-11
   34.2299995      -2.43565751E-10
   34.2900009      -4.62970856E-10
   34.3499985      -7.03479219E-10
   34.4099998      -9.69911373E-10
   34.4700012      -1.26698452E-09
   34.5299988      -1.59895663E-09
   34.5900002      -1.96943861E-09
   34.6500015      -2.38120479E-09
   34.7099991      -2.83589663E-09
   34.7700005      -3.33362959E-09
   34.8300018      -3.87260135E-09
   34.8899994      -4.44883153E-09
   34.9500008      -5.05613196E-09
   35.0099983      -5.68635850E-09
   35.0699997      -6.32989616E-09
   35.1300011      -6.97625380E-09
   35.1899986      -7.61455876E-09
   35.2500000      -8.23377011E-09
   35.3100014      -8.82258266E-09
   35.3699989      -9.36923517E-09
   35.4300003      -9.86163329E-09
   35.4900017      -1.02881828E-08
   35.5499992      -1.06394120E-08
   35.6100006      -1.09099485E-08
   35.6699982      -1.11000640E-08
   35.7299995      -1.12159508E-08
   35.7900009      -1.12683685E-08
   35.8499985      -1.12700427E-08
   35.9099998      -1.12327880E-08
   35.9700012      -1.11654765E-08
   36.0299988      -1.10734710E-08
   36.0900002      -1.09593747E-08
   36.1500015      -1.08242908E-08
   36.2099991      -1.06686660E-08
   36.2700005      -1.04922933E-08
   36.3300018      -1.02937463E-08
   36.3899994      -1.00700328E-08
   36.4500008      -9.81714976E-09
   36.5099983      -9.53163148E-09
   36.5699997      -9.21244769E-09
   36.6300011      -8.86220075E-09
   36.6899986      -8.48688408E-09
   36.7500000      -8.09416445E-09
   36.8100014      -7.69102027E-09
   36.8699989      -7.28191640E-09
   36.9300003      -6.86843782E-09
   36.9900017      -6.45051879E-09
   37.0499992      -6.02859096E-09
   37.1100006      -5.60550761E-09
   37.1699982      -5.18728616E-09
   37.2299995      -4.78232431E-09
   37.2900009      -4.39949943E-09
   37.3499985      -4.04601952E-09
   37.4099998      -3.72591691E-09
   37.4700012      -3.43966788E-09
   37.5299988      -3.18488236E-09
   37.5900002      -2.95755798E-09
   37.6500015      -2.75326761E-09
   37.7099991      -2.56780219E-09
   37.7700005      -2.39715536E-09
   37.8300018      -2.23707231E-09
   37.8899994      -2.08259254E-09
   37.9500008      -1.92797178E-09
   38.0099983      -1.76716708E-09
   38.0699997      -1.59476121E-09
   38.1300011      -1.40699208E-09
   38.1899986      -1.20249399E-09
   38.2500000      -9.82479320E-10
   38.3100014      -7.50331852E-10
   38.3699989      -5.10795128E-10
   38.4300003      -2.69051892E-10
   38.4900017      -2.99445156E-11
   38.5499992       2.02538916E-10
   38.6100006       4.25512153E-10
   38.6699982       6.37223441E-10
   38.7299995       8.36902325E-10
   38.7900009       1.02441866E-09
   38.8499985       1.19977128E-09
   38.9099998       1.36250788E-09
   38.9700012       1.51127066E-09
   39.0299988       1.64368152E-09
   39.0900002       1.75667891E-09
   39.1500015       1.84722015E-09
   39.2099991       1.91308458E-09
   39.2700005       1.95344962E-09
   39.3300018       1.96900674E-09
   39.3899994       1.96161709E-09
   39.4500008       1.93370542E-09
   39.5099983       1.88773153E-09
   39.5699997       1.82600390E-09
   39.6300011       1.75095105E-09
   39.6899986       1.66574887E-09
   39.7500000       1.57504820E-09
   39.8100014       1.48548396E-09
   39.8699989       1.40569789E-09
   39.9300003       1.34572864E-09
   39.9900017       1.31580413E-09
   40.0499992       1.32476841E-09
   40.1100006       1.37854739E-09
   40.1699982       1.47912671E-09
   40.2299995       1.62443969E-09
   40.2900009       1.80931348E-09
   40.3499985       2.02725259E-09
   40.4099998       2.27250729E-09
   40.4700012       2.54171550E-09
   40.5299988       2.83452550E-09
   40.5900002       3.15299253E-09
   40.6500015       3.50005114E-09
   40.7099991       3.87774213E-09
   40.7700005       4.28600666E-09
   40.8300018       4.72259698E-09
   40.8899994       5.18417931E-09
   40.9500008       5.66812774E-09
   41.0099983       6.17419582E-09
   41.0699997       6.70524969E-09
   41.1300011       7.26663840E-09
   41.1899986       7.86434384E-09
   41.2500000       8.50256932E-09
   41.3100014       9.18166787E-09
   41.3699989       9.89714888E-09
   41.4300003       1.06400488E-08
   41.4900017       1.13984386E-08
   41.5499992       1.21594148E-08
   41.6100006       1.29108741E-08
   41.6699982       1.36425724E-08
   41.7299995       1.43463348E-08
   41.7900009       1.50156438E-08
   41.8499985       1.56450444E-08
   41.9099998       1.62297500E-08
   41.9700012       1.67657195E-08
   42.0299988       1.72502297E-08
   42.0900002       1.76827193E-08
   42.1500015       1.80656112E-08
   42.2099991       1.84046307E-08
   42.2700005       1.87082829E-08
   42.3300018       1.89863147E-08
   42.3899994       1.92474143E-08
   42.4500008       1.94967402E-08
   42.5099983       1.97341361E-08
   42.5699997       1.99538377E-08
   42.6300011       2.01459027E-08
   42.6899986       2.02989732E-08
   42.7500000       2.04034105E-08
   42.8100014       2.04536299E-08
   42.8699989       2.04489119E-08
   42.9300003       2.03925712E-08
   42.9900017       2.02901251E-08
   43.0499992       2.01473309E-08
   43.1100006       1.99688142E-08
   43.1699982       1.97575041E-08
   43.2299995       1.95145944E-08
   43.2900009       1.92396996E-08
   43.3499985       1.89310274E-08
   43.4099998       1.85857356E-08
   43.4700012       1.82008080E-08
   43.5299988       1.77744361E-08
   43.5900002       1.73075332E-08
   43.6500015       1.68046004E-08
   43.7099991       1.62733063E-08
   43.7700005       1.57228026E-08
   43.8300018       1.51614472E-08
   43.8899994       1.45950798E-08
   43.9500008       1.40267504E-08
   44.0099983       1.34580063E-08
   44.0699997       1.28908759E-08
   44.1300011       1.23293082E-08
   44.1899986       1.17790888E-08
   44.2500000       1.12461533E-08
   44.3100014       1.07341931E-08
   44.3699989       1.02428439E-08
   44.4300003       9.76742509E-09
   44.4900017       9.30031518E-09
   44.5499992       8.83320261E-09
   44.6100006       8.35915692E-09
   44.6699982       7.87382337E-09
   44.7299995       7.37574624E-09
   44.7900009       6.86638524E-09
   44.8499985       6.35034914E-09
   44.9099998       5.83586068E-09
   44.9700012       5.33485789E-09
   45.0299988       4.86197749E-09
   45.0900002       4.43213510E-09
   45.1500015       4.05732692E-09
   45.2099991       3.74396292E-09
   45.2700005       3.49207085E-09
   45.3300018       3.29687966E-09
   45.3899994       3.15208371E-09
   45.4500008       3.05314884E-09
   45.5099983       2.99895642E-09
   45.5699997       2.99097724E-09
   45.6300011       3.03051495E-09
   45.6899986       3.11563286E-09
   45.7500000       3.23956617E-09
   45.8100014       3.39160411E-09
   45.8699989       3.56009799E-09
   45.9300003       3.73611497E-09
   45.9900017       3.91591826E-09
   46.0499992       4.10107015E-09
   46.1100006       4.29614655E-09
   46.1699982       4.50521132E-09
   46.2299995       4.72872452E-09
   46.2900009       4.96230701E-09
   46.3499985       5.19788745E-09
   46.4099998       5.42671019E-09
   46.4700012       5.64294655E-09
   46.5299988       5.84650195E-09
   46.5900002       6.04398576E-09
   46.6500015       6.24754914E-09
   46.7099991       6.47205800E-09
   46.7700005       6.73157130E-09
   46.8300018       7.03623027E-09
   46.8899994       7.39042427E-09
   46.9500008       7.79256304E-09
   47.0099983       8.23621438E-09
   47.0699997       8.71190231E-09
   47.1300011       9.20872179E-09
   47.1899986       9.71515046E-09
   47.2500000       1.02188880E-08
   47.3100014       1.07061142E-08
   47.3699989       1.11608855E-08
   47.4300003       1.15653735E-08
   47.4900017       1.19013013E-08
   47.5499992       1.21523511E-08
   47.6100006       1.23068018E-08
   47.6699982       1.23594681E-08
   47.7299995       1.23121948E-08
   47.7900009       1.21727064E-08
   47.8499985       1.19522214E-08
   47.9099998       1.16627223E-08
   47.9700012       1.13147927E-08
   48.0299988       1.09166649E-08
   48.0900002       1.04744666E-08
   48.1500015       9.99320893E-09
   48.2099991       9.47775280E-09
   48.2700005       8.93314667E-09
   48.3300018       8.36421776E-09
   48.3899994       7.77471598E-09
   48.4500008       7.16662862E-09
   48.5099983       6.54014354E-09
   48.5699997       5.89437033E-09
   48.6300011       5.22852650E-09
   48.6899986       4.54304105E-09
   48.7500000       3.84016596E-09
   48.8100014       3.12400705E-09
   48.8699989       2.40018982E-09
   48.9300003       1.67548109E-09
   48.9900017       9.57483537E-10
   49.0499992       2.54253341E-10
   49.1100006      -4.26451652E-10
   49.1699982      -1.07839149E-09
   49.2299995      -1.69821268E-09
   49.2900009      -2.28627561E-09
   49.3499985      -2.84625079E-09
   49.4099998      -3.38328277E-09
   49.4700012      -3.90128907E-09
   49.5299988      -4.40057235E-09
   49.5900002      -4.87695928E-09
   49.6500015      -5.32304156E-09
   49.7099991      -5.73103565E-09
   49.7700005      -6.09589490E-09
   49.8300018      -6.41710329E-09
   49.8899994      -6.69818112E-09
   49.9500008      -6.94409108E-09
   50.0099983      -7.15778059E-09
   50.0699997      -7.33752881E-09
   50.1300011      -7.47632090E-09
   50.1899986      -7.56349738E-09
   50.2500000      -7.58782459E-09
   50.3100014      -7.54062857E-09
   50.3699989      -7.41776152E-09
   50.4300003      -7.21987536E-09
   50.4900017      -6.95129287E-09
   50.5499992      -6.61827881E-09
   50.6100006      -6.22756513E-09