  -2.400000      0.0000000E+00
  -2.340000      0.0000000E+00
  -2.280000      0.0000000E+00
  -2.220000      0.0000000E+00
  -2.160000      0.0000000E+00
  -2.100000      4.8866002E-20
  -2.040000      3.8859048E-19
  -1.980000      1.4926946E-18
  -1.920000      3.3811922E-18
  -1.860000      3.7593696E-18
  -1.800000     -3.7661959E-18
  -1.740000     -2.7456212E-17
  -1.680000     -6.7021012E-17
  -1.620000     -9.7335693E-17
  -1.560000     -6.1023973E-17
  -1.500000      1.0754929E-16
  -1.440000      4.1692444E-16
  -1.380000      7.4018985E-16
  -1.320000      7.9500215E-16
  -1.260000      2.5688866E-16
  -1.200000     -9.9066221E-16
  -1.140000     -2.5944431E-15
  -1.080000     -3.6815321E-15
  -1.020000     -3.1994901E-15
 -0.9600000     -5.9319184E-16
 -0.9000000      3.5494640E-15
 -0.8400000      7.4133763E-15
 -0.7800000      8.7590745E-15
 -0.7200000      6.3655576E-15
 -0.6600000      1.2392285E-15
 -0.6000000     -3.4710129E-15
 -0.5400000     -4.3174104E-15
 -0.4800000     -4.0057128E-16
 -0.4200000      4.6609352E-15
 -0.3600000      3.6284647E-15
 -0.3000000     -9.9929364E-15
 -0.2400000     -3.5934461E-14
 -0.1800000     -6.3304003E-14
 -0.1200000     -7.2695586E-14
 -5.9999999E-02 -4.5346254E-14
  0.0000000E+00  2.4046957E-14
  5.9999999E-02  1.1794422E-13
  0.1200000      1.9732451E-13
  0.1800000      2.1662896E-13
  0.2400000      1.4749161E-13
  0.3000000     -3.5867610E-16
  0.3600000     -1.7417875E-13
  0.4200000     -2.9638488E-13
  0.4800000     -3.0110736E-13
  0.5400000     -1.7252313E-13
  0.6000000      3.6559477E-14
  0.6600000      2.2089046E-13
  0.7200000      2.7212230E-13
  0.7800000      1.4031917E-13
  0.8400000     -1.2491530E-13
  0.9000000     -3.8174515E-13
  0.9600000     -4.5853794E-13
   1.020000     -2.4840205E-13
   1.080000      2.1038729E-13
   1.140000      7.1671694E-13
   1.200000      9.7646782E-13
   1.260000      7.4216821E-13
   1.320000     -3.6802321E-14
   1.380000     -1.1309171E-12
   1.440000     -2.0722762E-12
   1.500000     -2.3262622E-12
   1.560000     -1.5325676E-12
   1.620000      2.9017939E-13
   1.680000      2.6806665E-12
   1.740000      4.8624451E-12
   1.800000      6.0266432E-12
   1.860000      5.6544162E-12
   1.920000      3.7326271E-12
   1.980000      7.5454302E-13
   2.040000     -2.5069042E-12
   2.100000     -5.3547934E-12
   2.160000     -7.4824105E-12
   2.220000     -9.0822645E-12
   2.280000     -1.0675291E-11
   2.340000     -1.2719947E-11
   2.400000     -1.5178317E-11
   2.460000     -1.7257999E-11
   2.520000     -1.7488847E-11
   2.580000     -1.4154134E-11
   2.640000     -5.9373006E-12
   2.700000      7.4591956E-12
   2.760000      2.4966812E-11
   2.820000      4.4212762E-11
   2.880000      6.1960923E-11
   2.940000      7.4750130E-11
   3.000000      7.9481428E-11
   3.060000      7.3754065E-11
   3.120000      5.5888995E-11
   3.180000      2.4741792E-11
   3.240000     -2.0484879E-11
   3.300000     -8.0219782E-11
   3.360000     -1.5419355E-10
   3.420000     -2.4087288E-10
   3.480000     -3.3688111E-10
   3.540000     -4.3668669E-10
   3.600000     -5.3277877E-10
   3.660000     -6.1638400E-10
   3.720000     -6.7858519E-10
   3.780000     -7.1155243E-10
   3.840000     -7.0955603E-10
   3.900000     -6.6950551E-10
   3.960000     -5.9092575E-10
   4.020000     -4.7546367E-10
   4.080000     -3.2616254E-10
   4.140000     -1.4678207E-10
   4.200000      5.8619637E-11
   4.260000      2.8577021E-10
   4.320000      5.3003352E-10
   4.380000      7.8625395E-10
   4.440000      1.0488522E-09
   4.500000      1.3123366E-09
   4.560000      1.5722064E-09
   4.620000      1.8260040E-09
   4.680000      2.0741240E-09
   4.740000      2.3200000E-09
   4.800000      2.5694575E-09
   4.860000      2.8293319E-09
   4.920000      3.1057410E-09
   4.980000      3.4025722E-09
   5.040000      3.7206649E-09
   5.100000      4.0578940E-09
   5.160000      4.4099813E-09
   5.220000      4.7715494E-09
   5.280000      5.1368736E-09
   5.340000      5.4999698E-09
   5.400000      5.8540484E-09
   5.460000      6.1907244E-09
   5.520000      6.4995915E-09
   5.580000      6.7686310E-09
   5.640000      6.9855979E-09
   5.700000      7.1400676E-09
   5.760000      7.2254882E-09
   5.820000      7.2405300E-09
   5.880000      7.1892581E-09
   5.940000      7.0800965E-09
   6.000000      6.9239992E-09
   6.060000      6.7324923E-09
   6.120000      6.5162471E-09
   6.180000      6.2845369E-09
   6.240000      6.0455303E-09
   6.300000      5.8070251E-09
   6.360000      5.5770646E-09
   6.420000      5.3640106E-09
   6.480000      5.1759410E-09
   6.540000      5.0196038E-09
   6.600000      4.8993800E-09
   6.660000      4.8167337E-09
   6.720000      4.7704050E-09
   6.780000      4.7572835E-09
   6.840000      4.7735980E-09
   6.900000      4.8159299E-09
   6.960000      4.8816546E-09
   7.020000      4.9686553E-09
   7.080000      5.0744755E-09
   7.140000      5.1952913E-09
   7.200000      5.3251394E-09
   7.260000      5.4557496E-09
   7.320000      5.5771010E-09
   7.380000      5.6785776E-09
   7.440000      5.7504321E-09
   7.500000      5.7851439E-09
   7.560000      5.7783027E-09
   7.620000      5.7287659E-09
   7.680000      5.6380456E-09
   7.740000      5.5091047E-09
   7.800000      5.3449454E-09
   7.860000      5.1474238E-09
   7.920000      4.9166524E-09
   7.980000      4.6511106E-09
   8.040000      4.3482986E-09
   8.100000      4.0055781E-09
   8.160000      3.6208014E-09
   8.220000      3.1925076E-09
   8.280000      2.7197300E-09
   8.340000      2.2017015E-09
   8.400000      1.6378126E-09
   8.460000      1.0280480E-09
   8.520000      3.7386585E-10
   8.580000     -3.2077707E-10
   8.640000     -1.0486759E-09
   8.700000     -1.7992640E-09
   8.760000     -2.5592919E-09
   8.820000     -3.3142011E-09
   8.880000     -4.0498795E-09
   8.940000     -4.7543760E-09
   9.000000     -5.4191620E-09
   9.060000     -6.0396146E-09
   9.120000     -6.6145884E-09
   9.180000     -7.1451680E-09
   9.240000     -7.6329423E-09
   9.300000     -8.0782963E-09
   9.360000     -8.4792520E-09
   9.420000     -8.8311793E-09
   9.480000     -9.1274339E-09
   9.540000     -9.3606207E-09
   9.600000     -9.5240607E-09
   9.660000     -9.6130925E-09
   9.720000     -9.6260324E-09
   9.780000     -9.5648991E-09
   9.840000     -9.4359791E-09
   9.900000     -9.2502432E-09
   9.960000     -9.0233199E-09
   10.02000     -8.7746663E-09
   10.08000     -8.5257108E-09
   10.14000     -8.2971967E-09
   10.20000     -8.1063689E-09
   10.26000     -7.9649052E-09
   10.32000     -7.8782403E-09
   10.38000     -7.8463991E-09
   10.44000     -7.8657889E-09
   10.50000     -7.9310949E-09
   10.56000     -8.0364906E-09
   10.62000     -8.1759008E-09
   10.68000     -8.3426119E-09
   10.74000     -8.5288336E-09
   10.80000     -8.7257526E-09
   10.86000     -8.9242356E-09
   10.92000     -9.1159338E-09
   10.98000     -9.2943653E-09
   11.04000     -9.4556363E-09
   11.10000     -9.5987245E-09
   11.16000     -9.7253805E-09
   11.22000     -9.8397077E-09
   11.28000     -9.9473736E-09
   11.34000     -1.0054348E-08
   11.40000     -1.0165254E-08
   11.46000     -1.0281762E-08
   11.52000     -1.0401667E-08
   11.58000     -1.0519229E-08
   11.64000     -1.0626853E-08
   11.70000     -1.0717502E-08
   11.76000     -1.0786797E-08
   11.82000     -1.0833829E-08
   11.88000     -1.0860337E-08
   11.94000     -1.0868716E-08
   12.00000     -1.0859909E-08
   12.06000     -1.0832161E-08
   12.12000     -1.0781054E-08
   12.18000     -1.0700448E-08
   12.24000     -1.0583578E-08
   12.30000     -1.0423680E-08
   12.36000     -1.0214104E-08
   12.42000     -9.9484456E-09
   12.48000     -9.6213002E-09
   12.54000     -9.2298231E-09
   12.60000     -8.7755403E-09
   12.66000     -8.2654221E-09
   12.72000     -7.7114164E-09
   12.78000     -7.1283544E-09
   12.84000     -6.5310752E-09
   12.90000     -5.9320162E-09
   12.96000     -5.3402340E-09
   13.02000     -4.7619819E-09
   13.08000     -4.2020840E-09
   13.14000     -3.6650423E-09
   13.20000     -3.1552030E-09
   13.26000     -2.6761517E-09
   13.32000     -2.2301569E-09
   13.38000     -1.8185081E-09
   13.44000     -1.4429183E-09
   13.50000     -1.1072776E-09
   13.56000     -8.1854323E-10
   13.62000     -5.8586347E-10
   13.68000     -4.1799858E-10
   13.74000     -3.2014874E-10
   13.80000     -2.9174954E-10
   13.86000     -3.2633979E-10
   13.92000     -4.1349804E-10
   13.98000     -5.4174537E-10
   14.04000     -7.0089357E-10
   14.10000     -8.8279767E-10
   14.16000     -1.0805244E-09
   14.22000     -1.2868828E-09
   14.28000     -1.4935070E-09
   14.34000     -1.6911237E-09
   14.40000     -1.8706989E-09
   14.46000     -2.0245001E-09
   14.52000     -2.1461848E-09
   14.58000     -2.2297746E-09
   14.64000     -2.2682793E-09
   14.70000     -2.2531428E-09
   14.76000     -2.1752791E-09
   14.82000     -2.0274540E-09
   14.88000     -1.8067988E-09
   14.94000     -1.5159674E-09
   15.00000     -1.1620888E-09
   15.06000     -7.5390155E-10
   15.12000     -2.9852629E-10
   15.18000      2.0040410E-10
   15.24000      7.4228229E-10
   15.30000      1.3270856E-09
   15.36000      1.9524402E-09
   15.42000      2.6119518E-09
   15.48000      3.2958061E-09
   15.54000      3.9933394E-09
   15.60000      4.6961475E-09
   15.66000      5.4000329E-09
   15.72000      6.1048055E-09
   15.78000      6.8121908E-09
   15.84000      7.5231750E-09
   15.90000      8.2363503E-09
   15.96000      8.9481560E-09
   16.02000      9.6547570E-09
   16.08000      1.0354269E-08
   16.14000      1.1047821E-08
   16.20000      1.1738543E-08
   16.26000      1.2428734E-08
   16.32000      1.3116447E-08
   16.38000      1.3793144E-08
   16.44000      1.4443602E-08
   16.50000      1.5048316E-08
   16.56000      1.5587526E-08
   16.62000      1.6045455E-08
   16.68000      1.6413354E-08
   16.74000      1.6690519E-08
   16.80000      1.6883247E-08
   16.86000      1.7002410E-08
   16.92000      1.7060550E-08
   16.98000      1.7069373E-08
   17.04000      1.7038213E-08
   17.10000      1.6973615E-08
   17.16000      1.6879888E-08
   17.22000      1.6760248E-08
   17.28000      1.6618117E-08
   17.34000      1.6458065E-08
   17.40000      1.6286110E-08
   17.46000      1.6109158E-08
   17.52000      1.5933772E-08
   17.58000      1.5764604E-08
   17.64000      1.5603117E-08
   17.70000      1.5447061E-08
   17.76000      1.5290965E-08
   17.82000      1.5127537E-08
   17.88000      1.4949444E-08
   17.94000      1.4750849E-08
   18.00000      1.4528169E-08
   18.06000      1.4279937E-08
   18.12000      1.4006035E-08
   18.18000      1.3706833E-08
   18.24000      1.3382749E-08
   18.30000      1.3034421E-08
   18.36000      1.2663281E-08
   18.42000      1.2272056E-08
   18.48000      1.1864727E-08
   18.54000      1.1445835E-08
   18.60000      1.1019408E-08
   18.66000      1.0588106E-08
   18.72000      1.0153057E-08
   18.78000      9.7145740E-09
   18.84000      9.2733723E-09
   18.90000      8.8316723E-09
   18.96000      8.3935561E-09
   19.02000      7.9643856E-09
   19.08000      7.5495672E-09
   19.14000      7.1532753E-09
   19.20000      6.7777641E-09
   19.26000      6.4234973E-09
   19.32000      6.0898802E-09
   19.38000      5.7760343E-09
   19.44000      5.4810836E-09
   19.50000      5.2037241E-09
   19.56000      4.9413127E-09
   19.62000      4.6889843E-09
   19.68000      4.4393444E-09
   19.74000      4.1830082E-09
   19.80000      3.9098826E-09
   19.86000      3.6107584E-09
   19.92000      3.2787042E-09
   19.98000      2.9098917E-09
   20.04000      2.5037257E-09
   20.10000      2.0624307E-09
   20.16000      1.5903795E-09
   20.22000      1.0934608E-09
   20.28000      5.7865696E-10
   20.34000      5.3846667E-11
   20.40000     -4.7230181E-10
   20.46000     -9.9053510E-10
   20.52000     -1.4914582E-09
   20.58000     -1.9662347E-09
   20.64000     -2.4073989E-09
   20.70000     -2.8095470E-09
   20.76000     -3.1696725E-09
   20.82000     -3.4870560E-09
   20.88000     -3.7627892E-09
   20.94000     -3.9991650E-09
   21.00000     -4.1991655E-09
   21.06000     -4.3661643E-09
   21.12000     -4.5037756E-09
   21.18000     -4.6156474E-09
   21.24000     -4.7050239E-09
   21.30000     -4.7740341E-09
   21.36000     -4.8228852E-09
   21.42000     -4.8492477E-09
   21.48000     -4.8481010E-09
   21.54000     -4.8121338E-09
   21.60000     -4.7326116E-09
   21.66000     -4.6004667E-09
   21.72000     -4.4073682E-09
   21.78000     -4.1466270E-09
   21.84000     -3.8138750E-09
   21.90000     -3.4075252E-09
   21.96000     -2.9290046E-09
   22.02000     -2.3827227E-09
   22.08000     -1.7757604E-09
   22.14000     -1.1173311E-09
   22.20000     -4.1815537E-10
   22.26000      3.1008579E-10
   22.32000      1.0551220E-09
   22.38000      1.8043382E-09
   22.44000      2.5450730E-09
   22.50000      3.2651688E-09
   22.56000      3.9538532E-09
   22.62000      4.6028124E-09
   22.68000      5.2070921E-09
   22.74000      5.7654317E-09
   22.80000      6.2797016E-09
   22.86000      6.7534516E-09
   22.92000      7.1898945E-09
   22.98000      7.5899456E-09
   23.04000      7.9509901E-09
   23.10000      8.2668521E-09
   23.16000      8.5290512E-09
   23.22000      8.7288852E-09
   23.28000      8.8595415E-09
   23.34000      8.9173406E-09
   23.40000      8.9015719E-09
   23.46000      8.8129637E-09
   23.52000      8.6515568E-09
   23.58000      8.4150225E-09
   23.64000      8.0983815E-09
   23.70000      7.6953492E-09
   23.76000      7.2007618E-09
   23.82000      6.6129089E-09
   23.88000      5.9346119E-09
   23.94000      5.1725308E-09
   24.00000      4.3350843E-09
   24.06000      3.4301024E-09
   24.12000      2.4634290E-09
   24.18000      1.4391384E-09
   24.24000      3.6111383E-10
   24.30000     -7.6500328E-10
   24.36000     -1.9306492E-09
   24.42000     -3.1246075E-09
   24.48000     -4.3345367E-09
   24.54000     -5.5488871E-09
   24.60000     -6.7581749E-09
   24.66000     -7.9550153E-09
   24.72000     -9.1329921E-09
   24.78000     -1.0285055E-08
   24.84000     -1.1402235E-08
   24.90000     -1.2473244E-08
   24.96000     -1.3485022E-08
   25.02000     -1.4423903E-08
   25.08000     -1.5277024E-08
   25.14000     -1.6033649E-08
   25.20000     -1.6686277E-08
   25.26000     -1.7231459E-08
   25.32000     -1.7670100E-08
   25.38000     -1.8007112E-08
   25.44000     -1.8250212E-08
   25.50000     -1.8408093E-08
   25.56000     -1.8488487E-08
   25.62000     -1.8496772E-08
   25.68000     -1.8435658E-08
   25.74000     -1.8306034E-08
   25.80000     -1.8108512E-08
   25.86000     -1.7844886E-08
   25.92000     -1.7518847E-08
   25.98000     -1.7135557E-08
   26.04000     -1.6700387E-08
   26.10000     -1.6217379E-08
   26.16000     -1.5688256E-08
   26.22000     -1.5112441E-08
   26.28000     -1.4488200E-08
   26.34000     -1.3814476E-08
   26.40000     -1.3092712E-08
   26.46000     -1.2327869E-08
   26.52000     -1.1528139E-08
   26.58000     -1.0703313E-08
   26.64000     -9.8623536E-09
   26.70000     -9.0110541E-09
   26.76000     -8.1507254E-09
   26.82000     -7.2784321E-09
   26.88000     -6.3886012E-09
   26.94000     -5.4752434E-09
   27.00000     -4.5337507E-09
   27.06000     -3.5615255E-09
   27.12000     -2.5574205E-09
   27.18000     -1.5206655E-09
   27.24000     -4.5027973E-10
   27.30000      6.5430117E-10
   27.36000      1.7914026E-09
   27.42000      2.9548606E-09
   27.48000      4.1324508E-09
   27.54000      5.3058193E-09
   27.60000      6.4520140E-09
   27.66000      7.5459976E-09
   27.72000      8.5631831E-09
   27.78000      9.4812531E-09
   27.84000      1.0281054E-08
   27.90000      1.0946874E-08
   27.96000      1.1466565E-08
   28.02000      1.1831842E-08
   28.08000      1.2038723E-08
   28.14000      1.2087964E-08
   28.20000      1.1985345E-08
   28.26000      1.1741827E-08
   28.32000      1.1373649E-08
   28.38000      1.0902271E-08
   28.44000      1.0353803E-08
   28.50000      9.7574766E-09
   28.56000      9.1430135E-09
   28.62000      8.5372802E-09
   28.68000      7.9611748E-09
   28.74000      7.4277473E-09
   28.80000      6.9420616E-09
   28.86000      6.5024901E-09
   28.92000      6.1024585E-09
   28.98000      5.7316116E-09
   29.04000      5.3760085E-09
   29.10000      5.0178146E-09
   29.16000      4.6355533E-09
   29.22000      4.2057691E-09
   29.28000      3.7061505E-09
   29.34000      3.1191696E-09
   29.40000      2.4348545E-09
   29.46000      1.6516889E-09
   29.52000      7.7562734E-10
   29.58000     -1.8180227E-10
   29.64000     -1.2049882E-09
   29.70000     -2.2745039E-09
   29.76000     -3.3663650E-09
   29.82000     -4.4513619E-09
   29.88000     -5.4957248E-09
   29.94000     -6.4637184E-09
   30.00000     -7.3216957E-09
   30.06000     -8.0422913E-09
   30.12000     -8.6072891E-09
   30.18000     -9.0083114E-09
   30.24000     -9.2454888E-09
   30.30000     -9.3250456E-09
   30.36000     -9.2570058E-09
   30.42000     -9.0538279E-09
   30.48000     -8.7300860E-09
   30.54000     -8.3027381E-09
   30.60000     -7.7912334E-09
   30.66000     -7.2169231E-09
   30.72000     -6.6016619E-09
   30.78000     -5.9659304E-09
   30.84000     -5.3270677E-09
   30.90000     -4.6981969E-09
   30.96000     -4.0881627E-09
   31.02000     -3.5024281E-09
   31.08000     -2.9445122E-09
   31.14000     -2.4173725E-09
   31.20000     -1.9242048E-09
   31.26000     -1.4684430E-09
   31.32000     -1.0531336E-09
   31.38000     -6.8014727E-10
   31.44000     -3.4971917E-10
   31.50000     -6.0561917E-11
   31.56000      1.8955654E-10
   31.62000      4.0312803E-10
   31.68000      5.8246341E-10
   31.74000      7.2960654E-10
   31.80000      8.4643059E-10
   31.86000      9.3463093E-10
   31.92000      9.9546726E-10
   31.98000      1.0293985E-09
   32.04000      1.0359559E-09
   32.10000      1.0141452E-09
   32.16000      9.6334829E-10
   32.22000      8.8432572E-10
   32.28000      7.7974988E-10
   32.34000      6.5387379E-10
   32.40000      5.1137861E-10
   32.46000      3.5587297E-10
   32.52000      1.8869398E-10
   32.58000      8.4778833E-12
   32.64000     -1.8843645E-10
   32.70000     -4.0709147E-10
   32.76000     -6.5294298E-10
   32.82000     -9.3117875E-10
   32.88000     -1.2463851E-09
   32.94000     -1.6024083E-09
   33.00000     -2.0021924E-09
   33.06000     -2.4474769E-09
   33.12000     -2.9383784E-09
   33.18000     -3.4729826E-09
   33.24000     -4.0470796E-09
   33.30000     -4.6541380E-09
   33.36000     -5.2855524E-09
   33.42000     -5.9311374E-09
   33.48000     -6.5797710E-09
   33.54000     -7.2199966E-09
   33.60000     -7.8403968E-09
   33.66000     -8.4296259E-09
   33.72000     -8.9762553E-09
   33.78000     -9.4687662E-09
   33.84000     -9.8961630E-09
   33.90000     -1.0249356E-08
   33.96000     -1.0523064E-08
   34.02000     -1.0717441E-08
   34.08000     -1.0838587E-08
   34.14000     -1.0897408E-08
   34.20000     -1.0907079E-08
   34.26000     -1.0880009E-08
   34.32000     -1.0825525E-08
   34.38000     -1.0749058E-08
   34.44000     -1.0652818E-08
   34.50000     -1.0537221E-08
   34.56000     -1.0402031E-08
   34.62000     -1.0246645E-08
   34.68000     -1.0069615E-08
   34.74000     -9.8681774E-09
   34.80000     -9.6385246E-09
   34.86000     -9.3771115E-09
   34.92000     -9.0824432E-09
   34.98000     -8.7563770E-09
   35.04000     -8.4041183E-09
   35.10000     -8.0327593E-09
   35.16000     -7.6490725E-09
   35.22000     -7.2576776E-09
   35.28000     -6.8605193E-09
   35.34000     -6.4578671E-09
   35.40000     -6.0502487E-09
   35.46000     -5.6402762E-09
   35.52000     -5.2334310E-09
   35.58000     -4.8374722E-09
   35.64000     -4.4607957E-09
   35.70000     -4.1105035E-09
   35.76000     -3.7909698E-09
   35.82000     -3.5033370E-09
   35.88000     -3.2459360E-09
   35.94000     -3.0152616E-09
   36.00000     -2.8070144E-09
   36.06000     -2.6168268E-09
   36.12000     -2.4405113E-09
   36.18000     -2.2739066E-09
   36.24000     -2.1125677E-09
   36.30000     -1.9515958E-09
   36.36000     -1.7858276E-09
   36.42000     -1.6104387E-09
   36.48000     -1.4218079E-09
   36.54000     -1.2183407E-09
   36.60000     -1.0009202E-09
   36.66000     -7.7278450E-10
   36.72000     -5.3883842E-10
   36.78000     -3.0462746E-10
   36.84000     -7.5300294E-11
   36.90000      1.4514992E-10
   36.96000      3.5421777E-10
   37.02000      5.5080351E-10
   37.08000      7.3482709E-10
   37.14000      9.0667496E-10
   37.20000      1.0665970E-09
   37.26000      1.2141605E-09
   37.32000      1.3478862E-09
   37.38000      1.4651875E-09
   37.44000      1.5626951E-09
   37.50000      1.6369173E-09
   37.56000      1.6850470E-09
   37.62000      1.7056325E-09
   37.68000      1.6988585E-09
   37.74000      1.6663538E-09
   37.80000      1.6106547E-09
   37.86000      1.5346235E-09
   37.92000      1.4411400E-09
   37.98000      1.3332503E-09
   38.04000      1.2147385E-09
   38.10000      1.0908657E-09
   38.16000      9.6891994E-10
   38.22000      8.5824720E-10
   38.28000      7.6959272E-10
   38.34000      7.1380896E-10
   38.40000      7.0021106E-10
   38.46000      7.3501411E-10
   38.52000      8.2033452E-10
   38.58000      9.5412089E-10
   38.64000      1.1311342E-09
   38.70000      1.3447499E-09
   38.76000      1.5890462E-09
   38.82000      1.8604834E-09
   38.88000      2.1585791E-09
   38.94000      2.4853433E-09
   39.00000      2.8437297E-09
   39.06000      3.2357819E-09
   39.12000      3.6613130E-09
   39.18000      4.1177435E-09
   39.24000      4.6012238E-09
   39.30000      5.1085549E-09
   39.36000      5.6390408E-09
   39.42000      6.1953735E-09
   39.48000      6.7830430E-09
   39.54000      7.4083983E-09
   39.60000      8.0760527E-09
   39.66000      8.7866097E-09
   39.72000      9.5355208E-09
   39.78000      1.0313423E-08
   39.84000      1.1107705E-08
   39.90000      1.1904662E-08
   39.96000      1.2691460E-08
   40.02000      1.3457376E-08
   40.08000      1.4194114E-08
   40.14000      1.4895408E-08
   40.20000      1.5556285E-08
   40.26000      1.6172459E-08
   40.32000      1.6740174E-08
   40.38000      1.7256621E-08
   40.44000      1.7720843E-08
   40.50000      1.8134749E-08
   40.56000      1.8503696E-08
   40.62000      1.8836150E-08
   40.68000      1.9142101E-08
   40.74000      1.9430482E-08
   40.80000      1.9706325E-08
   40.86000      1.9968731E-08
   40.92000      2.0210569E-08
   40.98000      2.0420282E-08
   41.04000      2.0585187E-08
   41.10000      2.0695104E-08
   41.16000      2.0744897E-08
   41.22000      2.0735092E-08
   41.28000      2.0670589E-08
   41.34000      2.0558295E-08
   41.40000      2.0404842E-08
   41.46000      2.0215218E-08
   41.52000      1.9992429E-08
   41.58000      1.9737778E-08
   41.64000      1.9451198E-08
   41.70000      1.9131368E-08
   41.76000      1.8775879E-08
   41.82000      1.8381860E-08
   41.88000      1.7947331E-08
   41.94000      1.7472821E-08
   42.00000      1.6962503E-08
   42.06000      1.6423982E-08
   42.12000      1.5866652E-08
   42.18000      1.5299305E-08
   42.24000      1.4728172E-08
   42.30000      1.4156480E-08
   42.36000      1.3585685E-08
   42.42000      1.3017579E-08
   42.48000      1.2455904E-08
   42.54000      1.1906398E-08
   42.60000      1.1375128E-08
   42.66000      1.0865989E-08
   42.72000      1.0378748E-08
   42.78000      9.9086765E-09
   42.84000      9.4479224E-09
   42.90000      8.9878549E-09
   42.96000      8.5212815E-09
   43.02000      8.0437701E-09
   43.08000      7.5540276E-09
   43.14000      7.0538788E-09
   43.20000      6.5483761E-09
   43.26000      6.0460983E-09
   43.32000      5.5590945E-09
   43.38000      5.1017852E-09
   43.44000      4.6885895E-09
   43.50000      4.3308814E-09
   43.56000      4.0345531E-09
   43.62000      3.7994123E-09
   43.68000      3.6208356E-09
   43.74000      3.4929379E-09
   43.80000      3.4116583E-09
   43.86000      3.3761709E-09
   43.92000      3.3879295E-09
   43.98000      3.4479464E-09
   44.04000      3.5538881E-09
   44.10000      3.6986825E-09
   44.16000      3.8715031E-09
   44.22000      4.0607189E-09
   44.28000      4.2573665E-09
   44.34000      4.4574211E-09
   44.40000      4.6617950E-09
   44.46000      4.8741144E-09
   44.52000      5.0974136E-09
   44.58000      5.3313300E-09
   44.64000      5.5711151E-09
   44.70000      5.8088894E-09
   44.76000      6.0365823E-09
   44.82000      6.2493282E-09
   44.88000      6.4479648E-09
   44.94000      6.6397066E-09
   45.00000      6.8367982E-09
   45.06000      7.0536759E-09
   45.12000      7.3036377E-09
   45.18000      7.5960536E-09
   45.24000      7.9348528E-09
   45.30000      8.3184739E-09
   45.36000      8.7409457E-09
   45.42000      9.1934025E-09
   45.48000      9.6653485E-09
   45.54000      1.0145224E-08
   45.60000      1.0620250E-08
   45.66000      1.1075949E-08
   45.72000      1.1495924E-08
   45.78000      1.1862385E-08
   45.84000      1.2157622E-08
   45.90000      1.2366177E-08
   45.96000      1.2477123E-08
   46.02000      1.2485732E-08
   46.08000      1.2393939E-08
   46.14000      1.2209430E-08
   46.20000      1.1943593E-08
   46.26000      1.1609012E-08
   46.32000      1.1217277E-08
   46.38000      1.0777706E-08
   46.44000      1.0297199E-08
   46.50000      9.7809254E-09
   46.56000      9.2332613E-09
   46.62000      8.6583869E-09
   46.68000      8.0602547E-09
   46.74000      7.4420559E-09
   46.80000      6.8056520E-09
   46.86000      6.1514394E-09
   46.92000      5.4788778E-09
   46.98000      4.7875051E-09
   47.04000      4.0780028E-09
   47.10000      3.3528649E-09
   47.16000      2.6165097E-09
   47.22000      1.8749509E-09
   47.28000      1.1353257E-09
   47.34000      4.0545636E-10
   47.40000     -3.0661540E-10
   47.46000     -9.9334163E-10
   47.52000     -1.6487447E-09
   47.58000     -2.2696203E-09
   47.64000     -2.8562770E-09
   47.70000     -3.4121834E-09
   47.76000     -3.9422896E-09
   47.82000     -4.4505080E-09
   47.88000     -4.9374349E-09
   47.94000     -5.3994755E-09
   48.00000     -5.8299738E-09
   48.06000     -6.2219367E-09
   48.12000     -6.5710681E-09
   48.18000     -6.8775554E-09
   48.24000     -7.1456214E-09
   48.30000     -7.3809430E-09
   48.36000     -7.5871327E-09
   48.42000     -7.7629352E-09
   48.48000     -7.9014475E-09
   48.54000     -7.9916784E-09
   48.60000     -8.0216918E-09
   48.66000     -7.9819333E-09
   48.72000     -7.8674480E-09
   48.78000     -7.6782989E-09
   48.84000     -7.4184339E-09
   48.90000     -7.0938118E-09
   48.96000     -6.7107546E-09
   49.02000     -6.2751768E-09
   49.08000     -5.7927969E-09
   49.14000     -5.2699387E-09
   49.20000     -4.7143276E-09
   49.26000     -4.1353454E-09
   49.32000     -3.5435237E-09
   49.38000     -2.9494029E-09
   49.44000     -2.3621525E-09
   49.50000     -1.7884182E-09
   49.56000     -1.2317372E-09
   49.62000     -6.9258971E-10
   49.68000     -1.6889264E-10
   49.74000      3.4340367E-10
   49.80000      8.4988921E-10
   49.86000      1.3574941E-09
   49.92000      1.8743274E-09
   49.98000      2.4092588E-09
   50.04000      2.9710641E-09
   50.10000      3.5672274E-09
   50.16000      4.2027613E-09
   50.22000      4.8794844E-09
   50.28000      5.5959983E-09
   50.34000      6.3482184E-09
   50.40000      7.1299837E-09
   50.46000      7.9331635E-09
   50.52000      8.7468974E-09
   50.58000      9.5561008E-09
   50.64000      1.0339789E-08
   50.70000      1.1069979E-08
   50.76000      1.1711744E-08
   50.82000      1.2224470E-08
   50.88000      1.2563843E-08
   50.94000      1.2683691E-08
   51.00000      1.2536862E-08
   51.06000      1.2074768E-08
   51.12000      1.1245749E-08
   51.18000      9.9930384E-09
   51.24000      8.2531901E-09
   51.30000      5.9556617E-09
   51.36000      3.0236225E-09
   51.42000     -6.2448574E-10
   51.48000     -5.0734146E-09
   51.54000     -1.0410294E-08
   51.60000     -1.6724750E-08
   51.66000     -2.4109552E-08
   51.72000     -3.2661074E-08
   51.78000     -4.2478707E-08
   51.84000     -5.3662891E-08
   51.90000     -6.6311905E-08
   51.96000     -8.0518006E-08
   52.02000     -9.6363891E-08
   52.08000     -1.1391997E-07
   52.14000     -1.3324274E-07
   52.20000     -1.5437379E-07
   52.26000     -1.7733909E-07
   52.32000     -2.0214729E-07
   52.38000     -2.2878709E-07
   52.44000     -2.5722358E-07
   52.50000     -2.8739424E-07
   52.56000     -3.1920578E-07
   52.62000     -3.5253214E-07
   52.68000     -3.8721467E-07
   52.74000     -4.2306348E-07
   52.80000     -4.5985905E-07
   52.86000     -4.9735314E-07
   52.92000     -5.3526816E-07
   52.98000     -5.7329595E-07
   53.04000     -6.1109643E-07
   53.10000     -6.4829703E-07
   53.16000     -6.8449430E-07
   53.22000     -7.1925717E-07
   53.28000     -7.5213148E-07
   53.34000     -7.8264418E-07
   53.40000     -8.1030799E-07
   53.46000     -8.3462504E-07
   53.52000     -8.5509043E-07
   53.58000     -8.7119673E-07
   53.64000     -8.8243866E-07
   53.70000     -8.8831814E-07
   53.76000     -8.8835003E-07
   53.82000     -8.8206832E-07
   53.88000     -8.6903134E-07
   53.94000     -8.4882726E-07
   54.00000     -8.2107869E-07
   54.06000     -7.8544724E-07
   54.12000     -7.4163694E-07
   54.18000     -6.8939829E-07
   54.24000     -6.2853275E-07
   54.30000     -5.5889728E-07
   54.36000     -4.8040943E-07
   54.42000     -3.9305112E-07
   54.48000     -2.9687075E-07
   54.54000     -1.9198306E-07
   54.60000     -7.8567858E-08
   54.66000      4.3132005E-08
   54.72000      1.7281202E-07
   54.78000      3.1010697E-07
   54.84000      4.5459146E-07
   54.90000      6.0578139E-07
   54.96000      7.6313671E-07
   55.02000      9.2606547E-07
   55.08000      1.0939298E-06
   55.14000      1.2660522E-06
   55.20000      1.4417232E-06
   55.26000      1.6202088E-06
   55.32000      1.8007578E-06
   55.38000      1.9826091E-06
   55.44000      2.1649969E-06
   55.50000      2.3471548E-06
   55.56000      2.5283218E-06