  -2.400000      0.0000000E+00
  -2.340000      0.0000000E+00
  -2.280000      0.0000000E+00
  -2.220000      0.0000000E+00
  -2.160000      0.0000000E+00
  -2.100000      1.2985316E-22
  -2.040000      5.8570022E-21
  -1.980000      4.5329772E-20
  -1.920000      1.7756210E-19
  -1.860000      4.1174546E-19
  -1.800000      4.6233275E-19
  -1.740000     -5.3020654E-19
  -1.680000     -3.8046760E-18
  -1.620000     -9.6402333E-18
  -1.560000     -1.4858928E-17
  -1.500000     -1.0816564E-17
  -1.440000      1.4737263E-17
  -1.380000      6.8773047E-17
  -1.320000      1.3792248E-16
  -1.260000      1.7540731E-16
  -1.200000      1.0457371E-16
  -1.140000     -1.4736855E-16
  -1.080000     -5.8529357E-16
  -1.020000     -1.0758835E-15
 -0.9600000     -1.3189427E-15
 -0.9000000     -9.1368893E-16
 -0.8400000      4.5453863E-16
 -0.7800000      2.7448084E-15
 -0.7200000      5.3241272E-15
 -0.6600000      6.9321994E-15
 -0.6000000      5.9953204E-15
 -0.5400000      1.3153901E-15
 -0.4800000     -7.0465539E-15
 -0.4200000     -1.7086394E-14
 -0.3600000     -2.4862377E-14
 -0.3000000     -2.5537561E-14
 -0.2400000     -1.5390326E-14
 -0.1800000      5.8522519E-15
 -0.1200000      3.3468244E-14
 -5.9999999E-02  5.8116164E-14
  0.0000000E+00  6.8647507E-14
  5.9999999E-02  5.6722154E-14
  0.1200000      2.1396860E-14
  0.1800000     -2.8690432E-14
  0.2400000     -7.7279566E-14
  0.3000000     -1.0652533E-13
  0.3600000     -1.0481533E-13
  0.4200000     -7.2619435E-14
  0.4800000     -2.2993446E-14
  0.5400000      2.4263445E-14
  0.6000000      5.2418302E-14
  0.6600000      5.6636404E-14
  0.7200000      4.6798462E-14
  0.7800000      4.2082267E-14
  0.8400000      5.9543726E-14
  0.9000000      1.0258440E-13
  0.9600000      1.5579089E-13
   1.020000      1.8955002E-13
   1.080000      1.7265059E-13
   1.140000      8.6752688E-14
   1.200000     -6.4264085E-14
   1.260000     -2.5394769E-13
   1.320000     -4.4071189E-13
   1.380000     -5.7815243E-13
   1.440000     -6.2342102E-13
   1.500000     -5.4246901E-13
   1.560000     -3.1516714E-13
   1.620000      5.5675479E-14
   1.680000      5.3125017E-13
   1.740000      1.0262693E-12
   1.800000      1.4123715E-12
   1.860000      1.5444628E-12
   1.920000      1.3087434E-12
   1.980000      6.7713950E-13
   2.040000     -2.5685191E-13
   2.100000     -1.2839965E-12
   2.160000     -2.1346351E-12
   2.220000     -2.5684069E-12
   2.280000     -2.4639516E-12
   2.340000     -1.8690472E-12
   2.400000     -9.8511412E-13
   2.460000     -8.7197766E-14
   2.520000      5.9067936E-13
   2.580000      9.5790357E-13
   2.640000      1.1132385E-12
   2.700000      1.3115193E-12
   2.760000      1.8586706E-12
   2.820000      2.9695591E-12
   2.880000      4.6364869E-12
   2.940000      6.5525198E-12
   3.000000      8.1167321E-12
   3.060000      8.5255483E-12
   3.120000      6.9328944E-12
   3.180000      2.6467164E-12
   3.240000     -4.6783298E-12
   3.300000     -1.4893222E-11
   3.360000     -2.7287924E-11
   3.420000     -4.0630641E-11
   3.480000     -5.3320608E-11
   3.540000     -6.3639705E-11
   3.600000     -7.0064753E-11
   3.660000     -7.1582407E-11
   3.720000     -6.7939536E-11
   3.780000     -5.9766983E-11
   3.840000     -4.8535669E-11
   3.900000     -3.6336351E-11
   3.960000     -2.5512464E-11
   4.020000     -1.8209895E-11
   4.080000     -1.5931909E-11
   4.140000     -1.9195569E-11
   4.200000     -2.7375385E-11
   4.260000     -3.8790172E-11
   4.320000     -5.1042118E-11
   4.380000     -6.1558633E-11
   4.440000     -6.8228680E-11
   4.500000     -6.9980938E-11
   4.560000     -6.7140599E-11
   4.620000     -6.1436772E-11
   4.680000     -5.5615786E-11
   4.740000     -5.2729196E-11
   4.800000     -5.5275222E-11
   4.860000     -6.4438128E-11
   4.920000     -7.9660875E-11
   4.980000     -9.8695545E-11
   5.040000     -1.1813053E-10
   5.100000     -1.3424417E-10
   5.160000     -1.4393464E-10
   5.220000     -1.4546503E-10
   5.280000     -1.3883811E-10
   5.340000     -1.2574632E-10
   5.400000     -1.0917156E-10
   5.460000     -9.2789922E-11
   5.520000     -8.0344828E-11
   5.580000     -7.5103430E-11
   5.640000     -7.9439656E-11
   5.700000     -9.4535081E-11
   5.760000     -1.2017859E-10
   5.820000     -1.5467150E-10
   5.880000     -1.9488015E-10
   5.940000     -2.3648927E-10
   6.000000     -2.7448024E-10
   6.060000     -3.0379338E-10
   6.120000     -3.2006608E-10
   6.180000     -3.2029612E-10
   6.240000     -3.0329211E-10
   6.300000     -2.6983174E-10
   6.360000     -2.2252881E-10
   6.420000     -1.6547558E-10
   6.480000     -1.0375273E-10
   6.540000     -4.2878517E-11
   6.600000      1.1771925E-11
   6.660000      5.5575499E-11
   6.720000      8.5288498E-11
   6.780000      9.9635251E-11
   6.840000      9.9740036E-11
   6.900000      8.9250732E-11
   6.960000      7.4027513E-11
   7.020000      6.1357849E-11
   7.080000      5.8787537E-11
   7.140000      7.2776001E-11
   7.200000      1.0745321E-10
   7.260000      1.6374635E-10
   7.320000      2.3906394E-10
   7.380000      3.2759936E-10
   7.440000      4.2118059E-10
   7.500000      5.1048094E-10
   7.560000      5.8633914E-10
   7.620000      6.4093048E-10
   7.680000      6.6858269E-10
   7.740000      6.6613731E-10
   7.800000      6.3288524E-10
   7.860000      5.7021615E-10
   7.920000      4.8117255E-10
   7.980000      3.7005937E-10
   8.040000      2.4215394E-10
   8.100000      1.0343867E-10
   8.160000     -3.9783392E-11
   8.220000     -1.8148759E-10
   8.280000     -3.1670078E-10
   8.340000     -4.4224863E-10
   8.400000     -5.5719362E-10
   8.460000     -6.6273770E-10
   8.520000     -7.6155249E-10
   8.580000     -8.5673246E-10
   8.640000     -9.5072417E-10
   8.700000     -1.0445772E-09
   8.760000     -1.1377075E-09
   8.820000     -1.2281289E-09
   8.880000     -1.3129461E-09
   8.940000     -1.3888637E-09
   9.000000     -1.4525746E-09
   9.060000     -1.5010396E-09
   9.120000     -1.5317625E-09
   9.180000     -1.5431357E-09
   9.240000     -1.5348115E-09
   9.300000     -1.5079347E-09
   9.360000     -1.4650586E-09
   9.420000     -1.4096836E-09
   9.480000     -1.3455489E-09
   9.540000     -1.2759648E-09
   9.600000     -1.2034875E-09
   9.660000     -1.1300850E-09
   9.720000     -1.0577059E-09
   9.780000     -9.8895181E-10
   9.840000     -9.2748353E-10
   9.900000     -8.7789720E-10
   9.960000     -8.4503549E-10
   10.02000     -8.3293256E-10
   10.08000     -8.4374246E-10
   10.14000     -8.7700686E-10
   10.20000     -9.2949781E-10
   10.26000     -9.9568809E-10
   10.32000     -1.0687196E-09
   10.38000     -1.1416207E-09
   10.44000     -1.2084820E-09
   10.50000     -1.2653374E-09
   10.56000     -1.3105926E-09
   10.62000     -1.3449600E-09
   10.68000     -1.3709706E-09
   10.74000     -1.3921989E-09
   10.80000     -1.4123560E-09
   10.86000     -1.4343757E-09
   10.92000     -1.4595932E-09
   10.98000     -1.4871095E-09
   11.04000     -1.5134599E-09
   11.10000     -1.5327433E-09
   11.16000     -1.5373450E-09
   11.22000     -1.5192743E-09
   11.28000     -1.4719366E-09
   11.34000     -1.3919391E-09
   11.40000     -1.2803935E-09
   11.46000     -1.1432271E-09
   11.52000     -9.9026387E-10
   11.58000     -8.3322305E-10
   11.64000     -6.8316824E-10
   11.70000     -5.4817095E-10
   11.76000     -4.3191947E-10
   11.82000     -3.3371569E-10
   11.88000     -2.4984148E-10
   11.94000     -1.7580667E-10
   12.00000     -1.0867904E-10
   12.06000     -4.8650306E-11
   12.12000      7.5658918E-13
   12.18000      3.3963943E-11
   12.24000      4.5688713E-11
   12.30000      3.3537735E-11
   12.36000     -1.1699600E-13
   12.42000     -4.7741734E-11
   12.48000     -9.7984745E-11
   12.54000     -1.3840341E-10
   12.60000     -1.5870577E-10
   12.66000     -1.5342855E-10
   12.72000     -1.2315556E-10
   12.78000     -7.3889429E-11
   12.84000     -1.4836875E-11
   12.90000      4.4591251E-11
   12.96000      9.7521310E-11
   13.02000      1.4119504E-10
   13.08000      1.7693270E-10
   13.14000      2.0862267E-10
   13.20000      2.4039498E-10
   13.26000      2.7439598E-10
   13.32000      3.0950029E-10
   13.38000      3.4141312E-10
   13.44000      3.6407874E-10
   13.50000      3.7181991E-10
   13.56000      3.6137637E-10
   13.62000      3.3308928E-10
   13.68000      2.9085429E-10
   13.74000      2.4097707E-10
   13.80000      1.9048572E-10
   13.86000      1.4559917E-10
   13.92000      1.1086550E-10
   13.98000      8.9078349E-11
   14.04000      8.1673772E-11
   14.10000      8.9123341E-11
   14.16000      1.1096155E-10
   14.22000      1.4543695E-10
   14.28000      1.8913615E-10
   14.34000      2.3707536E-10
   14.40000      2.8357883E-10
   14.46000      3.2384850E-10
   14.52000      3.5569978E-10
   14.58000      3.8073078E-10
   14.64000      4.0433171E-10
   14.70000      4.3436824E-10
   14.76000      4.7888821E-10
   14.82000      5.4357513E-10
   14.88000      6.2976613E-10
   14.94000      7.3366069E-10
   15.00000      8.4698304E-10
   15.06000      9.5895902E-10
   15.12000      1.0591283E-09
   15.18000      1.1402783E-09
   15.24000      1.2006843E-09
   15.30000      1.2449113E-09
   15.36000      1.2827253E-09
   15.42000      1.3261827E-09
   15.48000      1.3856140E-09
   15.54000      1.4657437E-09
   15.60000      1.5633580E-09
   15.66000      1.6675299E-09
   15.72000      1.7625567E-09
   15.78000      1.8327176E-09
   15.84000      1.8672046E-09
   15.90000      1.8634465E-09
   15.96000      1.8276495E-09
   16.02000      1.7724464E-09
   16.08000      1.7126489E-09
   16.14000      1.6607511E-09
   16.20000      1.6237962E-09
   16.26000      1.6025734E-09
   16.32000      1.5931586E-09
   16.38000      1.5899746E-09
   16.44000      1.5890865E-09
   16.50000      1.5905011E-09
   16.56000      1.5986744E-09
   16.62000      1.6210912E-09
   16.68000      1.6654167E-09
   16.74000      1.7362027E-09
   16.80000      1.8322921E-09
   16.86000      1.9458830E-09
   16.92000      2.0636963E-09
   16.98000      2.1699673E-09
   17.04000      2.2503135E-09
   17.10000      2.2951729E-09
   17.16000      2.3016467E-09
   17.22000      2.2731836E-09
   17.28000      2.2173796E-09
   17.34000      2.1428475E-09
   17.40000      2.0563722E-09
   17.46000      1.9612985E-09
   17.52000      1.8574826E-09
   17.58000      1.7425007E-09
   17.64000      1.6134218E-09
   17.70000      1.4684342E-09
   17.76000      1.3078632E-09
   17.82000      1.1344331E-09
   17.88000      9.5285413E-10
   17.94000      7.6890899E-10
   18.00000      5.8825139E-10
   18.06000      4.1518428E-10
   18.12000      2.5174759E-10
   18.18000      9.7438682E-11
   18.24000     -5.0280818E-11
   18.30000     -1.9483952E-10
   18.36000     -3.3921838E-10
   18.42000     -4.8496201E-10
   18.48000     -6.3188893E-10
   18.54000     -7.7845791E-10
   18.60000     -9.2239505E-10
   18.66000     -1.0611058E-09
   18.72000     -1.1916444E-09
   18.78000     -1.3104273E-09
   18.84000     -1.4131568E-09
   18.90000     -1.4953554E-09
   18.96000     -1.5535109E-09
   19.02000     -1.5863616E-09
   19.08000     -1.5956277E-09
   19.14000     -1.5857062E-09
   19.20000     -1.5623751E-09
   19.26000     -1.5310848E-09
   19.32000     -1.4956151E-09
   19.38000     -1.4576271E-09
   19.44000     -1.4171128E-09
   19.50000     -1.3732754E-09
   19.56000     -1.3252501E-09
   19.62000     -1.2723246E-09
   19.68000     -1.2137414E-09
   19.74000     -1.1484610E-09
   19.80000     -1.0752359E-09
   19.86000     -9.9306952E-10
   19.92000     -9.0182045E-10
   19.98000     -8.0260115E-10
   20.04000     -6.9776179E-10
   20.10000     -5.9051924E-10
   20.16000     -4.8446830E-10
   20.22000     -3.8317033E-10
   20.28000     -2.8982142E-10
   20.34000     -2.0683980E-10
   20.40000     -1.3524917E-10
   20.46000     -7.3970413E-11
   20.52000     -1.9392503E-11
   20.58000      3.4346220E-11
   20.64000      9.4178207E-11
   20.70000      1.6628043E-10
   20.76000      2.5423713E-10
   20.82000      3.5790995E-10
   20.88000      4.7345794E-10
   20.94000      5.9446503E-10
   21.00000      7.1370138E-10
   21.06000      8.2488011E-10
   21.12000      9.2390556E-10
   21.18000      1.0094122E-09
   21.24000      1.0826712E-09
   21.30000      1.1470769E-09
   21.36000      1.2074149E-09
   21.42000      1.2690469E-09
   21.48000      1.3371046E-09
   21.54000      1.4157849E-09
   21.60000      1.5078301E-09
   21.66000      1.6142399E-09
   21.72000      1.7341911E-09
   21.78000      1.8651050E-09
   21.84000      2.0028403E-09
   21.90000      2.1420721E-09
   21.96000      2.2769471E-09
   22.02000      2.4020470E-09
   22.08000      2.5134896E-09
   22.14000      2.6098341E-09
   22.20000      2.6924072E-09
   22.26000      2.7648575E-09
   22.32000      2.8320613E-09
   22.38000      2.8987830E-09
   22.44000      2.9685838E-09
   22.50000      3.0432918E-09
   22.56000      3.1230538E-09
   22.62000      3.2067402E-09
   22.68000      3.2924190E-09
   22.74000      3.3777494E-09
   22.80000      3.4603096E-09
   22.86000      3.5379448E-09
   22.92000      3.6091337E-09
   22.98000      3.6732368E-09
   23.04000      3.7304386E-09
   23.10000      3.7813233E-09
   23.16000      3.8262660E-09
   23.22000      3.8649817E-09
   23.28000      3.8965333E-09
   23.34000      3.9198342E-09
   23.40000      3.9343497E-09
   23.46000      3.9405310E-09
   23.52000      3.9396357E-09
   23.58000      3.9329340E-09
   23.64000      3.9206776E-09
   23.70000      3.9013424E-09
   23.76000      3.8715537E-09
   23.82000      3.8267500E-09
   23.88000      3.7623136E-09
   23.94000      3.6747740E-09
   24.00000      3.5627359E-09
   24.06000      3.4273553E-09
   24.12000      3.2723697E-09
   24.18000      3.1037239E-09
   24.24000      2.9288341E-09
   24.30000      2.7555631E-09
   24.36000      2.5910407E-09
   24.42000      2.4405882E-09
   24.48000      2.3070164E-09
   24.54000      2.1904760E-09
   24.60000      2.0888304E-09
   24.66000      1.9983419E-09
   24.72000      1.9144235E-09
   24.78000      1.8322942E-09
   24.84000      1.7475437E-09
   24.90000      1.6566737E-09
   24.96000      1.5576355E-09
   25.02000      1.4502455E-09
   25.08000      1.3362896E-09
   25.14000      1.2192100E-09
   25.20000      1.1034642E-09
   25.26000      9.9382469E-10
   25.32000      8.9488406E-10
   25.38000      8.1084095E-10
   25.44000      7.4538492E-10
   25.50000      7.0139072E-10
   25.56000      6.8028372E-10
   25.62000      6.8126893E-10
   25.68000      7.0089701E-10
   25.74000      7.3342959E-10
   25.80000      7.7212720E-10
   25.86000      8.1108137E-10
   25.92000      8.4687724E-10
   25.98000      8.7941548E-10
   26.04000      9.1163277E-10
   26.10000      9.4837616E-10
   26.16000      9.9499731E-10
   26.22000      1.0561700E-09
   26.28000      1.1351121E-09
   26.34000      1.2330682E-09
   26.40000      1.3488575E-09
   26.46000      1.4785018E-09
   26.52000      1.6152445E-09
   26.58000      1.7503335E-09
   26.64000      1.8746598E-09
   26.70000      1.9808355E-09
   26.76000      2.0649176E-09
   26.82000      2.1270039E-09
   26.88000      2.1704285E-09
   26.94000      2.1999556E-09
   27.00000      2.2198574E-09
   27.06000      2.2327247E-09
   27.12000      2.2393902E-09
   27.18000      2.2396931E-09
   27.24000      2.2334248E-09
   27.30000      2.2208519E-09
   27.36000      2.2026221E-09
   27.42000      2.1793114E-09
   27.48000      2.1510567E-09
   27.54000      2.1175455E-09
   27.60000      2.0782829E-09
   27.66000      2.0328021E-09
   27.72000      1.9805495E-09
   27.78000      1.9204605E-09
   27.84000      1.8505719E-09
   27.90000      1.7680789E-09
   27.96000      1.6700062E-09
   28.02000      1.5542639E-09
   28.08000      1.4205805E-09
   28.14000      1.2708522E-09
   28.20000      1.1087782E-09
   28.26000      9.3905428E-10
   28.32000      7.6658369E-10
   28.38000      5.9603267E-10
   28.44000      4.3170784E-10
   28.50000      2.7743399E-10
   28.56000      1.3609534E-10
   28.62000      8.7941208E-12
   28.68000     -1.0601894E-10
   28.74000     -2.1286518E-10
   28.80000     -3.1857536E-10
   28.86000     -4.3066958E-10
   28.92000     -5.5532645E-10
   28.98000     -6.9575695E-10
   29.04000     -8.5165264E-10
   29.10000     -1.0198806E-09
   29.16000     -1.1960244E-09
   29.22000     -1.3760104E-09
   29.28000     -1.5570939E-09
   29.34000     -1.7378555E-09
   29.40000     -1.9173609E-09
   29.46000     -2.0940323E-09
   29.52000     -2.2648763E-09
   29.58000     -2.4255202E-09
   29.64000     -2.5711269E-09
   29.70000     -2.6978673E-09
   29.76000     -2.8043730E-09
   29.82000     -2.8925522E-09
   29.88000     -2.9673579E-09
   29.94000     -3.0354501E-09
   30.00000     -3.1031191E-09
   30.06000     -3.1741558E-09
   30.12000     -3.2484408E-09
   30.18000     -3.3218159E-09
   30.24000     -3.3873424E-09
   30.30000     -3.4375227E-09
   30.36000     -3.4666787E-09
   30.42000     -3.4726237E-09
   30.48000     -3.4570740E-09
   30.54000     -3.4247687E-09
   30.60000     -3.3817662E-09
   30.66000     -3.3336420E-09
   30.72000     -3.2842409E-09
   30.78000     -3.2352963E-09
   30.84000     -3.1868441E-09
   30.90000     -3.1380694E-09
   30.96000     -3.0881706E-09
   31.02000     -3.0369380E-09
   31.08000     -2.9849165E-09
   31.14000     -2.9331804E-09
   31.20000     -2.8828229E-09
   31.26000     -2.8343023E-09
   31.32000     -2.7868376E-09
   31.38000     -2.7380809E-09
   31.44000     -2.6842955E-09
   31.50000     -2.6211366E-09
   31.56000     -2.5449107E-09
   31.62000     -2.4539215E-09
   31.68000     -2.3493631E-09
   31.74000     -2.2352993E-09
   31.80000     -2.1175923E-09
   31.86000     -2.0020796E-09
   31.92000     -1.8926678E-09
   31.98000     -1.7900943E-09
   32.04000     -1.6918796E-09
   32.10000     -1.5935039E-09
   32.16000     -1.4903336E-09
   32.22000     -1.3795146E-09
   32.28000     -1.2610726E-09
   32.34000     -1.1378276E-09
   32.40000     -1.0142425E-09
   32.46000     -8.9477253E-10
   32.52000     -7.8245316E-10
   32.58000     -6.7828965E-10
   32.64000     -5.8159877E-10
   32.70000     -4.9099275E-10
   32.76000     -4.0542780E-10
   32.82000     -3.2477679E-10
   32.88000     -2.4969254E-10
   32.94000     -1.8092705E-10
   33.00000     -1.1854394E-10
   33.06000     -6.1473659E-11
   33.12000     -7.6313322E-12
   33.18000      4.5496731E-11
   33.24000      1.0010282E-10
   33.30000      1.5745009E-10
   33.36000      2.1754719E-10
   33.42000      2.7905883E-10
   33.48000      3.3934244E-10
   33.54000      3.9458847E-10
   33.60000      4.4018478E-10
   33.66000      4.7145970E-10
   33.72000      4.8480520E-10
   33.78000      4.7890014E-10
   33.84000      4.5554183E-10
   33.90000      4.1962137E-10
   33.96000      3.7809783E-10
   34.02000      3.3827868E-10
   34.08000      3.0604513E-10
   34.14000      2.8467806E-10
   34.20000      2.7462613E-10
   34.26000      2.7410793E-10
   34.32000      2.8011202E-10
   34.38000      2.8932162E-10
   34.44000      2.9870861E-10
   34.50000      3.0582797E-10
   34.56000      3.0899486E-10
   34.62000      3.0746847E-10
   34.68000      3.0159616E-10
   34.74000      2.9276045E-10
   34.80000      2.8302813E-10
   34.86000      2.7458402E-10
   34.92000      2.6918601E-10
   34.98000      2.6786295E-10
   35.04000      2.7089378E-10
   35.10000      2.7789454E-10
   35.16000      2.8778005E-10
   35.22000      2.9852973E-10
   35.28000      3.0695707E-10
   35.34000      3.0884495E-10
   35.40000      2.9969668E-10
   35.46000      2.7599473E-10
   35.52000      2.3647403E-10
   35.58000      1.8277371E-10
   35.64000      1.1906134E-10
   35.70000      5.0716910E-11
   35.76000     -1.7364816E-11
   35.82000     -8.2121941E-11
   35.88000     -1.4280382E-10
   35.94000     -2.0051258E-10
   36.00000     -2.5715904E-10
   36.06000     -3.1435263E-10
   36.12000     -3.7263115E-10
   36.18000     -4.3118201E-10
   36.24000     -4.8799315E-10
   36.30000     -5.4029697E-10
   36.36000     -5.8519212E-10
   36.42000     -6.2034378E-10
   36.48000     -6.4461086E-10
   36.54000     -6.5838623E-10
   36.60000     -6.6345679E-10
   36.66000     -6.6236466E-10
   36.72000     -6.5750394E-10
   36.78000     -6.5035494E-10
   36.84000     -6.4121131E-10
   36.90000     -6.2948957E-10
   36.96000     -6.1438304E-10
   37.02000     -5.9544664E-10
   37.08000     -5.7278371E-10
   37.14000     -5.4678551E-10
   37.20000     -5.1764731E-10
   37.26000     -4.8497634E-10
   37.32000     -4.4767745E-10
   37.38000     -4.0409034E-10
   37.44000     -3.5222908E-10
   37.50000     -2.9003316E-10
   37.56000     -2.1568754E-10
   37.62000     -1.2813918E-10
   37.68000     -2.7807387E-11
   37.74000      8.2775342E-11
   37.80000      1.9884025E-10
   37.86000      3.1413067E-10
   37.92000      4.2247855E-10
   37.98000      5.1967336E-10
   38.04000      6.0481675E-10
   38.10000      6.8051231E-10
   38.16000      7.5176726E-10
   38.22000      8.2408497E-10
   38.28000      9.0155444E-10
   38.34000      9.8563890E-10
   38.40000      1.0749236E-09
   38.46000      1.1656301E-09
   38.52000      1.2524897E-09
   38.58000      1.3296698E-09
   38.64000      1.3916883E-09
   38.70000      1.4343772E-09
   38.76000      1.4558612E-09
   38.82000      1.4572782E-09
   38.88000      1.4428263E-09
   38.94000      1.4188773E-09
   39.00000      1.3923056E-09
   39.06000      1.3686202E-09
   39.12000      1.3506558E-09
   39.18000      1.3383384E-09
   39.24000      1.3295194E-09
   39.30000      1.3213621E-09
   39.36000      1.3115744E-09
   39.42000      1.2989806E-09
   39.48000      1.2833773E-09
   39.54000      1.2650077E-09
   39.60000      1.2441073E-09
   39.66000      1.2207924E-09
   39.72000      1.1952387E-09
   39.78000      1.1678793E-09
   39.84000      1.1393617E-09
   39.90000      1.1102079E-09
   39.96000      1.0803808E-09
   40.02000      1.0490607E-09
   40.08000      1.0148558E-09
   40.14000      9.7641717E-10
   40.20000      9.3319319E-10
   40.26000      8.8593560E-10
   40.32000      8.3666296E-10
   40.38000      7.8802187E-10
   40.44000      7.4228701E-10
   40.50000      7.0044331E-10
   40.56000      6.6180200E-10
   40.62000      6.2438860E-10
   40.68000      5.8597849E-10
   40.74000      5.4531235E-10
   40.80000      5.0288096E-10
   40.86000      4.6083348E-10
   40.92000      4.2198056E-10
   40.98000      3.8833764E-10
   41.04000      3.5991843E-10
   41.10000      3.3439249E-10
   41.16000      3.0779204E-10
   41.22000      2.7594019E-10
   41.28000      2.3594623E-10
   41.34000      1.8715417E-10
   41.40000      1.3126449E-10
   41.46000      7.1755657E-11
   41.52000      1.2957082E-11
   41.58000     -4.0913124E-11
   41.64000     -8.6616520E-11
   41.70000     -1.2266602E-10
   41.76000     -1.4993860E-10
   41.82000     -1.7188705E-10
   41.88000     -1.9402781E-10
   41.94000     -2.2256746E-10
   42.00000     -2.6246547E-10
   42.06000     -3.1566014E-10
   42.12000     -3.8029174E-10
   42.18000     -4.5139187E-10
   42.24000     -5.2282306E-10
   42.30000     -5.8963340E-10
   42.36000     -6.4980660E-10
   42.42000     -7.0474826E-10
   42.48000     -7.5851597E-10
   42.54000     -8.1636792E-10
   42.60000     -8.8335100E-10
   42.66000     -9.6336361E-10
   42.72000     -1.0586936E-09
   42.78000     -1.1697844E-09
   42.84000     -1.2950764E-09
   42.90000     -1.4310568E-09
   42.96000     -1.5728168E-09
   43.02000     -1.7152323E-09
   43.08000     -1.8544388E-09
   43.14000     -1.9888726E-09
   43.20000     -2.1191746E-09
   43.26000     -2.2467825E-09
   43.32000     -2.3717963E-09
   43.38000     -2.4912274E-09
   43.44000     -2.5986533E-09
   43.50000     -2.6856046E-09
   43.56000     -2.7441009E-09
   43.62000     -2.7691587E-09
   43.68000     -2.7601521E-09
   43.74000     -2.7205489E-09
   43.80000     -2.6563634E-09
   43.86000     -2.5741693E-09
   43.92000     -2.4795077E-09
   43.98000     -2.3760878E-09
   44.04000     -2.2656874E-09
   44.10000     -2.1484228E-09
   44.16000     -2.0231368E-09
   44.22000     -1.8878805E-09
   44.28000     -1.7405780E-09
   44.34000     -1.5798475E-09
   44.40000     -1.4057069E-09
   44.46000     -1.2197704E-09
   44.52000     -1.0246984E-09
   44.58000     -8.2305668E-10
   44.64000     -6.1612915E-10
   44.70000     -4.0332543E-10
   44.76000     -1.8254397E-10
   44.82000      4.8666855E-11
   44.88000      2.9174624E-10
   44.94000      5.4624555E-10
   45.00000      8.0982931E-10
   45.06000      1.0790476E-09
   45.12000      1.3503861E-09
   45.18000      1.6210455E-09
   45.24000      1.8891606E-09
   45.30000      2.1535633E-09
   45.36000      2.4134377E-09
   45.42000      2.6682028E-09
   45.48000      2.9177036E-09
   45.54000      3.1625040E-09
   45.60000      3.4039622E-09
   45.66000      3.6438703E-09
   45.72000      3.8837191E-09
   45.78000      4.1238963E-09
   45.84000      4.3631960E-09
   45.90000      4.5988839E-09
   45.96000      4.8272910E-09
   46.02000      5.0446638E-09
   46.08000      5.2479159E-09
   46.14000      5.4350155E-09
   46.20000      5.6049436E-09
   46.26000      5.7573661E-09
   46.32000      5.8922334E-09
   46.38000      6.0095160E-09
   46.44000      6.1091172E-09
   46.50000      6.1909362E-09
   46.56000      6.2549601E-09
   46.62000      6.3013395E-09
   46.68000      6.3304366E-09
   46.74000      6.3428987E-09
   46.80000      6.3397816E-09
   46.86000      6.3226877E-09
   46.92000      6.2938037E-09
   46.98000      6.2557524E-09
   47.04000      6.2112213E-09
   47.10000      6.1624577E-09
   47.16000      6.1107843E-09
   47.22000      6.0562972E-09
   47.28000      5.9978045E-09
   47.34000      5.9329892E-09
   47.40000      5.8587086E-09
   47.46000      5.7713740E-09
   47.52000      5.6674097E-09
   47.58000      5.5438085E-09
   47.64000      5.3987637E-09
   47.70000      5.2322142E-09
   47.76000      5.0460987E-09
   47.82000      4.8441016E-09
   47.88000      4.6308850E-09
   47.94000      4.4110178E-09
   48.00000      4.1879855E-09
   48.06000      3.9636614E-09
   48.12000      3.7383923E-09
   48.18000      3.5115841E-09
   48.24000      3.2824394E-09
   48.30000      3.0504841E-09
   48.36000      2.8156997E-09
   48.42000      2.5783351E-09
   48.48000      2.3386575E-09
   48.54000      2.0969100E-09
   48.60000      1.8535932E-09
   48.66000      1.6099577E-09
   48.72000      1.3684354E-09
   48.78000      1.1327124E-09
   48.84000      9.0727309E-10
   48.90000      6.9643358E-10
   48.96000      5.0308890E-10
   49.02000      3.2753270E-10
   49.08000      1.6674748E-10
   49.14000      1.4483918E-11
   49.20000     -1.3774826E-10
   49.26000     -2.9893105E-10
   49.32000     -4.7646354E-10
   49.38000     -6.7436090E-10
   49.44000     -8.9229057E-10
   49.50000     -1.1257556E-09
   49.56000     -1.3673538E-09
   49.62000     -1.6086892E-09
   49.68000     -1.8423378E-09
   49.74000     -2.0633142E-09
   49.80000     -2.2697073E-09
   49.86000     -2.4624240E-09
   49.92000     -2.6441942E-09
   49.98000     -2.8181388E-09
   50.04000     -2.9862814E-09
   50.10000     -3.1484171E-09
   50.16000     -3.3017262E-09
   50.22000     -3.4413348E-09
   50.28000     -3.5616989E-09
   50.34000     -3.6583172E-09
   50.40000     -3.7290362E-09
   50.46000     -3.7743244E-09
   50.52000     -3.7963410E-09
   50.58000     -3.7972474E-09
   50.64000     -3.7776511E-09
   50.70000     -3.7360692E-09
   50.76000     -3.6697640E-09
   50.82000     -3.5765764E-09
   50.88000     -3.4568031E-09
   50.94000     -3.3140961E-09
   51.00000     -3.1548617E-09
   51.06000     -2.9863689E-09
   51.12000     -2.8143998E-09
   51.18000     -2.6414315E-09
   51.24000     -2.4660141E-09
   51.30000     -2.2834628E-09
   51.36000     -2.0874791E-09
   51.42000     -1.8721042E-09
   51.48000     -1.6334589E-09
   51.54000     -1.3709185E-09
   51.60000     -1.0875506E-09
   51.66000     -7.8977203E-10
   51.72000     -4.8631005E-10
   51.78000     -1.8673228E-10
   51.84000      1.0001433E-10
   51.90000      3.6654701E-10
   51.96000      6.0712957E-10
   52.02000      8.1691726E-10
   52.08000      9.9078401E-10
   52.14000      1.1223488E-09
   52.20000      1.2036799E-09
   52.26000      1.2257545E-09
   52.32000      1.1793091E-09
   52.38000      1.0555059E-09
   52.44000      8.4598983E-10
   52.50000      5.4229859E-10
   52.56000      1.3499493E-10
   52.62000     -3.8693709E-10
   52.68000     -1.0360113E-09
   52.74000     -1.8254225E-09
   52.80000     -2.7678024E-09
   52.86000     -3.8740682E-09
   52.92000     -5.1528133E-09
   52.98000     -6.6104349E-09
   53.04000     -8.2518756E-09
   53.10000     -1.0081576E-08
   53.16000     -1.2104171E-08
   53.22000     -1.4324605E-08
   53.28000     -1.6747551E-08
   53.34000     -1.9376426E-08
   53.40000     -2.2212355E-08
   53.46000     -2.5253566E-08
   53.52000     -2.8495455E-08
   53.58000     -3.1931162E-08
   53.64000     -3.5552379E-08
   53.70000     -3.9349850E-08
   53.76000     -4.3313314E-08
   53.82000     -4.7430785E-08
   53.88000     -5.1687412E-08
   53.94000     -5.6064206E-08
   54.00000     -6.0537090E-08
   54.06000     -6.5076456E-08
   54.12000     -6.9647335E-08
   54.18000     -7.4210313E-08
   54.24000     -7.8722884E-08
   54.30000     -8.3140939E-08
   54.36000     -8.7419970E-08
   54.42000     -9.1515524E-08
   54.48000     -9.5382667E-08
   54.54000     -9.8974766E-08
   54.60000     -1.0224211E-07
   54.66000     -1.0513124E-07
   54.72000     -1.0758531E-07
   54.78000     -1.0954578E-07
   54.84000     -1.1095448E-07
   54.90000     -1.1175560E-07
   54.96000     -1.1189660E-07
   55.02000     -1.1132818E-07
   55.08000     -1.1000349E-07
   55.14000     -1.0787719E-07
   55.20000     -1.0490518E-07
   55.26000     -1.0104506E-07
   55.32000     -9.6257409E-08
   55.38000     -9.0507534E-08
   55.44000     -8.3767382E-08
   55.50000     -7.6016903E-08
   55.56000     -6.7244763E-08