 -0.750000000       0.00000000    
 -0.689999998       0.00000000    
 -0.629999995       0.00000000    
 -0.569999993       0.00000000    
 -0.509999990       0.00000000    
 -0.449999988       9.08574397E-22
 -0.389999986       1.15186475E-20
 -0.330000013       6.37047527E-20
 -0.270000011       2.03819461E-19
 -0.209999993       3.79830687E-19
 -0.150000006       1.89855644E-19
  -9.00000036E-02  -1.28497318E-18
  -2.99999993E-02  -4.98597052E-18
   2.99999993E-02  -1.01862999E-17
   9.00000036E-02  -1.20874356E-17
  0.150000006      -1.05672592E-18
  0.209999993       3.28841186E-17
  0.270000011       8.84210613E-17
  0.330000013       1.38199500E-16
  0.389999986       1.22916313E-16
  0.449999988      -3.02209940E-17
  0.509999990      -3.57077697E-16
  0.569999993      -7.87967593E-16
  0.629999995      -1.10081492E-15
  0.689999998      -9.49382903E-16
  0.750000000      -2.15120953E-18
  0.810000002       1.82602304E-15
  0.870000005       4.13889267E-15
  0.930000007       5.96270664E-15
  0.990000010       5.92541051E-15
   1.04999995       2.76221679E-15
   1.11000001      -3.95216679E-15
   1.16999996      -1.31096670E-14
   1.23000002      -2.17836477E-14
   1.28999996      -2.56937568E-14
   1.35000002      -2.05541625E-14
   1.40999997      -4.06815271E-15
   1.47000003       2.20975056E-14
   1.52999997       5.13233831E-14
   1.59000003       7.29407854E-14
   1.64999998       7.53747108E-14
   1.71000004       5.08800155E-14
   1.76999998       1.60611913E-16
   1.83000004      -6.53975910E-14
   1.88999999      -1.25684741E-13
   1.95000005      -1.58226785E-13
   2.00999999      -1.46972481E-13
   2.06999993      -8.98286369E-14
   2.13000011      -1.14033949E-15
   2.19000006       9.27828913E-14
   2.25000000       1.63725153E-13
   2.30999994       1.92816344E-13
   2.36999989       1.77583588E-13
   2.43000007       1.31255751E-13
   2.49000001       7.47180502E-14
   2.54999995       2.54398401E-14
   2.60999990      -1.06912338E-14
   2.67000008      -4.04449288E-14
   2.73000002      -7.71799074E-14
   2.78999996      -1.31560927E-13
   2.84999990      -2.04350466E-13
   2.91000009      -2.84535633E-13
   2.97000003      -3.52213159E-13
   3.02999997      -3.82910717E-13
   3.08999991      -3.50522915E-13
   3.15000010      -2.29431166E-13
   3.21000004       2.51048337E-16
   3.26999998       3.40549041E-13
   3.32999992       7.57970618E-13
   3.39000010       1.16925360E-12
   3.45000005       1.44405050E-12
   3.50999999       1.43465535E-12
   3.56999993       1.03057406E-12
   3.63000011       2.19683700E-13
   3.69000006      -8.72977363E-13
   3.75000000      -1.99499033E-12
   3.80999994      -2.83313282E-12
   3.86999989      -3.11858200E-12
   3.93000007      -2.73052392E-12
   3.99000001      -1.75246948E-12
   4.05000019      -4.51604493E-13
   4.11000013       8.16825719E-13
   4.17000008       1.74483323E-12
   4.23000002       2.19221733E-12
   4.28999996       2.24179572E-12
   4.34999990       2.16431452E-12
   4.40999985       2.30358766E-12
   4.46999979       2.92268054E-12
   4.53000021       4.06509722E-12
   4.59000015       5.47768471E-12
   4.65000010       6.61975119E-12
   4.71000004       6.75633074E-12
   4.76999998       5.11226218E-12
   4.82999992       1.05283534E-12
   4.88999987      -5.74475276E-12
   4.94999981      -1.51607494E-11
   5.01000023      -2.65690629E-11
   5.07000017      -3.88601616E-11
   5.13000011      -5.05615064E-11
   5.19000006      -6.00523173E-11
   5.25000000      -6.58491317E-11
   5.30999994      -6.69160768E-11
   5.36999989      -6.29354624E-11
   5.42999983      -5.44695331E-11
   5.48999977      -4.29569054E-11
   5.55000019      -3.05188895E-11
   5.61000013      -1.95936080E-11
   5.67000008      -1.24602984E-11
   5.73000002      -1.07500259E-11
   5.78999996      -1.50534377E-11
   5.84999990      -2.47269063E-11
   5.90999985      -3.79645551E-11
   5.96999979      -5.21504541E-11
   6.03000021      -6.44395301E-11
   6.09000015      -7.24505941E-11
   6.15000010      -7.49067128E-11
   6.21000004      -7.20448562E-11
   6.26999998      -6.56527818E-11
   6.32999992      -5.86780902E-11
   6.38999987      -5.44749662E-11
   6.44999981      -5.58742531E-11
   6.51000023      -6.43377643E-11
   6.57000017      -7.94550814E-11
   6.63000011      -9.89506393E-11
   6.69000006      -1.19215526E-10
   6.75000000      -1.36215206E-10
   6.80999994      -1.46510221E-10
   6.86999989      -1.48102586E-10
   6.92999983      -1.40893311E-10
   6.98999977      -1.26671770E-10
   7.05000019      -1.08699834E-10
   7.11000013      -9.10495845E-11
   7.17000008      -7.78768092E-11
   7.23000002      -7.27710392E-11
   7.28999996      -7.82526405E-11
   7.34999990      -9.54292756E-11
   7.40999985      -1.23803107E-10
   7.46999979      -1.61233998E-10
   7.53000021      -2.04087386E-10
   7.59000015      -2.47599052E-10
   7.65000010      -2.86453750E-10
   7.71000004      -3.15514365E-10
   7.76999998      -3.30573541E-10
   7.82999992      -3.28974487E-10
   7.88999987      -3.09972964E-10
   7.94999981      -2.74783779E-10
   8.01000023      -2.26343208E-10
   8.06999969      -1.68882658E-10
   8.13000011      -1.07421037E-10
   8.18999958      -4.72504952E-11
   8.25000000       6.56797186E-12
   8.31000042       4.97216261E-11
   8.36999989       7.91922639E-11
   8.43000031       9.37955963E-11
   8.48999977       9.46062673E-11
   8.55000019       8.51141518E-11
   8.60999966       7.09707640E-11
   8.67000008       5.92661892E-11
   8.72999954       5.74048933E-11
   8.78999996       7.17741352E-11
   8.85000038       1.06480789E-10
   8.90999985       1.62436356E-10
   8.97000027       2.36999947E-10
   9.02999973       3.24263810E-10
   9.09000015       4.15922657E-10
   9.14999962       5.02540010E-10
   9.21000004       5.74943038E-10
   9.27000046       6.25462127E-10
   9.32999992       6.48784970E-10
   9.39000034       6.42310150E-10
   9.44999981       6.06028450E-10
   9.51000023       5.42078771E-10
   9.56999969       4.54180943E-10
   9.63000011       3.47112172E-10
   9.68999958       2.26288738E-10
   9.75000000       9.74006015E-11
   9.81000042      -3.40109468E-11
   9.86999989      -1.63101865E-10
   9.93000031      -2.86347224E-10
   9.98999977      -4.02052447E-10
   10.0500002      -5.10519682E-10
   10.1099997      -6.13712359E-10
   10.1700001      -7.14449777E-10
   10.2299995      -8.15370105E-10
   10.2900000      -9.18009058E-10
   10.3500004      -1.02229480E-09
   10.4099998      -1.12657261E-09
   10.4700003      -1.22804100E-09
   10.5299997      -1.32333788E-09
   10.5900002      -1.40902423E-09
   10.6499996      -1.48185031E-09
   10.7100000      -1.53887114E-09
   10.7700005      -1.57757363E-09
   10.8299999      -1.59613689E-09
   10.8900003      -1.59380320E-09
   10.9499998      -1.57119129E-09
   11.0100002      -1.53034485E-09
   11.0699997      -1.47441037E-09
   11.1300001      -1.40703726E-09
   11.1899996      -1.33175515E-09
   11.2500000      -1.25162136E-09
   11.3100004      -1.16930199E-09
   11.3699999      -1.08751941E-09
   11.4300003      -1.00959718E-09
   11.4899998      -9.39756384E-10
   11.5500002      -8.82917350E-10
   11.6099997      -8.43976222E-10
   11.6700001      -8.26764379E-10
   11.7299995      -8.33033753E-10
   11.7900000      -8.61819893E-10
   11.8500004      -9.09402720E-10
   11.9099998      -9.69896718E-10
   11.9700003      -1.03631914E-09
   12.0299997      -1.10186515E-09
   12.0900002      -1.16108501E-09
   12.1499996      -1.21070454E-09
   12.2100000      -1.24993216E-09
   12.2700005      -1.28022615E-09
   12.3299999      -1.30461530E-09
   12.3900003      -1.32675171E-09
   12.4499998      -1.34990130E-09
   12.5100002      -1.37604761E-09
   12.5699997      -1.40523082E-09
   12.6300001      -1.43519252E-09
   12.6899996      -1.46137469E-09
   12.7500000      -1.47732293E-09
   12.8100004      -1.47552892E-09
   12.8699999      -1.44868983E-09
   12.9300003      -1.39123035E-09
   12.9899998      -1.30078448E-09
   13.0500002      -1.17922905E-09
   13.1099997      -1.03287690E-09
   13.1700001      -8.71621830E-10
   13.2299995      -7.07133130E-10
   13.2900000      -5.50522572E-10
   13.3500004      -4.10136702E-10
   13.4099998      -2.90139052E-10
   13.4700003      -1.90333624E-10
   13.5299997      -1.07288137E-10
   13.5900002      -3.63806554E-11
   13.6499996       2.59367701E-11
   13.7100000       8.04628933E-11
   13.7700005       1.24785071E-10
   13.8299999       1.54241328E-10
   13.8900003       1.64005726E-10
   13.9499998       1.51560584E-10
   14.0100002       1.18630203E-10
   14.0699997       7.17947576E-11
   14.1300001       2.14471583E-11
   14.1899996      -2.06501170E-11
   14.2500000      -4.44285581E-11
   14.3100004      -4.41693730E-11
   14.3699999      -1.98519118E-11
   14.4300003       2.32441705E-11
   14.4899998       7.65018951E-11
   14.5500002       1.30772879E-10
   14.6099997       1.79039283E-10
   14.6700001       2.18046942E-10
   14.7299995       2.48438298E-10
   14.7900000       2.73474465E-10
   14.8500004       2.96935615E-10
   14.9099998       3.21048799E-10
   14.9700003       3.45233203E-10
   15.0299997       3.66104785E-10
   15.0900002       3.78686860E-10
   15.1499996       3.78312215E-10
   15.2100000       3.62460006E-10
   15.2700005       3.31830979E-10
   15.3299999       2.90305890E-10
   15.3900003       2.43900206E-10
   15.4499998       1.99216324E-10
   15.5100002       1.62032998E-10
   15.5699997       1.36502726E-10
   15.6300001       1.25054633E-10
   15.6899996       1.28728597E-10
   15.7500000       1.47498638E-10
   15.8100004       1.80269591E-10
   15.8699999       2.24565921E-10
   15.9300003       2.76266954E-10
   15.9899998       3.29857641E-10
   16.0499992       3.79465237E-10
   16.1100006       4.20524837E-10
   16.1700001       4.51494064E-10
   16.2299995       4.74860262E-10
   16.2900009       4.96872210E-10
   16.3500004       5.25906096E-10
   16.4099998       5.69925329E-10
   16.4699993       6.33861186E-10
   16.5300007       7.17787219E-10
   16.5900002       8.16485934E-10
   16.6499996       9.20564569E-10
   16.7099991       1.01882225E-09
   16.7700005       1.10124510E-09
   16.8299999       1.16183396E-09
   16.8899994       1.20047527E-09
   16.9500008       1.22322608E-09
   17.0100002       1.24074262E-09
   17.0699997       1.26509392E-09
   17.1299992       1.30578048E-09
   17.1900005       1.36620382E-09
   17.2500000       1.44188261E-09
   17.3099995       1.52124835E-09
   17.3700008       1.58897251E-09
   17.4300003       1.63079861E-09
   17.4899998       1.63820002E-09
   17.5499992       1.61117830E-09
   17.6100006       1.55819857E-09
   17.6700001       1.49335899E-09
   17.7299995       1.43193135E-09
   17.7900009       1.38595369E-09
   17.8500004       1.36141542E-09
   17.9099998       1.35784517E-09
   17.9699993       1.37017053E-09
   18.0300007       1.39192580E-09
   18.0900002       1.41852463E-09
   18.1499996       1.44943790E-09
   18.2099991       1.48858248E-09
   18.2700005       1.54285651E-09
   18.3299999       1.61934410E-09
   18.3899994       1.72212233E-09
   18.4500008       1.84974647E-09
   18.5100002       1.99431360E-09
   18.5699997       2.14252838E-09
   18.6299992       2.27852359E-09
   18.6900005       2.38755860E-09
   18.7500000       2.45936582E-09
   18.8099995       2.49002796E-09
   18.8700008       2.48183318E-09
   18.9300003       2.44132825E-09
   18.9899998       2.37645215E-09
   19.0499992       2.29387531E-09
   19.1100006       2.19743801E-09
   19.1700001       2.08800199E-09
   19.2299995       1.96445837E-09
   19.2900009       1.82525894E-09
   19.3500004       1.66983294E-09
   19.4099998       1.49946822E-09
   19.4699993       1.31751621E-09
   19.5300007       1.12898024E-09
   19.5900002       9.39629929E-10
   19.6499996       7.54836083E-10
   19.7099991       5.78396220E-10
   19.7700005       4.11686601E-10
   19.8299999       2.53467941E-10
   19.8899994       1.00490977E-10
   19.9500008      -5.12671294E-11
   20.0100002      -2.05195763E-10
   20.0699997      -3.63023611E-10
   20.1299992      -5.24516930E-10
   20.1900005      -6.87857493E-10
   20.2500000      -8.50305548E-10
   20.3099995      -1.00868214E-09
   20.3700008      -1.15944276E-09
   20.4300003      -1.29850797E-09
   20.4899998      -1.42127965E-09
   20.5499992      -1.52319379E-09
   20.6100006      -1.60079494E-09
   20.6700001      -1.65288527E-09
   20.7299995      -1.68112413E-09
   20.7900009      -1.68966641E-09
   20.8500004      -1.68392467E-09
   20.9099998      -1.66900549E-09
   20.9699993      -1.64851632E-09
   21.0300007      -1.62418212E-09
   21.0900002      -1.59622882E-09
   21.1499996      -1.56409508E-09
   21.2099991      -1.52696922E-09
   21.2700005      -1.48391266E-09
   21.3299999      -1.43370871E-09
   21.3899994      -1.37478906E-09
   21.4500008      -1.30550759E-09
   21.5100002      -1.22473953E-09
   21.5699997      -1.13250420E-09
   21.6299992      -1.03026865E-09
   21.6900005      -9.20781007E-10
   21.7500000      -8.07572842E-10
   21.8099995      -6.94414470E-10
   21.8700008      -5.84930271E-10
   21.9300003      -4.82344276E-10
   21.9899998      -3.89153626E-10
   22.0499992      -3.06569048E-10
   22.1100006      -2.33816744E-10
   22.1700001      -1.67669184E-10
   22.2299995      -1.02642832E-10
   22.2900009      -3.20679698E-11
   22.3500004       5.01922011E-11
   22.4099998       1.47968318E-10
   22.4699993       2.61636601E-10
   22.5300007       3.88019311E-10
   22.5900002       5.21310328E-10
   22.6499996       6.54611310E-10
   22.7099991       7.81519682E-10
   22.7700005       8.97334096E-10
   22.8299999       9.99704319E-10
   22.8899994       1.08877840E-09
   22.9500008       1.16698617E-09
   23.0100002       1.23857224E-09
   23.0699997       1.30892863E-09
   23.1299992       1.38377587E-09
   23.1900005       1.46827817E-09
   23.2500000       1.56622815E-09
   23.3099995       1.67942926E-09
   23.3700008       1.80735527E-09
   23.4300003       1.94711736E-09
   23.4899998       2.09375628E-09
   23.5499992       2.24088659E-09
   23.6100006       2.38169706E-09
   23.6700001       2.51019916E-09
   23.7299995       2.62244981E-09
   23.7900009       2.71737299E-09
   23.8500004       2.79685053E-09
   23.9099998       2.86499779E-09
   23.9699993       2.92686986E-09
   24.0300007       2.98708436E-09
   24.0900002       3.04885162E-09
   24.1499996       3.11366311E-09
   24.2099991       3.18156590E-09
   24.2700005       3.25171712E-09
   24.3299999       3.32289440E-09
   24.3899994       3.39381145E-09
   24.4500008       3.46327256E-09
   24.5100002       3.53028828E-09
   24.5699997       3.59419428E-09
   24.6299992       3.65469588E-09
   24.6900005       3.71172093E-09
   24.7500000       3.76506915E-09
   24.8099995       3.81404064E-09
   24.8700008       3.85731580E-09
   24.9300003       3.89327148E-09
   24.9899998       3.92062915E-09
   25.0499992       3.93909216E-09
   25.1100006       3.94951805E-09
   25.1700001       3.95342736E-09
   25.2299995       3.95199784E-09
   25.2900009       3.94501676E-09
   25.3500004       3.93033561E-09
   25.4099998       3.90411570E-09
   25.4699993       3.86177312E-09
   25.5300007       3.79922493E-09
   25.5900002       3.71397690E-09
   25.6499996       3.60575525E-09
   25.7099991       3.47662410E-09
   25.7700005       3.33071859E-09
   25.8299999       3.17372773E-09
   25.8899994       3.01220671E-09
   25.9500008       2.85275115E-09
   26.0100002       2.70110756E-09
   26.0699997       2.56138910E-09
   26.1299992       2.43560216E-09
   26.1900005       2.32361130E-09
   26.2500000       2.22350094E-09
   26.3099995       2.13214135E-09
   26.3700008       2.04575623E-09
   26.4300003       1.96038430E-09
   26.4899998       1.87228655E-09
   26.5499992       1.77840953E-09
   26.6100006       1.67691983E-09
   26.6700001       1.56767810E-09
   26.7299995       1.45242951E-09
   26.7900009       1.33456513E-09
   26.8500004       1.21851573E-09
   26.9099998       1.10903076E-09
   26.9699993       1.01061859E-09
   27.0300007       9.27248833E-10
   27.0900002       8.62187322E-10
   27.1499996       8.17713675E-10
   27.2099991       7.94602606E-10
   27.2700005       7.91538113E-10
   27.3299999       8.04871558E-10
   27.3899994       8.29107893E-10
   27.4500008       8.58182359E-10
   27.5100002       8.87141083E-10
   27.5699997       9.13556342E-10
   27.6299992       9.38090605E-10
   27.6900005       9.64028524E-10
   27.7500000       9.96082106E-10
   27.8099995       1.03903308E-09
   27.8700008       1.09668774E-09
   27.9300003       1.17127485E-09
   27.9899998       1.26310928E-09
   28.0499992       1.37029987E-09
   28.1100006       1.48849821E-09
   28.1700001       1.61097968E-09
   28.2299995       1.72941506E-09
   28.2900009       1.83542481E-09
   28.3500004       1.92252392E-09
   28.4099998       1.98770156E-09
   28.4699993       2.03190953E-09
   28.5300007       2.05919304E-09
   28.5900002       2.07486051E-09
   28.6499996       2.08353224E-09
   28.7099991       2.08791162E-09
   28.7700005       2.08865059E-09
   28.8299999       2.08508877E-09
   28.8899994       2.07623652E-09
   28.9500008       2.06141904E-09
   29.0100002       2.04036033E-09
   29.0699997       2.01291517E-09
   29.1299992       1.97884154E-09
   29.1900005       1.93785699E-09
   29.2500000       1.88989779E-09
   29.3099995       1.83526527E-09
   29.3700008       1.77438941E-09
   29.4300003       1.70723036E-09
   29.4899998       1.63266811E-09
   29.5499992       1.54832902E-09
   29.6100006       1.45109602E-09
   29.6700001       1.33815714E-09
   29.7299995       1.20812382E-09
   29.7900009       1.06171705E-09
   29.8500004       9.01771047E-10
   29.9099998       7.32680638E-10
   29.9699993       5.59654489E-10
   30.0300007       3.88098859E-10
   30.0900002       2.23201208E-10
   30.1499996       6.95273630E-11
   30.2099991      -6.96007696E-11
   30.2700005      -1.92966337E-10
   30.3299999      -3.02245867E-10
   30.3899994      -4.02218120E-10
   30.4500008      -5.00009978E-10
   30.5100002      -6.03415151E-10
   30.5699997      -7.18817950E-10
   30.6299992      -8.49534498E-10
   30.6900005      -9.95258764E-10
   30.7500000      -1.15281762E-09
   30.8099995      -1.31783795E-09
   30.8700008      -1.48652002E-09
   30.9300003      -1.65670933E-09
   30.9899998      -1.82783644E-09
   31.0499992      -1.99987071E-09
   31.1100006      -2.17189533E-09
   31.1700001      -2.34107844E-09
   31.2299995      -2.50260923E-09
   31.2900009      -2.65072009E-09
   31.3500004      -2.78043477E-09
   31.4099998      -2.88935031E-09
   31.4699993      -2.97871861E-09
   31.5300007      -3.05332626E-09
   31.5900002      -3.12010040E-09
   31.6499996      -3.18584426E-09
   31.7099991      -3.25486083E-09
   31.7700005      -3.32731553E-09
   31.8299999      -3.39896222E-09
   31.8899994      -3.46238838E-09
   31.9500008      -3.50936236E-09
   32.0099983      -3.53344620E-09
   32.0699997      -3.53194429E-09
   32.1300011      -3.50652618E-09
   32.1899986      -3.46240814E-09
   32.2500000      -3.40652728E-09
   32.3100014      -3.34546835E-09
   32.3699989      -3.28389205E-09
   32.4300003      -3.22389293E-09
   32.4900017      -3.16528825E-09
   32.5499992      -3.10650461E-09
   32.6100006      -3.04562287E-09
   32.6699982      -2.98121994E-09
   32.7299995      -2.91283042E-09
   32.7900009      -2.84099855E-09
   32.8499985      -2.76696643E-09
   32.9099998      -2.69208211E-09
   32.9700012      -2.61706190E-09
   33.0299988      -2.54133914E-09
   33.0900002      -2.46279286E-09
   33.1500015      -2.37810216E-09
   33.2099991      -2.28375319E-09
   33.2700005      -2.17740737E-09
   33.3300018      -2.05908623E-09
   33.3899994      -1.93158933E-09
   33.4500008      -1.79983950E-09
   33.5099983      -1.66931224E-09
   33.5699997      -1.54415958E-09
   33.6300011      -1.42582446E-09
   33.6899986      -1.31275901E-09
   33.7500000      -1.20137178E-09
   33.8100014      -1.08777609E-09
   33.8699989      -9.69564762E-10
   33.9300003      -8.46849202E-10
   33.9900017      -7.22178983E-10
   34.0499992      -5.99478189E-10
   34.1100006      -4.82567597E-10
   34.1699982      -3.73965886E-10
   34.2299995      -2.74458789E-10
   34.2900009      -1.83501811E-10
   34.3499985      -1.00115936E-10
   34.4099998      -2.37385597E-11
   34.4700012       4.54154735E-11
   34.5299988       1.06618034E-10
   34.5900002       1.59305333E-10
   34.6500015       2.03758344E-10
   34.7099991       2.41412612E-10
   34.7700005       2.74650996E-10
   34.8300018       3.06200010E-10
   34.8899994       3.38407857E-10
   34.9500008       3.72659986E-10
   35.0099983       4.09042217E-10
   35.0699997       4.46220005E-10
   35.1300011       4.81469808E-10
   35.1899986       5.10882447E-10
   35.2500000       5.29856603E-10
   35.3100014       5.33985745E-10
   35.3699989       5.20263777E-10
   35.4300003       4.88275920E-10
   35.4900017       4.40876169E-10
   35.5499992       3.83936438E-10
   35.6100006       3.25095589E-10
   35.6699982       2.71881351E-10
   35.7299995       2.29881558E-10
   35.7900009       2.01625647E-10
   35.8499985       1.86503424E-10
   35.9099998       1.81586607E-10
   35.9700012       1.82882334E-10
   36.0299988       1.86490823E-10
   36.0900002       1.89349925E-10
   36.1500015       1.89540980E-10
   36.2099991       1.86318364E-10
   36.2700005       1.80022885E-10
   36.3300018       1.71918757E-10
   36.3899994       1.63899505E-10
   36.4500008       1.58035821E-10
   36.5099983       1.56063787E-10
   36.5699997       1.59004337E-10
   36.6300011       1.67060935E-10
   36.6899986       1.79768631E-10
   36.7500000       1.96192007E-10
   36.8100014       2.14941356E-10
   36.8699989       2.33950415E-10
   36.9300003       2.50216486E-10
   36.9900017       2.59854083E-10
   37.0499992       2.58706695E-10
   37.1100006       2.43433051E-10
   37.1699982       2.12637588E-10
   37.2299995       1.67485859E-10
   37.2900009       1.11445311E-10
   37.3499985       4.92182579E-11
   37.4099998      -1.46668701E-11
   37.4700012      -7.70033759E-11
   37.5299988      -1.36374231E-10
   37.5900002      -1.92894214E-10
   37.6500015      -2.47504989E-10
   37.7099991      -3.01207670E-10
   37.7700005      -3.54506091E-10
   37.8300018      -4.07136158E-10
   37.8899994      -4.58029920E-10
   37.9500008      -5.05457842E-10
   38.0099983      -5.47344448E-10
   38.0699997      -5.81750648E-10
   38.1300011      -6.07424611E-10
   38.1899986      -6.24207852E-10
   38.2500000      -6.33074593E-10
   38.3100014      -6.35727138E-10
   38.3699989      -6.33915975E-10
   38.4300003      -6.28822550E-10
   38.4900017      -6.20813123E-10
   38.5499992      -6.09643669E-10
   38.6100006      -5.94915783E-10
   38.6699982      -5.76450998E-10
   38.7299995      -5.54344848E-10
   38.7900009      -5.28710575E-10
   38.8499985      -4.99335240E-10
   38.9099998      -4.65497474E-10
   38.9700012      -4.26033375E-10
   39.0299988      -3.79540122E-10
   39.0900002      -3.24539867E-10
   39.1500015      -2.59548688E-10
   39.2099991      -1.83188215E-10
   39.2700005      -9.45452536E-11
   39.3300018       6.17499194E-12
   39.3899994       1.16960441E-10
   39.4500008       2.33740527E-10
   39.5099983       3.50959095E-10
   39.5699997       4.62960087E-10
   39.6300011       5.65682001E-10
   39.6899986       6.57893962E-10
   39.7500000       7.41368467E-10
   39.8100014       8.19902646E-10
   39.8699989       8.97664776E-10
   39.9300003       9.77620984E-10
   39.9900017       1.06064213E-09
   40.0499992       1.14544696E-09
   40.1100006       1.22911481E-09
   40.1699982       1.30775435E-09
   40.2299995       1.37708034E-09
   40.2900009       1.43293788E-09
   40.3499985       1.47194057E-09
   40.4099998       1.49226842E-09
   40.4700012       1.49439006E-09
   40.5299988       1.48129309E-09
   40.5900002       1.45792378E-09
   40.6500015       1.42990875E-09
   40.7099991       1.40204681E-09
   40.7700005       1.37721901E-09
   40.8300018       1.35615241E-09
   40.8899994       1.33801614E-09
   40.9500008       1.32140932E-09
   41.0099983       1.30516975E-09
   41.0699997       1.28865274E-09
   41.1300011       1.27151589E-09
   41.1899986       1.25334310E-09
   41.2500000       1.23346289E-09
   41.3100014       1.21109378E-09
   41.3699989       1.18566590E-09
   41.4300003       1.15702647E-09
   41.4900017       1.12532950E-09
   41.5499992       1.09065623E-09
   41.6100006       1.05262421E-09
   41.6699982       1.01029107E-09
   41.7299995       9.62497859E-10
   41.7900009       9.08537079E-10
   41.8499985       8.48827009E-10
   41.9099998       7.85219778E-10
   41.9700012       7.20720039E-10
   42.0299988       6.58646304E-10
   42.0900002       6.01536931E-10
   42.1500015       5.50258172E-10
   42.2099991       5.03734832E-10
   42.2700005       4.59494498E-10
   42.3300018       4.14855900E-10
   42.3899994       3.68265002E-10
   42.4500008       3.20150129E-10
   42.5099983       2.72836642E-10
   42.5699997       2.29489705E-10
   42.6300011       1.92543106E-10
   42.6899986       1.62359695E-10
   42.7500000       1.36787540E-10
   42.8100014       1.11840009E-10
   42.8699989       8.31787139E-11
   42.9300003       4.77130696E-11
   42.9900017       4.63652988E-12
   43.0499992      -4.44321593E-11
   43.1100006      -9.60911767E-11
   43.1699982      -1.46186771E-10
   43.2299995      -1.90843633E-10
   43.2900009      -2.27302496E-10
   43.3499985      -2.54550547E-10
   43.4099998      -2.73736311E-10
   43.4700012      -2.88226581E-10
   43.5299988      -3.03066849E-10
   43.5900002      -3.23742311E-10
   43.6500015      -3.54492630E-10
   43.7099991      -3.96808447E-10
   43.7700005      -4.48834248E-10
   43.8300018      -5.06077347E-10
   43.8899994      -5.63205538E-10
   43.9500008      -6.16160345E-10
   44.0099983      -6.63657962E-10
   44.0699997      -7.07502890E-10
   44.1300011      -7.51765150E-10
   44.1899986      -8.01390787E-10
   44.2500000      -8.60924998E-10
   44.3100014      -9.33727207E-10
   44.3699989      -1.02163189E-09
   44.4300003      -1.12478404E-09
   44.4900017      -1.24150334E-09
   44.5499992      -1.36833078E-09
   44.6100006      -1.50058066E-09
   44.6699982      -1.63352565E-09
   44.7299995      -1.76386827E-09
   44.7900009      -1.89074556E-09
   44.8499985      -2.01553618E-09
   44.9099998      -2.14029017E-09
   44.9700012      -2.26541075E-09
   45.0299988      -2.38775999E-09
   45.0900002      -2.50028442E-09
   45.1500015      -2.59352517E-09
   45.2099991      -2.65839750E-09
   45.2700005      -2.68899458E-09
   45.3300018      -2.68418798E-09
   45.3899994      -2.64747113E-09
   45.4500008      -2.58535549E-09
   45.5099983      -2.50520182E-09
   45.5699997      -2.41339171E-09
   45.6300011      -2.31431119E-09
   45.6899986      -2.21010454E-09
   45.7500000      -2.10088147E-09
   45.8100014      -1.98512895E-09
   45.8699989      -1.86029248E-09
   45.9300003      -1.72359760E-09
   45.9900017      -1.57306423E-09
   46.0499992      -1.40838774E-09
   46.1100006      -1.23123411E-09
   46.1699982      -1.04465780E-09
   46.2299995      -8.51790527E-10
   46.2900009      -6.54399535E-10
   46.3499985      -4.52053894E-10
   46.4099998      -2.42362685E-10
   46.4700012      -2.21795360E-11
   46.5299988       2.10839610E-10
   46.5900002       4.57096888E-10
   46.6500015       7.14822534E-10
   46.7099991       9.80723946E-10
   46.7700005       1.25104838E-09
   46.8300018       1.52248258E-09
   46.8899994       1.79255577E-09
   46.9500008       2.05959472E-09
   47.0099983       2.32254038E-09
   47.0699997       2.58091593E-09
   47.1300011       2.83499624E-09
   47.1899986       3.08595705E-09
   47.2500000       3.33570349E-09
   47.3100014       3.58624264E-09
   47.3699989       3.83876664E-09
   47.4300003       4.09284784E-09
   47.4900017       4.34615899E-09
   47.5499992       4.59489602E-09
   47.6100006       4.83472729E-09
   47.6699982       5.06186293E-09
   47.7299995       5.27379029E-09
   47.7900009       5.46941781E-09
   47.8499985       5.64867486E-09
   47.9099998       5.81183546E-09
   47.9700012       5.95891470E-09
   48.0299988       6.08937567E-09
   48.0900002       6.20219653E-09
   48.1500015       6.29619201E-09
   48.2099991       6.37041131E-09
   48.2700005       6.42447295E-09
   48.3300018       6.45876552E-09
   48.3899994       6.47452358E-09
   48.4500008       6.47377796E-09
   48.5099983       6.45919584E-09
   48.5699997       6.43379261E-09
   48.6300011       6.40055253E-09
   48.6899986       6.36201047E-09
   48.7500000       6.31990016E-09
   48.8100014       6.27495567E-09
   48.8699989       6.22687768E-09
   48.9300003       6.17443163E-09
   48.9900017       6.11558448E-09
   49.0499992       6.04764416E-09
   49.1100006       5.96742167E-09
   49.1699982       5.87151794E-09
   49.2299995       5.75679993E-09
   49.2900009       5.62105429E-09
   49.3499985       5.46362600E-09
   49.4099998       5.28580113E-09
   49.4700012       5.09070608E-09
   49.5299988       4.88267471E-09
   49.5900002       4.66627714E-09
   49.6500015       4.44535608E-09
   49.7099991       4.22241175E-09
   49.7700005       3.99852329E-09
   49.8300018       3.77372356E-09
   49.8899994       3.54756535E-09
   49.9500008       3.31956840E-09
   50.0099983       3.08937520E-09
   50.0699997       2.85666624E-09
   50.1300011       2.62104183E-09
   50.1899986       2.38211140E-09
   50.2500000       2.13989004E-09
   50.3100014       1.89538252E-09
   50.3699989       1.65107550E-09
   50.4300003       1.41100642E-09
   50.4900017       1.18021271E-09
   50.5499992       9.63590541E-10
   50.6100006       7.64441455E-10