 -0.750000000       0.00000000    
 -0.689999998       0.00000000    
 -0.629999995       0.00000000    
 -0.569999993       0.00000000    
 -0.509999990       0.00000000    
 -0.449999988       1.25176765E-20
 -0.389999986       7.40549341E-20
 -0.330000013       1.66785500E-19
 -0.270000011      -1.95444151E-20
 -0.209999993      -1.28872878E-18
 -0.150000006      -4.54781212E-18
  -9.00000036E-02  -9.36595928E-18
  -2.99999993E-02  -1.20089775E-17
   2.99999993E-02  -4.92203815E-18
   9.00000036E-02   1.99469857E-17
  0.150000006       6.36976916E-17
  0.209999993       1.12919881E-16
  0.270000011       1.39381455E-16
  0.330000013       1.12188812E-16
  0.389999986       1.83306152E-17
  0.449999988      -1.24048505E-16
  0.509999990      -2.78017177E-16
  0.569999993      -4.28329500E-16
  0.629999995      -6.20847463E-16
  0.689999998      -9.46510508E-16
  0.750000000      -1.42915465E-15
  0.810000002      -1.84690770E-15
  0.870000005      -1.61817926E-15
  0.930000007       6.04735136E-17
  0.990000010       3.71529996E-15
   1.04999995       8.86670193E-15
   1.11000001       1.35079309E-14
   1.16999996       1.43774441E-14
   1.23000002       8.37637065E-15
   1.28999996      -5.18486019E-15
   1.35000002      -2.26530000E-14
   1.40999997      -3.59885563E-14
   1.47000003      -3.56935110E-14
   1.52999997      -1.62571948E-14
   1.59000003       1.82992693E-14
   1.64999998       5.24085576E-14
   1.71000004       6.33909022E-14
   1.76999998       3.23224486E-14
   1.83000004      -4.27422007E-14
   1.88999999      -1.38252731E-13
   1.95000005      -2.08050374E-13
   2.00999999      -1.99845403E-13
   2.06999993      -8.03558337E-14
   2.13000011       1.41975624E-13
   2.19000006       4.09121033E-13
   2.25000000       6.27618075E-13
   2.30999994       7.01677323E-13
   2.36999989       5.71935565E-13
   2.43000007       2.41961778E-13
   2.49000001      -2.20923960E-13
   2.54999995      -7.11789080E-13
   2.60999990      -1.12839631E-12
   2.67000008      -1.40458847E-12
   2.73000002      -1.51842709E-12
   2.78999996      -1.47037189E-12
   2.84999990      -1.24492712E-12
   2.91000009      -7.82236634E-13
   2.97000003       1.40932544E-14
   3.02999997       1.22225223E-12
   3.08999991       2.81520532E-12
   3.15000010       4.57949520E-12
   3.21000004       6.08715162E-12
   3.26999998       6.75563425E-12
   3.32999992       5.99891924E-12
   3.39000010       3.43319947E-12
   3.45000005      -9.29913807E-13
   3.50999999      -6.57648241E-12
   3.56999993      -1.25205063E-11
   3.63000011      -1.74768932E-11
   3.69000006      -2.01328051E-11
   3.75000000      -1.94398508E-11
   3.80999994      -1.48474410E-11
   3.86999989      -6.42700650E-12
   3.93000007       5.11721741E-12
   3.99000001       1.85158208E-11
   4.05000019       3.20326231E-11
   4.11000013       4.35663068E-11
   4.17000008       5.07683826E-11
   4.23000002       5.12266965E-11
   4.28999996       4.27707279E-11
   4.34999990       2.39212226E-11
   4.40999985      -5.55699193E-12
   4.46999979      -4.41071207E-11
   4.53000021      -8.79829543E-11
   4.59000015      -1.31135075E-10
   4.65000010      -1.65453262E-10
   4.71000004      -1.81352738E-10
   4.76999998      -1.68617550E-10
   4.82999992      -1.17377261E-10
   4.88999987      -1.91029380E-11
   4.94999981       1.32449815E-10
   5.01000023       3.40383888E-10
   5.07000017       6.03909922E-10
   5.13000011       9.17749265E-10
   5.19000006       1.27179356E-09
   5.25000000       1.65116609E-09
   5.30999994       2.03682782E-09
   5.36999989       2.40680498E-09
   5.42999983       2.73797740E-09
   5.48999977       3.00823433E-09
   5.55000019       3.19867555E-09
   5.61000013       3.29550431E-09
   5.67000008       3.29131611E-09
   5.73000002       3.18560356E-09
   5.78999996       2.98446357E-09
   5.84999990       2.69961498E-09
   5.90999985       2.34693109E-09
   5.96999979       1.94469685E-09
   6.03000021       1.51180124E-09
   6.09000015       1.06602682E-09
   6.15000010       6.22579932E-10
   6.21000004       1.92966670E-10
   6.26999998      -2.15703955E-10
   6.32999992      -6.00954786E-10
   6.38999987      -9.64726965E-10
   6.44999981      -1.31277889E-09
   6.51000023      -1.65378922E-09
   6.57000017      -1.99825267E-09
   6.63000011      -2.35724307E-09
   6.69000006      -2.74109380E-09
   6.75000000      -3.15803628E-09
   6.80999994      -3.61286512E-09
   6.86999989      -4.10574374E-09
   6.92999983      -4.63133798E-09
   6.98999977      -5.17851628E-09
   7.05000019      -5.73086112E-09
   7.11000013      -6.26817798E-09
   7.17000008      -6.76901779E-09
   7.23000002      -7.21397697E-09
   7.28999996      -7.58923502E-09
   7.34999990      -7.88959653E-09
   7.40999985      -8.12018008E-09
   7.46999979      -8.29614866E-09
   7.53000021      -8.44026182E-09
   7.59000015      -8.57864801E-09
   7.65000010      -8.73576056E-09
   7.71000004      -8.92980445E-09
   7.76999998      -9.16987641E-09
   7.82999992      -9.45555634E-09
   7.88999987      -9.77901404E-09
   7.94999981      -1.01288213E-08
   8.01000023      -1.04941957E-08
   8.06999969      -1.08682316E-08
   8.13000011      -1.12490932E-08
   8.18999958      -1.16388392E-08
   8.25000000      -1.20404557E-08
   8.31000042      -1.24542856E-08
   8.36999989      -1.28753612E-08
   8.43000031      -1.32928148E-08
   8.48999977      -1.36918406E-08
   8.55000019      -1.40577487E-08
   8.60999966      -1.43808254E-08
   8.67000008      -1.46602774E-08
   8.72999954      -1.49057655E-08
   8.78999996      -1.51356812E-08
   8.85000038      -1.53724109E-08
   8.90999985      -1.56358269E-08
   8.97000027      -1.59369069E-08
   9.02999973      -1.62734004E-08
   9.09000015      -1.66289809E-08
   9.14999962      -1.69762568E-08
   9.21000004      -1.72829324E-08
   9.27000046      -1.75194934E-08
   9.32999992      -1.76663004E-08
   9.39000034      -1.77181523E-08
   9.44999981      -1.76850445E-08
   9.51000023      -1.75889259E-08
   9.56999969      -1.74573955E-08
   9.63000011      -1.73162071E-08
   9.68999958      -1.71828063E-08
   9.75000000      -1.70628756E-08
   9.81000042      -1.69508958E-08
   9.86999989      -1.68344876E-08
   9.93000031      -1.67010015E-08
   9.98999977      -1.65440728E-08
   10.0500002      -1.63677694E-08
   10.1099997      -1.61867622E-08
   10.1700001      -1.60223337E-08
   10.2299995      -1.58954396E-08
   10.2900000      -1.58192108E-08
   10.3500004      -1.57935904E-08
   10.4099998      -1.58041562E-08
   10.4700003      -1.58259237E-08
   10.5299997      -1.58311710E-08
   10.5900002      -1.57989160E-08
   10.6499996      -1.57229731E-08
   10.7100000      -1.56157665E-08
   10.7700005      -1.55063393E-08
   10.8299999      -1.54329243E-08
   10.8900003      -1.54321587E-08
   10.9499998      -1.55283679E-08
   11.0100002      -1.57263322E-08
   11.0699997      -1.60099312E-08
   11.1300001      -1.63470784E-08
   11.1899996      -1.66992873E-08
   11.2500000      -1.70326224E-08
   11.3100004      -1.73264407E-08
   11.3699999      -1.75771078E-08
   11.4300003      -1.77957933E-08
   11.4899998      -1.80014776E-08
   11.5500002      -1.82119368E-08
   11.6099997      -1.84360704E-08
   11.6700001      -1.86702351E-08
   11.7299995      -1.88997547E-08
   11.7900000      -1.91047356E-08
   11.8500004      -1.92678478E-08
   11.9099998      -1.93809875E-08
   11.9700003      -1.94481977E-08
   12.0299997      -1.94836911E-08
   12.0900002      -1.95055367E-08
   12.1499996      -1.95273770E-08
   12.2100000      -1.95512193E-08
   12.2700005      -1.95642151E-08
   12.3299999      -1.95408596E-08
   12.3900003      -1.94502157E-08
   12.4499998      -1.92658334E-08
   12.5100002      -1.89749478E-08
   12.5699997      -1.85837070E-08
   12.6300001      -1.81163546E-08
   12.6899996      -1.76084836E-08
   12.7500000      -1.70964078E-08
   12.8100004      -1.66061476E-08
   12.8699999      -1.61456235E-08
   12.9300003      -1.57026001E-08
   12.9899998      -1.52489967E-08
   13.0500002      -1.47501353E-08
   13.1099997      -1.41759067E-08
   13.1700001      -1.35103395E-08
   13.2299995      -1.27566819E-08
   13.2900000      -1.19365602E-08
   13.3500004      -1.10837082E-08
   13.4099998      -1.02343680E-08
   13.4700003      -9.41745348E-09
   13.5299997      -8.64746408E-09
   13.5900002      -7.92220778E-09
   13.6499996      -7.22579463E-09
   13.7100000      -6.53567911E-09
   13.7700005      -5.83131188E-09
   13.8299999      -5.10154985E-09
   13.8900003      -4.34849934E-09
   13.9499998      -3.58672825E-09
   14.0100002      -2.83835466E-09
   14.0699997      -2.12582019E-09
   14.1300001      -1.46482271E-09
   14.1899996      -8.59692650E-10
   14.2500000      -3.02576769E-10
   14.3100004       2.23504076E-10
   14.3699999       7.38902106E-10
   14.4300003       1.26086475E-09
   14.4899998       1.79843507E-09
   14.5500002       2.35028974E-09
   14.6099997       2.90606406E-09
   14.6700001       3.45055984E-09
   14.7299995       3.96930133E-09
   14.7900000       4.45351311E-09
   14.8500004       4.90286389E-09
   14.9099998       5.32517097E-09
   14.9700003       5.73341863E-09
   15.0299997       6.14141493E-09
   15.0900002       6.55989352E-09
   15.1499996       6.99457336E-09
   15.2100000       7.44678585E-09
   15.2700005       7.91612731E-09
   15.3299999       8.40365910E-09
   15.3900003       8.91394958E-09
   15.4499998       9.45473655E-09
   15.5100002       1.00340856E-08
   15.5699997       1.06561000E-08
   15.6300001       1.13169785E-08
   15.6899996       1.20032295E-08
   15.7500000       1.26930750E-08
   15.8100004       1.33608715E-08
   15.8699999       1.39831178E-08
   15.9300003       1.45439669E-08
   15.9899998       1.50382249E-08
   16.0499992       1.54706985E-08
   16.1100006       1.58520344E-08
   16.1700001       1.61924980E-08
   16.2299995       1.64958660E-08
   16.2900009       1.67556315E-08
   16.3500004       1.69548873E-08
   16.4099998       1.70700254E-08
   16.4699993       1.70771095E-08
   16.5300007       1.69589516E-08
   16.5900002       1.67107164E-08
   16.6499996       1.63424030E-08
   16.7099991       1.58775251E-08
   16.7700005       1.53483963E-08
   16.8299999       1.47893608E-08
   16.8899994       1.42297703E-08
   16.9500008       1.36886618E-08
   17.0100002       1.31725084E-08
   17.0699997       1.26767352E-08
   17.1299992       1.21905943E-08
   17.1900005       1.17040102E-08
   17.2500000       1.12143708E-08
   17.3099995       1.07311324E-08
   17.3700008       1.02767430E-08
   17.4300003       9.88351978E-09
   17.4899998       9.58738244E-09
   17.5499992       9.42033207E-09
   17.6100006       9.40382350E-09
   17.6700001       9.54472945E-09
   17.7299995       9.83462645E-09
   17.7900009       1.02520730E-08
   17.8500004       1.07668265E-08
   17.9099998       1.13446958E-08
   17.9699993       1.19518946E-08
   18.0300007       1.25582140E-08
   18.0900002       1.31387035E-08
   18.1499996       1.36739162E-08
   18.2099991       1.41489451E-08
   18.2700005       1.45517340E-08
   18.3299999       1.48712491E-08
   18.3899994       1.50961537E-08
   18.4500008       1.52144839E-08
   18.5100002       1.52144572E-08
   18.5699997       1.50861013E-08
   18.6299992       1.48230841E-08
   18.6900005       1.44240362E-08
   18.7500000       1.38928762E-08
   18.8099995       1.32380826E-08
   18.8700008       1.24712205E-08
   18.9300003       1.16052332E-08
   18.9899998       1.06529878E-08
   19.0499992       9.62637969E-09
   19.1100006       8.53602433E-09
   19.1700001       7.39138439E-09
   19.2299995       6.20104101E-09
   19.2900009       4.97281327E-09
   19.3500004       3.71347753E-09
   19.4099998       2.42802112E-09
   19.4699993       1.11859177E-09
   19.5300007      -2.16448137E-10
   19.5900002      -1.58284519E-09
   19.6499996      -2.98974911E-09
   19.7099991      -4.44792292E-09
   19.7700005      -5.96727823E-09
   19.8299999      -7.55450813E-09
   19.8899994      -9.21162879E-09
   19.9500008      -1.09359375E-08
   20.0100002      -1.27212747E-08
   20.0699997      -1.45599319E-08
   20.1299992      -1.64442522E-08
   20.1900005      -1.83670235E-08
   20.2500000      -2.03203498E-08
   20.3099995      -2.22932730E-08
   20.3700008      -2.42690081E-08
   20.4300003      -2.62230557E-08
   20.4899998      -2.81231625E-08
   20.5499992      -2.99317620E-08
   20.6100006      -3.16106572E-08
   20.6700001      -3.31269199E-08
   20.7299995      -3.44584059E-08
   20.7900009      -3.55971324E-08
   20.8500004      -3.65493378E-08
   20.9099998      -3.73319224E-08
   20.9699993      -3.79662666E-08
   21.0300007      -3.84713239E-08
   21.0900002      -3.88582961E-08
   21.1499996      -3.91284907E-08
   21.2099991      -3.92750650E-08
   21.2700005      -3.92878263E-08
   21.3299999      -3.91592394E-08
   21.3899994      -3.88895529E-08
   21.4500008      -3.84890981E-08
   21.5100002      -3.79772800E-08
   21.5699997      -3.73784452E-08
   21.6299992      -3.67162585E-08
   21.6900005      -3.60082950E-08
   21.7500000      -3.52625555E-08
   21.8099995      -3.44768054E-08
   21.8700008      -3.36407204E-08
   21.9300003      -3.27398730E-08
   21.9899998      -3.17601483E-08
   22.0499992      -3.06911616E-08
   22.1100006      -2.95279321E-08
   22.1700001      -2.82708061E-08
   22.2299995      -2.69243685E-08
   22.2900009      -2.54963890E-08
   22.3500004      -2.39975240E-08
   22.4099998      -2.24418368E-08
   22.4699993      -2.08475530E-08
   22.5300007      -1.92370901E-08
   22.5900002      -1.76357133E-08
   22.6499996      -1.60687570E-08
   22.7099991      -1.45581049E-08
   22.7700005      -1.31190578E-08
   22.8299999      -1.17586785E-08
   22.8899994      -1.04761764E-08
   22.9500008      -9.26521704E-09
   23.0100002      -8.11742762E-09
   23.0699997      -7.02600111E-09
   23.1299992      -5.98837335E-09
   23.1900005      -5.00719466E-09
   23.2500000      -4.08933509E-09
   23.3099995      -3.24317484E-09
   23.3700008      -2.47494625E-09
   23.4300003      -1.78519111E-09
   23.4899998      -1.16645538E-09
   23.5499992      -6.03016193E-10
   23.6100006      -7.28742552E-11
   23.6700001       4.48431181E-10
   23.7299995       9.83142345E-10
   23.7900009       1.54690505E-09
   23.8500004       2.14570450E-09
   23.9099998       2.77474332E-09
   23.9699993       3.41941409E-09
   24.0300007       4.05809697E-09
   24.0900002       4.66616523E-09
   24.1499996       5.22033838E-09
   24.2099991       5.70236347E-09
   24.2700005       6.10108986E-09
   24.3299999       6.41234355E-09
   24.3899994       6.63668054E-09
   24.4500008       6.77584078E-09
   24.5100002       6.82926116E-09
   24.5699997       6.79203005E-09
   24.6299992       6.65508848E-09
   24.6900005       6.40754338E-09
   24.7500000       6.04008354E-09
   24.8099995       5.54806734E-09
   24.8700008       4.93308061E-09
   24.9300003       4.20247437E-09
   24.9899998       3.36717587E-09
   25.0499992       2.43865084E-09
   25.1100006       1.42600409E-09
   25.1700001       3.34004380E-10
   25.2299995      -8.37511616E-10
   25.2900009      -2.09275219E-09
   25.3500004      -3.43775386E-09
   25.4099998      -4.87727325E-09
   25.4699993      -6.41152464E-09
   25.5300007      -8.03371147E-09
   25.5900002      -9.72923253E-09
   25.6499996      -1.14769865E-08
   25.7099991      -1.32524685E-08
   25.7700005      -1.50315742E-08
   25.8299999      -1.67937184E-08
   25.8899994      -1.85231546E-08
   25.9500008      -2.02081569E-08
   26.0100002      -2.18386447E-08
   26.0699997      -2.34034943E-08
   26.1299992      -2.48886707E-08
   26.1900005      -2.62768562E-08
   26.2500000      -2.75484364E-08
   26.3099995      -2.86831963E-08
   26.3700008      -2.96618996E-08
   26.4300003      -3.04671666E-08
   26.4899998      -3.10834984E-08
   26.5499992      -3.14966506E-08
   26.6100006      -3.16927711E-08
   26.6700001      -3.16576312E-08
   26.7299995      -3.13764303E-08
   26.7900009      -3.08344070E-08
   26.8500004      -3.00183807E-08
   26.9099998      -2.89191000E-08
   26.9699993      -2.75338294E-08
   27.0300007      -2.58684327E-08
   27.0900002      -2.39380782E-08
   27.1499996      -2.17661320E-08
   27.2099991      -1.93812681E-08
   27.2700005      -1.68136420E-08
   27.3299999      -1.40911363E-08
   27.3899994      -1.12368177E-08
   27.4500008      -8.26824831E-09
   27.5100002      -5.19874321E-09
   27.5699997      -2.04011030E-09
   27.6299992       1.19398025E-09
   27.6900005       4.48498261E-09
   27.7500000       7.80773579E-09
   27.8099995       1.11305898E-08
   27.8700008       1.44175010E-08
   27.9300003       1.76315442E-08
   27.9899998       2.07387565E-08
   28.0499992       2.37110100E-08
   28.1100006       2.65269442E-08
   28.1700001       2.91707334E-08
   28.2299995       3.16295186E-08
   28.2900009       3.38908244E-08
   28.3500004       3.59413761E-08
   28.4099998       3.77679719E-08
   28.4699993       3.93599642E-08
   28.5300007       4.07121341E-08
   28.5900002       4.18265849E-08
   28.6499996       4.27126103E-08
   28.7099991       4.33846026E-08
   28.7700005       4.38587300E-08
   28.8299999       4.41494024E-08
   28.8899994       4.42664323E-08
   28.9500008       4.42133015E-08
   29.0100002       4.39866277E-08
   29.0699997       4.35767156E-08
   29.1299992       4.29690736E-08
   29.1900005       4.21467732E-08
   29.2500000       4.10932088E-08
   29.3099995       3.97946351E-08
   29.3700008       3.82417973E-08
   29.4300003       3.64303325E-08
   29.4899998       3.43601698E-08
   29.5499992       3.20349436E-08
   29.6100006       2.94622104E-08
   29.6700001       2.66550604E-08
   29.7299995       2.36344988E-08
   29.7900009       2.04313348E-08
   29.8500004       1.70860943E-08
   29.9099998       1.36461749E-08
   29.9699993       1.01606439E-08
   30.0300007       6.67411593E-09
   30.0900002       3.22165494E-09
   30.1499996      -1.73811854E-10
   30.2099991      -3.50100549E-09
   30.2700005      -6.75723699E-09
   30.3299999      -9.94396920E-09
   30.3899994      -1.30623663E-08
   30.4500008      -1.61099614E-08
   30.5100002      -1.90791667E-08
   30.5699997      -2.19578453E-08
   30.6299992      -2.47317029E-08
   30.6900005      -2.73877099E-08
   30.7500000      -2.99173273E-08
   30.8099995      -3.23181482E-08
   30.8700008      -3.45930182E-08
   30.9300003      -3.67465063E-08
   30.9899998      -3.87799375E-08
   31.0499992      -4.06867642E-08
   31.1100006      -4.24503384E-08
   31.1700001      -4.40451906E-08
   31.2299995      -4.54414320E-08
   31.2900009      -4.66107934E-08
   31.3500004      -4.75320618E-08
   31.4099998      -4.81941278E-08
   31.4699993      -4.85958758E-08
   31.5300007      -4.87433987E-08
   31.5900002      -4.86459157E-08
   31.6499996      -4.83121241E-08
   31.7099991      -4.77481947E-08
   31.7700005      -4.69580144E-08
   31.8299999      -4.59453986E-08
   31.8899994      -4.47173498E-08
   31.9500008      -4.32870486E-08
   32.0099983      -4.16753387E-08
   32.0699997      -3.99099633E-08
   32.1300011      -3.80226268E-08
   32.1899986      -3.60447032E-08
   32.2500000      -3.40032074E-08
   32.3100014      -3.19184927E-08
   32.3699989      -2.98045961E-08
   32.4300003      -2.76720300E-08
   32.4900017      -2.55319268E-08
   32.5499992      -2.33998314E-08
   32.6100006      -2.12977227E-08
   32.6699982      -1.92534984E-08
   32.7299995      -1.72981185E-08
   32.7900009      -1.54613033E-08
   32.8499985      -1.37670284E-08
   32.9099998      -1.22300179E-08
   32.9700012      -1.08541771E-08
   33.0299988      -9.63346292E-09
   33.0900002      -8.55515303E-09
   33.1500015      -7.60483676E-09
   33.2099991      -6.77181777E-09
   33.2700005      -6.05330186E-09
   33.3300018      -5.45596279E-09
   33.3899994      -4.99428632E-09
   33.4500008      -4.68624561E-09
   33.5099983      -4.54784743E-09
   33.5699997      -4.58842297E-09
   33.6300011      -4.80809792E-09
   33.6899986      -5.19787102E-09
   33.7500000      -5.74169512E-09
   33.8100014      -6.41941433E-09
   33.8699989      -7.20944504E-09
   33.9300003      -8.09060818E-09
   33.9900017      -9.04304187E-09
   34.0499992      -1.00483959E-08
   34.1100006      -1.10895462E-08
   34.1699982      -1.21499326E-08
   34.2299995      -1.32126834E-08
   34.2900009      -1.42598253E-08
   34.3499985      -1.52720787E-08
   34.4099998      -1.62296061E-08
   34.4700012      -1.71137398E-08
   34.5299988      -1.79091941E-08
   34.5900002      -1.86059168E-08
   34.6500015      -1.91999003E-08
   34.7099991      -1.96927115E-08
   34.7700005      -2.00900114E-08
   34.8300018      -2.03997708E-08
   34.8899994      -2.06306865E-08
   34.9500008      -2.07910897E-08
   35.0099983      -2.08882120E-08
   35.0699997      -2.09276720E-08
   35.1300011      -2.09131823E-08
   35.1899986      -2.08466933E-08
   35.2500000      -2.07292139E-08
   35.3100014      -2.05622719E-08
   35.3699989      -2.03496171E-08
   35.4300003      -2.00985397E-08
   35.4900017      -1.98202041E-08
   35.5499992      -1.95289100E-08
   35.6100006      -1.92404350E-08
   35.6699982      -1.89700220E-08
   35.7299995      -1.87304252E-08
   35.7900009      -1.85303524E-08
   35.8499985      -1.83734432E-08
   35.9099998      -1.82579249E-08
   35.9700012      -1.81771256E-08
   36.0299988      -1.81208630E-08
   36.0900002      -1.80776212E-08
   36.1500015      -1.80369355E-08
   36.2099991      -1.79914306E-08
   36.2700005      -1.79380084E-08
   36.3300018      -1.78781274E-08
   36.3899994      -1.78175323E-08
   36.4500008      -1.77658350E-08
   36.5099983      -1.77361095E-08
   36.5699997      -1.77441883E-08
   36.6300011      -1.78071833E-08
   36.6899986      -1.79409696E-08
   36.7500000      -1.81569906E-08
   36.8100014      -1.84593958E-08
   36.8699989      -1.88435685E-08
   36.9300003      -1.92967100E-08
   36.9900017      -1.98001828E-08
   37.0499992      -2.03326209E-08
   37.1100006      -2.08725535E-08
   37.1699982      -2.13997282E-08
   37.2299995      -2.18950778E-08
   37.2900009      -2.23398047E-08
   37.3499985      -2.27143104E-08
   37.4099998      -2.29974404E-08
   37.4700012      -2.31661907E-08
   37.5299988      -2.31959287E-08
   37.5900002      -2.30612738E-08
   37.6500015      -2.27378241E-08
   37.7099991      -2.22047678E-08
   37.7700005      -2.14479261E-08
   37.8300018      -2.04622275E-08
   37.8899994      -1.92525675E-08
   37.9500008      -1.78324768E-08
   38.0099983      -1.62209624E-08
   38.0699997      -1.44387267E-08
   38.1300011      -1.25052448E-08
   38.1899986      -1.04375388E-08
   38.2500000      -8.25055047E-09
   38.3100014      -5.95809668E-09
   38.3699989      -3.57325391E-09
   38.4300003      -1.10756482E-09
   38.4900017       1.43058709E-09
   38.5499992       4.03739531E-09
   38.6100006       6.71372558E-09
   38.6699982       9.46333234E-09
   38.7299995       1.22894219E-08
   38.7900009       1.51904409E-08
   38.8499985       1.81561823E-08
   38.9099998       2.11651869E-08
   38.9700012       2.41842528E-08
   39.0299988       2.71704703E-08
   39.0900002       3.00759702E-08
   39.1500015       3.28548566E-08
   39.2099991       3.54709684E-08
   39.2700005       3.79044387E-08
   39.3300018       4.01547560E-08
   39.3899994       4.22388560E-08
   39.4500008       4.41842758E-08
   39.5099983       4.60193199E-08
   39.5699997       4.77632547E-08
   39.6300011       4.94199490E-08
   39.6899986       5.09769400E-08
   39.7500000       5.24102077E-08
   39.8100014       5.36928830E-08
   39.8699989       5.48048504E-08
   39.9300003       5.57401556E-08
   39.9900017       5.65097089E-08
   40.0499992       5.71384433E-08
   40.1100006       5.76577115E-08
   40.1699982       5.80952708E-08
   40.2299995       5.84662416E-08
   40.2900009       5.87683679E-08
   40.3499985       5.89838116E-08
   40.4099998       5.90874905E-08
   40.4700012       5.90595732E-08
   40.5299988       5.88977400E-08
   40.5900002       5.86244511E-08
   40.6500015       5.82858313E-08
   40.7099991       5.79416977E-08
   40.7700005       5.76495296E-08
   40.8300018       5.74475827E-08
   40.8899994       5.73427990E-08
   40.9500008       5.73077266E-08
   41.0099983       5.72875791E-08
   41.0699997       5.72154129E-08
   41.1300011       5.70306469E-08
   41.1899986       5.66952885E-08
   41.2500000       5.62029214E-08
   41.3100014       5.55777717E-08
   41.3699989       5.48642412E-08
   41.4300003       5.41102985E-08
   41.4900017       5.33502700E-08
   41.5499992       5.25928243E-08
   41.6100006       5.18183185E-08
   41.6699982       5.09866069E-08
   41.7299995       5.00525665E-08
   41.7900009       4.89837682E-08
   41.8499985       4.77738880E-08
   41.9099998       4.64468251E-08
   41.9700012       4.50499158E-08
   42.0299988       4.36386287E-08
   42.0900002       4.22580406E-08
   42.1500015       4.09276097E-08
   42.2099991       3.96344753E-08
   42.2700005       3.83375820E-08
   42.3300018       3.69813300E-08
   42.3899994       3.55143079E-08
   42.4500008       3.39069324E-08
   42.5099983       3.21622409E-08
   42.5699997       3.03159737E-08
   42.6300011       2.84257897E-08
   42.6899986       2.65529891E-08
   42.7500000       2.47428726E-08
   42.8100014       2.30106281E-08
   42.8699989       2.13378701E-08
   42.9300003       1.96812486E-08
   42.9900017       1.79901622E-08
   43.0499992       1.62272222E-08
   43.1100006       1.43840415E-08
   43.1699982       1.24866357E-08
   43.2299995       1.05884972E-08
   43.2900009       8.75387318E-09
   43.3499985       7.03709535E-09
   43.4099998       5.46504753E-09
   43.4700012       4.02865075E-09
   43.5299988       2.68614353E-09
   43.5900002       1.37712985E-09
   43.6500015       4.29686876E-11
   43.7099991      -1.35294120E-09
   43.7700005      -2.81148393E-09
   43.8300018      -4.29533875E-09
   43.8899994      -5.73880543E-09
   43.9500008      -7.06705761E-09
   44.0099983      -8.21864177E-09
   44.0699997      -9.16370091E-09
   44.1300011      -9.91164129E-09
   44.1899986      -1.05055458E-08
   44.2500000      -1.10052927E-08
   44.3100014      -1.14654144E-08
   44.3699989      -1.19155041E-08
   44.4300003      -1.23500046E-08
   44.4900017      -1.27307125E-08
   44.5499992      -1.30008377E-08
   44.6100006      -1.31055353E-08
   44.6699982      -1.30118547E-08
   44.7299995      -1.27214692E-08
   44.7900009      -1.22720438E-08
   44.8499985      -1.17267813E-08
   44.9099998      -1.11554046E-08
   44.9700012      -1.06125633E-08
   45.0299988      -1.01205870E-08
   45.0900002      -9.66236779E-09
   45.1500015      -9.18710796E-09
   45.2099991      -8.62753957E-09
   45.2700005      -7.92327270E-09
   45.3300018      -7.04264247E-09
   45.3899994      -5.99563421E-09
   45.4500008      -4.83336660E-09
   45.5099983      -3.63419939E-09
   45.5699997      -2.48115062E-09
   45.6300011      -1.43825174E-09
   45.6899986      -5.33692923E-10
   45.7500000       2.44882475E-10
   45.8100014       9.41811296E-10
   45.8699989       1.61485580E-09
   45.9300003       2.31307973E-09
   45.9900017       3.05850989E-09
   46.0499992       3.83750853E-09
   46.1100006       4.60454119E-09
   46.1699982       5.29696687E-09
   46.2299995       5.85588333E-09
   46.2900009       6.24598950E-09
   46.3499985       6.46767395E-09
   46.4099998       6.55707311E-09
   46.4700012       6.57396404E-09
   46.5299988       6.58162413E-09
   46.5900002       6.62567334E-09
   46.6500015       6.71926248E-09
   46.7099991       6.83963641E-09
   46.7700005       6.93695767E-09
   46.8300018       6.95191682E-09
   46.8899994       6.83574219E-09
   46.9500008       6.56572308E-09
   47.0099983       6.15129858E-09
   47.0699997       5.62926106E-09
   47.1300011       5.05033659E-09
   47.1899986       4.46206183E-09
   47.2500000       3.89379995E-09
   47.3100014       3.34873929E-09
   47.3699989       2.80527046E-09
   47.4300003       2.22704855E-09
   47.4900017       1.57820512E-09
   47.5499992       8.38488889E-10
   47.6100006       1.31081587E-11
   47.6699982      -8.66189953E-10
   47.7299995      -1.74927495E-09
   47.7900009      -2.58228883E-09
   47.8499985      -3.32379080E-09
   47.9099998      -3.95690325E-09
   47.9700012      -4.49343096E-09
   48.0299988      -4.96878849E-09
   48.0900002      -5.42969403E-09
   48.1500015      -5.91886762E-09
   48.2099991      -6.46171516E-09
   48.2700005      -7.05902314E-09
   48.3300018      -7.68756969E-09
   48.3899994      -8.30804048E-09
   48.4500008      -8.87744189E-09
   48.5099983      -9.36201339E-09
   48.5699997      -9.74660885E-09
   48.6300011      -1.00377546E-08
   48.6899986      -1.02596216E-08
   48.7500000      -1.04445022E-08
   48.8100014      -1.06211857E-08
   48.8699989      -1.08053300E-08
   48.9300003      -1.09951106E-08
   48.9900017      -1.11734622E-08
   49.0499992      -1.13157359E-08
   49.1100006      -1.13996812E-08
   49.1699982      -1.14139613E-08
   49.2299995      -1.13621930E-08
   49.2900009      -1.12613199E-08
   49.3499985      -1.11351888E-08
   49.4099998      -1.10057483E-08
   49.4700012      -1.08848512E-08
   49.5299988      -1.07692317E-08
   49.5900002      -1.06401545E-08
   49.6500015      -1.04678142E-08
   49.7099991      -1.02193303E-08
   49.7700005      -9.86811788E-09
   49.8300018      -9.40196720E-09
   49.8899994      -8.82735662E-09
   49.9500008      -8.16850498E-09
   50.0099983      -7.46115436E-09
   50.0699997      -6.74285161E-09
   50.1300011      -6.04259842E-09
   50.1899986      -5.37306022E-09
   50.2500000      -4.72760986E-09
   50.3100014      -4.08287271E-09
   50.3699989      -3.40568684E-09
   50.4300003      -2.66218581E-09
   50.4900017      -1.82634075E-09
   50.5499992      -8.85808149E-10
   50.6100006       1.56121810E-10