  -2.400000      0.0000000E+00
  -2.340000      0.0000000E+00
  -2.280000      0.0000000E+00
  -2.220000      0.0000000E+00
  -2.160000      0.0000000E+00
  -2.100000      1.3748398E-20
  -2.040000      7.8226910E-20
  -1.980000      1.5264433E-19
  -1.920000     -1.7219153E-19
  -1.860000     -1.8987954E-18
  -1.800000     -6.0675543E-18
  -1.740000     -1.1812034E-17
  -1.680000     -1.3717340E-17
  -1.620000     -1.2202395E-18
  -1.560000      3.6394177E-17
  -1.500000      9.8598195E-17
  -1.440000      1.6147489E-16
  -1.380000      1.7650068E-16
  -1.320000      9.0532397E-17
  -1.260000     -1.1597038E-16
  -1.200000     -3.9552103E-16
  -1.140000     -6.3890700E-16
  -1.080000     -7.3692983E-16
  -1.020000     -6.7046634E-16
 -0.9600000     -5.5173397E-16
 -0.9000000     -5.3601320E-16
 -0.8400000     -6.0160827E-16
 -0.7800000     -3.3665346E-16
 -0.7200000      1.0210451E-15
 -0.6600000      4.1002900E-15
 -0.6000000      8.5598465E-15
 -0.5400000      1.2394180E-14
 -0.4800000      1.2122193E-14
 -0.4200000      4.3677864E-15
 -0.3600000     -1.1469450E-14
 -0.3000000     -3.0823275E-14
 -0.2400000     -4.3837980E-14
 -0.1800000     -3.8946253E-14
 -0.1200000     -9.6654667E-15
 -5.9999999E-02  3.8395736E-14
  0.0000000E+00  8.4932143E-14
  5.9999999E-02  1.0050442E-13
  0.1200000      6.0316864E-14
  0.1800000     -3.8951230E-14
  0.2400000     -1.6824934E-13
  0.3000000     -2.6971342E-13
  0.3600000     -2.7738990E-13
  0.4200000     -1.4873497E-13
  0.4800000      1.0726713E-13
  0.5400000      4.2101877E-13
  0.6000000      6.8087842E-13
  0.6600000      7.7482893E-13
  0.7200000      6.3779125E-13
  0.7800000      2.8188069E-13
  0.8400000     -2.0663091E-13
  0.9000000     -7.0376376E-13
  0.9600000     -1.0999077E-12
   1.020000     -1.3399236E-12
   1.080000     -1.4283943E-12
   1.140000     -1.3954995E-12
   1.200000     -1.2423057E-12
   1.260000     -9.0011532E-13
   1.320000     -2.3706571E-13
   1.380000      8.7541216E-13
   1.440000      2.4553313E-12
   1.500000      4.3091229E-12
   1.560000      5.9934306E-12
   1.620000      6.8797741E-12
   1.680000      6.3235563E-12
   1.740000      3.8929871E-12
   1.800000     -4.1977744E-13
   1.860000     -6.0875215E-12
   1.920000     -1.2090016E-11
   1.980000     -1.7109489E-11
   2.040000     -1.9824451E-11
   2.100000     -1.9212611E-11
   2.160000     -1.4776094E-11
   2.220000     -6.6396593E-12
   2.280000      4.4726098E-12
   2.340000      1.7332233E-11
   2.400000      3.0311267E-11
   2.460000      4.1463406E-11
   2.520000      4.8599021E-11
   2.580000      4.9418455E-11
   2.640000      4.1778875E-11
   2.700000      2.4132073E-11
   2.760000     -3.9044584E-12
   2.820000     -4.0961547E-11
   2.880000     -8.3482027E-11
   2.940000     -1.2558654E-10
   3.000000     -1.5932249E-10
   3.060000     -1.7527721E-10
   3.120000     -1.6344781E-10
   3.180000     -1.1422037E-10
   3.240000     -1.9329082E-11
   3.300000      1.2727328E-10
   3.360000      3.2864370E-10
   3.420000      5.8416277E-10
   3.480000      8.8895180E-10
   3.540000      1.2334855E-09
   3.600000      1.6035601E-09
   3.660000      1.9807926E-09
   3.720000      2.3437681E-09
   3.780000      2.6697986E-09
   3.840000      2.9370990E-09
   3.900000      3.1270311E-09
   3.960000      3.2260266E-09
   4.020000      3.2268590E-09
   4.080000      3.1290857E-09
   4.140000      2.9386609E-09
   4.200000      2.6668838E-09
   4.260000      2.3289166E-09
   4.320000      1.9421087E-09
   4.380000      1.5243213E-09
   4.440000      1.0923744E-09
   4.500000      6.6070760E-10
   4.560000      2.4032568E-10
   4.620000     -1.6190163E-10
   4.680000     -5.4352700E-10
   4.740000     -9.0637819E-10
   4.800000     -1.2560032E-09
   4.860000     -1.6007822E-09
   4.920000     -1.9508064E-09
   4.980000     -2.3166222E-09
   5.040000     -2.7079112E-09
   5.100000     -3.1321685E-09
   5.160000     -3.5934380E-09
   5.220000     -4.0912020E-09
   5.280000     -4.6195900E-09
   5.340000     -5.1671241E-09
   5.400000     -5.7172507E-09
   5.460000     -6.2498420E-09
   5.520000     -6.7436936E-09
   5.580000     -7.1797910E-09
   5.640000     -7.5448252E-09
   5.700000     -7.8341893E-09
   5.760000     -8.0536440E-09
   5.820000     -8.2190006E-09
   5.880000     -8.3536280E-09
   5.940000     -8.4841787E-09
   6.000000     -8.6355030E-09
   6.060000     -8.8260474E-09
   6.120000     -9.0649674E-09
   6.180000     -9.3517496E-09
   6.240000     -9.6783186E-09
   6.300000     -1.0032905E-08
   6.360000     -1.0404343E-08
   6.420000     -1.0785348E-08
   6.480000     -1.1173752E-08
   6.540000     -1.1571353E-08
   6.600000     -1.1980934E-08
   6.660000     -1.2402675E-08
   6.720000     -1.2831432E-08
   6.780000     -1.3256113E-08
   6.840000     -1.3661626E-08
   6.900000     -1.4032931E-08
   6.960000     -1.4359935E-08
   7.020000     -1.4641480E-08
   7.080000     -1.4886909E-08
   7.140000     -1.5114376E-08
   7.200000     -1.5346105E-08
   7.260000     -1.5601893E-08
   7.320000     -1.5892699E-08
   7.380000     -1.6216321E-08
   7.440000     -1.6556534E-08
   7.500000     -1.6886101E-08
   7.560000     -1.7172948E-08
   7.620000     -1.7387835E-08
   7.680000     -1.7511464E-08
   7.740000     -1.7539056E-08
   7.800000     -1.7481115E-08
   7.860000     -1.7360179E-08
   7.920000     -1.7204529E-08
   7.980000     -1.7040644E-08
   8.040000     -1.6886720E-08
   8.100000     -1.6749155E-08
   8.160000     -1.6623067E-08
   8.220000     -1.6496607E-08
   8.280000     -1.6357509E-08
   8.340000     -1.6199616E-08
   8.400000     -1.6026981E-08
   8.460000     -1.5854067E-08
   8.520000     -1.5701758E-08
   8.580000     -1.5590510E-08
   8.640000     -1.5532974E-08
   8.700000     -1.5528718E-08
   8.760000     -1.5563124E-08
   8.820000     -1.5611109E-08
   8.880000     -1.5644810E-08
   8.940000     -1.5642840E-08
   9.000000     -1.5598154E-08
   9.060000     -1.5521778E-08
   9.120000     -1.5440959E-08
   9.180000     -1.5392002E-08
   9.240000     -1.5409910E-08
   9.300000     -1.5518058E-08
   9.360000     -1.5721215E-08
   9.420000     -1.6004218E-08
   9.480000     -1.6336676E-08
   9.540000     -1.6682121E-08
   9.600000     -1.7008471E-08
   9.660000     -1.7296379E-08
   9.720000     -1.7542744E-08
   9.780000     -1.7758532E-08
   9.840000     -1.7962000E-08
   9.900000     -1.8169981E-08
   9.960000     -1.8390503E-08
   10.02000     -1.8619287E-08
   10.08000     -1.8841277E-08
   10.14000     -1.9036412E-08
   10.20000     -1.9187308E-08
   10.26000     -1.9285883E-08
   10.32000     -1.9336323E-08
   10.38000     -1.9353187E-08
   10.44000     -1.9355204E-08
   10.50000     -1.9356987E-08
   10.56000     -1.9361769E-08
   10.62000     -1.9357962E-08
   10.68000     -1.9321135E-08
   10.74000     -1.9220991E-08
   10.80000     -1.9031139E-08
   10.86000     -1.8738278E-08
   10.92000     -1.8347537E-08
   10.98000     -1.7881890E-08
   11.04000     -1.7375672E-08
   11.10000     -1.6864224E-08
   11.16000     -1.6373022E-08
   11.22000     -1.5909936E-08
   11.28000     -1.5463133E-08
   11.34000     -1.5005268E-08
   11.40000     -1.4502605E-08
   11.46000     -1.3926051E-08
   11.52000     -1.3260622E-08
   11.58000     -1.2510418E-08
   11.64000     -1.1697665E-08
   11.70000     -1.0856327E-08
   11.76000     -1.0022434E-08
   11.82000     -9.2242383E-09
   11.88000     -8.4752525E-09
   11.94000     -7.7722166E-09
   12.00000     -7.0983632E-09
   12.06000     -6.4306982E-09
   12.12000     -5.7487335E-09
   12.18000     -5.0417941E-09
   12.24000     -4.3125912E-09
   12.30000     -3.5761216E-09
   12.36000     -2.8545144E-09
   12.42000     -2.1697462E-09
   12.48000     -1.5367222E-09
   12.54000     -9.5893571E-10
   12.60000     -4.2794887E-10
   12.66000      7.3380781E-11
   12.72000      5.6518507E-10
   12.78000      1.0643418E-09
   12.84000      1.5797018E-09
   12.90000      2.1101927E-09
   12.96000      2.6462135E-09
   13.02000      3.1736531E-09
   13.08000      3.6790564E-09
   13.14000      4.1541557E-09
   13.20000      4.5982920E-09
   13.26000      5.0180771E-09
   13.32000      5.4246780E-09
   13.38000      5.8299721E-09
   13.44000      6.2431975E-09
   13.50000      6.6694086E-09
   13.56000      7.1102106E-09
   13.62000      7.5661895E-09
   13.68000      8.0396836E-09
   13.74000      8.5363530E-09
   13.80000      9.0645225E-09
   13.86000      9.6322958E-09
   13.92000      1.0243482E-08
   13.98000      1.0894008E-08
   14.04000      1.1570478E-08
   14.10000      1.2251712E-08
   14.16000      1.2913043E-08
   14.22000      1.3531986E-08
   14.28000      1.4093327E-08
   14.34000      1.4591818E-08
   14.40000      1.5031462E-08
   14.46000      1.5421588E-08
   14.52000      1.5771047E-08
   14.58000      1.6082570E-08
   14.64000      1.6349233E-08
   14.70000      1.6554337E-08
   14.76000      1.6674809E-08
   14.82000      1.6687155E-08
   14.88000      1.6574154E-08
   14.94000      1.6330313E-08
   15.00000      1.5964527E-08
   15.06000      1.5499138E-08
   15.12000      1.4965678E-08
   15.18000      1.4398402E-08
   15.24000      1.3827300E-08
   15.30000      1.3272484E-08
   15.36000      1.2741517E-08
   15.42000      1.2230527E-08
   15.48000      1.1728851E-08
   15.54000      1.1225961E-08
   15.60000      1.0718548E-08
   15.66000      1.0215508E-08
   15.72000      9.7391375E-09
   15.78000      9.3220525E-09
   15.84000      9.0007299E-09
   15.90000      8.8076426E-09
   15.96000      8.7643208E-09
   16.02000      8.8771790E-09
   16.08000      9.1369294E-09
   16.14000      9.5211981E-09
   16.20000      9.9991544E-09
   16.26000      1.0536674E-08
   16.32000      1.1100773E-08
   16.38000      1.1662589E-08
   16.44000      1.2198688E-08
   16.50000      1.2690881E-08
   16.56000      1.3124977E-08
   16.62000      1.3489026E-08
   16.68000      1.3771703E-08
   16.74000      1.3961344E-08
   16.80000      1.4046018E-08
   16.86000      1.4014585E-08
   16.92000      1.3858347E-08
   16.98000      1.3572637E-08
   17.04000      1.3157721E-08
   17.10000      1.2618703E-08
   17.16000      1.1964497E-08
   17.22000      1.1206276E-08
   17.28000      1.0355949E-08
   17.34000      9.4250341E-09
   17.40000      8.4241094E-09
   17.46000      7.3627304E-09
   17.52000      6.2495871E-09
   17.58000      5.0926459E-09
   17.64000      3.8990695E-09
   17.70000      2.6747993E-09
   17.76000      1.4238288E-09
   17.82000      1.4733342E-10
   17.88000     -1.1570134E-09
   17.94000     -2.4951414E-09
   18.00000     -3.8758028E-09
   18.06000     -5.3088955E-09
   18.12000     -6.8032651E-09
   18.18000     -8.3646352E-09
   18.24000     -9.9943813E-09
   18.30000     -1.1689553E-08
   18.36000     -1.3444035E-08
   18.42000     -1.5250240E-08
   18.48000     -1.7100446E-08
   18.54000     -1.8987031E-08
   18.60000     -2.0901272E-08
   18.66000     -2.2831063E-08
   18.72000     -2.4758362E-08
   18.78000     -2.6657560E-08
   18.84000     -2.8495696E-08
   18.90000     -3.0235110E-08
   18.96000     -3.1838173E-08
   19.02000     -3.3273096E-08
   19.08000     -3.4519257E-08
   19.14000     -3.5570306E-08
   19.20000     -3.6433921E-08
   19.26000     -3.7128114E-08
   19.32000     -3.7674987E-08
   19.38000     -3.8093955E-08
   19.44000     -3.8396561E-08
   19.50000     -3.8584531E-08
   19.56000     -3.8651528E-08
   19.62000     -3.8587871E-08
   19.68000     -3.8386400E-08
   19.74000     -3.8047400E-08
   19.80000     -3.7580957E-08
   19.86000     -3.7006021E-08
   19.92000     -3.6346599E-08
   19.98000     -3.5626382E-08
   20.04000     -3.4863533E-08
   20.10000     -3.4067167E-08
   20.16000     -3.3236468E-08
   20.22000     -3.2362454E-08
   20.28000     -3.1431593E-08
   20.34000     -3.0429973E-08
   20.40000     -2.9346706E-08
   20.46000     -2.8175775E-08
   20.52000     -2.6916300E-08
   20.58000     -2.5571875E-08
   20.64000     -2.4149802E-08
   20.70000     -2.2660938E-08
   20.76000     -2.1120071E-08
   20.82000     -1.9546336E-08
   20.88000     -1.7962799E-08
   20.94000     -1.6394717E-08
   21.00000     -1.4866604E-08
   21.06000     -1.3398860E-08
   21.12000     -1.2005079E-08
   21.18000     -1.0690945E-08
   21.24000     -9.4550936E-09
   21.30000     -8.2915994E-09
   21.36000     -7.1932904E-09
   21.42000     -6.1548686E-09
   21.48000     -5.1749649E-09
   21.54000     -4.2565995E-09
   21.60000     -3.4059477E-09
   21.66000     -2.6297440E-09
   21.72000     -1.9320232E-09
   21.78000     -1.3111251E-09
   21.84000     -7.5789935E-10
   21.90000     -2.5575853E-10
   21.96000      2.1727478E-10
   22.02000      6.8496542E-10
   22.08000      1.1685855E-09
   22.14000      1.6829829E-09
   22.20000      2.2338653E-09
   22.26000      2.8168070E-09
   22.32000      3.4181002E-09
   22.38000      4.0172323E-09
   22.44000      4.5904995E-09
   22.50000      5.1150399E-09
   22.56000      5.5723839E-09
   22.62000      5.9506036E-09
   22.68000      6.2444356E-09
   22.74000      6.4533441E-09
   22.80000      6.5782468E-09
   22.86000      6.6181860E-09
   22.92000      6.5683050E-09
   22.98000      6.4199406E-09
   23.04000      6.1627534E-09
   23.10000      5.7879226E-09
   23.16000      5.2910440E-09
   23.22000      4.6735829E-09
   23.28000      3.9424122E-09
   23.34000      3.1077452E-09
   23.40000      2.1802777E-09
   23.46000      1.1684744E-09
   23.52000      7.6722996E-11
   23.58000     -1.0952269E-09
   23.64000     -2.3514108E-09
   23.70000     -3.6975079E-09
   23.76000     -5.1378093E-09
   23.82000     -6.6720283E-09
   23.88000     -8.2929130E-09
   23.94000     -9.9855448E-09
   24.00000     -1.1728748E-08
   24.06000     -1.3498239E-08
   24.12000     -1.5270395E-08
   24.18000     -1.7025235E-08
   24.24000     -1.8747556E-08
   24.30000     -2.0425942E-08
   24.36000     -2.2050322E-08
   24.42000     -2.3609337E-08
   24.48000     -2.5088562E-08
   24.54000     -2.6470230E-08
   24.60000     -2.7734249E-08
   24.66000     -2.8859830E-08
   24.72000     -2.9827049E-08
   24.78000     -3.0617738E-08
   24.84000     -3.1215681E-08
   24.90000     -3.1606223E-08
   24.96000     -3.1775574E-08
   25.02000     -3.1710119E-08
   25.08000     -3.1396088E-08
   25.14000     -3.0819898E-08
   25.20000     -2.9969407E-08
   25.26000     -2.8835956E-08
   25.32000     -2.7416892E-08
   25.38000     -2.5717643E-08
   25.44000     -2.3752605E-08
   25.50000     -2.1544270E-08
   25.56000     -1.9120661E-08
   25.62000     -1.6511736E-08
   25.68000     -1.3745814E-08
   25.74000     -1.0847005E-08
   25.80000     -7.8343048E-09
   25.86000     -4.7225019E-09
   25.92000     -1.5245428E-09
   25.98000      1.7453620E-09
   26.04000      5.0687792E-09
   26.10000      8.4211536E-09
   26.16000      1.1771648E-08
   26.22000      1.5084956E-08
   26.28000      1.8324632E-08
   26.34000      2.1456895E-08
   26.40000      2.4453591E-08
   26.46000      2.7293273E-08
   26.52000      2.9960120E-08
   26.58000      3.2441402E-08
   26.64000      3.4724959E-08
   26.70000      3.6797843E-08
   26.76000      3.8647034E-08
   26.82000      4.0261675E-08
   26.88000      4.1635811E-08
   26.94000      4.2770225E-08
   27.00000      4.3672529E-08
   27.06000      4.4355492E-08
   27.12000      4.4834156E-08
   27.18000      4.5122658E-08
   27.24000      4.5231491E-08
   27.30000      4.5165571E-08
   27.36000      4.4923283E-08
   27.42000      4.4496513E-08
   27.48000      4.3871786E-08
   27.54000      4.3032387E-08
   27.60000      4.1961140E-08
   27.66000      4.0643105E-08
   27.72000      3.9067487E-08
   27.78000      3.7228400E-08
   27.84000      3.5124629E-08
   27.90000      3.2759303E-08
   27.96000      3.0140274E-08
   28.02000      2.7281557E-08
   28.08000      2.4205416E-08
   28.14000      2.0943785E-08
   28.20000      1.7537836E-08
   28.26000      1.4035022E-08
   28.32000      1.0484066E-08
   28.38000      6.9292163E-09
   28.44000      3.4055248E-09
   28.50000     -6.3548243E-11
   28.56000     -3.4657126E-09
   28.62000     -6.7970469E-09
   28.68000     -1.0057858E-08
   28.74000     -1.3248411E-08
   28.80000     -1.6365641E-08
   28.86000     -1.9401556E-08
   28.92000     -2.2343686E-08
   28.98000     -2.5177382E-08
   29.04000     -2.7889206E-08
   29.10000     -3.0470144E-08
   29.16000     -3.2917296E-08
   29.22000     -3.5233015E-08
   29.28000     -3.7421515E-08
   29.34000     -3.9483997E-08
   29.40000     -4.1414179E-08
   29.46000     -4.3196071E-08
   29.52000     -4.4805088E-08
   29.58000     -4.6212225E-08
   29.64000     -4.7389779E-08
   29.70000     -4.8316643E-08
   29.76000     -4.8981413E-08
   29.82000     -4.9382521E-08
   29.88000     -4.9525799E-08
   29.94000     -4.9420645E-08
   30.00000     -4.9076380E-08
   30.06000     -4.8500088E-08
   30.12000     -4.7696588E-08
   30.18000     -4.6670404E-08
   30.24000     -4.5428891E-08
   30.30000     -4.3985224E-08
   30.36000     -4.2360057E-08
   30.42000     -4.0580879E-08
   30.48000     -3.8679197E-08
   30.54000     -3.6686330E-08
   30.60000     -3.4629334E-08
   30.66000     -3.2528611E-08
   30.72000     -3.0398091E-08
   30.78000     -2.8247916E-08
   30.84000     -2.6088536E-08
   30.90000     -2.3934611E-08
   30.96000     -2.1807269E-08
   31.02000     -1.9733863E-08
   31.08000     -1.7745343E-08
   31.14000     -1.5871985E-08
   31.20000     -1.4138709E-08
   31.26000     -1.2561289E-08
   31.32000     -1.1144512E-08
   31.38000     -9.8829371E-09
   31.44000     -8.7642471E-09
   31.50000     -7.7744389E-09
   31.56000     -6.9034254E-09
   31.62000     -6.1493117E-09
   31.68000     -5.5198868E-09
   31.74000     -5.0307807E-09
   31.80000     -4.7009330E-09
   31.86000     -4.5469606E-09
   31.92000     -4.5783479E-09
   31.98000     -4.7948854E-09
   32.04000     -5.1867772E-09
   32.10000     -5.7368332E-09
   32.16000     -6.4236017E-09
   32.22000     -7.2243109E-09
   32.28000     -8.1169560E-09
   32.34000     -9.0813561E-09
   32.40000     -1.0099316E-08
   32.46000     -1.1154117E-08
   32.52000     -1.2229540E-08
   32.58000     -1.3308711E-08
   32.64000     -1.4373211E-08
   32.70000     -1.5402934E-08
   32.76000     -1.6377053E-08
   32.82000     -1.7275946E-08
   32.88000     -1.8083519E-08
   32.94000     -1.8789073E-08
   33.00000     -1.9388038E-08
   33.06000     -1.9881426E-08
   33.12000     -2.0274378E-08
   33.18000     -2.0574410E-08
   33.24000     -2.0789967E-08
   33.30000     -2.0929395E-08
   33.36000     -2.1000240E-08
   33.42000     -2.1008704E-08
   33.48000     -2.0959277E-08
   33.54000     -2.0854758E-08
   33.60000     -2.0696950E-08
   33.66000     -2.0488008E-08
   33.72000     -2.0232060E-08
   33.78000     -1.9936545E-08
   33.84000     -1.9612708E-08
   33.90000     -1.9275042E-08
   33.96000     -1.8939867E-08
   34.02000     -1.8623409E-08
   34.08000     -1.8339806E-08
   34.14000     -1.8099314E-08
   34.20000     -1.7906963E-08
   34.26000     -1.7761908E-08
   34.32000     -1.7657744E-08
   34.38000     -1.7583893E-08
   34.44000     -1.7527912E-08
   34.50000     -1.7478143E-08
   34.56000     -1.7426027E-08
   34.62000     -1.7367505E-08
   34.68000     -1.7303444E-08
   34.74000     -1.7239374E-08
   34.80000     -1.7184982E-08
   34.86000     -1.7153507E-08
   34.92000     -1.7160886E-08
   34.98000     -1.7224137E-08
   35.04000     -1.7358863E-08
   35.10000     -1.7576195E-08
   35.16000     -1.7880117E-08
   35.22000     -1.8266167E-08
   35.28000     -1.8722034E-08
   35.34000     -1.9229740E-08
   35.40000     -1.9768475E-08
   35.46000     -2.0316961E-08
   35.52000     -2.0854630E-08
   35.58000     -2.1361657E-08
   35.64000     -2.1818312E-08
   35.70000     -2.2204256E-08
   35.76000     -2.2498075E-08
   35.82000     -2.2677144E-08
   35.88000     -2.2717783E-08
   35.94000     -2.2595886E-08
   36.00000     -2.2288297E-08
   36.06000     -2.1775099E-08
   36.12000     -2.1042398E-08
   36.18000     -2.0084769E-08
   36.24000     -1.8906217E-08
   36.30000     -1.7519135E-08
   36.36000     -1.5941492E-08
   36.42000     -1.4193390E-08
   36.48000     -1.2294303E-08
   36.54000     -1.0261875E-08
   36.60000     -8.1121039E-09
   36.66000     -5.8600320E-09
   36.72000     -3.5198471E-09
   36.78000     -1.1039027E-09
   36.84000      1.3789774E-09
   36.90000      3.9248911E-09
   36.96000      6.5348957E-09
   37.02000      9.2131822E-09
   37.08000      1.1963650E-08
   37.14000      1.4785710E-08
   37.20000      1.7670382E-08
   37.26000      2.0597621E-08
   37.32000      2.3535664E-08
   37.38000      2.6442931E-08
   37.44000      2.9272636E-08
   37.50000      3.1979670E-08
   37.56000      3.4528458E-08
   37.62000      3.6899600E-08
   37.68000      3.9093088E-08
   37.74000      4.1126480E-08
   37.80000      4.3028077E-08
   37.86000      4.4826947E-08
   37.92000      4.6543065E-08
   37.98000      4.8180745E-08
   38.04000      4.9727660E-08
   38.10000      5.1159535E-08
   38.16000      5.2448929E-08
   38.22000      5.3574929E-08
   38.28000      5.4530659E-08
   38.34000      5.5326062E-08
   38.40000      5.5985137E-08
   38.46000      5.6538330E-08
   38.52000      5.7012656E-08
   38.58000      5.7422707E-08
   38.64000      5.7766055E-08
   38.70000      5.8025066E-08
   38.76000      5.8175182E-08
   38.82000      5.8197202E-08
   38.88000      5.8089292E-08
   38.94000      5.7873983E-08
   39.00000      5.7596942E-08
   39.06000      5.7317092E-08
   39.12000      5.7090798E-08
   39.18000      5.6955276E-08
   39.24000      5.6916708E-08
   39.30000      5.6947236E-08
   39.36000      5.6992036E-08
   39.42000      5.6984359E-08
   39.48000      5.6864021E-08
   39.54000      5.6593574E-08
   39.60000      5.6167281E-08
   39.66000      5.5610037E-08
   39.72000      5.4966762E-08
   39.78000      5.4285561E-08
   39.84000      5.3600420E-08
   39.90000      5.2919173E-08
   39.96000      5.2221033E-08
   40.02000      5.1464657E-08
   40.08000      5.0603870E-08
   40.14000      4.9605433E-08
   40.20000      4.8462404E-08
   40.26000      4.7198142E-08
   40.32000      4.5859462E-08
   40.38000      4.4501302E-08
   40.44000      4.3168246E-08
   40.50000      4.1879346E-08
   40.56000      4.0621355E-08
   40.62000      3.9352781E-08
   40.68000      3.8017458E-08
   40.74000      3.6563332E-08
   40.80000      3.4960323E-08
   40.86000      3.3211343E-08
   40.92000      3.1352659E-08
   40.98000      2.9443125E-08
   41.04000      2.7545703E-08
   41.10000      2.5707408E-08
   41.16000      2.3944738E-08
   41.22000      2.2239856E-08
   41.28000      2.0549082E-08
   41.34000      1.8820787E-08
   41.40000      1.7016314E-08
   41.46000      1.5126307E-08
   41.52000      1.3176623E-08
   41.58000      1.1221715E-08
   41.64000      9.3278389E-09
   41.70000      7.5519369E-09
   41.76000      5.9234102E-09
   41.82000      4.4348489E-09
   41.88000      3.0448102E-09
   41.94000      1.6918059E-09
   42.00000      3.1512359E-10
   42.06000     -1.1241232E-09
   42.12000     -2.6285158E-09
   42.18000     -4.1613117E-09
   42.24000     -5.6561928E-09
   42.30000     -7.0368795E-09
   42.36000     -8.2402565E-09
   42.42000     -9.2352206E-09
   42.48000     -1.0030764E-08
   42.54000     -1.0670470E-08
   42.60000     -1.1215405E-08
   42.66000     -1.1721509E-08
   42.72000     -1.2219461E-08
   42.78000     -1.2703992E-08
   42.84000     -1.3136138E-08
   42.90000     -1.3457361E-08
   42.96000     -1.3610483E-08
   43.02000     -1.3560289E-08
   43.08000     -1.3306910E-08
   43.14000     -1.2887626E-08
   43.20000     -1.2366421E-08
   43.26000     -1.1814528E-08
   43.32000     -1.1288128E-08
   43.38000     -1.0810401E-08
   43.44000     -1.0364011E-08
   43.50000     -9.8968984E-09
   43.56000     -9.3399297E-09
   43.62000     -8.6309138E-09
   43.68000     -7.7370661E-09
   43.74000     -6.6683348E-09
   43.80000     -5.4769740E-09
   43.86000     -4.2434349E-09
   43.92000     -3.0533358E-09
   43.98000     -1.9732582E-09
   44.04000     -1.0333431E-09
   44.10000     -2.2218286E-10
   44.16000      5.0475113E-10
   44.22000      1.2063814E-09
   44.28000      1.9334665E-09
   44.34000      2.7097162E-09
   44.40000      3.5227039E-09
   44.46000      4.3274122E-09
   44.52000      5.0610929E-09
   44.58000      5.6643903E-09
   44.64000      6.1015490E-09
   44.70000      6.3727530E-09
   44.76000      6.5142918E-09
   44.82000      6.5863963E-09
   44.88000      6.6529360E-09
   44.94000      6.7600321E-09
   45.00000      6.9209860E-09
   45.06000      7.1125847E-09
   45.12000      7.2837447E-09
   45.18000      7.3731279E-09
   45.24000      7.3294184E-09
   45.30000      7.1273778E-09
   45.36000      6.7745813E-09
   45.42000      6.3071606E-09
   45.48000      5.7765610E-09
   45.54000      5.2321436E-09
   45.60000      4.7055280E-09
   45.66000      4.2017732E-09
   45.72000      3.7000969E-09
   45.78000      3.1636687E-09
   45.84000      2.5550191E-09
   45.90000      1.8517451E-09
   45.96000      1.0570770E-09
   46.02000      2.0160551E-10
   46.08000     -6.6449313E-10
   46.14000     -1.4861010E-09
   46.20000     -2.2196669E-09
   46.26000     -2.8459906E-09
   46.32000     -3.3750798E-09
   46.38000     -3.8416803E-09
   46.44000     -4.2932204E-09
   46.50000     -4.7743067E-09
   46.56000     -5.3127880E-09
   46.62000     -5.9116356E-09
   46.68000     -6.5488388E-09
   46.74000     -7.1849686E-09
   46.80000     -7.7757294E-09
   46.86000     -8.2853990E-09
   46.92000     -8.6969170E-09
   46.98000     -9.0155359E-09
   47.04000     -9.2650660E-09
   47.10000     -9.4782555E-09
   47.16000     -9.6847730E-09
   47.22000     -9.9010533E-09
   47.28000     -1.0125492E-08
   47.34000     -1.0340440E-08
   47.40000     -1.0519910E-08
   47.46000     -1.0639892E-08
   47.52000     -1.0687411E-08
   47.58000     -1.0665150E-08
   47.64000     -1.0590254E-08
   47.70000     -1.0488025E-08
   47.76000     -1.0382858E-08
   47.82000     -1.0289456E-08
   47.88000     -1.0207078E-08
   47.94000     -1.0118544E-08
   48.00000     -9.9942721E-09
   48.06000     -9.8002761E-09
   48.12000     -9.5078638E-09
   48.18000     -9.1022541E-09
   48.24000     -8.5874818E-09
   48.30000     -7.9859381E-09
   48.36000     -7.3325199E-09
   48.42000     -6.6650210E-09
   48.48000     -6.0136975E-09
   48.54000     -5.3931632E-09
   48.60000     -4.7989670E-09
   48.66000     -4.2096127E-09
   48.72000     -3.5930581E-09
   48.78000     -2.9155158E-09
   48.84000     -2.1499649E-09
   48.90000     -1.2822075E-09
   48.96000     -3.1320507E-10
   49.02000      7.4253553E-10
   49.08000      1.8618340E-09
   49.14000      3.0195746E-09
   49.20000      4.1954928E-09
   49.26000      5.3791180E-09
   49.32000      6.5713812E-09
   49.38000      7.7823001E-09
   49.44000      9.0253884E-09
   49.50000      1.0310598E-08
   49.56000      1.1638231E-08
   49.62000      1.2996019E-08
   49.68000      1.4360481E-08
   49.74000      1.5702167E-08
   49.80000      1.6993051E-08
   49.86000      1.8213553E-08
   49.92000      1.9356921E-08
   49.98000      2.0429507E-08
   50.04000      2.1446878E-08
   50.10000      2.2426990E-08
   50.16000      2.3382558E-08
   50.22000      2.4315066E-08
   50.28000      2.5212440E-08
   50.34000      2.6051277E-08
   50.40000      2.6803066E-08
   50.46000      2.7442479E-08
   50.52000      2.7954945E-08
   50.58000      2.8340985E-08
   50.64000      2.8615753E-08
   50.70000      2.8804072E-08
   50.76000      2.8932687E-08
   50.82000      2.9022528E-08
   50.88000      2.9083472E-08
   50.94000      2.9113151E-08
   51.00000      2.9099823E-08
   51.06000      2.9028040E-08
   51.12000      2.8885124E-08
   51.18000      2.8666490E-08
   51.24000      2.8378427E-08
   51.30000      2.8037803E-08
   51.36000      2.7669024E-08
   51.42000      2.7299221E-08
   51.48000      2.6953026E-08
   51.54000      2.6648348E-08
   51.60000      2.6394211E-08
   51.66000      2.6191199E-08
   51.72000      2.6034138E-08
   51.78000      2.5916052E-08
   51.84000      2.5831946E-08
   51.90000      2.5781029E-08
   51.96000      2.5766548E-08
   52.02000      2.5793190E-08
   52.08000      2.5862859E-08
   52.14000      2.5970131E-08
   52.20000      2.6098784E-08
   52.26000      2.6220425E-08
   52.32000      2.6295591E-08
   52.38000      2.6276965E-08
   52.44000      2.6113810E-08
   52.50000      2.5756412E-08
   52.56000      2.5159313E-08
   52.62000      2.4282508E-08
   52.68000      2.3090214E-08
   52.74000      2.1547626E-08
   52.80000      1.9616659E-08
   52.86000      1.7252210E-08
   52.92000      1.4400498E-08
   52.98000      1.1000478E-08
   53.04000      6.9882975E-09
   53.10000      2.3035367E-09
   53.16000     -3.1048528E-09
   53.22000     -9.2751460E-09
   53.28000     -1.6233274E-08
   53.34000     -2.3996897E-08
   53.40000     -3.2581504E-08
   53.46000     -4.2006004E-08
   53.52000     -5.2295380E-08
   53.58000     -6.3479135E-08
   53.64000     -7.5585476E-08
   53.70000     -8.8632817E-08
   53.76000     -1.0262072E-07
   53.82000     -1.1752284E-07
   53.88000     -1.3328406E-07
   53.94000     -1.4982282E-07
   54.00000     -1.6703895E-07
   54.06000     -1.8482483E-07
   54.12000     -2.0307745E-07
   54.18000     -2.2170732E-07
   54.24000     -2.4064124E-07
   54.30000     -2.5981774E-07
   54.36000     -2.7917679E-07
   54.42000     -2.9864697E-07
   54.48000     -3.1813497E-07
   54.54000     -3.3752082E-07
   54.60000     -3.5666051E-07
   54.66000     -3.7539488E-07
   54.72000     -3.9356149E-07
   54.78000     -4.1100668E-07
   54.84000     -4.2759382E-07
   54.90000     -4.4320660E-07
   54.96000     -4.5774709E-07
   55.02000     -4.7112920E-07
   55.08000     -4.8327024E-07
   55.14000     -4.9408300E-07
   55.20000     -5.0347160E-07
   55.26000     -5.1133321E-07
   55.32000     -5.1756524E-07
   55.38000     -5.2207673E-07
   55.44000     -5.2479953E-07
   55.50000     -5.2569595E-07
   55.56000     -5.2475957E-07