  -2.400000      0.0000000E+00
  -2.340000      0.0000000E+00
  -2.280000      0.0000000E+00
  -2.220000      0.0000000E+00
  -2.160000      0.0000000E+00
  -2.100000      0.0000000E+00
  -2.040000      0.0000000E+00
  -1.980000      0.0000000E+00
  -1.920000     -1.7470554E-26
  -1.860000     -1.8523475E-25
  -1.800000     -9.0994672E-25
  -1.740000     -2.4253241E-24
  -1.680000     -1.7189695E-24
  -1.620000      1.5403158E-23
  -1.560000      8.3077359E-23
  -1.500000      2.4255017E-22
  -1.440000      4.6208993E-22
  -1.380000      4.5468928E-22
  -1.320000     -5.2860653E-22
  -1.260000     -3.6053669E-21
  -1.200000     -9.3053166E-21
  -1.140000     -1.5372289E-20
  -1.080000     -1.4074648E-20
  -1.020000      8.1469786E-21
 -0.9600000      6.4173855E-20
 -0.9000000      1.4984863E-19
 -0.8400000      2.2216652E-19
 -0.7800000      1.8863054E-19
 -0.7200000     -6.6664638E-20
 -0.6600000     -6.0257311E-19
 -0.6000000     -1.3030587E-18
 -0.5400000     -1.7919576E-18
 -0.4800000     -1.4866311E-18
 -0.4200000      1.3306749E-19
 -0.3600000      3.0869237E-18
 -0.3000000      6.5097712E-18
 -0.2400000      8.6528105E-18
 -0.1800000      7.5080694E-18
 -0.1200000      1.9444803E-18
 -5.9999999E-02 -7.2100313E-18
  0.0000000E+00 -1.6938953E-17
  5.9999999E-02 -2.3157437E-17
  0.1200000     -2.2835686E-17
  0.1800000     -1.5856506E-17
  0.2400000     -5.1019342E-18
  0.3000000      5.7671293E-18
  0.3600000      1.5524529E-17
  0.4200000      2.6835241E-17
  0.4800000      4.3724962E-17
  0.5400000      6.5787355E-17
  0.6000000      8.3636874E-17
  0.6600000      8.1468218E-17
  0.7200000      4.8779350E-17
  0.7800000     -4.9663626E-18
  0.8400000     -4.6379315E-17
  0.9000000     -3.7398050E-17
  0.9600000      2.3715159E-17
   1.020000      6.3201085E-17
   1.080000     -6.6452481E-17
   1.140000     -5.1314167E-16
   1.200000     -1.2887889E-15
   1.260000     -2.1347932E-15
   1.320000     -2.4926998E-15
   1.380000     -1.6669837E-15
   1.440000      8.1903009E-16
   1.500000      4.7995373E-15
   1.560000      9.1995223E-15
   1.620000      1.2147498E-14
   1.680000      1.1554365E-14
   1.740000      6.0170286E-15
   1.800000     -4.3059254E-15
   1.860000     -1.7270721E-14
   1.920000     -2.9068145E-14
   1.980000     -3.5280925E-14
   2.040000     -3.2348805E-14
   2.100000     -1.8919167E-14
   2.160000      3.4063405E-15
   2.220000      3.0187953E-14
   2.280000      5.5082373E-14
   2.340000      7.1316901E-14
   2.400000      7.3330122E-14
   2.460000      5.8225262E-14
   2.520000      2.6737764E-14
   2.580000     -1.6529047E-14
   2.640000     -6.3759429E-14
   2.700000     -1.0543359E-13
   2.760000     -1.3234010E-13
   2.820000     -1.3746162E-13
   2.880000     -1.1708695E-13
   2.940000     -7.0903380E-14
   3.000000     -1.5118777E-15
   3.060000      8.5660184E-14
   3.120000      1.8122633E-13
   3.180000      2.6971115E-13
   3.240000      3.2815057E-13
   3.300000      3.2810102E-13
   3.360000      2.4307913E-13
   3.420000      6.0864237E-14
   3.480000     -2.0349476E-13
   3.540000     -5.0072300E-13
   3.600000     -7.5270145E-13
   3.660000     -8.7214540E-13
   3.720000     -7.9170682E-13
   3.780000     -4.9154918E-13
   3.840000     -1.2756443E-14
   3.900000      5.5143298E-13
   3.960000      1.0849044E-12
   4.020000      1.4864335E-12
   4.080000      1.6983483E-12
   4.140000      1.7114593E-12
   4.200000      1.5427910E-12
   4.260000      1.1972781E-12
   4.320000      6.3548244E-13
   4.380000     -2.2957162E-13
   4.440000     -1.4940421E-12
   4.500000     -3.1897475E-12
   4.560000     -5.2008406E-12
   4.620000     -7.2067040E-12
   4.680000     -8.6840170E-12
   4.740000     -8.9842257E-12
   4.800000     -7.4779878E-12
   4.860000     -3.7346385E-12
   4.920000      2.3093224E-12
   4.980000      1.0238137E-11
   5.040000      1.9132161E-11
   5.100000      2.7639236E-11
   5.160000      3.4128263E-11
   5.220000      3.6896770E-11
   5.280000      3.4401860E-11
   5.340000      2.5491248E-11
   5.400000      9.6226334E-12
   5.460000     -1.2933997E-11
   5.520000     -4.0920128E-11
   5.580000     -7.1961458E-11
   5.640000     -1.0252900E-10
   5.700000     -1.2803573E-10
   5.760000     -1.4310528E-10
   5.820000     -1.4201765E-10
   5.880000     -1.1929394E-10
   5.940000     -7.0342447E-11
   6.000000      7.9282674E-12
   6.060000      1.1661068E-10
   6.120000      2.5445668E-10
   6.180000      4.1769094E-10
   6.240000      5.9994987E-10
   6.300000      7.9232249E-10
   6.360000      9.8350983E-10
   6.420000      1.1601655E-09
   6.480000      1.3075117E-09
   6.540000      1.4102964E-09
   6.600000      1.4540846E-09
   6.660000      1.4267449E-09
   6.720000      1.3198916E-09
   6.780000      1.1299794E-09
   6.840000      8.5879553E-10
   6.900000      5.1322552E-10
   6.960000      1.0437190E-10
   7.020000     -3.5371622E-10
   7.080000     -8.4533963E-10
   7.140000     -1.3541412E-09
   7.200000     -1.8636217E-09
   7.260000     -2.3572337E-09
   7.320000     -2.8183358E-09
   7.380000     -3.2303724E-09
   7.440000     -3.5776064E-09
   7.500000     -3.8465058E-09
   7.560000     -4.0275814E-09
   7.620000     -4.1172283E-09
   7.680000     -4.1189829E-09
   7.740000     -4.0437058E-09
   7.800000     -3.9084589E-09
   7.860000     -3.7342427E-09
   7.920000     -3.5430796E-09
   7.980000     -3.3551528E-09
   8.040000     -3.1866534E-09
   8.100000     -3.0487748E-09
   8.160000     -2.9479135E-09
   8.220000     -2.8867804E-09
   8.280000     -2.8658880E-09
   8.340000     -2.8848273E-09
   8.400000     -2.9429115E-09
   8.460000     -3.0390332E-09
   8.520000     -3.1709113E-09
   8.580000     -3.3341241E-09
   8.640000     -3.5214356E-09
   8.700000     -3.7228238E-09
   8.760000     -3.9264112E-09
   8.820000     -4.1202015E-09
   8.880000     -4.2942498E-09
   8.940000     -4.4426978E-09
   9.000000     -4.5650936E-09
   9.060000     -4.6665187E-09
   9.120000     -4.7563571E-09
   9.180000     -4.8458864E-09
   9.240000     -4.9452260E-09
   9.300000     -5.0604152E-09
   9.360000     -5.1914375E-09
   9.420000     -5.3318008E-09
   9.480000     -5.4699005E-09
   9.540000     -5.5918945E-09
   9.600000     -5.6853664E-09
   9.660000     -5.7427716E-09
   9.720000     -5.7636957E-09
   9.780000     -5.7552523E-09
   9.840000     -5.7304916E-09
   9.900000     -5.7052834E-09
   9.960000     -5.6945959E-09
   10.02000     -5.7092926E-09
   10.08000     -5.7543796E-09
   10.14000     -5.8291811E-09
   10.20000     -5.9292504E-09
   10.26000     -6.0492740E-09
   10.32000     -6.1858620E-09
   10.38000     -6.3391878E-09
   10.44000     -6.5128303E-09
   10.50000     -6.7118648E-09
   10.56000     -6.9398940E-09
   10.62000     -7.1961943E-09
   10.68000     -7.4741795E-09
   10.74000     -7.7620212E-09
   10.80000     -8.0455038E-09
   10.86000     -8.3123766E-09
   10.92000     -8.5568175E-09
   10.98000     -8.7824272E-09
   11.04000     -9.0024761E-09
   11.10000     -9.2369952E-09
   11.16000     -9.5072892E-09
   11.22000     -9.8294226E-09
   11.28000     -1.0208696E-08
   11.34000     -1.0636942E-08
   11.40000     -1.1093666E-08
   11.46000     -1.1550827E-08
   11.52000     -1.1979822E-08
   11.58000     -1.2358489E-08
   11.64000     -1.2675859E-08
   11.70000     -1.2933127E-08
   11.76000     -1.3140641E-08
   11.82000     -1.3311997E-08
   11.88000     -1.3457435E-08
   11.94000     -1.3578867E-08
   12.00000     -1.3668306E-08
   12.06000     -1.3710221E-08
   12.12000     -1.3686914E-08
   12.18000     -1.3584910E-08
   12.24000     -1.3400030E-08
   12.30000     -1.3139219E-08
   12.36000     -1.2818443E-08
   12.42000     -1.2457340E-08
   12.48000     -1.2072549E-08
   12.54000     -1.1672164E-08
   12.60000     -1.1253442E-08
   12.66000     -1.0804781E-08
   12.72000     -1.0311505E-08
   12.78000     -9.7635366E-09
   12.84000     -9.1623269E-09
   12.90000     -8.5244816E-09
   12.96000     -7.8806428E-09
   13.02000     -7.2697195E-09
   13.08000     -6.7302133E-09
   13.14000     -6.2913670E-09
   13.20000     -5.9669252E-09
   13.26000     -5.7534018E-09
   13.32000     -5.6331979E-09
   13.38000     -5.5813558E-09
   13.44000     -5.5736238E-09
   13.50000     -5.5932774E-09
   13.56000     -5.6347322E-09
   13.62000     -5.7031802E-09
   13.68000     -5.8107732E-09
   13.74000     -5.9708740E-09
   13.80000     -6.1923151E-09
   13.86000     -6.4753789E-09
   13.92000     -6.8105210E-09
   13.98000     -7.1799340E-09
   14.04000     -7.5612006E-09
   14.10000     -7.9317219E-09
   14.16000     -8.2725320E-09
   14.22000     -8.5703888E-09
   14.28000     -8.8177394E-09
   14.34000     -9.0108347E-09
   14.40000     -9.1469143E-09
   14.46000     -9.2215986E-09
   14.52000     -9.2274819E-09
   14.58000     -9.1543990E-09
   14.64000     -8.9912078E-09
   14.70000     -8.7284064E-09
   14.76000     -8.3606446E-09
   14.82000     -7.8883327E-09
   14.88000     -7.3179249E-09
   14.94000     -6.6609420E-09
   15.00000     -5.9322200E-09
   15.06000     -5.1480149E-09
   15.12000     -4.3245412E-09
   15.18000     -3.4772247E-09
   15.24000     -2.6206397E-09
   15.30000     -1.7688216E-09
   15.36000     -9.3556485E-10
   15.42000     -1.3439577E-10
   15.48000      6.2186434E-10
   15.54000      1.3217923E-09
   15.60000      1.9560162E-09
   15.66000      2.5175495E-09
   15.72000      3.0016916E-09
   15.78000      3.4056216E-09
   15.84000      3.7279810E-09
   15.90000      3.9687618E-09
   15.96000      4.1296531E-09
   16.02000      4.2147610E-09
   16.08000      4.2313570E-09
   16.14000      4.1902424E-09
   16.20000      4.1054062E-09
   16.26000      3.9929149E-09
   16.32000      3.8692445E-09
   16.38000      3.7494936E-09
   16.44000      3.6459447E-09
   16.50000      3.5673069E-09
   16.56000      3.5187511E-09
   16.62000      3.5025562E-09
   16.68000      3.5190011E-09
   16.74000      3.5670820E-09
   16.80000      3.6447616E-09
   16.86000      3.7487027E-09
   16.92000      3.8737591E-09
   16.98000      4.0126862E-09
   17.04000      4.1565422E-09
   17.10000      4.2959805E-09
   17.16000      4.4232000E-09
   17.22000      4.5339088E-09
   17.28000      4.6284687E-09
   17.34000      4.7116133E-09
   17.40000      4.7906599E-09
   17.46000      4.8727991E-09
   17.52000      4.9624997E-09
   17.58000      5.0600493E-09
   17.64000      5.1617954E-09
   17.70000      5.2618967E-09
   17.76000      5.3547300E-09
   17.82000      5.4368541E-09
   17.88000      5.5076632E-09
   17.94000      5.5685359E-09
   18.00000      5.6209739E-09
   18.06000      5.6646843E-09
   18.12000      5.6965406E-09
   18.18000      5.7109277E-09
   18.24000      5.7013336E-09
   18.30000      5.6625207E-09
   18.36000      5.5923670E-09
   18.42000      5.4926677E-09
   18.48000      5.3686211E-09
   18.54000      5.2272835E-09
   18.60000      5.0756603E-09
   18.66000      4.9191744E-09
   18.72000      4.7610293E-09
   18.78000      4.6025170E-09
   18.84000      4.4438795E-09
   18.90000      4.2851012E-09
   18.96000      4.1260830E-09
   19.02000      3.9660488E-09
   19.08000      3.8024934E-09
   19.14000      3.6303389E-09
   19.20000      3.4419840E-09
   19.26000      3.2285781E-09
   19.32000      2.9822935E-09
   19.38000      2.6988565E-09
   19.44000      2.3793414E-09
   19.50000      2.0304030E-09
   19.56000      1.6626034E-09
   19.62000      1.2871485E-09
   19.68000      9.1191155E-10
   19.74000      5.3793708E-10
   19.80000      1.5756942E-10
   19.86000     -2.4502803E-10
   19.92000     -6.9082873E-10
   19.98000     -1.2009728E-09
   20.04000     -1.7910949E-09
   20.10000     -2.4665097E-09
   20.16000     -3.2196865E-09
   20.22000     -4.0308508E-09
   20.28000     -4.8716364E-09
   20.34000     -5.7108140E-09
   20.40000     -6.5204939E-09
   20.46000     -7.2811952E-09
   20.52000     -7.9845961E-09
   20.58000     -8.6335934E-09
   20.64000     -9.2400088E-09
   20.70000     -9.8207957E-09
   20.76000     -1.0393726E-08
   20.82000     -1.0973454E-08
   20.88000     -1.1568669E-08
   20.94000     -1.2180843E-08
   21.00000     -1.2804868E-08
   21.06000     -1.3431475E-08
   21.12000     -1.4050885E-08
   21.18000     -1.4656666E-08
   21.24000     -1.5248537E-08
   21.30000     -1.5833091E-08
   21.36000     -1.6422049E-08
   21.42000     -1.7028611E-08
   21.48000     -1.7663076E-08
   21.54000     -1.8329329E-08
   21.60000     -1.9023341E-08
   21.66000     -1.9734118E-08
   21.72000     -2.0446704E-08
   21.78000     -2.1146107E-08
   21.84000     -2.1820886E-08
   21.90000     -2.2465199E-08
   21.96000     -2.3078737E-08
   22.02000     -2.3664613E-08
   22.08000     -2.4225871E-08
   22.14000     -2.4761878E-08
   22.20000     -2.5265903E-08
   22.26000     -2.5724994E-08
   22.32000     -2.6122386E-08
   22.38000     -2.6441860E-08
   22.44000     -2.6672518E-08
   22.50000     -2.6812165E-08
   22.56000     -2.6867967E-08
   22.62000     -2.6853980E-08
   22.68000     -2.6786525E-08
   22.74000     -2.6679141E-08
   22.80000     -2.6539032E-08
   22.86000     -2.6366211E-08
   22.92000     -2.6155361E-08
   22.98000     -2.5899363E-08
   23.04000     -2.5592817E-08
   23.10000     -2.5234119E-08
   23.16000     -2.4825365E-08
   23.22000     -2.4370365E-08
   23.28000     -2.3871749E-08
   23.34000     -2.3328447E-08
   23.40000     -2.2734639E-08
   23.46000     -2.2080579E-08
   23.52000     -2.1355113E-08
   23.58000     -2.0549079E-08
   23.64000     -1.9658545E-08
   23.70000     -1.8686904E-08
   23.76000     -1.7645153E-08
   23.82000     -1.6550267E-08
   23.88000     -1.5422097E-08
   23.94000     -1.4279586E-08
   24.00000     -1.3137320E-08
   24.06000     -1.2003325E-08
   24.12000     -1.0878667E-08
   24.18000     -9.7589954E-09
   24.24000     -8.6376373E-09
   24.30000     -7.5094357E-09
   24.36000     -6.3742629E-09
   24.42000     -5.2392402E-09
   24.48000     -4.1190158E-09
   24.54000     -3.0340808E-09
   24.60000     -2.0077016E-09
   24.66000     -1.0624653E-09
   24.72000     -2.1740426E-10
   24.78000      5.1373011E-10
   24.84000      1.1230629E-09
   24.90000      1.6085262E-09
   24.96000      1.9736517E-09
   25.02000      2.2274320E-09
   25.08000      2.3840121E-09
   25.14000      2.4617199E-09
   25.20000      2.4811144E-09
   25.26000      2.4622369E-09
   25.32000      2.4217559E-09
   25.38000      2.3708675E-09
   25.44000      2.3144884E-09
   25.50000      2.2516677E-09
   25.56000      2.1766211E-09
   25.62000      2.0797308E-09
   25.68000      1.9482473E-09
   25.74000      1.7670085E-09
   25.80000      1.5197823E-09
   25.86000      1.1915836E-09
   25.92000      7.7163170E-10
   25.98000      2.5593261E-10
   26.04000     -3.5169664E-10
   26.10000     -1.0408113E-09
   26.16000     -1.7973679E-09
   26.22000     -2.6073275E-09
   26.28000     -3.4592460E-09
   26.34000     -4.3447801E-09
   26.40000     -5.2570437E-09
   26.46000     -6.1877663E-09
   26.52000     -7.1246773E-09
   26.58000     -8.0503142E-09
   26.64000     -8.9427186E-09
   26.70000     -9.7776889E-09
   26.76000     -1.0531673E-08
   26.82000     -1.1184317E-08
   26.88000     -1.1719872E-08
   26.94000     -1.2127140E-08
   27.00000     -1.2398059E-08
   27.06000     -1.2525474E-08
   27.12000     -1.2500943E-08
   27.18000     -1.2313550E-08
   27.24000     -1.1950509E-08
   27.30000     -1.1399757E-08
   27.36000     -1.0653973E-08
   27.42000     -9.7147357E-09
   27.48000     -8.5952605E-09
   27.54000     -7.3204980E-09
   27.60000     -5.9242460E-09
   27.66000     -4.4439705E-09
   27.72000     -2.9148171E-09
   27.78000     -1.3644923E-09
   27.84000      1.8965768E-10
   27.90000      1.7408145E-09
   27.96000      3.2903484E-09
   28.02000      4.8438520E-09
   28.08000      6.4067636E-09
   28.14000      7.9808053E-09
   28.20000      9.5621688E-09
   28.26000      1.1141850E-08
   28.32000      1.2707828E-08
   28.38000      1.4248116E-08
   28.44000      1.5753377E-08
   28.50000      1.7217952E-08
   28.56000      1.8638806E-08
   28.62000      2.0012921E-08
   28.68000      2.1334278E-08
   28.74000      2.2591898E-08
   28.80000      2.3769838E-08
   28.86000      2.4849209E-08
   28.92000      2.5811440E-08
   28.98000      2.6641523E-08
   29.04000      2.7330135E-08
   29.10000      2.7874011E-08
   29.16000      2.8274506E-08
   29.22000      2.8534769E-08
   29.28000      2.8656206E-08
   29.34000      2.8635133E-08
   29.40000      2.8460581E-08
   29.46000      2.8114227E-08
   29.52000      2.7572918E-08
   29.58000      2.6813588E-08
   29.64000      2.5819228E-08
   29.70000      2.4583912E-08
   29.76000      2.3114911E-08
   29.82000      2.1430834E-08
   29.88000      1.9556357E-08
   29.94000      1.7515543E-08
   30.00000      1.5326357E-08
   30.06000      1.2998460E-08
   30.12000      1.0534878E-08
   30.18000      7.9365341E-09
   30.24000      5.2075944E-09
   30.30000      2.3595457E-09
   30.36000     -5.8721855E-10
   30.42000     -3.6044088E-09
   30.48000     -6.6586949E-09
   30.54000     -9.7153370E-09
   30.60000     -1.2741713E-08
   30.66000     -1.5710141E-08
   30.72000     -1.8599629E-08
   30.78000     -2.1396202E-08
   30.84000     -2.4091616E-08
   30.90000     -2.6680576E-08
   30.96000     -2.9157162E-08
   31.02000     -3.1511565E-08
   31.08000     -3.3728337E-08
   31.14000     -3.5786854E-08
   31.20000     -3.7663778E-08
   31.26000     -3.9336548E-08
   31.32000     -4.0786539E-08
   31.38000     -4.2000767E-08
   31.44000     -4.2971973E-08
   31.50000     -4.3697373E-08
   31.56000     -4.4177156E-08
   31.62000     -4.4413358E-08
   31.68000     -4.4409518E-08
   31.74000     -4.4170847E-08
   31.80000     -4.3704528E-08
   31.86000     -4.3019767E-08
   31.92000     -4.2127663E-08
   31.98000     -4.1041183E-08
   32.04000     -3.9775617E-08
   32.10000     -3.8349590E-08
   32.16000     -3.6786343E-08
   32.22000     -3.5114535E-08
   32.28000     -3.3367847E-08
   32.34000     -3.1582879E-08
   32.40000     -2.9795375E-08
   32.46000     -2.8035602E-08
   32.52000     -2.6324058E-08
   32.58000     -2.4668992E-08
   32.64000     -2.3066706E-08
   32.70000     -2.1504832E-08
   32.76000     -1.9967791E-08
   32.82000     -1.8442869E-08
   32.88000     -1.6925044E-08
   32.94000     -1.5419163E-08
   33.00000     -1.3938928E-08
   33.06000     -1.2503324E-08
   33.12000     -1.1131833E-08
   33.18000     -9.8401385E-09
   33.24000     -8.6375849E-09
   33.30000     -7.5269941E-09
   33.36000     -6.5065415E-09
   33.42000     -5.5728093E-09
   33.48000     -4.7238449E-09
   33.54000     -3.9611634E-09
   33.60000     -3.2899952E-09
   33.66000     -2.7176106E-09
   33.72000     -2.2501701E-09
   33.78000     -1.8890627E-09
   33.84000     -1.6280152E-09
   33.90000     -1.4521850E-09
   33.96000     -1.3399254E-09
   34.02000     -1.2670424E-09
   34.08000     -1.2124109E-09
   34.14000     -1.1631818E-09
   34.20000     -1.1177909E-09
   34.26000     -1.0856660E-09
   34.32000     -1.0836699E-09
   34.38000     -1.1305030E-09
   34.44000     -1.2410185E-09
   34.50000     -1.4223943E-09
   34.56000     -1.6733546E-09
   34.62000     -1.9864577E-09
   34.68000     -2.3523115E-09
   34.74000     -2.7639002E-09
   34.80000     -3.2192236E-09
   34.86000     -3.7211498E-09
   34.92000     -4.2745039E-09
   34.98000     -4.8814970E-09
   35.04000     -5.5373337E-09
   35.10000     -6.2278609E-09
   35.16000     -6.9304966E-09
   35.22000     -7.6185680E-09
   35.28000     -8.2679676E-09
   35.34000     -8.8641512E-09
   35.40000     -9.4072128E-09
   35.46000     -9.9132338E-09
   35.52000     -1.0411188E-08
   35.58000     -1.0936034E-08
   35.64000     -1.1519870E-08
   35.70000     -1.2183733E-08
   35.76000     -1.2932561E-08
   35.82000     -1.3754955E-08
   35.88000     -1.4627884E-08
   35.94000     -1.5524861E-08
   36.00000     -1.6424906E-08
   36.06000     -1.7319177E-08
   36.12000     -1.8212946E-08
   36.18000     -1.9122096E-08
   36.24000     -2.0065379E-08
   36.30000     -2.1055234E-08
   36.36000     -2.2090596E-08
   36.42000     -2.3154458E-08
   36.48000     -2.4217211E-08
   36.54000     -2.5244688E-08
   36.60000     -2.6207960E-08
   36.66000     -2.7091325E-08
   36.72000     -2.7895430E-08
   36.78000     -2.8634188E-08
   36.84000     -2.9326392E-08
   36.90000     -2.9984818E-08
   36.96000     -3.0606614E-08
   37.02000     -3.1168454E-08
   37.08000     -3.1628463E-08
   37.14000     -3.1934448E-08
   37.20000     -3.2035906E-08
   37.26000     -3.1895823E-08
   37.32000     -3.1498189E-08
   37.38000     -3.0848820E-08
   37.44000     -2.9969247E-08
   37.50000     -2.8886097E-08
   37.56000     -2.7619935E-08
   37.62000     -2.6177631E-08
   37.68000     -2.4550957E-08
   37.74000     -2.2721776E-08
   37.80000     -2.0671797E-08
   37.86000     -1.8393308E-08
   37.92000     -1.5896948E-08
   37.98000     -1.3213711E-08
   38.04000     -1.0390230E-08
   38.10000     -7.4786257E-09
   38.16000     -4.5240669E-09
   38.22000     -1.5540693E-09
   38.28000      1.4267139E-09
   38.34000      4.4340012E-09
   38.40000      7.4939308E-09
   38.46000      1.0628527E-08
   38.52000      1.3841377E-08
   38.58000      1.7108741E-08
   38.64000      2.0379741E-08
   38.70000      2.3586272E-08
   38.76000      2.6659722E-08
   38.82000      2.9548838E-08
   38.88000      3.2232506E-08
   38.94000      3.4722692E-08
   39.00000      3.7056395E-08
   39.06000      3.9279300E-08
   39.12000      4.1426762E-08
   39.18000      4.3508777E-08
   39.24000      4.5504070E-08
   39.30000      4.7365454E-08
   39.36000      4.9034700E-08
   39.42000      5.0461946E-08
   39.48000      5.1623207E-08
   39.54000      5.2529987E-08
   39.60000      5.3227527E-08
   39.66000      5.3782017E-08
   39.72000      5.4260660E-08
   39.78000      5.4711219E-08
   39.84000      5.5147769E-08
   39.90000      5.5547627E-08
   39.96000      5.5860458E-08
   40.02000      5.6026579E-08
   40.08000      5.5998218E-08
   40.14000      5.5756587E-08
   40.20000      5.5319234E-08
   40.26000      5.4735477E-08
   40.32000      5.4071826E-08
   40.38000      5.3392551E-08
   40.44000      5.2741864E-08
   40.50000      5.2133590E-08
   40.56000      5.1551364E-08
   40.62000      5.0959002E-08
   40.68000      5.0317290E-08
   40.74000      4.9601326E-08
   40.80000      4.8812407E-08
   40.86000      4.7980297E-08
   40.92000      4.7154888E-08
   40.98000      4.6390056E-08
   41.04000      4.5725255E-08
   41.10000      4.5171298E-08
   41.16000      4.4705448E-08
   41.22000      4.4277773E-08
   41.28000      4.3826763E-08
   41.34000      4.3299025E-08
   41.40000      4.2666358E-08
   41.46000      4.1934431E-08
   41.52000      4.1139970E-08
   41.58000      4.0337287E-08
   41.64000      3.9578421E-08
   41.70000      3.8893376E-08
   41.76000      3.8277051E-08
   41.82000      3.7687339E-08
   41.88000      3.7055358E-08
   41.94000      3.6304762E-08
   42.00000      3.5373926E-08
   42.06000      3.4233807E-08
   42.12000      3.2895578E-08
   42.18000      3.1405580E-08
   42.24000      2.9829419E-08
   42.30000      2.8230664E-08
   42.36000      2.6651293E-08
   42.42000      2.5100233E-08
   42.48000      2.3553399E-08
   42.54000      2.1964876E-08
   42.60000      2.0285226E-08
   42.66000      1.8480936E-08
   42.72000      1.6548874E-08
   42.78000      1.4521260E-08
   42.84000      1.2459600E-08
   42.90000      1.0439400E-08
   42.96000      8.5301952E-09
   43.02000      6.7770758E-09
   43.08000      5.1895306E-09
   43.14000      3.7413113E-09
   43.20000      2.3815017E-09
   43.26000      1.0532506E-09
   43.32000     -2.8602773E-10
   43.38000     -1.6497332E-09
   43.44000     -3.0173479E-09
   43.50000     -4.3412340E-09
   43.56000     -5.5623350E-09
   43.62000     -6.6292323E-09
   43.68000     -7.5141351E-09
   43.74000     -8.2207041E-09
   43.80000     -8.7814929E-09
   43.86000     -9.2461967E-09
   43.92000     -9.6647588E-09
   43.98000     -1.0070822E-08
   44.04000     -1.0470848E-08
   44.10000     -1.0842435E-08
   44.16000     -1.1142452E-08
   44.22000     -1.1322429E-08
   44.28000     -1.1346145E-08
   44.34000     -1.1203398E-08
   44.40000     -1.0915151E-08
   44.46000     -1.0528163E-08
   44.52000     -1.0100992E-08
   44.58000     -9.6863326E-09
   44.64000     -9.3159462E-09
   44.70000     -8.9932453E-09
   44.76000     -8.6956549E-09
   44.82000     -8.3853076E-09
   44.88000     -8.0238234E-09
   44.94000     -7.5859896E-09
   45.00000     -7.0679715E-09
   45.06000     -6.4879129E-09
   45.12000     -5.8792757E-09
   45.18000     -5.2793840E-09
   45.24000     -4.7168238E-09
   45.30000     -4.2015089E-09
   45.36000     -3.7204708E-09
   45.42000     -3.2408634E-09
   45.48000     -2.7196385E-09
   45.54000     -2.1172373E-09
   45.60000     -1.4111156E-09
   45.66000     -6.0460692E-10
   45.72000      2.7214075E-10
   45.78000      1.1698953E-09
   45.84000      2.0344755E-09
   45.90000      2.8226952E-09
   45.96000      3.5147734E-09
   46.02000      4.1190598E-09
   46.08000      4.6675823E-09
   46.14000      5.2040643E-09
   46.20000      5.7684826E-09
   46.26000      6.3832069E-09
   46.32000      7.0449837E-09
   46.38000      7.7249593E-09
   46.44000      8.3763450E-09
   46.50000      8.9470422E-09
   46.56000      9.3932595E-09
   46.62000      9.6900754E-09
   46.68000      9.8360733E-09
   46.74000      9.8510409E-09
   46.80000      9.7678532E-09
   46.86000      9.6212824E-09
   46.92000      9.4373132E-09
   46.98000      9.2261878E-09
   47.04000      8.9811287E-09
   47.10000      8.6828473E-09
   47.16000      8.3080529E-09
   47.22000      7.8389508E-09
   47.28000      7.2704274E-09
   47.34000      6.6124493E-09
   47.40000      5.8868981E-09
   47.46000      5.1200235E-09
   47.52000      4.3333235E-09
   47.58000      3.5362209E-09
   47.64000      2.7232931E-09
   47.70000      1.8770869E-09
   47.76000      9.7543695E-10
   47.82000      5.3424024E-13
   47.88000     -1.0536239E-09
   47.94000     -2.1780180E-09
   48.00000     -3.3505478E-09
   48.06000     -4.5421014E-09
   48.12000     -5.7243534E-09
   48.18000     -6.8765402E-09
   48.24000     -7.9891720E-09
   48.30000     -9.0639034E-09
   48.36000     -1.0110094E-08
   48.42000     -1.1139401E-08
   48.48000     -1.2160004E-08
   48.54000     -1.3171871E-08
   48.60000     -1.4164041E-08
   48.66000     -1.5114457E-08
   48.72000     -1.5992427E-08
   48.78000     -1.6763254E-08
   48.84000     -1.7394072E-08
   48.90000     -1.7859483E-08
   48.96000     -1.8145508E-08
   49.02000     -1.8250752E-08
   49.08000     -1.8184435E-08
   49.14000     -1.7961966E-08
   49.20000     -1.7599472E-08
   49.26000     -1.7108961E-08
   49.32000     -1.6495511E-08
   49.38000     -1.5757097E-08
   49.44000     -1.4886843E-08
   49.50000     -1.3876671E-08
   49.56000     -1.2721143E-08
   49.62000     -1.1420260E-08
   49.68000     -9.9805080E-09
   49.74000     -8.4139895E-09
   49.80000     -6.7360695E-09
   49.86000     -4.9623718E-09
   49.92000     -3.1061338E-09
   49.98000     -1.1768017E-09
   50.04000      8.1964169E-10
   50.10000      2.8786811E-09
   50.16000      4.9942286E-09
   50.22000      7.1555704E-09
   50.28000      9.3454009E-09
   50.34000      1.1539777E-08
   50.40000      1.3710244E-08
   50.46000      1.5827673E-08
   50.52000      1.7866848E-08
   50.58000      1.9810473E-08
   50.64000      2.1651525E-08
   50.70000      2.3393271E-08
   50.76000      2.5047013E-08
   50.82000      2.6628173E-08
   50.88000      2.8151838E-08
   50.94000      2.9628906E-08
   51.00000      3.1063827E-08
   51.06000      3.2454494E-08
   51.12000      3.3794226E-08
   51.18000      3.5075413E-08
   51.24000      3.6293809E-08
   51.30000      3.7452399E-08
   51.36000      3.8563723E-08
   51.42000      3.9650043E-08
   51.48000      4.0741071E-08
   51.54000      4.1869910E-08
   51.60000      4.3068070E-08
   51.66000      4.4360910E-08
   51.72000      4.5764516E-08
   51.78000      4.7284825E-08
   51.84000      4.8918974E-08
   51.90000      5.0658379E-08
   51.96000      5.2492691E-08
   52.02000      5.4413487E-08
   52.08000      5.6416781E-08
   52.14000      5.8503645E-08
   52.20000      6.0678829E-08
   52.26000      6.2947677E-08
   52.32000      6.5312179E-08
   52.38000      6.7767274E-08
   52.44000      7.0298363E-08
   52.50000      7.2880702E-08
   52.56000      7.5480330E-08
   52.62000      7.8056061E-08
   52.68000      8.0561122E-08
   52.74000      8.2943849E-08
   52.80000      8.5146908E-08
   52.86000      8.7105690E-08
   52.92000      8.8746880E-08
   52.98000      8.9988312E-08
   53.04000      9.0740549E-08
   53.10000      9.0910120E-08
   53.16000      9.0403304E-08
   53.22000      8.9129408E-08
   53.28000      8.7002434E-08
   53.34000      8.3941011E-08
   53.40000      7.9866794E-08
   53.46000      7.4702278E-08
   53.52000      6.8368870E-08
   53.58000      6.0785936E-08
   53.64000      5.1871123E-08
   53.70000      4.1542044E-08
   53.76000      2.9719073E-08
   53.82000      1.6328910E-08
   53.88000      1.3084835E-09
   53.94000     -1.5391381E-08
   54.00000     -3.3803111E-08
   54.06000     -5.3940905E-08
   54.12000     -7.5800891E-08
   54.18000     -9.9362623E-08
   54.24000     -1.2459138E-07
   54.30000     -1.5144026E-07
   54.36000     -1.7985144E-07
   54.42000     -2.0975584E-07
   54.48000     -2.4107158E-07
   54.54000     -2.7370194E-07
   54.60000     -3.0753372E-07
   54.66000     -3.4243689E-07
   54.72000     -3.7826595E-07
   54.78000     -4.1486240E-07
   54.84000     -4.5205749E-07
   54.90000     -4.8967428E-07
   54.96000     -5.2752796E-07
   55.02000     -5.6542552E-07
   55.08000     -6.0316466E-07
   55.14000     -6.4053364E-07
   55.20000     -6.7731384E-07
   55.26000     -7.1328333E-07
   55.32000     -7.4822276E-07
   55.38000     -7.8192090E-07
   55.44000     -8.1417988E-07
   55.50000     -8.4481781E-07
   55.56000     -8.7366891E-07