 -0.750000000       0.00000000    
 -0.689999998       0.00000000    
 -0.629999995       0.00000000    
 -0.569999993       0.00000000    
 -0.509999990       0.00000000    
 -0.449999988       0.00000000    
 -0.389999986       0.00000000    
 -0.330000013       0.00000000    
 -0.270000011      -1.75582503E-26
 -0.209999993      -1.57782843E-25
 -0.150000006      -6.79180249E-25
  -9.00000036E-02  -1.97248240E-24
  -2.99999993E-02  -5.26947094E-24
   2.99999993E-02  -1.64065035E-23
   9.00000036E-02  -5.09910475E-23
  0.150000006      -1.19493040E-22
  0.209999993      -1.42631630E-22
  0.270000011       2.28313638E-22
  0.330000013       1.73237934E-21
  0.389999986       5.06710770E-21
  0.449999988       9.23715983E-21
  0.509999990       8.73170804E-21
  0.569999993      -8.23986516E-21
  0.629999995      -5.53599478E-20
  0.689999998      -1.32190842E-19
  0.750000000      -1.97788397E-19
  0.810000002      -1.50804525E-19
  0.870000005       1.49681666E-19
  0.930000007       7.87760855E-19
  0.990000010       1.62172357E-18
   1.04999995       2.12579855E-18
   1.11000001       1.41175856E-18
   1.16999996      -1.38917343E-18
   1.23000002      -6.35168459E-18
   1.28999996      -1.18751091E-17
   1.35000002      -1.43355330E-17
   1.40999997      -9.02275956E-18
   1.47000003       7.30295925E-18
   1.52999997       3.28992427E-17
   1.59000003       5.84424676E-17
   1.64999998       6.78213391E-17
   1.71000004       4.39927605E-17
   1.76999998      -2.09172338E-17
   1.83000004      -1.15405367E-16
   1.88999999      -2.04679993E-16
   1.95000005      -2.38588376E-16
   2.00999999      -1.72070217E-16
   2.06999993       8.52331122E-18
   2.13000011       2.65963766E-16
   2.19000006       5.12667168E-16
   2.25000000       6.36962318E-16
   2.30999994       5.47967583E-16
   2.36999989       2.20066968E-16
   2.43000007      -2.85197132E-16
   2.49000001      -8.32631481E-16
   2.54999995      -1.25685067E-15
   2.60999990      -1.41362980E-15
   2.67000008      -1.21380499E-15
   2.73000002      -6.28957962E-16
   2.78999996       3.17463105E-16
   2.84999990       1.54377917E-15
   2.91000009       2.86807368E-15
   2.97000003       3.94744924E-15
   3.02999997       4.26049272E-15
   3.08999991       3.21182866E-15
   3.15000010       3.96401255E-16
   3.21000004      -4.03744904E-15
   3.26999998      -9.09891432E-15
   3.32999992      -1.29646346E-14
   3.39000010      -1.34427890E-14
   3.45000005      -8.84905315E-15
   3.50999999       9.98909555E-16
   3.56999993       1.41340746E-14
   3.63000011       2.65742526E-14
   3.69000006       3.33984447E-14
   3.75000000       3.05011787E-14
   3.80999994       1.63820034E-14
   3.86999989      -6.79625652E-15
   3.93000007      -3.34132102E-14
   3.99000001      -5.58825752E-14
   4.05000019      -6.69027279E-14
   4.11000013      -6.16298462E-14
   4.17000008      -3.90289709E-14
   4.23000002      -2.09105266E-15
   4.28999996       4.28775938E-14
   4.34999990       8.73867900E-14
   4.40999985       1.21891755E-13
   4.46999979       1.36872433E-13
   4.53000021       1.24179692E-13
   4.59000015       7.89945366E-14
   4.65000010       2.31689663E-15
   4.71000004      -9.67878596E-14
   4.76999998      -2.00465160E-13
   4.82999992      -2.84055250E-13
   4.88999987      -3.21135371E-13
   4.94999981      -2.90687017E-13
   5.01000023      -1.84316158E-13
   5.07000017      -1.10565836E-14
   5.13000011       2.02116820E-13
   5.19000006       4.14568607E-13
   5.25000000       5.80041440E-13
   5.30999994       6.56347481E-13
   5.36999989       6.14366034E-13
   5.42999983       4.44519747E-13
   5.48999977       1.59776218E-13
   5.55000019      -2.04982231E-13
   5.61000013      -5.96894821E-13
   5.67000008      -9.51818160E-13
   5.73000002      -1.20308039E-12
   5.78999996      -1.29135830E-12
   5.84999990      -1.17449095E-12
   5.90999985      -8.35948932E-13
   5.96999979      -2.90847939E-13
   6.03000021       4.11229265E-13
   6.09000015       1.18707095E-12
   6.15000010       1.92483291E-12
   6.21000004       2.49398744E-12
   6.26999998       2.76113247E-12
   6.32999992       2.61190982E-12
   6.38999987       1.97748306E-12
   6.44999981       8.61355637E-13
   6.51000023      -6.40300204E-13
   6.57000017      -2.33284008E-12
   6.63000011      -3.93864412E-12
   6.69000006      -5.13659081E-12
   6.75000000      -5.62199723E-12
   6.80999994      -5.17680039E-12
   6.86999989      -3.73452267E-12
   6.92999983      -1.42258341E-12
   6.98999977       1.43305918E-12
   7.05000019       4.34911569E-12
   7.11000013       6.76989801E-12
   7.17000008       8.18230986E-12
   7.23000002       8.23724942E-12
   7.28999996       6.84843458E-12
   7.34999990       4.24119897E-12
   7.40999985       9.32777401E-13
   7.46999979      -2.35960969E-12
   7.53000021      -4.86960819E-12
   7.59000015      -5.96370306E-12
   7.65000010      -5.31827577E-12
   7.71000004      -3.05575704E-12
   7.76999998       1.88410309E-13
   7.82999992       3.28366219E-12
   7.88999987       4.70841118E-12
   7.94999981       2.72856499E-12
   8.01000023      -4.37215108E-12
   8.06999969      -1.80408345E-11
   8.13000011      -3.92192147E-11
   8.18999958      -6.81606160E-11
   8.25000000      -1.04334492E-10
   8.31000042      -1.46442330E-10
   8.36999989      -1.92550517E-10
   8.43000031      -2.40323539E-10
   8.48999977      -2.87317586E-10
   8.55000019      -3.31279171E-10
   8.60999966      -3.70389247E-10
   8.67000008      -4.03403061E-10
   8.72999954      -4.29657254E-10
   8.78999996      -4.48944909E-10
   8.85000038      -4.61288674E-10
   8.90999985      -4.66663430E-10
   8.97000027      -4.64734612E-10
   9.02999973      -4.54676657E-10
   9.09000015      -4.35124853E-10
   9.14999962      -4.04286438E-10
   9.21000004      -3.60203867E-10
   9.27000046      -3.01127012E-10
   9.32999992      -2.25919977E-10
   9.39000034      -1.34416631E-10
   9.44999981      -2.76504618E-11
   9.51000023       9.20822932E-11
   9.56999969       2.21320420E-10
   9.63000011       3.55652091E-10
   9.68999958       4.89986107E-10
   9.75000000       6.18838369E-10
   9.81000042       7.36632200E-10
   9.86999989       8.38052294E-10
   9.93000031       9.18504439E-10
   9.98999977       9.74693770E-10
   10.0500002       1.00525843E-09
   10.1099997       1.01130371E-09
   10.1700001       9.96631000E-10
   10.2299995       9.67477987E-10
   10.2900000       9.31699717E-10
   10.3500004       8.97494079E-10
   10.4099998       8.71936690E-10
   10.4700003       8.59691873E-10
   10.5299997       8.62236560E-10
   10.5900002       8.77792505E-10
   10.6499996       9.01949848E-10
   10.7100000       9.28765509E-10
   10.7700005       9.52002810E-10
   10.8299999       9.66189240E-10
   10.8900003       9.67285141E-10
   10.9499998       9.52923185E-10
   11.0100002       9.22325993E-10
   11.0699997       8.76081707E-10
   11.1300001       8.15930656E-10
   11.1899996       7.44634965E-10
   11.2500000       6.65896394E-10
   11.3100004       5.84224724E-10
   11.3699999       5.04655373E-10
   11.4300003       4.32271940E-10
   11.4899998       3.71576298E-10
   11.5500002       3.25827865E-10
   11.6099997       2.96515673E-10
   11.6700001       2.83114449E-10
   11.7299995       2.83218254E-10
   11.7900000       2.93051555E-10
   11.8500004       3.08260806E-10
   11.9099998       3.24804628E-10
   11.9700003       3.39722472E-10
   12.0299997       3.51578572E-10
   12.0900002       3.60464797E-10
   12.1499996       3.67576664E-10
   12.2100000       3.74518666E-10
   12.2700005       3.82591403E-10
   12.3299999       3.92317623E-10
   12.3900003       4.03366451E-10
   12.4499998       4.14861867E-10
   12.5100002       4.25888519E-10
   12.5699997       4.35915526E-10
   12.6300001       4.44901976E-10
   12.6899996       4.53017318E-10
   12.7500000       4.60126603E-10
   12.8100004       4.65351230E-10
   12.8699999       4.67021477E-10
   12.9300003       4.63172362E-10
   12.9899998       4.52463372E-10
   13.0500002       4.35158576E-10
   13.1099997       4.13711593E-10
   13.1700001       3.92626653E-10
   13.2299995       3.77559844E-10
   13.2900000       3.73957837E-10
   13.3500004       3.85739191E-10
   13.4099998       4.14506818E-10
   13.4700003       4.59541349E-10
   13.5299997       5.18477872E-10
   13.5900002       5.88277205E-10
   13.6499996       6.66005973E-10
   13.7100000       7.49075024E-10
   13.7700005       8.34884162E-10
   13.8299999       9.20135246E-10
   13.8900003       1.00025599E-09
   13.9499998       1.06934728E-09
   14.0100002       1.12084253E-09
   14.0699997       1.14875287E-09
   14.1300001       1.14911347E-09
   14.1899996       1.12113130E-09
   14.2500000       1.06762954E-09
   14.3100004       9.94617610E-10
   14.3699999       9.10116704E-10
   14.4300003       8.22607815E-10
   14.4899998       7.39572403E-10
   14.5500002       6.66524502E-10
   14.6099997       6.06730610E-10
   14.6700001       5.61548696E-10
   14.7299995       5.31100997E-10
   14.7900000       5.14903120E-10
   14.8500004       5.12146381E-10
   14.9099998       5.21528154E-10
   14.9700003       5.40779255E-10
   15.0299997       5.66216740E-10
   15.0900002       5.92683458E-10
   15.1499996       6.14092222E-10
   15.2100000       6.24523766E-10
   15.2700005       6.19553242E-10
   15.3299999       5.97319583E-10
   15.3900003       5.58891322E-10
   15.4499998       5.07717479E-10
   15.5100002       4.48300647E-10
   15.5699997       3.84543758E-10
   15.6300001       3.18375215E-10
   15.6899996       2.49169713E-10
   15.7500000       1.74183529E-10
   15.8100004       8.98284225E-11
   15.8699999      -6.72266496E-12
   15.9300003      -1.16230088E-10
   15.9899998      -2.36877740E-10
   16.0499992      -3.64713010E-10
   16.1100006      -4.94786045E-10
   16.1700001      -6.22451701E-10
   16.2299995      -7.44255213E-10
   16.2900009      -8.58043192E-10
   16.3500004      -9.62326108E-10
   16.4099998      -1.05528519E-09
   16.4699993      -1.13399745E-09
   16.5300007      -1.19436394E-09
   16.5900002      -1.23190369E-09
   16.6499996      -1.24318156E-09
   16.7099991      -1.22733701E-09
   16.7700005      -1.18710963E-09
   16.8299999      -1.12893617E-09
   16.8899994      -1.06202391E-09
   16.9500008      -9.96651095E-10
   17.0100002      -9.42168121E-10
   17.0699997      -9.05216790E-10
   17.1299992      -8.88572271E-10
   17.1900005      -8.90816365E-10
   17.2500000      -9.06851372E-10
   17.3099995      -9.29107402E-10
   17.3700008      -9.49192502E-10
   17.4300003      -9.59664459E-10
   17.4899998      -9.55568180E-10
   17.5499992      -9.35396316E-10
   17.6100006      -9.01218322E-10
   17.6700001      -8.57901972E-10
   17.7299995      -8.11591516E-10
   17.7900009      -7.67847952E-10
   17.8500004      -7.30000782E-10
   17.9099998      -6.98235691E-10
   17.9699993      -6.69732936E-10
   18.0300007      -6.39823750E-10
   18.0900002      -6.03765982E-10
   18.1499996      -5.58497915E-10
   18.2099991      -5.03716291E-10
   18.2700005      -4.41869125E-10
   18.3299999      -3.77077314E-10
   18.3899994      -3.13446158E-10
   18.4500008      -2.53502386E-10
   18.5100002      -1.97474787E-10
   18.5699997      -1.43800680E-10
   18.6299992      -9.07170658E-11
   18.6900005      -3.82939479E-11
   18.7500000       9.99048500E-12
   18.8099995       4.69218657E-11
   18.8700008       6.28048516E-11
   18.9300003       4.80199561E-11
   18.9899998      -3.93663140E-12
   19.0499992      -9.39862632E-11
   19.1100006      -2.16476309E-10
   19.1700001      -3.60080743E-10
   19.2299995      -5.10377018E-10
   19.2900009      -6.53327503E-10
   19.3500004      -7.78601572E-10
   19.4099998      -8.81726192E-10
   19.4699993      -9.64423430E-10
   19.5300007      -1.03305853E-09
   19.5900002      -1.09571063E-09
   19.6499996      -1.15882282E-09
   19.7099991      -1.22453525E-09
   19.7700005      -1.28961186E-09
   19.8299999      -1.34635525E-09
   19.8899994      -1.38522704E-09
   19.9500008      -1.39827028E-09
   20.0100002      -1.38209988E-09
   20.0699997      -1.33934341E-09
   20.1299992      -1.27795496E-09
   20.1900005      -1.20862031E-09
   20.2500000      -1.14119592E-09
   20.3099995      -1.08149856E-09
   20.3700008      -1.02961528E-09
   20.4300003      -9.80295622E-10
   20.4899998      -9.25182653E-10
   20.5499992      -8.55965021E-10
   20.6100006      -7.67265640E-10
   20.6700001      -6.58303412E-10
   20.7299995      -5.32933198E-10
   20.7900009      -3.98315159E-10
   20.8500004      -2.62909555E-10
   20.9099998      -1.34591754E-10
   20.9699993      -1.94519626E-11
   21.0300007       7.85459683E-11
   21.0900002       1.57231117E-10
   21.1499996       2.15589394E-10
   21.2099991       2.53190469E-10
   21.2700005       2.69908207E-10
   21.3299999       2.65992922E-10
   21.3899994       2.42411896E-10
   21.4500008       2.01283976E-10
   21.5100002       1.46189186E-10
   21.5699997       8.21372900E-11
   21.6299992       1.50494287E-11
   21.6900005      -4.92380477E-11
   21.7500000      -1.06227582E-10
   21.8099995      -1.53863172E-10
   21.8700008      -1.93017449E-10
   21.9300003      -2.27047284E-10
   21.9899998      -2.60436422E-10
   22.0499992      -2.96932146E-10
   22.1100006      -3.37846529E-10
   22.1700001      -3.81191273E-10
   22.2299995      -4.22025942E-10
   22.2900009      -4.53945187E-10
   22.3500004      -4.71203465E-10
   22.4099998      -4.70760653E-10
   22.4699993      -4.53591192E-10
   22.5300007      -4.24888735E-10
   22.5900002      -3.93167360E-10
   22.6499996      -3.68571923E-10
   22.7099991      -3.60875552E-10
   22.7700005      -3.77653547E-10
   22.8299999      -4.23023061E-10
   22.8899994      -4.97176966E-10
   22.9500008      -5.96747485E-10
   23.0100002      -7.15847159E-10
   23.0699997      -8.47472759E-10
   23.1299992      -9.84879844E-10
   23.1900005      -1.12257170E-09
   23.2500000      -1.25670963E-09
   23.3099995      -1.38497647E-09
   23.3700008      -1.50612234E-09
   23.4300003      -1.61950564E-09
   23.4899998      -1.72486669E-09
   23.5499992      -1.82239512E-09
   23.6100006      -1.91295646E-09
   23.6700001      -1.99822536E-09
   23.7299995      -2.08049578E-09
   23.7900009      -2.16207918E-09
   23.8500004      -2.24439822E-09
   23.9099998      -2.32705877E-09
   23.9699993      -2.40727416E-09
   24.0300007      -2.47995668E-09
   24.0900002      -2.53862109E-09
   24.1499996      -2.57697530E-09
   24.2099991      -2.59078514E-09
   24.2700005      -2.57941979E-09
   24.3299999      -2.54649879E-09
   24.3899994      -2.49929655E-09
   24.4500008      -2.44698817E-09
   24.5100002      -2.39824938E-09
   24.5699997      -2.35899211E-09
   24.6299992      -2.33098452E-09
   24.6900005      -2.31178121E-09
   24.7500000      -2.29590125E-09
   24.8099995      -2.27677188E-09
   24.8700008      -2.24876184E-09
   24.9300003      -2.20869567E-09
   24.9899998      -2.15651785E-09
   25.0499992      -2.09508189E-09
   25.1100006      -2.02926431E-09
   25.1700001      -1.96471506E-09
   25.2299995      -1.90656158E-09
   25.2900009      -1.85836779E-09
   25.3500004      -1.82159143E-09
   25.4099998      -1.79569370E-09
   25.4699993      -1.77887760E-09
   25.5300007      -1.76921133E-09
   25.5900002      -1.76571935E-09
   25.6499996      -1.76900439E-09
   25.7099991      -1.78114024E-09
   25.7700005      -1.80488724E-09
   25.8299999      -1.84256432E-09
   25.8899994      -1.89503235E-09
   25.9500008      -1.96112770E-09
   26.0100002      -2.03764094E-09
   26.0699997      -2.11969886E-09
   26.1299992      -2.20132934E-09
   26.1900005      -2.27606956E-09
   26.2500000      -2.33762609E-09
   26.3099995      -2.38065456E-09
   26.3700008      -2.40164444E-09
   26.4300003      -2.39970621E-09
   26.4899998      -2.37691955E-09
   26.5499992      -2.33794251E-09
   26.6100006      -2.28882735E-09
   26.6700001      -2.23533370E-09
   26.7299995      -2.18127671E-09
   26.7900009      -2.12748974E-09
   26.8500004      -2.07176276E-09
   26.9099998      -2.00976769E-09
   26.9699993      -1.93664706E-09
   27.0300007      -1.84875726E-09
   27.0900002      -1.74505099E-09
   27.1499996      -1.62772873E-09
   27.2099991      -1.50200308E-09
   27.2700005      -1.37505840E-09
   27.3299999      -1.25449651E-09
   27.3899994      -1.14670529E-09
   27.4500008      -1.05562448E-09
   27.5100002      -9.82264270E-10
   27.5699997      -9.25082122E-10
   27.6299992      -8.81004436E-10
   27.6900005      -8.46650972E-10
   27.7500000      -8.19276424E-10
   27.8099995      -7.97127198E-10
   27.8700008      -7.79222353E-10
   27.9300003      -7.64839803E-10
   27.9899998      -7.53083651E-10
   28.0499992      -7.42788053E-10
   28.1100006      -7.32764516E-10
   28.1700001      -7.22190197E-10
   28.2299995      -7.10870696E-10
   28.2900009      -6.99226066E-10
   28.3500004      -6.88035628E-10
   28.4099998      -6.78121337E-10
   28.4699993      -6.70157818E-10
   28.5300007      -6.64688360E-10
   28.5900002      -6.62280120E-10
   28.6499996      -6.63665956E-10
   28.7099991      -6.69742928E-10
   28.7700005      -6.81394219E-10
   28.8299999      -6.99216074E-10
   28.8899994      -7.23291094E-10
   28.9500008      -7.53134333E-10
   29.0100002      -7.87864773E-10
   29.0699997      -8.26558877E-10
   29.1299992      -8.68662975E-10
   29.1900005      -9.14295195E-10
   29.2500000      -9.64284097E-10
   29.3099995      -1.01987196E-09
   29.3700008      -1.08214759E-09
   29.4300003      -1.15141685E-09
   29.4899998      -1.22679467E-09
   29.5499992      -1.30625244E-09
   29.6100006      -1.38715950E-09
   29.6700001      -1.46710710E-09
   29.7299995      -1.54462465E-09
   29.7900009      -1.61940117E-09
   29.8500004      -1.69184966E-09
   29.9099998      -1.76217840E-09
   29.9699993      -1.82940840E-09
   30.0300007      -1.89083016E-09
   30.0900002      -1.94220084E-09
   30.1499996      -1.97864680E-09
   30.2099991      -1.99592876E-09
   30.2700005      -1.99160755E-09
   30.3299999      -1.96574423E-09
   30.3899994      -1.92098715E-09
   30.4500008      -1.86211080E-09
   30.5100002      -1.79516946E-09
   30.5699997      -1.72641867E-09
   30.6299992      -1.66113512E-09
   30.6900005      -1.60248970E-09
   30.7500000      -1.55071123E-09
   30.8099995      -1.50284418E-09
   30.8700008      -1.45332302E-09
   30.9300003      -1.39534351E-09
   30.9899998      -1.32267508E-09
   31.0499992      -1.23131050E-09
   31.1100006      -1.12035026E-09
   31.1700001      -9.91805749E-10
   31.2299995      -8.49467552E-10
   31.2900009      -6.97382707E-10
   31.3500004      -5.38628586E-10
   31.4099998      -3.74874104E-10
   31.4699993      -2.06802311E-10
   31.5300007      -3.50423787E-11
   31.5900002       1.38960107E-10
   31.6499996       3.12626980E-10
   31.7099991       4.82661966E-10
   31.7700005       6.45999976E-10
   31.8299999       8.00840283E-10
   31.8899994       9.47283585E-10
   31.9500008       1.08727682E-09
   32.0099983       1.22385713E-09
   32.0699997       1.35996525E-09
   32.1300011       1.49725465E-09
   32.1899986       1.63533198E-09
   32.2500000       1.77172776E-09
   32.3100014       1.90265959E-09
   32.3699989       2.02438466E-09
   32.4300003       2.13471263E-09
   32.4900017       2.23414798E-09
   32.5499992       2.32620567E-09
   32.6100006       2.41669307E-09
   32.6699982       2.51210319E-09
   32.7299995       2.61759303E-09
   32.7900009       2.73519341E-09
   32.8499985       2.86282287E-09
   32.9099998       2.99441405E-09
   32.9700012       3.12107851E-09
   33.0299988       3.23292215E-09
   33.0900002       3.32097172E-09
   33.1500015       3.37870576E-09
   33.2099991       3.40288686E-09
   33.2700005       3.39360495E-09
   33.3300018       3.35365224E-09
   33.3899994       3.28747851E-09
   33.4500008       3.20002380E-09
   33.5099983       3.09572434E-09
   33.5699997       2.97791414E-09
   33.6300011       2.84869817E-09
   33.6899986       2.70920619E-09
   33.7500000       2.55998400E-09
   33.8100014       2.40123521E-09
   33.8699989       2.23275909E-09
   33.9300003       2.05365502E-09
   33.9900017       1.86209503E-09
   34.0499992       1.65553060E-09
   34.1100006       1.43153078E-09
   34.1699982       1.18909915E-09
   34.2299995       9.29974042E-10
   34.2900009       6.59292065E-10
   34.3499985       3.85180443E-10
   34.4099998       1.17284460E-10
   34.4700012      -1.35297329E-10
   34.5299988      -3.65942027E-10
   34.5900002      -5.71642289E-10
   34.6500015      -7.53056284E-10
   34.7099991      -9.13593756E-10
   34.7700005      -1.05795883E-09
   34.8300018      -1.19063237E-09
   34.8899994      -1.31464861E-09
   34.9500008      -1.43085155E-09
   35.0099983      -1.53769619E-09
   35.0699997      -1.63162683E-09
   35.1300011      -1.70801318E-09
   35.1899986      -1.76250470E-09
   35.2500000      -1.79246362E-09
   35.3100014      -1.79798099E-09
   35.3699989      -1.78201787E-09
   35.4300003      -1.74949044E-09
   35.4900017      -1.70556158E-09
   35.5499992      -1.65378788E-09
   35.6100006      -1.59488234E-09
   35.6699982      -1.52661828E-09
   35.7299995      -1.44491219E-09
   35.7900009      -1.34562794E-09
   35.8499985      -1.22636656E-09
   35.9099998      -1.08756404E-09
   35.9700012      -9.32541488E-10
   36.0299988      -7.66571251E-10
   36.0900002      -5.95356431E-10
   36.1500015      -4.23477448E-10
   36.2099991      -2.53311871E-10
   36.2700005      -8.47588666E-11
   36.3300018       8.41626768E-11
   36.3899994       2.56047544E-10
   36.4500008       4.32610975E-10
   36.5099983       6.13521234E-10
   36.5699997       7.96026023E-10
   36.6300011       9.75551195E-10
   36.6899986       1.14704235E-09
   36.7500000       1.30648448E-09
   36.8100014       1.45193724E-09
   36.8699989       1.58365121E-09
   36.9300003       1.70326220E-09
   36.9900017       1.81249604E-09
   37.0499992       1.91200145E-09
   37.1100006       2.00079953E-09
   37.1699982       2.07646589E-09
   37.2299995       2.13580575E-09
   37.2900009       2.17560880E-09
   37.3499985       2.19316965E-09
   37.4099998       2.18651119E-09
   37.4700012       2.15444840E-09
   37.5299988       2.09667195E-09
   37.5900002       2.01388906E-09
   37.6500015       1.90788985E-09
   37.7099991       1.78136317E-09
   37.7700005       1.63739822E-09
   37.8300018       1.47882928E-09
   37.8899994       1.30772004E-09
   37.9500008       1.12524712E-09
   38.0099983       9.32027677E-10
   38.0699997       7.28683336E-10
   38.1300011       5.16297727E-10
   38.1899986       2.96502101E-10
   38.2500000       7.11553871E-11
   38.3100014      -1.58165356E-10
   38.3699989      -3.90533439E-10
   38.4300003      -6.25646535E-10
   38.4900017      -8.63362326E-10
   38.5499992      -1.10297826E-09
   38.6100006      -1.34256972E-09
   38.6699982      -1.57868674E-09
   38.7299995      -1.80658499E-09
   38.7900009      -2.02098205E-09
   38.8499985      -2.21714780E-09
   38.9099998      -2.39200726E-09
   38.9700012      -2.54487231E-09
   39.0299988      -2.67749045E-09
   39.0900002      -2.79329049E-09
   39.1500015      -2.89598967E-09
   39.2099991      -2.98803160E-09
   39.2700005      -3.06944270E-09
   39.3300018      -3.13761062E-09
   39.3899994      -3.18813975E-09
   39.4500008      -3.21649063E-09
   39.5099983      -3.21977378E-09
   39.5699997      -3.19799076E-09
   39.6300011      -3.15425819E-09
   39.6899986      -3.09397552E-09
   39.7500000      -3.02330450E-09
   39.8100014      -2.94753288E-09
   39.8699989      -2.86984281E-09
   39.9300003      -2.79075851E-09
   39.9900017      -2.70829026E-09
   40.0499992      -2.61860666E-09
   40.1100006      -2.51701882E-09
   40.1699982      -2.39909159E-09
   40.2299995      -2.26170194E-09
   40.2900009      -2.10386064E-09
   40.3499985      -1.92708072E-09
   40.4099998      -1.73514358E-09
   40.4700012      -1.53325386E-09
   40.5299988      -1.32680245E-09
   40.5900002      -1.12012999E-09
   40.6500015      -9.15708842E-10
   40.7099991      -7.14010517E-10
   40.7700005      -5.14055742E-10
   40.8300018      -3.14377163E-10
   40.8899994      -1.13991219E-10
   40.9500008       8.69772240E-11
   41.0099983       2.87194601E-10
   41.0699997       4.84499441E-10
   41.1300011       6.76558587E-10
   41.1899986       8.61535510E-10
   41.2500000       1.03854192E-09
   41.3100014       1.20773325E-09
   41.3699989       1.37001810E-09
   41.4300003       1.52646096E-09
   41.4900017       1.67756409E-09
   41.5499992       1.82269932E-09
   41.6100006       1.95996241E-09
   41.6699982       2.08661999E-09
   41.7299995       2.20009322E-09
   41.7900009       2.29916552E-09
   41.8499985       2.38490494E-09
   41.9099998       2.46081155E-09
   41.9700012       2.53195354E-09
   42.0299988       2.60327049E-09
   42.0900002       2.67763456E-09
   42.1500015       2.75445666E-09
   42.2099991       2.82947998E-09
   42.2700005       2.89598034E-09
   42.3300018       2.94701041E-09
   42.3899994       2.97788305E-09
   42.4500008       2.98795211E-09
   42.5099983       2.98098790E-09
   42.5699997       2.96397840E-09
   42.6300011       2.94478641E-09
   42.6899986       2.92951596E-09
   42.7500000       2.92055113E-09
   42.8100014       2.91596547E-09
   42.8699989       2.91050206E-09
   42.9300003       2.89774382E-09
   42.9900017       2.87267388E-09
   43.0499992       2.83368462E-09
   43.1100006       2.78328627E-09
   43.1699982       2.72723311E-09
   43.2299995       2.67235745E-09
   43.2900009       2.62388022E-09
   43.3499985       2.58319743E-09
   43.4099998       2.54698795E-09
   43.4700012       2.50804932E-09
   43.5299988       2.45762521E-09
   43.5900002       2.38842990E-09
   43.6500015       2.29727148E-09
   43.7099991       2.18627649E-09
   43.7700005       2.06220063E-09
   43.8300018       1.93399696E-09
   43.8899994       1.80946691E-09
   43.9500008       1.69220582E-09
   44.0099983       1.57999014E-09
   44.0699997       1.46528367E-09
   44.1300011       1.33778189E-09
   44.1899986       1.18816534E-09
   44.2500000       1.01175446E-09
   44.3100014       8.10743361E-10
   44.3699989       5.94159277E-10
   44.4300003       3.75498160E-10
   44.4900017       1.68817446E-10
   44.5499992      -1.53751976E-11
   44.6100006      -1.73035072E-10
   44.6699982      -3.07342346E-10
   44.7299995      -4.27151509E-10
   44.7900009      -5.43783685E-10
   44.8499985      -6.67360944E-10
   44.9099998      -8.03954014E-10
   44.9700012      -9.54425095E-10
   45.0299988      -1.11516929E-09
   45.0900002      -1.28026312E-09
   45.1500015      -1.44407764E-09
   45.2099991      -1.60333713E-09
   45.2700005      -1.75790227E-09
   45.3300018      -1.91009675E-09
   45.3899994      -2.06295181E-09
   45.4500008      -2.21813501E-09
   45.5099983      -2.37441244E-09
   45.5699997      -2.52726440E-09
   45.6300011      -2.66980593E-09
   45.6899986      -2.79467693E-09
   45.7500000      -2.89618929E-09
   45.8100014      -2.97194913E-09
   45.8699989      -3.02337089E-09
   45.9300003      -3.05493142E-09
   45.9900017      -3.07245585E-09
   46.0499992      -3.08105408E-09
   46.1100006      -3.08341908E-09
   46.1699982      -3.07904791E-09
   46.2299995      -3.06463210E-09
   46.2900009      -3.03550118E-09
   46.3499985      -2.98768099E-09
   46.4099998      -2.91993274E-09
   46.4700012      -2.83511126E-09
   46.5299988      -2.74034240E-09
   46.5900002      -2.64584887E-09
   46.6500015      -2.56268451E-09
   46.7099991      -2.50003529E-09
   46.7700005      -2.46295029E-09
   46.8300018      -2.45127141E-09
   46.8899994      -2.46013765E-09
   46.9500008      -2.48186693E-09
   47.0099983      -2.50851739E-09
   47.0699997      -2.53419596E-09
   47.1300011      -2.55631738E-09
   47.1899986      -2.57545230E-09
   47.2500000      -2.59395860E-09
   47.3100014      -2.61403432E-09
   47.3699989      -2.63599342E-09
   47.4300003      -2.65745692E-09
   47.4900017      -2.67377076E-09
   47.5499992      -2.67952638E-09
   47.6100006      -2.67063349E-09
   47.6699982      -2.64618105E-09
   47.7299995      -2.60934896E-09
   47.7900009      -2.56694244E-09
   47.8499985      -2.52762766E-09
   47.9099998      -2.49946330E-09
   47.9700012      -2.48764542E-09
   48.0299988      -2.49331444E-09
   48.0900002      -2.51385601E-09
   48.1500015      -2.54448507E-09
   48.2099991      -2.58038346E-09
   48.2700005      -2.61848632E-09
   48.3300018      -2.65826716E-09
   48.3899994      -2.70138800E-09
   48.4500008      -2.75058021E-09
   48.5099983      -2.80834889E-09
   48.5699997      -2.87599500E-09
   48.6300011      -2.95316438E-09
   48.6899986      -3.03786640E-09
   48.7500000      -3.12681836E-09
   48.8100014      -3.21602012E-09
   48.8699989      -3.30153149E-09
   48.9300003      -3.38037442E-09
   48.9900017      -3.45132811E-09
   49.0499992      -3.51527696E-09
   49.1100006      -3.57484131E-09
   49.1699982      -3.63332053E-09
   49.2299995      -3.69335651E-09
   49.2900009      -3.75591513E-09
   49.3499985      -3.82005982E-09
   49.4099998      -3.88356813E-09
   49.4700012      -3.94397803E-09
   49.5299988      -3.99944300E-09
   49.5900002      -4.04893630E-09
   49.6500015      -4.09177536E-09
   49.7099991      -4.12689438E-09
   49.7700005      -4.15241708E-09
   49.8300018      -4.16589563E-09
   49.8899994      -4.16512780E-09
   49.9500008      -4.14912638E-09
   50.0099983      -4.11869339E-09
   50.0699997      -4.07626821E-09
   50.1300011      -4.02507583E-09
   50.1899986      -3.96791844E-09
   50.2500000      -3.90604216E-09
   50.3100014      -3.83847265E-09
   50.3699989      -3.76198761E-09
   50.4300003      -3.67176578E-09
   50.4900017      -3.56255470E-09
   50.5499992      -3.43009732E-09
   50.6100006      -3.27240435E-09