  -2.400000      0.0000000E+00
  -2.340000      0.0000000E+00
  -2.280000      0.0000000E+00
  -2.220000      0.0000000E+00
  -2.160000      0.0000000E+00
  -2.100000      0.0000000E+00
  -2.040000      0.0000000E+00
  -1.980000      0.0000000E+00
  -1.920000     -1.9319521E-26
  -1.860000     -1.7793522E-25
  -1.800000     -8.0251466E-25
  -1.740000     -2.5154984E-24
  -1.680000     -7.1740068E-24
  -1.620000     -2.1816852E-23
  -1.560000     -6.2879118E-23
  -1.500000     -1.3647855E-22
  -1.440000     -1.4259060E-22
  -1.380000      3.1676097E-22
  -1.320000      2.0455851E-21
  -1.260000      5.7380158E-21
  -1.200000      1.0145890E-20
  -1.140000      9.0679804E-21
  -1.080000     -1.0316958E-20
  -1.020000     -6.2260825E-20
 -0.9600000     -1.4478586E-19
 -0.9000000     -2.1158808E-19
 -0.8400000     -1.5245726E-19
 -0.7800000      1.8093548E-19
 -0.7200000      8.6836242E-19
 -0.6600000      1.7409792E-18
 -0.6000000      2.2220021E-18
 -0.5400000      1.3700351E-18
 -0.4800000     -1.6910166E-18
 -0.4200000     -6.9416310E-18
 -0.3600000     -1.2566137E-17
 -0.3000000     -1.4673550E-17
 -0.2400000     -8.4100007E-18
 -0.1800000      9.2599809E-18
 -0.1200000      3.5913016E-17
 -5.9999999E-02  6.1211306E-17
  0.0000000E+00  6.8199883E-17
  5.9999999E-02  3.9896671E-17
  0.1200000     -3.0028264E-17
  0.1800000     -1.2713205E-16
  0.2400000     -2.1337428E-16
  0.3000000     -2.3695646E-16
  0.3600000     -1.5469843E-16
  0.4200000      4.0921475E-17
  0.4800000      3.0377667E-16
  0.5400000      5.3834915E-16
  0.6000000      6.3074213E-16
  0.6600000      4.9705746E-16
  0.7200000      1.2787772E-16
  0.7800000     -3.9433788E-16
  0.8400000     -9.1673052E-16
  0.9000000     -1.2680937E-15
  0.9600000     -1.3159684E-15
   1.020000     -1.0008996E-15
   1.080000     -3.3647026E-16
   1.140000      6.1002873E-16
   1.200000      1.7244494E-15
   1.260000      2.8177521E-15
   1.320000      3.5778536E-15
   1.380000      3.5597801E-15
   1.440000      2.2870385E-15
   1.500000     -5.0555511E-16
   1.560000     -4.5530350E-15
   1.620000     -8.8334694E-15
   1.680000     -1.1639267E-14
   1.740000     -1.1070304E-14
   1.800000     -5.8731435E-15
   1.860000      3.6843202E-15
   1.920000      1.5351879E-14
   1.980000      2.5226439E-14
   2.040000      2.8945593E-14
   2.100000      2.3396844E-14
   2.160000      8.2599900E-15
   2.220000     -1.3344920E-14
   2.280000     -3.5513015E-14
   2.340000     -5.1358389E-14
   2.400000     -5.5273830E-14
   2.460000     -4.4731888E-14
   2.520000     -2.0944211E-14
   2.580000      1.1729440E-14
   2.640000      4.7130672E-14
   2.700000      7.8641968E-14
   2.760000      9.9963813E-14
   2.820000      1.0535085E-13
   2.880000      8.9879594E-14
   2.940000      5.0442130E-14
   3.000000     -1.2310010E-14
   3.060000     -9.1695836E-14
   3.120000     -1.7374637E-13
   3.180000     -2.3835643E-13
   3.240000     -2.6345254E-13
   3.300000     -2.3142184E-13
   3.360000     -1.3577494E-13
   3.420000      1.4478809E-14
   3.480000      1.9465606E-13
   3.540000      3.6885455E-13
   3.600000      4.9779018E-13
   3.660000      5.4765713E-13
   3.720000      4.9754564E-13
   3.780000      3.4376983E-13
   3.840000      1.0068492E-13
   3.900000     -2.0141304E-13
   3.960000     -5.2027929E-13
   4.020000     -8.0672231E-13
   4.080000     -1.0101378E-12
   4.140000     -1.0844288E-12
   4.200000     -9.9423757E-13
   4.260000     -7.2128799E-13
   4.320000     -2.7040479E-13
   4.380000      3.2549067E-13
   4.440000      1.0024927E-12
   4.500000      1.6665087E-12
   4.560000      2.1997280E-12
   4.620000      2.4745807E-12
   4.680000      2.3757480E-12
   4.740000      1.8282645E-12
   4.800000      8.2649252E-13
   4.860000     -5.4402804E-13
   4.920000     -2.1006922E-12
   4.980000     -3.5805911E-12
   5.040000     -4.6814692E-12
   5.100000     -5.1215464E-12
   5.160000     -4.7063187E-12
   5.220000     -3.3864090E-12
   5.280000     -1.2905579E-12
   5.340000      1.2778588E-12
   5.400000      3.8846201E-12
   5.460000      6.0432709E-12
   5.520000      7.3143115E-12
   5.580000      7.4046099E-12
   5.640000      6.2447738E-12
   5.700000      4.0250021E-12
   5.760000      1.1772829E-12
   5.820000     -1.6980394E-12
   5.880000     -3.9521476E-12
   5.940000     -5.0353107E-12
   6.000000     -4.6469976E-12
   6.060000     -2.8613956E-12
   6.120000     -2.0335475E-13
   6.180000      2.3443261E-12
   6.240000      3.4124728E-12
   6.300000      1.3948193E-12
   6.360000     -5.3393240E-12
   6.420000     -1.8196998E-11
   6.480000     -3.8117509E-11
   6.540000     -6.5377467E-11
   6.600000     -9.9486495E-11
   6.660000     -1.3920093E-10
   6.720000     -1.8265936E-10
   6.780000     -2.2761688E-10
   6.840000     -2.7173108E-10
   6.900000     -3.1284123E-10
   6.960000     -3.4918324E-10
   7.020000     -3.7950115E-10
   7.080000     -4.0303916E-10
   7.140000     -4.1942697E-10
   7.200000     -4.2849171E-10
   7.260000     -4.3004159E-10
   7.320000     -4.2367038E-10
   7.380000     -4.0862591E-10
   7.440000     -3.8377584E-10
   7.500000     -3.4768860E-10
   7.560000     -2.9882791E-10
   7.620000     -2.3583735E-10
   7.680000     -1.5786901E-10
   7.740000     -6.4896651E-11
   7.800000      4.2047425E-11
   7.860000      1.6075617E-10
   7.920000      2.8786901E-10
   7.980000      4.1901760E-10
   8.040000      5.4906690E-10
   8.100000      6.7242484E-10
   8.160000      7.8341406E-10
   8.220000      8.7671947E-10
   8.280000      9.4792640E-10
   8.340000      9.9413322E-10
   8.400000      1.0145580E-09
   8.460000      1.0109928E-09
   8.520000      9.8792674E-10
   8.580000      9.5218478E-10
   8.640000      9.1204172E-10
   8.700000      8.7592028E-10
   8.760000      8.5093338E-10
   8.820000      8.4161728E-10
   8.880000      8.4917606E-10
   8.940000      8.7142610E-10
   9.000000      9.0343055E-10
   9.060000      9.3862096E-10
   9.120000      9.7008535E-10
   9.180000      9.9169983E-10
   9.240000      9.9888009E-10
   9.300000      9.8889197E-10
   9.360000      9.6080632E-10
   9.420000      9.1526392E-10
   9.480000      8.5421753E-10
   9.540000      7.8073975E-10
   9.600000      6.9889128E-10
   9.660000      6.1356970E-10
   9.720000      5.3023980E-10
   9.780000      4.5448523E-10
   9.840000      3.9139728E-10
   9.900000      3.4489392E-10
   9.960000      3.1711644E-10
   10.02000      3.0805872E-10
   10.08000      3.1554681E-10
   10.14000      3.3561329E-10
   10.20000      3.6321643E-10
   10.26000      3.9316533E-10
   10.32000      4.2104678E-10
   10.38000      4.4393442E-10
   10.44000      4.6070850E-10
   10.50000      4.7191734E-10
   10.56000      4.7924903E-10
   10.62000      4.8480059E-10
   10.68000      4.9038845E-10
   10.74000      4.9711030E-10
   10.80000      5.0524818E-10
   10.86000      5.1445437E-10
   10.92000      5.2404736E-10
   10.98000      5.3322685E-10
   11.04000      5.4110394E-10
   11.10000      5.4658783E-10
   11.16000      5.4829596E-10
   11.22000      5.4467819E-10
   11.28000      5.3444404E-10
   11.34000      5.1720062E-10
   11.40000      4.9403998E-10
   11.46000      4.6776588E-10
   11.52000      4.4256326E-10
   11.58000      4.2314766E-10
   11.64000      4.1368231E-10
   11.70000      4.1687792E-10
   11.76000      4.3362519E-10
   11.82000      4.6326945E-10
   11.88000      5.0433419E-10
   11.94000      5.5528643E-10
   12.00000      6.1492428E-10
   12.06000      6.8216460E-10
   12.12000      7.5532997E-10
   12.18000      8.3131529E-10
   12.24000      9.0512342E-10
   12.30000      9.7013020E-10
   12.36000      1.0191389E-09
   12.42000      1.0459357E-09
   12.48000      1.0468263E-09
   12.54000      1.0216166E-09
   12.60000      9.7369668E-10
   12.66000      9.0922436E-10
   12.72000      8.3571855E-10
   12.78000      7.6055784E-10
   12.84000      6.8985767E-10
   12.90000      6.2799060E-10
   12.96000      5.7772837E-10
   13.02000      5.4072657E-10
   13.08000      5.1797072E-10
   13.14000      5.0987570E-10
   13.20000      5.1595594E-10
   13.26000      5.3424598E-10
   13.32000      5.6083582E-10
   13.38000      5.8989830E-10
   13.44000      6.1441485E-10
   13.50000      6.2751027E-10
   13.56000      6.2401978E-10
   13.62000      6.0174871E-10
   13.68000      5.6193605E-10
   13.74000      5.0868476E-10
   13.80000      4.4748905E-10
   13.86000      3.8332965E-10
   13.92000      3.1898631E-10
   13.98000      2.5416141E-10
   14.04000      1.8572462E-10
   14.10000      1.0898481E-10
   14.16000      1.9516817E-11
   14.22000     -8.5134101E-11
   14.28000     -2.0449283E-10
   14.34000     -3.3526476E-10
   14.40000     -4.7241244E-10
   14.46000     -6.1070693E-10
   14.52000     -7.4608070E-10
   14.58000     -8.7621344E-10
   14.64000     -1.0001362E-09
   14.70000     -1.1170920E-09
   14.76000     -1.2252379E-09
   14.82000     -1.3208611E-09
   14.88000     -1.3985633E-09
   14.94000     -1.4524431E-09
   15.00000     -1.4778658E-09
   15.06000     -1.4731522E-09
   15.12000     -1.4405441E-09
   15.18000     -1.3861000E-09
   15.24000     -1.3185657E-09
   15.30000     -1.2476170E-09
   15.36000     -1.1820043E-09
   15.42000     -1.1280671E-09
   15.48000     -1.0888752E-09
   15.54000     -1.0640382E-09
   15.60000     -1.0500830E-09
   15.66000     -1.0412750E-09
   15.72000     -1.0307663E-09
   15.78000     -1.0119686E-09
   15.84000     -9.7997610E-10
   15.90000     -9.3276786E-10
   15.96000     -8.7185092E-10
   16.02000     -8.0205231E-10
   16.08000     -7.3037215E-10
   16.14000     -6.6411704E-10
   16.20000     -6.0883248E-10
   16.26000     -5.6670535E-10
   16.32000     -5.3601634E-10
   16.38000     -5.1188537E-10
   16.44000     -4.8808313E-10
   16.50000     -4.5925899E-10
   16.56000     -4.2274789E-10
   16.62000     -3.7926295E-10
   16.68000     -3.3222630E-10
   16.74000     -2.8606079E-10
   16.80000     -2.4421976E-10
   16.86000     -2.0785848E-10
   16.92000     -1.7577712E-10
   16.98000     -1.4569411E-10
   17.04000     -1.1628629E-10
   17.10000     -8.9040865E-11
   17.16000     -6.8990973E-11
   17.22000     -6.3851494E-11
   17.28000     -8.1748337E-11
   17.34000     -1.2834832E-10
   17.40000     -2.0448451E-10
   17.46000     -3.0521463E-10
   17.52000     -4.2072090E-10
   17.58000     -5.3878080E-10
   17.64000     -6.4797723E-10
   17.70000     -7.4057660E-10
   17.76000     -8.1414236E-10
   17.82000     -8.7140167E-10
   17.88000     -9.1846358E-10
   17.94000     -9.6201613E-10
   18.00000     -1.0064450E-09
   18.06000     -1.0518419E-09
   18.12000     -1.0935899E-09
   18.18000     -1.1237155E-09
   18.24000     -1.1336023E-09
   18.30000     -1.1171724E-09
   18.36000     -1.0734110E-09
   18.42000     -1.0072795E-09
   18.48000     -9.2857760E-10
   18.54000     -8.4905000E-10
   18.60000     -7.7869933E-10
   18.66000     -7.2259881E-10
   18.72000     -6.7934897E-10
   18.78000     -6.4172351E-10
   18.84000     -5.9924171E-10
   18.90000     -5.4170923E-10
   18.96000     -4.6246768E-10
   19.02000     -3.6029452E-10
   19.08000     -2.3947266E-10
   19.14000     -1.0825487E-10
   19.20000      2.3525560E-11
   19.26000      1.4677631E-10
   19.32000      2.5467875E-10
   19.38000      3.4313602E-10
   19.44000      4.1028772E-10
   19.50000      4.5553813E-10
   19.56000      4.7862131E-10
   19.62000      4.7911042E-10
   19.68000      4.5655002E-10
   19.74000      4.1113118E-10
   19.80000      3.4461567E-10
   19.86000      2.6107969E-10
   19.92000      1.6705005E-10
   19.98000      7.0762021E-11
   20.04000     -1.9425996E-11
   20.10000     -9.7062483E-11
   20.16000     -1.5939612E-10
   20.22000     -2.0820266E-10
   20.28000     -2.4917882E-10
   20.34000     -2.8994396E-10
   20.40000     -3.3724842E-10
   20.46000     -3.9435438E-10
   20.52000     -4.5954818E-10
   20.58000     -5.2635790E-10
   20.64000     -5.8543259E-10
   20.70000     -6.2745459E-10
   20.76000     -6.4612599E-10
   20.82000     -6.4029970E-10
   20.88000     -6.1465538E-10
   20.94000     -5.7880628E-10
   21.00000     -5.4516924E-10
   21.06000     -5.2622751E-10
   21.12000     -5.3191096E-10
   21.18000     -5.6772720E-10
   21.24000     -6.3404648E-10
   21.30000     -7.2662731E-10
   21.36000     -8.3813778E-10
   21.42000     -9.6016672E-10
   21.48000     -1.0851092E-09
   21.54000     -1.2074094E-09
   21.60000     -1.3239133E-09
   21.66000     -1.4334303E-09
   21.72000     -1.5358785E-09
   21.78000     -1.6314818E-09
   21.84000     -1.7203656E-09
   21.90000     -1.8026418E-09
   21.96000     -1.8788027E-09
   22.02000     -1.9500923E-09
   22.08000     -2.0185345E-09
   22.14000     -2.0864619E-09
   22.20000     -2.1556259E-09
   22.26000     -2.2261781E-09
   22.32000     -2.2959274E-09
   22.38000     -2.3602456E-09
   22.44000     -2.4128270E-09
   22.50000     -2.4472131E-09
   22.56000     -2.4586841E-09
   22.62000     -2.4459084E-09
   22.68000     -2.4117186E-09
   22.74000     -2.3626443E-09
   22.80000     -2.3072548E-09
   22.86000     -2.2538424E-09
   22.92000     -2.2082340E-09
   22.98000     -2.1724933E-09
   23.04000     -2.1448956E-09
   23.10000     -2.1210740E-09
   23.16000     -2.0958058E-09
   23.22000     -2.0647555E-09
   23.28000     -2.0256312E-09
   23.34000     -1.9785236E-09
   23.40000     -1.9255226E-09
   23.46000     -1.8699005E-09
   23.52000     -1.8151731E-09
   23.58000     -1.7642992E-09
   23.64000     -1.7191845E-09
   23.70000     -1.6805993E-09
   23.76000     -1.6485312E-09
   23.82000     -1.6228766E-09
   23.88000     -1.6042229E-09
   23.94000     -1.5943751E-09
   24.00000     -1.5963265E-09
   24.06000     -1.6135898E-09
   24.12000     -1.6491000E-09
   24.18000     -1.7041260E-09
   24.24000     -1.7776289E-09
   24.30000     -1.8662869E-09
   24.36000     -1.9650750E-09
   24.42000     -2.0680635E-09
   24.48000     -2.1690858E-09
   24.54000     -2.2621336E-09
   24.60000     -2.3416009E-09
   24.66000     -2.4026345E-09
   24.72000     -2.4417375E-09
   24.78000     -2.4575320E-09
   24.84000     -2.4513243E-09
   24.90000     -2.4270785E-09
   24.96000     -2.3905939E-09
   25.02000     -2.3480347E-09
   25.08000     -2.3042692E-09
   25.14000     -2.2615894E-09
   25.20000     -2.2192381E-09
   25.26000     -2.1738920E-09
   25.32000     -2.1209083E-09
   25.38000     -2.0559472E-09
   25.44000     -1.9764927E-09
   25.50000     -1.8828772E-09
   25.56000     -1.7785398E-09
   25.62000     -1.6694651E-09
   25.68000     -1.5629487E-09
   25.74000     -1.4660345E-09
   25.80000     -1.3840739E-09
   25.86000     -1.3198134E-09
   25.92000     -1.2732303E-09
   25.98000     -1.2420597E-09
   26.04000     -1.2227217E-09
   26.10000     -1.2112774E-09
   26.16000     -1.2041314E-09
   26.22000     -1.1984076E-09
   26.28000     -1.1920949E-09
   26.34000     -1.1841056E-09
   26.40000     -1.1743129E-09
   26.46000     -1.1635036E-09
   26.52000     -1.1531326E-09
   26.58000     -1.1448396E-09
   26.64000     -1.1398481E-09
   26.70000     -1.1384939E-09
   26.76000     -1.1401222E-09
   26.82000     -1.1434416E-09
   26.88000     -1.1471908E-09
   26.94000     -1.1508205E-09
   27.00000     -1.1548738E-09
   27.06000     -1.1608938E-09
   27.12000     -1.1709071E-09
   27.18000     -1.1867001E-09
   27.24000     -1.2091861E-09
   27.30000     -1.2381015E-09
   27.36000     -1.2721374E-09
   27.42000     -1.3094643E-09
   27.48000     -1.3484620E-09
   27.54000     -1.3883924E-09
   27.60000     -1.4297430E-09
   27.66000     -1.4740699E-09
   27.72000     -1.5233501E-09
   27.78000     -1.5790755E-09
   27.84000     -1.6414662E-09
   27.90000     -1.7091668E-09
   27.96000     -1.7795869E-09
   28.02000     -1.8497334E-09
   28.08000     -1.9171278E-09
   28.14000     -1.9803446E-09
   28.20000     -2.0388999E-09
   28.26000     -2.0925661E-09
   28.32000     -2.1404969E-09
   28.38000     -2.1806423E-09
   28.44000     -2.2097801E-09
   28.50000     -2.2241708E-09
   28.56000     -2.2205573E-09
   28.62000     -2.1971098E-09
   28.68000     -2.1540092E-09
   28.74000     -2.0935540E-09
   28.80000     -2.0198405E-09
   28.86000     -1.9381299E-09
   28.92000     -1.8539813E-09
   28.98000     -1.7722145E-09
   29.04000     -1.6958296E-09
   29.10000     -1.6251348E-09
   29.16000     -1.5574215E-09
   29.22000     -1.4874489E-09
   29.28000     -1.4087380E-09
   29.34000     -1.3153187E-09
   29.40000     -1.2033251E-09
   29.46000     -1.0718486E-09
   29.52000     -9.2275781E-10
   29.58000     -7.5965423E-10
   29.64000     -5.8649718E-10
   29.70000     -4.0653644E-10
   29.76000     -2.2196857E-10
   29.82000     -3.4324769E-11
   29.88000      1.5477672E-10
   29.94000      3.4303604E-10
   30.00000      5.2742849E-10
   30.06000      7.0478445E-10
   30.12000      8.7273061E-10
   30.18000      1.0305390E-09
   30.24000      1.1794666E-09
   30.30000      1.3223826E-09
   30.36000      1.4627716E-09
   30.42000      1.6034452E-09
   30.48000      1.7454123E-09
   30.54000      1.8873203E-09
   30.60000      2.0257018E-09
   30.66000      2.1560147E-09
   30.72000      2.2741788E-09
   30.78000      2.3781370E-09
   30.84000      2.4688900E-09
   30.90000      2.5506022E-09
   30.96000      2.6296509E-09
   31.02000      2.7128582E-09
   31.08000      2.8054328E-09
   31.14000      2.9092642E-09
   31.20000      3.0220926E-09
   31.26000      3.1377827E-09
   31.32000      3.2475711E-09
   31.38000      3.3418777E-09
   31.44000      3.4121594E-09
   31.50000      3.4523489E-09
   31.56000      3.4595886E-09
   31.62000      3.4342027E-09
   31.68000      3.3790162E-09
   31.74000      3.2982757E-09
   31.80000      3.1964837E-09
   31.86000      3.0774649E-09
   31.92000      2.9438945E-09
   31.98000      2.7973546E-09
   32.04000      2.6387801E-09
   32.10000      2.4689799E-09
   32.16000      2.2889008E-09
   32.22000      2.0994426E-09
   32.28000      1.9009225E-09
   32.34000      1.6925517E-09
   32.40000      1.4723743E-09
   32.46000      1.2379537E-09
   32.52000      9.8770725E-10
   32.58000      7.2240774E-10
   32.64000      4.4618553E-10
   32.70000      1.6649730E-10
   32.76000     -1.0705566E-10
   32.82000     -3.6469874E-10
   32.88000     -5.9856797E-10
   32.94000     -8.0421936E-10
   33.00000     -9.8114705E-10
   33.06000     -1.1322765E-09
   33.12000     -1.2627114E-09
   33.18000     -1.3781467E-09
   33.24000     -1.4833283E-09
   33.30000     -1.5808549E-09
   33.36000     -1.6705344E-09
   33.42000     -1.7494647E-09
   33.48000     -1.8128993E-09
   33.54000     -1.8557672E-09
   33.60000     -1.8744424E-09
   33.66000     -1.8681570E-09
   33.72000     -1.8394595E-09
   33.78000     -1.7934313E-09
   33.84000     -1.7358660E-09
   33.90000     -1.6711011E-09
   33.96000     -1.6003906E-09
   34.02000     -1.5215125E-09
   34.08000     -1.4297923E-09
   34.14000     -1.3201259E-09
   34.20000     -1.1891768E-09
   34.26000     -1.0368836E-09
   34.32000     -8.6673080E-10
   34.38000     -6.8474204E-10
   34.44000     -4.9764265E-10
   34.50000     -3.1090458E-10
   34.56000     -1.2738215E-10
   34.62000      5.3009343E-11
   34.68000      2.3250850E-10
   34.74000      4.1395018E-10
   34.80000      5.9904021E-10
   34.86000      7.8712675E-10
   34.92000      9.7494268E-10
   34.98000      1.1574125E-09
   35.04000      1.3291838E-09
   35.10000      1.4862394E-09
   35.16000      1.6269202E-09
   35.22000      1.7519596E-09
   35.28000      1.8635782E-09
   35.34000      1.9640927E-09
   35.40000      2.0546616E-09
   35.46000      2.1346562E-09
   35.52000      2.2018001E-09
   35.58000      2.2528603E-09
   35.64000      2.2845021E-09
   35.70000      2.2939595E-09
   35.76000      2.2793814E-09
   35.82000      2.2399140E-09
   35.88000      2.1756594E-09
   35.94000      2.0875899E-09
   36.00000      1.9774042E-09
   36.06000      1.8472656E-09
   36.12000      1.6994269E-09
   36.18000      1.5358634E-09
   36.24000      1.3580932E-09
   36.30000      1.1673020E-09
   36.36000      9.6471675E-10
   36.42000      7.5200191E-10
   36.48000      5.3140797E-10
   36.54000      3.0551561E-10
   36.60000      7.6656605E-11
   36.66000     -1.5370336E-10
   36.72000     -3.8526921E-10
   36.78000     -6.1868233E-10
   36.84000     -8.5476792E-10
   36.90000     -1.0935308E-09
   36.96000     -1.3332966E-09
   37.02000     -1.5703607E-09
   37.08000     -1.7993310E-09
   37.14000     -2.0141158E-09
   37.20000     -2.2092796E-09
   37.26000     -2.3813507E-09
   37.32000     -2.5296369E-09
   37.38000     -2.6562323E-09
   37.44000     -2.7651241E-09
   37.50000     -2.8606422E-09
   37.56000     -2.9457494E-09
   37.62000     -3.0208103E-09
   37.68000     -3.0833323E-09
   37.74000     -3.1288443E-09
   37.80000     -3.1526159E-09
   37.86000     -3.1515666E-09
   37.92000     -3.1256318E-09
   37.98000     -3.0780569E-09
   38.04000     -3.0145344E-09
   38.10000     -2.9415421E-09
   38.16000     -2.8645140E-09
   38.22000     -2.7864526E-09
   38.28000     -2.7073688E-09
   38.34000     -2.6245832E-09
   38.40000     -2.5336737E-09
   38.46000     -2.4297273E-09
   38.52000     -2.3085820E-09
   38.58000     -2.1678268E-09
   38.64000     -2.0074022E-09
   38.70000     -1.8297041E-09
   38.76000     -1.6391423E-09
   38.82000     -1.4412176E-09
   38.88000     -1.2413143E-09
   38.94000     -1.0435448E-09
   39.00000     -8.5000207E-10
   39.06000     -6.6066491E-10
   39.12000     -4.7397225E-10
   39.18000     -2.8783087E-10
   39.24000     -1.0067221E-10
   39.30000      8.7813846E-11
   39.36000      2.7648348E-10
   39.42000      4.6307530E-10
   39.48000      6.4489225E-10
   39.54000      8.1956086E-10
   39.60000      9.8562392E-10
   39.66000      1.1428012E-09
   39.72000      1.2918520E-09
   39.78000      1.4340753E-09
   39.84000      1.5705862E-09
   39.90000      1.7016099E-09
   39.96000      1.8260947E-09
   40.02000      1.9418971E-09
   40.08000      2.0466007E-09
   40.14000      2.1387354E-09
   40.20000      2.2189048E-09
   40.26000      2.2902327E-09
   40.32000      2.3577504E-09
   40.38000      2.4267801E-09
   40.44000      2.5008700E-09
   40.50000      2.5801339E-09
   40.56000      2.6607836E-09
   40.62000      2.7361771E-09
   40.68000      2.7990785E-09
   40.74000      2.8442688E-09
   40.80000      2.8704827E-09
   40.86000      2.8808975E-09
   40.92000      2.8819822E-09
   40.98000      2.8811658E-09
   41.04000      2.8842211E-09
   41.10000      2.8933382E-09
   41.16000      2.9065756E-09
   41.22000      2.9188405E-09
   41.28000      2.9240119E-09
   41.34000      2.9174128E-09
   41.40000      2.8977163E-09
   41.46000      2.8675704E-09
   41.52000      2.8326610E-09
   41.58000      2.7994969E-09
   41.64000      2.7726974E-09
   41.70000      2.7528018E-09
   41.76000      2.7354816E-09
   41.82000      2.7125728E-09
   41.88000      2.6746438E-09
   41.94000      2.6142133E-09
   42.00000      2.5284272E-09
   42.06000      2.4201561E-09
   42.12000      2.2970339E-09
   42.18000      2.1687283E-09
   42.24000      2.0433895E-09
   42.30000      1.9245583E-09
   42.36000      1.8096763E-09
   42.42000      1.6907937E-09
   42.48000      1.5573034E-09
   42.54000      1.3998067E-09
   42.60000      1.2137877E-09
   42.66000      1.0017905E-09
   42.72000      7.7327050E-10
   42.78000      5.4208926E-10
   42.84000      3.2245426E-10
   42.90000      1.2468368E-10
   42.96000     -4.7740738E-11
   43.02000     -1.9882912E-10
   43.08000     -3.3828060E-10
   43.14000     -4.7794713E-10
   43.20000     -6.2788602E-10
   43.26000     -7.9339885E-10
   43.32000     -9.7400288E-10
   43.38000     -1.1645070E-09
   43.44000     -1.3575912E-09
   43.50000     -1.5468024E-09
   43.56000     -1.7288356E-09
   43.62000     -1.9043238E-09
   43.68000     -2.0769602E-09
   43.74000     -2.2513851E-09
   43.80000     -2.4306739E-09
   43.86000     -2.6143845E-09
   43.92000     -2.7978861E-09
   43.98000     -2.9732310E-09
   44.04000     -3.1312759E-09
   44.10000     -3.2643008E-09
   44.16000     -3.3681924E-09
   44.22000     -3.4434029E-09
   44.28000     -3.4943619E-09
   44.34000     -3.5275634E-09
   44.40000     -3.5490519E-09
   44.46000     -3.5622134E-09
   44.52000     -3.5666596E-09
   44.58000     -3.5585808E-09
   44.64000     -3.5324379E-09
   44.70000     -3.4834222E-09
   44.76000     -3.4098597E-09
   44.82000     -3.3147638E-09
   44.88000     -3.2059797E-09
   44.94000     -3.0948002E-09
   45.00000     -2.9934033E-09
   45.06000     -2.9118752E-09
   45.12000     -2.8557541E-09
   45.18000     -2.8249090E-09
   45.24000     -2.8141303E-09
   45.30000     -2.8152234E-09
   45.36000     -2.8198410E-09
   45.42000     -2.8220493E-09
   45.48000     -2.8197302E-09
   45.54000     -2.8144127E-09
   45.60000     -2.8097147E-09
   45.66000     -2.8090996E-09
   45.72000     -2.8138529E-09
   45.78000     -2.8220488E-09
   45.84000     -2.8288816E-09
   45.90000     -2.8282221E-09
   45.96000     -2.8148304E-09
   46.02000     -2.7864242E-09
   46.08000     -2.7448401E-09
   46.14000     -2.6958360E-09
   46.20000     -2.6475548E-09
   46.26000     -2.6081775E-09
   46.32000     -2.5836016E-09
   46.38000     -2.5759901E-09
   46.44000     -2.5836802E-09
   46.50000     -2.6023845E-09
   46.56000     -2.6271076E-09
   46.62000     -2.6539571E-09
   46.68000     -2.6811886E-09
   46.74000     -2.7092397E-09
   46.80000     -2.7399711E-09
   46.86000     -2.7756055E-09
   46.92000     -2.8178224E-09
   46.98000     -2.8672402E-09
   47.04000     -2.9232754E-09
   47.10000     -2.9842606E-09
   47.16000     -3.0477452E-09
   47.22000     -3.1109733E-09
   47.28000     -3.1715230E-09
   47.34000     -3.2279643E-09
   47.40000     -3.2802643E-09
   47.46000     -3.3296756E-09
   47.52000     -3.3780689E-09
   47.58000     -3.4269794E-09
   47.64000     -3.4768477E-09
   47.70000     -3.5268655E-09
   47.76000     -3.5754808E-09
   47.82000     -3.6212175E-09
   47.88000     -3.6632466E-09
   47.94000     -3.7013139E-09
   48.00000     -3.7350518E-09
   48.06000     -3.7631449E-09
   48.12000     -3.7829695E-09
   48.18000     -3.7910728E-09
   48.24000     -3.7843613E-09
   48.30000     -3.7614258E-09
   48.36000     -3.7233032E-09
   48.42000     -3.6732510E-09
   48.48000     -3.6155774E-09
   48.54000     -3.5540084E-09
   48.60000     -3.4902194E-09
   48.66000     -3.4230432E-09
   48.72000     -3.3485661E-09
   48.78000     -3.2610481E-09
   48.84000     -3.1543979E-09
   48.90000     -3.0238279E-09
   48.96000     -2.8672549E-09
   49.02000     -2.6860008E-09
   49.08000     -2.4844649E-09
   49.14000     -2.2687423E-09
   49.20000     -2.0445792E-09
   49.26000     -1.8154147E-09
   49.32000     -1.5813437E-09
   49.38000     -1.3395031E-09
   49.44000     -1.0857688E-09
   49.50000     -8.1705065E-10
   49.56000     -5.3318494E-10
   49.62000     -2.3763733E-10
   49.68000      6.3208945E-11
   49.74000      3.6177913E-10
   49.80000      6.5128264E-10
   49.86000      9.2719976E-10
   49.92000      1.1878669E-09
   49.98000      1.4341404E-09
   50.04000      1.6683951E-09
   50.10000      1.8932136E-09
   50.16000      2.1101048E-09
   50.22000      2.3185596E-09
   50.28000      2.5157012E-09
   50.34000      2.6966769E-09
   50.40000      2.8557099E-09
   50.46000      2.9874641E-09
   50.52000      3.0881830E-09
   50.58000      3.1561531E-09
   50.64000      3.1913414E-09
   50.70000      3.1944840E-09
   50.76000      3.1661263E-09
   50.82000      3.1060661E-09
   50.88000      3.0133123E-09
   50.94000      2.8863358E-09
   51.00000      2.7232843E-09
   51.06000      2.5219948E-09
   51.12000      2.2799775E-09
   51.18000      1.9947013E-09
   51.24000      1.6643776E-09
   51.30000      1.2890536E-09
   51.36000      8.7146762E-10
   51.42000      4.1710030E-10
   51.48000     -6.6773913E-11
   51.54000     -5.7267469E-10
   51.60000     -1.0943827E-09
   51.66000     -1.6275794E-09
   51.72000     -2.1694180E-09
   51.78000     -2.7173710E-09
   51.84000     -3.2680429E-09
   51.90000     -3.8165378E-09
   51.96000     -4.3565276E-09
   52.02000     -4.8807136E-09
   52.08000     -5.3811826E-09
   52.14000     -5.8493614E-09
   52.20000     -6.2756418E-09
   52.26000     -6.6490364E-09
   52.32000     -6.9571828E-09
   52.38000     -7.1867250E-09
   52.44000     -7.3237385E-09
   52.50000     -7.3537780E-09
   52.56000     -7.2613195E-09
   52.62000     -7.0288499E-09
   52.68000     -6.6361712E-09
   52.74000     -6.0605436E-09
   52.80000     -5.2778883E-09
   52.86000     -4.2647730E-09
   52.92000     -3.0004061E-09
   52.98000     -1.4678673E-09
   53.04000      3.4596551E-10
   53.10000      2.4516733E-09
   53.16000      4.8592148E-09
   53.22000      7.5797084E-09
   53.28000      1.0626444E-08
   53.34000      1.4014811E-08
   53.40000      1.7761215E-08
   53.46000      2.1881313E-08
   53.52000      2.6387994E-08
   53.58000      3.1289481E-08
   53.64000      3.6587981E-08
   53.70000      4.2279165E-08
   53.76000      4.8352643E-08
   53.82000      5.4793219E-08
   53.88000      6.1582526E-08
   53.94000      6.8700231E-08
   54.00000      7.6124202E-08
   54.06000      8.3829349E-08
   54.12000      9.1785417E-08
   54.18000      9.9954583E-08
   54.24000      1.0828974E-07
   54.30000      1.1673427E-07
   54.36000      1.2522351E-07
   54.42000      1.3368721E-07
   54.48000      1.4205251E-07
   54.54000      1.5024629E-07
   54.60000      1.5819637E-07
   54.66000      1.6583125E-07
   54.72000      1.7307866E-07
   54.78000      1.7986343E-07
   54.84000      1.8610552E-07
   54.90000      1.9171934E-07
   54.96000      1.9661471E-07
   55.02000      2.0069953E-07
   55.08000      2.0388343E-07
   55.14000      2.0608111E-07
   55.20000      2.0721427E-07
   55.26000      2.0721170E-07
   55.32000      2.0600770E-07
   55.38000      2.0354005E-07
   55.44000      1.9974865E-07
   55.50000      1.9457526E-07
   55.56000      1.8796466E-07