  -2.400000      0.0000000E+00
  -2.340000      0.0000000E+00
  -2.280000      0.0000000E+00
  -2.220000      0.0000000E+00
  -2.160000      0.0000000E+00
  -2.100000      0.0000000E+00
  -2.040000      0.0000000E+00
  -1.980000      0.0000000E+00
  -1.920000      3.2796886E-26
  -1.860000      6.3379215E-25
  -1.800000      5.2895585E-24
  -1.740000      2.6563086E-23
  -1.680000      8.9699171E-23
  -1.620000      2.0475043E-22
  -1.560000      2.5773078E-22
  -1.500000     -1.8201985E-22
  -1.440000     -1.9483030E-21
  -1.380000     -5.7756820E-21
  -1.320000     -1.0671699E-20
  -1.260000     -1.1387985E-20
  -1.200000      2.9332646E-21
  -1.140000      4.4827564E-20
  -1.080000      1.1549818E-19
  -1.020000      1.8457279E-19
 -0.9600000      1.7564990E-19
 -0.9000000     -1.8700610E-20
 -0.8400000     -4.7118705E-19
 -0.7800000     -1.1092944E-18
 -0.7200000     -1.6163312E-18
 -0.6600000     -1.4464769E-18
 -0.6000000     -4.9838466E-20
 -0.5400000      2.6965947E-18
 -0.4800000      6.0379954E-18
 -0.4200000      8.2227369E-18
 -0.3600000      7.0579699E-18
 -0.3000000      1.1735712E-18
 -0.2400000     -8.5281370E-18
 -0.1800000     -1.8256794E-17
 -0.1200000     -2.2542305E-17
 -5.9999999E-02 -1.7373385E-17
  0.0000000E+00 -3.8355583E-18
  5.9999999E-02  1.0477161E-17
  0.1200000      1.4791154E-17
  0.1800000      3.2471562E-18
  0.2400000     -1.6294492E-17
  0.3000000     -1.9993252E-17
  0.3600000      2.1333620E-17
  0.4200000      1.1907567E-16
  0.4800000      2.4217016E-16
  0.5400000      3.0998047E-16
  0.6000000      2.1952417E-16
  0.6600000     -9.2714486E-17
  0.7200000     -5.8004377E-16
  0.7800000     -1.0520460E-15
  0.8400000     -1.2215847E-15
  0.9000000     -8.4023503E-16
  0.9600000      1.2755883E-16
   1.020000      1.3900970E-15
   1.080000      2.3742969E-15
   1.140000      2.4668316E-15
   1.200000      1.3706676E-15
   1.260000     -6.0815192E-16
   1.320000     -2.5502396E-15
   1.380000     -3.2901106E-15
   1.440000     -2.0552230E-15
   1.500000      9.3476534E-16
   1.560000      4.2920913E-15
   1.620000      5.9438712E-15
   1.680000      4.1718816E-15
   1.740000     -1.2608271E-15
   1.800000     -8.5439138E-15
   1.860000     -1.4291338E-14
   1.920000     -1.5029002E-14
   1.980000     -9.0756421E-15
   2.040000      2.1718429E-15
   2.100000      1.4400859E-14
   2.160000      2.2185113E-14
   2.220000      2.1718177E-14
   2.280000      1.3109147E-14
   2.340000      8.7102584E-16
   2.400000     -7.9918295E-15
   2.460000     -7.6487973E-15
   2.520000      2.8762706E-15
   2.580000      1.8053537E-14
   2.640000      2.7511325E-14
   2.700000      2.0732668E-14
   2.760000     -7.1547933E-15
   2.820000     -5.1314272E-14
   2.880000     -9.7223865E-14
   2.940000     -1.2542995E-13
   3.000000     -1.1940882E-13
   3.060000     -7.3193560E-14
   3.120000      4.8357090E-15
   3.180000      9.4115464E-14
   3.240000      1.6946655E-13
   3.300000      2.1088030E-13
   3.360000      2.1105021E-13
   3.420000      1.7701010E-13
   3.480000      1.2497102E-13
   3.540000      7.0858453E-14
   3.600000      2.1439856E-14
   3.660000     -2.9047406E-14
   3.720000     -9.4457774E-14
   3.780000     -1.8627847E-13
   3.840000     -3.0249167E-13
   3.900000     -4.2211642E-13
   3.960000     -5.0943516E-13
   4.020000     -5.2710017E-13
   4.080000     -4.5239591E-13
   4.140000     -2.8856984E-13
   4.200000     -6.4854318E-14
   4.260000      1.7594501E-13
   4.320000      3.9710935E-13
   4.380000      5.8556101E-13
   4.440000      7.5815336E-13
   4.500000      9.5213887E-13
   4.560000      1.2020579E-12
   4.620000      1.5111151E-12
   4.680000      1.8275062E-12
   4.740000      2.0347027E-12
   4.800000      1.9609024E-12
   4.860000      1.4088751E-12
   4.920000      2.0442568E-13
   4.980000     -1.7409836E-12
   5.040000     -4.3620029E-12
   5.100000     -7.3805189E-12
   5.160000     -1.0277948E-11
   5.220000     -1.2323305E-11
   5.280000     -1.2674811E-11
   5.340000     -1.0554104E-11
   5.400000     -5.4649688E-12
   5.460000      2.5970658E-12
   5.520000      1.3009288E-11
   5.580000      2.4513495E-11
   5.640000      3.5352360E-11
   5.700000      4.3520770E-11
   5.760000      4.7062503E-11
   5.820000      4.4328843E-11
   5.880000      3.4136145E-11
   5.940000      1.5807501E-11
   6.000000     -1.0862437E-11
   6.060000     -4.5645803E-11
   6.120000     -8.7853003E-11
   6.180000     -1.3620946E-10
   6.240000     -1.8867230E-10
   6.300000     -2.4227420E-10
   6.360000     -2.9309752E-10
   6.420000     -3.3644804E-10
   6.480000     -3.6722961E-10
   6.540000     -3.8044290E-10
   6.600000     -3.7168443E-10
   6.660000     -3.3752232E-10
   6.720000     -2.7567829E-10
   6.780000     -1.8502284E-10
   6.840000     -6.5462601E-11
   6.900000      8.2171228E-11
   6.960000      2.5614261E-10
   7.020000      4.5370774E-10
   7.080000      6.7092842E-10
   7.140000      9.0248947E-10
   7.200000      1.1416195E-09
   7.260000      1.3801825E-09
   7.320000      1.6089624E-09
   7.380000      1.8181129E-09
   7.440000      1.9977253E-09
   7.500000      2.1384712E-09
   7.560000      2.2322781E-09
   7.620000      2.2730171E-09
   7.680000      2.2571489E-09
   7.740000      2.1842568E-09
   7.800000      2.0573547E-09
   7.860000      1.8828603E-09
   7.920000      1.6701661E-09
   7.980000      1.4308178E-09
   8.040000      1.1774157E-09
   8.100000      9.2242441E-10
   8.160000      6.7709832E-10
   8.220000      4.5068682E-10
   8.280000      2.4998270E-10
   8.340000      7.9171177E-11
   8.400000     -6.0133572E-11
   8.460000     -1.6878567E-10
   8.520000     -2.5000149E-10
   8.580000     -3.0922462E-10
   8.640000     -3.5386241E-10
   8.700000     -3.9278103E-10
   8.760000     -4.3550624E-10
   8.820000     -4.9118998E-10
   8.880000     -5.6752292E-10
   8.940000     -6.6984546E-10
   9.000000     -8.0069174E-10
   9.060000     -9.5989972E-10
   9.120000     -1.1452562E-09
   9.180000     -1.3534892E-09
   9.240000     -1.5813154E-09
   9.300000     -1.8262453E-09
   9.360000     -2.0869364E-09
   9.420000     -2.3630380E-09
   9.480000     -2.6546287E-09
   9.540000     -2.9614693E-09
   9.600000     -3.2823231E-09
   9.660000     -3.6145629E-09
   9.720000     -3.9541574E-09
   9.780000     -4.2960133E-09
   9.840000     -4.6345270E-09
   9.900000     -4.9641566E-09
   9.960000     -5.2798139E-09
   10.02000     -5.5769447E-09
   10.08000     -5.8512879E-09
   10.14000     -6.0983902E-09
   10.20000     -6.3130714E-09
   10.26000     -6.4890719E-09
   10.32000     -6.6191101E-09
   10.38000     -6.6954620E-09
   10.44000     -6.7110415E-09
   10.50000     -6.6607662E-09
   10.56000     -6.5428574E-09
   10.62000     -6.3596901E-09
   10.68000     -6.1178644E-09
   10.74000     -5.8274119E-09
   10.80000     -5.5002900E-09
   10.86000     -5.1485793E-09
   10.92000     -4.7829047E-09
   10.98000     -4.4115605E-09
   11.04000     -4.0405719E-09
   11.10000     -3.6745986E-09
   11.16000     -3.3182634E-09
   11.22000     -2.9772975E-09
   11.28000     -2.6589233E-09
   11.34000     -2.3711406E-09
   11.40000     -2.1209983E-09
   11.46000     -1.9123487E-09
   11.52000     -1.7438749E-09
   11.58000     -1.6082007E-09
   11.64000     -1.4926196E-09
   11.70000     -1.3814623E-09
   11.76000     -1.2595489E-09
   11.82000     -1.1157341E-09
   11.88000     -9.4545016E-10
   11.94000     -7.5143775E-10
   12.00000     -5.4244353E-10
   12.06000     -3.3036573E-10
   12.12000     -1.2684764E-10
   12.18000      5.9519049E-11
   12.24000      2.2450236E-10
   12.30000      3.6777231E-10
   12.36000      4.9108223E-10
   12.42000      5.9598299E-10
   12.48000      6.8207823E-10
   12.54000      7.4653034E-10
   12.60000      7.8497175E-10
   12.66000      7.9338974E-10
   12.72000      7.7017953E-10
   12.78000      7.1752720E-10
   12.84000      6.4159317E-10
   12.90000      5.5145977E-10
   12.96000      4.5728227E-10
   13.02000      3.6835138E-10
   13.08000      2.9173988E-10
   13.14000      2.3190613E-10
   13.20000      1.9119836E-10
   13.26000      1.7083207E-10
   13.32000      1.7175536E-10
   13.38000      1.9492402E-10
   13.44000      2.4082819E-10
   13.50000      3.0849065E-10
   13.56000      3.9442183E-10
   13.62000      4.9205801E-10
   13.68000      5.9201360E-10
   13.74000      6.8315303E-10
   13.80000      7.5418083E-10
   13.86000      7.9529228E-10
   13.92000      7.9947088E-10
   13.98000      7.6319234E-10
   14.04000      6.8650052E-10
   14.10000      5.7254973E-10
   14.16000      4.2673542E-10
   14.22000      2.5551569E-10
   14.28000      6.5032896E-11
   14.34000     -1.4026413E-10
   14.40000     -3.5867201E-10
   14.46000     -5.9157096E-10
   14.52000     -8.4276752E-10
   14.58000     -1.1168635E-09
   14.64000     -1.4170641E-09
   14.70000     -1.7431416E-09
   14.76000     -2.0903017E-09
   14.82000     -2.4493971E-09
   14.88000     -2.8084153E-09
   14.94000     -3.1546501E-09
   15.00000     -3.4767185E-09
   15.06000     -3.7657126E-09
   15.12000     -4.0152281E-09
   15.18000     -4.2205448E-09
   15.24000     -4.3775894E-09
   15.30000     -4.4823305E-09
   15.36000     -4.5309134E-09
   15.42000     -4.5203996E-09
   15.48000     -4.4496153E-09
   15.54000     -4.3195536E-09
   15.60000     -4.1330219E-09
   15.66000     -3.8936485E-09
   15.72000     -3.6046870E-09
   15.78000     -3.2681844E-09
   15.84000     -2.8848961E-09
   15.90000     -2.4549929E-09
   15.96000     -1.9792499E-09
   16.02000     -1.4602282E-09
   16.08000     -9.0300045E-10
   16.14000     -3.1519881E-10
   16.20000      2.9355404E-10
   16.26000      9.1254010E-10
   16.32000      1.5308004E-09
   16.38000      2.1376532E-09
   16.44000      2.7227551E-09
   16.50000      3.2757941E-09
   16.56000      3.7860670E-09
   16.62000      4.2422750E-09
   16.68000      4.6328164E-09
   16.74000      4.9467146E-09
   16.80000      5.1750795E-09
   16.86000      5.3127565E-09
   16.92000      5.3596638E-09
   16.98000      5.3213078E-09
   17.04000      5.2081628E-09
   17.10000      5.0339430E-09
   17.16000      4.8131961E-09
   17.22000      4.5589283E-09
   17.28000      4.2810218E-09
   17.34000      3.9859582E-09
   17.40000      3.6778871E-09
   17.46000      3.3605614E-09
   17.52000      3.0393132E-09
   17.58000      2.7222322E-09
   17.64000      2.4200517E-09
   17.70000      2.1448194E-09
   17.76000      1.9079522E-09
   17.82000      1.7185221E-09
   17.88000      1.5824524E-09
   17.94000      1.5028236E-09
   18.00000      1.4809273E-09
   18.06000      1.5173617E-09
   18.12000      1.6125173E-09
   18.18000      1.7662132E-09
   18.24000      1.9767745E-09
   18.30000      2.2402240E-09
   18.36000      2.5502152E-09
   18.42000      2.8989782E-09
   18.48000      3.2789802E-09
   18.54000      3.6846226E-09
   18.60000      4.1132315E-09
   18.66000      4.5649169E-09
   18.72000      5.0413602E-09
   18.78000      5.5440030E-09
   18.84000      6.0722911E-09
   18.90000      6.6225012E-09
   18.96000      7.1874346E-09
   19.02000      7.7569799E-09
   19.08000      8.3193683E-09
   19.14000      8.8628695E-09
   19.20000      9.3775760E-09
   19.26000      9.8569251E-09
   19.32000      1.0298518E-08
   19.38000      1.0703973E-08
   19.44000      1.1077762E-08
   19.50000      1.1425340E-08
   19.56000      1.1751133E-08
   19.62000      1.2057015E-08
   19.68000      1.2341668E-08
   19.74000      1.2600827E-08
   19.80000      1.2828055E-08
   19.86000      1.3015597E-08
   19.92000      1.3154947E-08
   19.98000      1.3237094E-08
   20.04000      1.3252660E-08
   20.10000      1.3192210E-08
   20.16000      1.3046889E-08
   20.22000      1.2809347E-08
   20.28000      1.2474739E-08
   20.34000      1.2041548E-08
   20.40000      1.1512073E-08
   20.46000      1.0892534E-08
   20.52000      1.0192738E-08
   20.58000      9.4252988E-09
   20.64000      8.6043777E-09
   20.70000      7.7440685E-09
   20.76000      6.8566908E-09
   20.82000      5.9514313E-09
   20.88000      5.0337761E-09
   20.94000      4.1059600E-09
   21.00000      3.1682967E-09
   21.06000      2.2209365E-09
   21.12000      1.2654310E-09
   21.18000      3.0559907E-10
   21.24000     -6.5251105E-10
   21.30000     -1.6014213E-09
   21.36000     -2.5333864E-09
   21.42000     -3.4414582E-09
   21.48000     -4.3200949E-09
   21.54000     -5.1651616E-09
   21.60000     -5.9734098E-09
   21.66000     -6.7416939E-09
   21.72000     -7.4662712E-09
   21.78000     -8.1425009E-09
   21.84000     -8.7651015E-09
   21.90000     -9.3288914E-09
   21.96000     -9.8297361E-09
   22.02000     -1.0265329E-08
   22.08000     -1.0635507E-08
   22.14000     -1.0942018E-08
   22.20000     -1.1187907E-08
   22.26000     -1.1376758E-08
   22.32000     -1.1512031E-08
   22.38000     -1.1596562E-08
   22.44000     -1.1632187E-08
   22.50000     -1.1619486E-08
   22.56000     -1.1557745E-08
   22.62000     -1.1445333E-08
   22.68000     -1.1280573E-08
   22.74000     -1.1062950E-08
   22.80000     -1.0794095E-08
   22.86000     -1.0477978E-08
   22.92000     -1.0119938E-08
   22.98000     -9.7248005E-09
   23.04000     -9.2948751E-09
   23.10000     -8.8288434E-09
   23.16000     -8.3222007E-09
   23.22000     -7.7691622E-09
   23.28000     -7.1652790E-09
   23.34000     -6.5096435E-09
   23.40000     -5.8058940E-09
   23.46000     -5.0618776E-09
   23.52000     -4.2884603E-09
   23.58000     -3.4981900E-09
   23.64000     -2.7042428E-09
   23.70000     -1.9196060E-09
   23.76000     -1.1561312E-09
   23.82000     -4.2320764E-10
   23.88000      2.7373845E-10
   23.94000      9.3426755E-10
   24.00000      1.5627606E-09
   24.06000      2.1667901E-09
   24.12000      2.7544711E-09
   24.18000      3.3317744E-09
   24.24000      3.9008161E-09
   24.30000      4.4596020E-09
   24.36000      5.0029381E-09
   24.42000      5.5236704E-09
   24.48000      6.0133947E-09
   24.54000      6.4622916E-09
   24.60000      6.8584414E-09
   24.66000      7.1874204E-09
   24.72000      7.4329614E-09
   24.78000      7.5789330E-09
   24.84000      7.6122317E-09
   24.90000      7.5256690E-09
   24.96000      7.3198740E-09
   25.02000      7.0035679E-09
   25.08000      6.5921406E-09
   25.14000      6.1050436E-09
   25.20000      5.5628031E-09
   25.26000      4.9844902E-09
   25.32000      4.3861914E-09
   25.38000      3.7805847E-09
   25.44000      3.1773189E-09
   25.50000      2.5836266E-09
   25.56000      2.0046385E-09
   25.62000      1.4431191E-09
   25.68000      8.9873364E-10
   25.74000      3.6726663E-10
   25.80000     -1.5971091E-10
   25.86000     -6.9440120E-10
   25.92000     -1.2515680E-09
   25.98000     -1.8468318E-09
   26.04000     -2.4948388E-09
   26.10000     -3.2075611E-09
   26.16000     -3.9928132E-09
   26.22000     -4.8529851E-09
   26.28000     -5.7840897E-09
   26.34000     -6.7753643E-09
   26.40000     -7.8097431E-09
   26.46000     -8.8652987E-09
   26.52000     -9.9173860E-09
   26.58000     -1.0940823E-08
   26.64000     -1.1911339E-08
   26.70000     -1.2805843E-08
   26.76000     -1.3601703E-08
   26.82000     -1.4275813E-08
   26.88000     -1.4804425E-08
   26.94000     -1.5164474E-08
   27.00000     -1.5336315E-08
   27.06000     -1.5307116E-08
   27.12000     -1.5073647E-08
   27.18000     -1.4643410E-08
   27.24000     -1.4033695E-08
   27.30000     -1.3268895E-08
   27.36000     -1.2377068E-08
   27.42000     -1.1386839E-08
   27.48000     -1.0325452E-08
   27.54000     -9.2181525E-09
   27.60000     -8.0885050E-09
   27.66000     -6.9589055E-09
   27.72000     -5.8505418E-09
   27.78000     -4.7824398E-09
   27.84000     -3.7697228E-09
   27.90000     -2.8216847E-09
   27.96000     -1.9404705E-09
   28.02000     -1.1209967E-09
   28.08000     -3.5228692E-10
   28.14000      3.8014525E-10
   28.20000      1.0916194E-09
   28.26000      1.7961087E-09
   28.32000      2.5050215E-09
   28.38000      3.2269232E-09
   28.44000      3.9677786E-09
   28.50000      4.7312176E-09
   28.56000      5.5185563E-09
   28.62000      6.3286709E-09
   28.68000      7.1580413E-09
   28.74000      8.0011917E-09
   28.80000      8.8514307E-09
   28.86000      9.7014432E-09
   28.92000      1.0543240E-08
   28.98000      1.1367270E-08
   29.04000      1.2161074E-08
   29.10000      1.2908272E-08
   29.16000      1.3588735E-08
   29.22000      1.4180322E-08
   29.28000      1.4661794E-08
   29.34000      1.5015976E-08
   29.40000      1.5231924E-08
   29.46000      1.5305444E-08
   29.52000      1.5237879E-08
   29.58000      1.5033910E-08
   29.64000      1.4699411E-08
   29.70000      1.4240215E-08
   29.76000      1.3662190E-08
   29.82000      1.2972366E-08
   29.88000      1.2180445E-08
   29.94000      1.1299973E-08
   30.00000      1.0348586E-08
   30.06000      9.3470778E-09
   30.12000      8.3173957E-09
   30.18000      7.2800526E-09
   30.24000      6.2515970E-09
   30.30000      5.2429523E-09
   30.36000      4.2592005E-09
   30.42000      3.3009975E-09
   30.48000      2.3671718E-09
   30.54000      1.4575742E-09
   30.60000      5.7504534E-10
   30.66000     -2.7427602E-10
   30.72000     -1.0823722E-09
   30.78000     -1.8417715E-09
   30.84000     -2.5478235E-09
   30.90000     -3.1998266E-09
   30.96000     -3.8006527E-09
   31.02000     -4.3552908E-09
   31.08000     -4.8692019E-09
   31.14000     -5.3472835E-09
   31.20000     -5.7937131E-09
   31.26000     -6.2123302E-09
   31.32000     -6.6069097E-09
   31.38000     -6.9808803E-09
   31.44000     -7.3365376E-09
   31.50000     -7.6742284E-09
   31.56000     -7.9920763E-09
   31.62000     -8.2864586E-09
   31.68000     -8.5529424E-09
   31.74000     -8.7871550E-09
   31.80000     -8.9851717E-09
   31.86000     -9.1434726E-09
   31.92000     -9.2589278E-09
   31.98000     -9.3292920E-09
   32.04000     -9.3542862E-09
   32.10000     -9.3367412E-09
   32.16000     -9.2829948E-09
   32.22000     -9.2019521E-09
   32.28000     -9.1029868E-09
   32.34000     -8.9935890E-09
   32.40000     -8.8779739E-09
   32.46000     -8.7574197E-09
   32.52000     -8.6321981E-09
   32.58000     -8.5040073E-09
   32.64000     -8.3775298E-09
   32.70000     -8.2602165E-09
   32.76000     -8.1603302E-09
   32.82000     -8.0842870E-09
   32.88000     -8.0345979E-09
   32.94000     -8.0093647E-09
   33.00000     -8.0033775E-09
   33.06000     -8.0100886E-09
   33.12000     -8.0234228E-09
   33.18000     -8.0386959E-09
   33.24000     -8.0525515E-09
   33.30000     -8.0623526E-09
   33.36000     -8.0656077E-09
   33.42000     -8.0597742E-09
   33.48000     -8.0423446E-09
   33.54000     -8.0108977E-09
   33.60000     -7.9628864E-09
   33.66000     -7.8952267E-09
   33.72000     -7.8041218E-09
   33.78000     -7.6855828E-09
   33.84000     -7.5368209E-09
   33.90000     -7.3581701E-09
   33.96000     -7.1547408E-09
   34.02000     -6.9368560E-09
   34.08000     -6.7186479E-09
   34.14000     -6.5148984E-09
   34.20000     -6.3370145E-09
   34.26000     -6.1895626E-09
   34.32000     -6.0688010E-09
   34.38000     -5.9640048E-09
   34.44000     -5.8613110E-09
   34.50000     -5.7487348E-09
   34.56000     -5.6203766E-09
   34.62000     -5.4780660E-09
   34.68000     -5.3296607E-09
   34.74000     -5.1846376E-09
   34.80000     -5.0488014E-09
   34.86000     -4.9203726E-09
   34.92000     -4.7891455E-09
   34.98000     -4.6391277E-09
   35.04000     -4.4536139E-09
   35.10000     -4.2206980E-09
   35.16000     -3.9371675E-09
   35.22000     -3.6095005E-09
   35.28000     -3.2519107E-09
   35.34000     -2.8824434E-09
   35.40000     -2.5186855E-09
   35.46000     -2.1744970E-09
   35.52000     -1.8585590E-09
   35.58000     -1.5747733E-09
   35.64000     -1.3239654E-09
   35.70000     -1.1060662E-09
   35.76000     -9.2199048E-10
   35.82000     -7.7464835E-10
   35.88000     -6.6881761E-10
   35.94000     -6.0989586E-10
   36.00000     -6.0182376E-10
   36.06000     -6.4472383E-10
   36.12000     -7.3298240E-10
   36.18000     -8.5454371E-10
   36.24000     -9.9198494E-10
   36.30000     -1.1254698E-09
   36.36000     -1.2370232E-09
   36.42000     -1.3149497E-09
   36.48000     -1.3569250E-09
   36.54000     -1.3705401E-09
   36.60000     -1.3708938E-09
   36.66000     -1.3759464E-09
   36.72000     -1.4012896E-09
   36.78000     -1.4562909E-09
   36.84000     -1.5430187E-09
   36.90000     -1.6581559E-09
   36.96000     -1.7967872E-09
   37.02000     -1.9561683E-09
   37.08000     -2.1377040E-09
   37.14000     -2.3463032E-09
   37.20000     -2.5875582E-09
   37.26000     -2.8641214E-09
   37.32000     -3.1728788E-09
   37.38000     -3.5039893E-09
   37.44000     -3.8420001E-09
   37.50000     -4.1685211E-09
   37.56000     -4.4656252E-09
   37.62000     -4.7191975E-09
   37.68000     -4.9216204E-09
   37.74000     -5.0732658E-09
   37.80000     -5.1822662E-09
   37.86000     -5.2622044E-09
   37.92000     -5.3278550E-09
   37.98000     -5.3899294E-09
   38.04000     -5.4504761E-09
   38.10000     -5.5007789E-09
   38.16000     -5.5229097E-09
   38.22000     -5.4947518E-09
   38.28000     -5.3968665E-09
   38.34000     -5.2187175E-09
   38.40000     -4.9619207E-09
   38.46000     -4.6393134E-09
   38.52000     -4.2701869E-09
   38.58000     -3.8734012E-09
   38.64000     -3.4607612E-09
   38.70000     -3.0328717E-09
   38.76000     -2.5788387E-09
   38.82000     -2.0799948E-09
   38.88000     -1.5165899E-09
   38.94000     -8.7540891E-10
   39.00000     -1.5583417E-10
   39.06000      6.2785710E-10
   39.12000      1.4490660E-09
   39.18000      2.2757600E-09
   39.24000      3.0794427E-09
   39.30000      3.8430037E-09
   39.36000      4.5645252E-09
   39.42000      5.2556395E-09
   39.48000      5.9352039E-09
   39.54000      6.6208967E-09
   39.60000      7.3220696E-09
   39.66000      8.0364373E-09
   39.72000      8.7514787E-09
   39.78000      9.4495105E-09
   39.84000      1.0114180E-08
   39.90000      1.0735917E-08
   39.96000      1.1314637E-08
   40.02000      1.1859129E-08
   40.08000      1.2383591E-08
   40.14000      1.2902521E-08
   40.20000      1.3425426E-08
   40.26000      1.3952927E-08
   40.32000      1.4475517E-08
   40.38000      1.4975686E-08
   40.44000      1.5433100E-08
   40.50000      1.5831386E-08
   40.56000      1.6164213E-08
   40.62000      1.6438246E-08
   40.68000      1.6671498E-08
   40.74000      1.6887258E-08
   40.80000      1.7105624E-08
   40.86000      1.7335744E-08
   40.92000      1.7571796E-08
   40.98000      1.7794331E-08
   41.04000      1.7976628E-08
   41.10000      1.8093807E-08
   41.16000      1.8131445E-08
   41.22000      1.8090690E-08
   41.28000      1.7988123E-08
   41.34000      1.7850500E-08
   41.40000      1.7706254E-08
   41.46000      1.7576724E-08
   41.52000      1.7470052E-08
   41.58000      1.7379838E-08
   41.64000      1.7288841E-08
   41.70000      1.7176323E-08
   41.76000      1.7026245E-08
   41.82000      1.6833273E-08
   41.88000      1.6604371E-08
   41.94000      1.6355466E-08
   42.00000      1.6104504E-08
   42.06000      1.5863618E-08
   42.12000      1.5633374E-08
   42.18000      1.5401220E-08
   42.24000      1.5144614E-08
   42.30000      1.4837595E-08
   42.36000      1.4458441E-08
   42.42000      1.3995821E-08
   42.48000      1.3451565E-08
   42.54000      1.2839441E-08
   42.60000      1.2180664E-08
   42.66000      1.1497781E-08
   42.72000      1.0808872E-08
   42.78000      1.0123734E-08
   42.84000      9.4429611E-09
   42.90000      8.7599838E-09
   42.96000      8.0652907E-09
   43.02000      7.3515927E-09
   43.08000      6.6184129E-09
   43.14000      5.8747438E-09
   43.20000      5.1388853E-09
   43.26000      4.4352610E-09
   43.32000      3.7888945E-09
   43.38000      3.2190437E-09
   43.44000      2.7339815E-09
   43.50000      2.3288400E-09
   43.56000      1.9876210E-09
   43.62000      1.6891039E-09
   43.68000      1.4148722E-09
   43.74000      1.1566373E-09
   43.80000      9.2003205E-10
   43.86000      7.2318940E-10
   43.92000      5.9039024E-10
   43.98000      5.4305427E-10
   44.04000      5.9148819E-10
   44.10000      7.3056022E-10
   44.16000      9.4090180E-10
   44.22000      1.1950257E-09
   44.28000      1.4658559E-09
   44.34000      1.7343875E-09
   44.40000      1.9937907E-09
   44.46000      2.2488749E-09
   44.52000      2.5116689E-09
   44.58000      2.7951725E-09
   44.64000      3.1076708E-09
   44.70000      3.4494243E-09
   44.76000      3.8124628E-09
   44.82000      4.1831449E-09
   44.88000      4.5464201E-09
   44.94000      4.8904503E-09
   45.00000      5.2103535E-09
   45.06000      5.5101150E-09
   45.12000      5.8021761E-09
   45.18000      6.1047438E-09
   45.24000      6.4374728E-09
   45.30000      6.8167147E-09
   45.36000      7.2517201E-09
   45.42000      7.7429778E-09
   45.48000      8.2831493E-09
   45.54000      8.8601357E-09
   45.60000      9.4610186E-09
   45.66000      1.0075345E-08
   45.72000      1.0696554E-08
   45.78000      1.1321193E-08
   45.84000      1.1946466E-08
   45.90000      1.2567318E-08
   45.96000      1.3174317E-08
   46.02000      1.3753200E-08
   46.08000      1.4286241E-08
   46.14000      1.4754955E-08
   46.20000      1.5143316E-08
   46.26000      1.5440529E-08
   46.32000      1.5642719E-08
   46.38000      1.5753111E-08
   46.44000      1.5780710E-08
   46.50000      1.5737786E-08
   46.56000      1.5636758E-08
   46.62000      1.5487290E-08
   46.68000      1.5294376E-08
   46.74000      1.5057951E-08
   46.80000      1.4774171E-08
   46.86000      1.4437830E-08
   46.92000      1.4045133E-08
   46.98000      1.3595774E-08
   47.04000      1.3093600E-08
   47.10000      1.2545593E-08
   47.16000      1.1959551E-08
   47.22000      1.1341272E-08
   47.28000      1.0692297E-08
   47.34000      1.0009075E-08
   47.40000      9.2840091E-09
   47.46000      8.5082164E-09
   47.52000      7.6752222E-09
   47.58000      6.7843682E-09
   47.64000      5.8427152E-09
   47.70000      4.8646256E-09
   47.76000      3.8690211E-09
   47.82000      2.8752181E-09
   47.88000      1.8988280E-09
   47.94000      9.4922137E-10
   48.00000      2.9420400E-11
   48.06000     -8.6173141E-10
   48.12000     -1.7262008E-09
   48.18000     -2.5636784E-09
   48.24000     -3.3699654E-09
   48.30000     -4.1372381E-09
   48.36000     -4.8557318E-09
   48.42000     -5.5159011E-09
   48.48000     -6.1101479E-09
   48.54000     -6.6336594E-09
   48.60000     -7.0844042E-09
   48.66000     -7.4626048E-09
   48.72000     -7.7699713E-09
   48.78000     -8.0087625E-09
   48.84000     -8.1806961E-09
   48.90000     -8.2857721E-09
   48.96000     -8.3213711E-09
   49.02000     -8.2820533E-09
   49.08000     -8.1603249E-09
   49.14000     -7.9481852E-09
   49.20000     -7.6387980E-09
   49.26000     -7.2275461E-09
   49.32000     -6.7119839E-09
   49.38000     -6.0908563E-09
   49.44000     -5.3628577E-09
   49.50000     -4.5259276E-09
   49.56000     -3.5774692E-09
   49.62000     -2.5152471E-09
   49.68000     -1.3382268E-09
   49.74000     -4.6644737E-11
   49.80000      1.3589043E-09
   49.86000      2.8789140E-09
   49.92000      4.5161088E-09
   49.98000      6.2755854E-09
   50.04000      8.1638314E-09
   50.10000      1.0187128E-08
   50.16000      1.2350138E-08
   50.22000      1.4655261E-08
   50.28000      1.7102808E-08
   50.34000      1.9691539E-08
   50.40000      2.2419067E-08
   50.46000      2.5281798E-08
   50.52000      2.8274600E-08
   50.58000      3.1390488E-08
   50.64000      3.4620509E-08
   50.70000      3.7953509E-08
   50.76000      4.1375330E-08
   50.82000      4.4867054E-08
   50.88000      4.8402466E-08
   50.94000      5.1945637E-08
   51.00000      5.5449664E-08
   51.06000      5.8857275E-08
   51.12000      6.2102998E-08
   51.18000      6.5115692E-08
   51.24000      6.7819784E-08
   51.30000      7.0134249E-08
   51.36000      7.1969232E-08
   51.42000      7.3221827E-08
   51.48000      7.3772881E-08
   51.54000      7.3486703E-08
   51.60000      7.2213922E-08
   51.66000      6.9796883E-08
   51.72000      6.6075280E-08
   51.78000      6.0889938E-08
   51.84000      5.4083490E-08
   51.90000      4.5497831E-08
   51.96000      3.4970153E-08
   52.02000      2.2329669E-08
   52.08000      7.3972704E-09
   52.14000     -1.0010831E-08
   52.20000     -3.0075967E-08
   52.26000     -5.2968094E-08
   52.32000     -7.8837381E-08
   52.38000     -1.0780817E-07
   52.44000     -1.3997604E-07
   52.50000     -1.7540734E-07
   52.56000     -2.1413970E-07
   52.62000     -2.5618206E-07
   52.68000     -3.0151293E-07
   52.74000     -3.5007676E-07
   52.80000     -4.0177954E-07
   52.86000     -4.5648378E-07
   52.92000     -5.1400417E-07
   52.98000     -5.7410449E-07
   53.04000     -6.3649543E-07
   53.10000     -7.0083371E-07
   53.16000     -7.6672330E-07
   53.22000     -8.3371657E-07
   53.28000     -9.0131704E-07
   53.34000     -9.6898202E-07
   53.40000     -1.0361247E-06
   53.46000     -1.1021158E-06
   53.52000     -1.1662862E-06
   53.58000     -1.2279295E-06
   53.64000     -1.2863065E-06
   53.70000     -1.3406524E-06
   53.76000     -1.3901839E-06
   53.82000     -1.4341086E-06
   53.88000     -1.4716329E-06
   53.94000     -1.5019712E-06
   54.00000     -1.5243529E-06
   54.06000     -1.5380322E-06
   54.12000     -1.5422956E-06
   54.18000     -1.5364719E-06
   54.24000     -1.5199399E-06
   54.30000     -1.4921387E-06
   54.36000     -1.4525745E-06
   54.42000     -1.4008301E-06
   54.48000     -1.3365712E-06
   54.54000     -1.2595522E-06
   54.60000     -1.1696203E-06
   54.66000     -1.0667184E-06
   54.72000     -9.5088586E-07
   54.78000     -8.2226148E-07
   54.84000     -6.8108460E-07
   54.90000     -5.2769730E-07
   54.96000     -3.6254406E-07
   55.02000     -1.8616890E-07
   55.08000      7.9004214E-10
   55.14000      1.9760687E-07
   55.20000      4.0347390E-07
   55.26000      6.1750654E-07
   55.32000      8.3874750E-07
   55.38000      1.0661728E-06
   55.44000      1.2987002E-06
   55.50000      1.5352035E-06
   55.56000      1.7745259E-06