 -0.750000000       0.00000000    
 -0.689999998       0.00000000    
 -0.629999995       0.00000000    
 -0.569999993       0.00000000    
 -0.509999990       0.00000000    
 -0.449999988       0.00000000    
 -0.389999986       0.00000000    
 -0.330000013       0.00000000    
 -0.270000011      -1.54142111E-26
 -0.209999993      -1.61943135E-25
 -0.150000006      -7.84949191E-25
  -9.00000036E-02  -2.02923069E-24
  -2.99999993E-02  -1.04713781E-24
   2.99999993E-02   1.51098071E-23
   9.00000036E-02   7.71436798E-23
  0.150000006       2.21183345E-22
  0.209999993       4.14876086E-22
  0.270000011       3.91146014E-22
  0.330000013      -5.34853954E-22
  0.389999986      -3.36144027E-21
  0.449999988      -8.49429186E-21
  0.509999990      -1.37292126E-20
  0.569999993      -1.19045330E-20
  0.629999995       9.09081591E-21
  0.689999998       5.99118129E-20
  0.750000000       1.34757325E-19
  0.810000002       1.92773731E-19
  0.870000005       1.51652657E-19
  0.930000007      -8.45694983E-20
  0.990000010      -5.51962061E-19
   1.04999995      -1.12930657E-18
   1.11000001      -1.48305677E-18
   1.16999996      -1.14135208E-18
   1.23000002       2.59823479E-19
   1.28999996       2.63219397E-18
   1.35000002       5.20135636E-18
   1.40999997       6.63324157E-18
   1.47000003       5.61816398E-18
   1.52999997       1.68429089E-18
   1.59000003      -4.28955352E-18
   1.64999998      -1.03773332E-17
   1.71000004      -1.47474971E-17
   1.76999998      -1.68975976E-17
   1.83000004      -1.77891312E-17
   1.88999999      -1.81930418E-17
   1.95000005      -1.60758499E-17
   2.00999999      -5.48359824E-18
   2.06999993       2.04706853E-17
   2.13000011       6.23657124E-17
   2.19000006       1.07166185E-16
   2.25000000       1.28252488E-16
   2.30999994       9.84051710E-17
   2.36999989       1.29808858E-17
   2.43000007      -9.09859829E-17
   2.49000001      -1.40185898E-16
   2.54999995      -6.73416207E-17
   2.60999990       1.21187730E-16
   2.67000008       2.93395087E-16
   2.73000002       2.09587080E-16
   2.78999996      -3.57331887E-16
   2.84999990      -1.42657151E-15
   2.91000009      -2.63821752E-15
   2.97000003      -3.24220114E-15
   3.02999997      -2.34348394E-15
   3.08999991       6.24129027E-16
   3.15000010       5.38159037E-15
   3.21000004       1.05348952E-14
   3.26999998       1.38045423E-14
   3.32999992       1.28075718E-14
   3.39000010       6.15680213E-15
   3.45000005      -5.59067241E-15
   3.50999999      -1.96340628E-14
   3.56999993      -3.15490635E-14
   3.63000011      -3.66951546E-14
   3.69000006      -3.18935687E-14
   3.75000000      -1.66992037E-14
   3.80999994       6.25083295E-15
   3.86999989       3.19252647E-14
   3.93000007       5.42982068E-14
   3.99000001       6.78879086E-14
   4.05000019       6.89147564E-14
   4.11000013       5.58435032E-14
   4.17000008       2.94025634E-14
   4.23000002      -7.64459686E-15
   4.28999996      -5.07331095E-14
   4.34999990      -9.36680475E-14
   4.40999985      -1.28846762E-13
   4.46999979      -1.47737101E-13
   4.53000021      -1.41819648E-13
   4.59000015      -1.04164663E-13
   4.65000010      -3.17278010E-14
   4.71000004       7.17882378E-14
   4.76999998       1.93151484E-13
   4.82999992       3.08216208E-13
   4.88999987       3.83721673E-13
   4.94999981       3.83744821E-13
   5.01000023       2.80774725E-13
   5.07000017       6.89028167E-14
   5.13000011      -2.25788450E-13
   5.19000006      -5.43395407E-13
   5.25000000      -8.00757626E-13
   5.30999994      -9.13623127E-13
   5.36999989      -8.23950717E-13
   5.42999983      -5.21983986E-13
   5.48999977      -5.31278411E-14
   5.55000019       4.94849604E-13
   5.61000013       1.02007552E-12
   5.67000008       1.43814821E-12
   5.73000002       1.70203012E-12
   5.78999996       1.79978049E-12
   5.84999990       1.73034048E-12
   5.90999985       1.46986286E-12
   5.96999979       9.48892874E-13
   6.03000021       5.95002156E-14
   6.09000015      -1.29955649E-12
   6.15000010      -3.14855390E-12
   6.21000004      -5.34845345E-12
   6.26999998      -7.55160257E-12
   6.32999992      -9.21050129E-12
   6.38999987      -9.65783356E-12
   6.44999981      -8.24866130E-12
   6.51000023      -4.53470594E-12
   6.57000017       1.57163811E-12
   6.63000011       9.68526561E-12
   6.69000006       1.89171352E-11
   6.75000000       2.79326839E-11
   6.80999994       3.50891677E-11
   6.86999989       3.86288328E-11
   6.92999983       3.69030362E-11
   6.98999977       2.86087647E-11
   7.05000019       1.30274437E-11
   7.11000013      -9.74137351E-12
   7.17000008      -3.85664313E-11
   7.23000002      -7.11224343E-11
   7.28999996      -1.03826336E-10
   7.34999990      -1.31924610E-10
   7.40999985      -1.49769017E-10
   7.46999979      -1.51282681E-10
   7.53000021      -1.30573219E-10
   7.59000015      -8.26117577E-11
   7.65000010      -3.88218147E-12
   7.71000004       1.07078305E-10
   7.76999998       2.49287535E-10
   7.82999992       4.19074137E-10
   7.88999987       6.09959194E-10
   7.94999981       8.12653556E-10
   8.01000023       1.01520303E-09
   8.06999969       1.20335819E-09
   8.13000011       1.36126321E-09
   8.18999958       1.47252088E-09
   8.25000000       1.52160129E-09
   8.31000042       1.49543955E-09
   8.36999989       1.38496015E-09
   8.43000031       1.18622745E-09
   8.48999977       9.00973407E-10
   8.55000019       5.36397704E-10
   8.60999966       1.04320781E-10
   8.67000008      -3.80056292E-10
   8.72999954      -8.99451846E-10
   8.78999996      -1.43556145E-09
   8.85000038      -1.96972283E-09
   8.90999985      -2.48323762E-09
   8.97000027      -2.95758729E-09
   9.02999973      -3.37485684E-09
   9.09000015      -3.71862141E-09
   9.14999962      -3.97536271E-09
   9.21000004      -4.13621493E-09
   9.27000046      -4.19862989E-09
   9.32999992      -4.16744284E-09
   9.39000034      -4.05490175E-09
   9.44999981      -3.87947940E-09
   9.51000023      -3.66360298E-09
   9.56999969      -3.43077322E-09
   9.63000011      -3.20271143E-09
   9.68999958      -2.99715763E-09
   9.75000000      -2.82674817E-09
   9.81000042      -2.69904632E-09
   9.86999989      -2.61749178E-09
   9.93000031      -2.58277288E-09
   9.98999977      -2.59408828E-09
   10.0500002      -2.64987476E-09
   10.1099997      -2.74784284E-09
   10.1700001      -2.88445001E-09
   10.2299995      -3.05416559E-09
   10.2900000      -3.24897931E-09
   10.3500004      -3.45852902E-09
   10.4099998      -3.67103481E-09
   10.4700003      -3.87494170E-09
   10.5299997      -4.06092493E-09
   10.5900002      -4.22373736E-09
   10.6499996      -4.36334791E-09
   10.7100000      -4.48494752E-09
   10.7700005      -4.59767469E-09
   10.8299999      -4.71223682E-09
   10.8900003      -4.83795271E-09
   10.9499998      -4.97995734E-09
   11.0100002      -5.13734033E-09
   11.0699997      -5.30281818E-09
   11.1300001      -5.46415668E-09
   11.1899996      -5.60706370E-09
   11.2500000      -5.71885694E-09
   11.3100004      -5.79190385E-09
   11.3699999      -5.82587356E-09
   11.4300003      -5.82812154E-09
   11.4899998      -5.81207837E-09
   11.5500002      -5.79409143E-09
   11.6099997      -5.78965942E-09
   11.6700001      -5.81017856E-09
   11.7299995      -5.86113869E-09
   11.7900000      -5.94224669E-09
   11.8500004      -6.04928596E-09
   11.9099998      -6.17695317E-09
   11.9700003      -6.32158415E-09
   12.0299997      -6.48275655E-09
   12.0900002      -6.66316469E-09
   12.1499996      -6.86684043E-09
   12.2100000      -7.09642212E-09
   12.2700005      -7.35059924E-09
   12.3299999      -7.62284635E-09
   12.3900003      -7.90217403E-09
   12.4499998      -8.17590617E-09
   12.5100002      -8.43373105E-09
   12.5699997      -8.67171934E-09
   12.6300001      -8.89485552E-09
   12.6899996      -9.11697295E-09
   12.7500000      -9.35777145E-09
   12.8100004      -9.63752189E-09
   12.8699999      -9.97093252E-09
   12.9300003      -1.03620232E-08
   12.9899998      -1.08017320E-08
   13.0500002      -1.12691332E-08
   13.1099997      -1.17360992E-08
   13.1700001      -1.21740147E-08
   13.2299995      -1.25604966E-08
   13.2900000      -1.28839677E-08
   13.3500004      -1.31446543E-08
   13.4099998      -1.33517766E-08
   13.4700003      -1.35180001E-08
   13.5299997      -1.36531968E-08
   13.5900002      -1.37597338E-08
   13.6499996      -1.38309462E-08
   13.7100000      -1.38532741E-08
   13.7700005      -1.38111904E-08
   13.8299999      -1.36930423E-08
   13.8900003      -1.34956117E-08
   13.9499998      -1.32256748E-08
   14.0100002      -1.28979423E-08
   14.0699997      -1.25300899E-08
   14.1300001      -1.21366641E-08
   14.1899996      -1.17241310E-08
   14.2500000      -1.12889742E-08
   14.3100004      -1.08197504E-08
   14.3699999      -1.03026272E-08
   14.4300003      -9.72861613E-09
   14.4899998      -9.10005937E-09
   14.5500002      -8.43402326E-09
   14.6099997      -7.76121656E-09
   14.6700001      -7.12052062E-09
   14.7299995      -6.55072174E-09
   14.7900000      -6.08196205E-09
   14.8500004      -5.72955594E-09
   14.9099998      -5.49198775E-09
   14.9700003      -5.35352473E-09
   15.0299997      -5.29037614E-09
   15.0900002      -5.27831023E-09
   15.1499996      -5.29931610E-09
   15.2100000      -5.34543920E-09
   15.2700005      -5.41895684E-09
   15.3299999      -5.52926016E-09
   15.3900003      -5.68775249E-09
   15.4499998      -5.90250426E-09
   15.5100002      -6.17427220E-09
   15.5699997      -6.49491172E-09
   15.6300001      -6.84840362E-09
   15.6899996      -7.21393301E-09
   15.7500000      -7.56991003E-09
   15.8100004      -7.89763899E-09
   15.8699999      -8.18355872E-09
   15.9300003      -8.41951753E-09
   15.9899998      -8.60124327E-09
   16.0499992      -8.72575878E-09
   16.1100006      -8.78882656E-09
   16.1700001      -8.78342732E-09
   16.2299995      -8.69983108E-09
   16.2900009      -8.52720472E-09
   16.3500004      -8.25615309E-09
   16.4099998      -7.88126897E-09
   16.4699993      -7.40285522E-09
   16.5300007      -6.82734669E-09
   16.5900002      -6.16644291E-09
   16.6499996      -5.43540546E-09
   16.7099991      -4.65114969E-09
   16.7700005      -3.83070997E-09
   16.8299999      -2.99037994E-09
   16.8899994      -2.14549378E-09
   16.9500008      -1.31057565E-09
   17.0100002      -4.99491171E-10
   17.0699997       2.74662626E-10
   17.1299992       9.99978211E-10
   17.1900005       1.66631153E-09
   17.2500000       2.26573227E-09
   17.3099995       2.79262458E-09
   17.3700008       3.24337757E-09
   17.4300003       3.61583252E-09
   17.4899998       3.90879817E-09
   17.5499992       4.12194812E-09
   17.6100006       4.25625535E-09
   17.6700001       4.31486047E-09
   17.7299995       4.30403935E-09
   17.7900009       4.23381641E-09
   17.8500004       4.11785361E-09
   17.9099998       3.97246680E-09
   17.9699993       3.81493770E-09
   18.0300007       3.66153086E-09
   18.0900002       3.52575724E-09
   18.1499996       3.41733419E-09
   18.2099991       3.34206929E-09
   18.2700005       3.30254601E-09
   18.3299999       3.29920558E-09
   18.3899994       3.33129480E-09
   18.4500008       3.39723494E-09
   18.5100002       3.49428797E-09
   18.5699997       3.61780406E-09
   18.6299992       3.76062825E-09
   18.6900005       3.91328436E-09
   18.7500000       4.06524059E-09
   18.8099995       4.20703472E-09
   18.8700008       4.33253700E-09
   18.9300003       4.44038006E-09
   18.9899998       4.53385418E-09
   19.0499992       4.61915306E-09
   19.1100006       4.70259609E-09
   19.1700001       4.78794870E-09
   19.2299995       4.87493512E-09
   19.2900009       4.95955943E-09
   19.3500004       5.03600450E-09
   19.4099998       5.09923881E-09
   19.4699993       5.14713694E-09
   19.5300007       5.18120569E-09
   19.5900002       5.20563370E-09
   19.6499996       5.22514076E-09
   19.7099991       5.24257526E-09
   19.7700005       5.25728749E-09
   19.8299999       5.26494315E-09
   19.8899994       5.25882049E-09
   19.9500008       5.23206234E-09
   20.0100002       5.17998222E-09
   20.0699997       5.10157472E-09
   20.1299992       4.99971486E-09
   20.1900005       4.88008967E-09
   20.2500000       4.74939421E-09
   20.3099995       4.61358063E-09
   20.3700008       4.47682469E-09
   20.4300003       4.34147429E-09
   20.4899998       4.20869029E-09
   20.5499992       4.07916589E-09
   20.6100006       3.95327326E-09
   20.6700001       3.83038712E-09
   20.7299995       3.70767306E-09
   20.7900009       3.57908325E-09
   20.8500004       3.43536577E-09
   20.9099998       3.26549809E-09
   20.9699993       3.05931080E-09
   21.0300007       2.81044765E-09
   21.0900002       2.51853161E-09
   21.1499996       2.18960894E-09
   21.2099991       1.83452586E-09
   21.2700005       1.46559664E-09
   21.3299999       1.09250209E-09
   21.3899994       7.18610227E-10
   21.4500008       3.38832795E-10
   21.5100002      -6.02485423E-11
   21.5699997      -4.97811792E-10
   21.6299992      -9.94246463E-10
   21.6900005      -1.56568702E-09
   21.7500000      -2.21906959E-09
   21.8099995      -2.94915781E-09
   21.8700008      -3.73853037E-09
   21.9300003      -4.56068516E-09
   21.9899998      -5.38545608E-09
   22.0499992      -6.18522256E-09
   22.1100006      -6.94019731E-09
   22.1700001      -7.64147590E-09
   22.2299995      -8.29130187E-09
   22.2900009      -8.90088447E-09
   22.3500004      -9.48661505E-09
   22.4099998      -1.00657829E-08
   22.4699993      -1.06527107E-08
   22.5300007      -1.12560032E-08
   22.5900002      -1.18773533E-08
   22.6499996      -1.25121016E-08
   22.7099991      -1.31514772E-08
   22.7700005      -1.37860514E-08
   22.8299999      -1.44094559E-08
   22.8899994      -1.50212287E-08
   22.9500008      -1.56277142E-08
   23.0100002      -1.62405733E-08
   23.0699997      -1.68732601E-08
   23.1299992      -1.75366299E-08
   23.1900005      -1.82351823E-08
   23.2500000      -1.89652329E-08
   23.3099995      -1.97156034E-08
   23.3700008      -2.04705568E-08
   23.4300003      -2.12138946E-08
   23.4899998      -2.19328786E-08
   23.5499992      -2.26206431E-08
   23.6100006      -2.32763515E-08
   23.6700001      -2.39030609E-08
   23.7299995      -2.45040486E-08
   23.7900009      -2.50789185E-08
   23.8500004      -2.56210022E-08
   23.9099998      -2.61171902E-08
   23.9699993      -2.65505147E-08
   24.0300007      -2.69047220E-08
   24.0900002      -2.71691771E-08
   24.1499996      -2.73422440E-08
   24.2099991      -2.74317227E-08
   24.2700005      -2.74521508E-08
   24.3299999      -2.74199756E-08
   24.3899994      -2.73484879E-08
   24.4500008      -2.72444023E-08
   24.5100002      -2.71071876E-08
   24.5699997      -2.69310654E-08
   24.6299992      -2.67085447E-08
   24.6900005      -2.64338560E-08
   24.7500000      -2.61049884E-08
   24.8099995      -2.57236188E-08
   24.8700008      -2.52933070E-08
   24.9300003      -2.48168046E-08
   24.9899998      -2.42936657E-08
   25.0499992      -2.37190907E-08
   25.1100006      -2.30844446E-08
   25.1700001      -2.23793499E-08
   25.2299995      -2.15947065E-08
   25.2900009      -2.07257820E-08
   25.3500004      -1.97743741E-08
   25.4099998      -1.87494411E-08
   25.4699993      -1.76658705E-08
   25.5300007      -1.65417582E-08
   25.5900002      -1.53949014E-08
   25.6499996      -1.42395056E-08
   25.7099991      -1.30840352E-08
   25.7700005      -1.19307533E-08
   25.8299999      -1.07770939E-08
   25.8899994      -9.61844915E-09
   25.9500008      -8.45157544E-09
   26.0100002      -7.27765670E-09
   26.0699997      -6.10416695E-09
   26.1299992      -4.94503949E-09
   26.1900005      -3.81916809E-09
   26.2500000      -2.74779954E-09
   26.3099995      -1.75165182E-09
   26.3700008      -8.48552395E-10
   26.4300003      -5.20010875E-11
   26.4899998       6.29416907E-10
   26.5499992       1.19218546E-09
   26.6100006       1.63797587E-09
   26.6700001       1.97380778E-09
   26.7299995       2.21192398E-09
   26.7900009       2.36889064E-09
   26.8500004       2.46367060E-09
   26.9099998       2.51492160E-09
   26.9699993       2.53825672E-09
   27.0300007       2.54429500E-09
   27.0900002       2.53797028E-09
   27.1499996       2.51893550E-09
   27.2099991       2.48244492E-09
   27.2700005       2.42008391E-09
   27.3299999       2.32018516E-09
   27.3899994       2.16833995E-09
   27.4500008       1.94867744E-09
   27.5100002       1.64625324E-09
   27.5699997       1.25014654E-09
   27.6299992       7.56168184E-10
   27.6900005       1.67937608E-10
   27.7500000      -5.04330300E-10
   27.8099995      -1.24692767E-09
   27.8700008      -2.04631290E-09
   27.9300003      -2.89169799E-09
   27.9899998      -3.77546971E-09
   28.0499992      -4.69140726E-09
   28.1100006      -5.63168534E-09
   28.1700001      -6.58411636E-09
   28.2299995      -7.53087193E-09
   28.2900009      -8.44917114E-09
   28.3500004      -9.31358102E-09
   28.4099998      -1.00990531E-08
   28.4699993      -1.07836611E-08
   28.5300007      -1.13502541E-08
   28.5900002      -1.17866463E-08
   28.6499996      -1.20843975E-08
   28.7099991      -1.22366712E-08
   28.7700005      -1.22359687E-08
   28.8299999      -1.20727028E-08
   28.8899994      -1.17354180E-08
   28.9500008      -1.12129577E-08
   29.0100002      -1.04981623E-08
   29.0699997      -9.59192281E-09
   29.1299992      -8.50609894E-09
   29.1900005      -7.26403293E-09
   29.2500000      -5.89814286E-09
   29.3099995      -4.44511183E-09
   29.3700008      -2.93998581E-09
   29.4300003      -1.41084600E-09
   29.4899998       1.24503768E-10
   29.5499992       1.65907543E-09
   29.6100006       3.19452287E-09
   29.6700001       4.73706763E-09
   29.7299995       6.29281516E-09
   29.7900009       7.86384469E-09
   29.8500004       9.44617717E-09
   29.9099998       1.10300897E-08
   29.9699993       1.26024364E-08
   30.0300007       1.41499177E-08
   30.0900002       1.56619002E-08
   30.1499996       1.71316010E-08
   30.2099991       1.85552018E-08
   30.2700005       1.99293755E-08
   30.3299999       2.12483986E-08
   30.3899994       2.25021903E-08
   30.4500008       2.36761242E-08
   30.5100002       2.47526817E-08
   30.5699997       2.57142769E-08
   30.6299992       2.65461857E-08
   30.6900005       2.72386096E-08
   30.7500000       2.77873085E-08
   30.8099995       2.81925843E-08
   30.8700008       2.84568777E-08
   30.9300003       2.85814483E-08
   30.9899998       2.85629991E-08
   31.0499992       2.83912698E-08
   31.1100006       2.80486976E-08
   31.1700001       2.75127725E-08
   31.2299995       2.67608495E-08
   31.2900009       2.57760799E-08
   31.3500004       2.45524099E-08
   31.4099998       2.30966624E-08
   31.4699993       2.14266915E-08
   31.5300007       1.95662615E-08
   31.5900002       1.75386408E-08
   31.6499996       1.53613851E-08
   31.7099991       1.30443061E-08
   31.7700005       1.05910480E-08
   31.8299999       8.00331978E-09
   31.8899994       5.28584732E-09
   31.9500008       2.45018694E-09
   32.0099983      -4.83709295E-10
   32.0699997      -3.48827456E-09
   32.1300011      -6.53084875E-09
   32.1899986      -9.57707247E-09
   32.2500000      -1.25943798E-08
   32.3100014      -1.55549902E-08
   32.3699989      -1.84378610E-08
   32.4300003      -2.12291180E-08
   32.4900017      -2.39206841E-08
   32.5499992      -2.65072941E-08
   32.6100006      -2.89827184E-08
   32.6699982      -3.13364801E-08
   32.7299995      -3.35522969E-08
   32.7900009      -3.56088847E-08
   32.8499985      -3.74827280E-08
   32.9099998      -3.91516650E-08
   32.9700012      -4.05979392E-08
   33.0299988      -4.18096064E-08
   33.0900002      -4.27802256E-08
   33.1500015      -4.35074128E-08
   33.2099991      -4.39912498E-08
   33.2700005      -4.42332677E-08
   33.3300018      -4.42363159E-08
   33.3899994      -4.40049170E-08
   33.4500008      -4.35456684E-08
   33.5099983      -4.28673239E-08
   33.5699997      -4.19806661E-08
   33.6300011      -4.08984278E-08
   33.6899986      -3.96357827E-08
   33.7500000      -3.82113363E-08
   33.8100014      -3.66483768E-08
   33.8699989      -3.49756846E-08
   33.9300003      -3.32270460E-08
   33.9900017      -3.14391357E-08
   34.0499992      -2.96477598E-08
   34.1100006      -2.78833205E-08
   34.1699982      -2.61666564E-08
   34.2299995      -2.45066349E-08
   34.2900009      -2.29004140E-08
   34.3499985      -2.13365503E-08
   34.4099998      -1.98002237E-08
   34.4700012      -1.82790849E-08
   34.5299988      -1.67680323E-08
   34.5900002      -1.52715121E-08
   34.6500015      -1.38028149E-08
   34.7099991      -1.23808404E-08
   34.7700005      -1.10255201E-08
   34.8300018      -9.75348424E-09
   34.8899994      -8.57524096E-09
   34.9500008      -7.49454987E-09
   35.0099983      -6.50990062E-09
   35.0699997      -5.61733815E-09
   35.1300011      -4.81358375E-09
   35.1899986      -4.09832746E-09
   35.2500000      -3.47489637E-09
   35.3100014      -2.94898506E-09
   35.3699989      -2.52577048E-09
   35.4300003      -2.20632579E-09
   35.4900017      -1.98462269E-09
   35.5499992      -1.84638105E-09
   35.6100006      -1.77053439E-09
   35.6699982      -1.73320869E-09
   35.7299995      -1.71316095E-09
   35.7900009      -1.69696635E-09
   35.8499985      -1.68219461E-09
   35.9099998      -1.67742276E-09
   35.9700012      -1.69902648E-09
   36.0299988      -1.76583259E-09
   36.0900002      -1.89347626E-09
   36.1500015      -2.09036988E-09
   36.2099991      -2.35655540E-09
   36.2700005      -2.68560219E-09
   36.3300018      -3.06858206E-09
   36.3899994      -3.49837936E-09
   36.4500008      -3.97252053E-09
   36.5099983      -4.49329951E-09
   36.5699997      -5.06507858E-09
   36.6300011      -5.68979130E-09
   36.6899986      -6.36249764E-09
   36.7500000      -7.06893388E-09
   36.8100014      -7.78640086E-09
   36.8699989      -8.48812842E-09
   36.9300003      -9.14999632E-09
   36.9900017      -9.75752901E-09
   37.0499992      -1.03108517E-08
   37.1100006      -1.08258558E-08
   37.1699982      -1.13309522E-08
   37.2299995      -1.18601724E-08
   37.2900009      -1.24445343E-08
   37.3499985      -1.31041791E-08
   37.4099998      -1.38436338E-08
   37.4700012      -1.46516808E-08
   37.5299988      -1.55059396E-08
   37.5900002      -1.63807616E-08
   37.6500015      -1.72559371E-08
   37.7099991      -1.81232114E-08
   37.7700005      -1.89883433E-08
   37.8300018      -1.98677874E-08
   37.8899994      -2.07810551E-08
   37.9500008      -2.17414744E-08
   38.0099983      -2.27487700E-08
   38.0699997      -2.37863702E-08
   38.1300011      -2.48246437E-08
   38.1899986      -2.58290438E-08
   38.2500000      -2.67701967E-08
   38.3100014      -2.76321881E-08
   38.3699989      -2.84158226E-08
   38.4300003      -2.91354674E-08
   38.4900017      -2.98103942E-08
   38.5499992      -3.04536094E-08
   38.6100006      -3.10621218E-08
   38.6699982      -3.16122524E-08
   38.7299995      -3.20617772E-08
   38.7900009      -3.23584608E-08
   38.8499985      -3.24521956E-08
   38.9099998      -3.23066587E-08
   38.9700012      -3.19065556E-08
   39.0299988      -3.12580823E-08
   39.0900002      -3.03825693E-08
   39.1500015      -2.93058466E-08
   39.2099991      -2.80472712E-08
   39.2700005      -2.66123887E-08
   39.3300018      -2.49918326E-08
   39.3899994      -2.31666970E-08
   39.4500008      -2.11183355E-08
   39.5099983      -1.88389890E-08
   39.5699997      -1.63394329E-08
   39.6300011      -1.36508804E-08
   39.6899986      -1.08202460E-08
   39.7500000      -7.90002463E-09
   39.8100014      -4.93582997E-09
   39.8699989      -1.95557193E-09
   39.9300003       1.03598019E-09
   39.9900017       4.05494394E-09
   40.0499992       7.12846893E-09
   40.1100006       1.02800319E-08
   40.1699982       1.35146943E-08
   40.2299995       1.68096648E-08
   40.2900009       2.01140864E-08
   40.3499985       2.33589095E-08
   40.4099998       2.64739874E-08
   40.4700012       2.94066140E-08
   40.5299988       3.21348921E-08
   40.5900002       3.46710252E-08
   40.6500015       3.70530451E-08
   40.7099991       3.93279009E-08
   40.7700005       4.15317629E-08
   40.8300018       4.36744934E-08
   40.8899994       4.57337208E-08
   40.9500008       4.76605315E-08
   41.0099983       4.93948704E-08
   41.0699997       5.08854967E-08
   41.1300011       5.21077546E-08
   41.1899986       5.30731512E-08
   41.2500000       5.38274456E-08
   41.3100014       5.44375744E-08
   41.3699989       5.49715651E-08
   41.4300003       5.54778694E-08
   41.4900017       5.59710465E-08
   41.5499992       5.64285259E-08
   41.6100006       5.67996565E-08
   41.6699982       5.70239997E-08
   41.7299995       5.70527483E-08
   41.7900009       5.68660674E-08
   41.8499985       5.64807614E-08
   41.9099998       5.59458613E-08
   41.9700012       5.53280231E-08
   42.0299988       5.46918741E-08
   42.0900002       5.40819052E-08
   42.1500015       5.35119078E-08
   42.2099991       5.29651025E-08
   42.2700005       5.24046193E-08
   42.3300018       5.17904724E-08
   42.3899994       5.10970288E-08
   42.4500008       5.03249922E-08
   42.5099983       4.95035621E-08
   42.5699997       4.86820504E-08
   42.6300011       4.79136695E-08
   42.6899986       4.72371937E-08
   42.7500000       4.66628514E-08
   42.8100014       4.61675818E-08
   42.8699989       4.57014906E-08
   42.9300003       4.52035174E-08
   42.9900017       4.46211033E-08
   43.0499992       4.39272085E-08
   43.1100006       4.31288392E-08
   43.1699982       4.22641406E-08
   43.2299995       4.13887591E-08
   43.2900009       4.05557898E-08
   43.3499985       3.97959177E-08
   43.4099998       3.91042825E-08
   43.4700012       3.84386567E-08
   43.5299988       3.77298832E-08
   43.5900002       3.69013833E-08
   43.6500015       3.58915315E-08
   43.7099991       3.46715332E-08
   43.7700005       3.32529702E-08
   43.8300018       3.16825641E-08
   43.8899994       3.00261789E-08
   43.9500008       2.83475128E-08
   44.0099983       2.66887117E-08
   44.0699997       2.50591388E-08
   44.1300011       2.34356090E-08
   44.1899986       2.17735483E-08
   44.2500000       2.00250856E-08
   44.3100014       1.81581150E-08
   44.3699989       1.61703220E-08
   44.4300003       1.40938745E-08
   44.4900017       1.19893402E-08
   44.5499992       9.93065541E-09
   44.6100006       7.98564770E-09
   44.6699982       6.19811136E-09
   44.7299995       4.57711824E-09
   44.7900009       3.09707437E-09
   44.8499985       1.70866699E-09
   44.9099998       3.57162522E-10
   44.9700012      -9.98014338E-10
   45.0299988      -2.36897058E-09
   45.0900002      -3.73500875E-09
   45.1500015      -5.04945952E-09
   45.2099991      -6.25502850E-09
   45.2700005      -7.30222816E-09
   45.3300018      -8.16469381E-09
   45.3899994      -8.84653240E-09
   45.4500008      -9.37968014E-09
   45.5099983      -9.81249304E-09
   45.5699997      -1.01934976E-08
   45.6300011      -1.05555547E-08
   45.6899986      -1.09055200E-08
   45.7500000      -1.12227054E-08
   45.8100014      -1.14667280E-08
   45.8699989      -1.15922907E-08
   45.9300003      -1.15660157E-08
   45.9900017      -1.13796013E-08
   46.0499992      -1.10546745E-08
   46.1100006      -1.06375433E-08
   46.1699982      -1.01856887E-08
   46.2299995      -9.75077086E-09
   46.2900009      -9.36415212E-09
   46.3499985      -9.02978581E-09
   46.4099998      -8.72645156E-09
   46.4700012      -8.41793568E-09
   46.5299988      -8.06711942E-09
   46.5900002      -7.64903163E-09
   46.6500015      -7.15876824E-09
   46.7099991      -6.61225386E-09
   46.7700005      -6.04012929E-09
   46.8300018      -5.47705348E-09
   46.8899994      -4.94978902E-09
   46.9500008      -4.46766357E-09
   47.0099983      -4.01834788E-09
   47.0699997      -3.57047814E-09
   47.1300011      -3.08272563E-09
   47.1899986      -2.51685850E-09
   47.2500000      -1.85080429E-09
   47.3100014      -1.08733922E-09
   47.3699989      -2.55167276E-10
   47.4300003       5.98409378E-10
   47.4900017       1.42111001E-09
   47.5499992       2.17115659E-09
   47.6100006       2.82943691E-09
   47.6699982       3.40426820E-09
   47.7299995       3.92724697E-09
   47.7900009       4.44167858E-09
   47.8499985       4.98747399E-09
   47.9099998       5.58739854E-09
   47.9700012       6.23888763E-09
   48.0299988       6.91373714E-09
   48.0900002       7.56544871E-09
   48.1500015       8.14174062E-09
   48.2099991       8.59831317E-09
   48.2700005       8.90975471E-09
   48.3300018       9.07450914E-09
   48.3899994       9.11270437E-09
   48.4500008       9.05788422E-09
   48.5099983       8.94546837E-09
   48.5699997       8.80169537E-09
   48.6300011       8.63650573E-09
   48.6899986       8.44237924E-09
   48.7500000       8.19914714E-09
   48.8100014       7.88282950E-09
   48.8699989       7.47529327E-09
   48.9300003       6.97135905E-09
   48.9900017       6.38098685E-09
   49.0499992       5.72592151E-09
   49.1100006       5.03213116E-09
   49.1699982       4.32083569E-09
   49.2299995       3.60136077E-09
   49.2900009       2.86839397E-09
   49.3499985       2.10457562E-09
   49.4099998       1.28744959E-09
   49.4700012       3.98228062E-10
   49.5299988      -5.70757774E-10
   49.5900002      -1.61246705E-09
   49.6500015      -2.70648814E-09
   49.7099991      -3.82458376E-09
   49.7700005      -4.93831642E-09
   49.8300018      -6.02611028E-09
   49.8899994      -7.07752967E-09
   49.9500008      -8.09371503E-09
   50.0099983      -9.08419562E-09
   50.0699997      -1.00613518E-08
   50.1300011      -1.10342606E-08
   50.1899986      -1.20035830E-08
   50.2500000      -1.29586981E-08
   50.3100014      -1.38776555E-08
   50.3699989      -1.47298778E-08
   50.4300003      -1.54810014E-08
   50.4900017      -1.60987259E-08
   50.5499992      -1.65583280E-08
   50.6100006      -1.68464478E-08