 -0.750000000       0.00000000    
 -0.689999998       0.00000000    
 -0.629999995       0.00000000    
 -0.569999993       0.00000000    
 -0.509999990       0.00000000    
 -0.449999988       0.00000000    
 -0.389999986       0.00000000    
 -0.330000013       0.00000000    
 -0.270000011       3.41502755E-26
 -0.209999993       6.45126159E-25
 -0.150000006       5.34846116E-24
  -9.00000036E-02   2.68703821E-23
  -2.99999993E-02   9.12169394E-23
   2.99999993E-02   2.10568370E-22
   9.00000036E-02   2.73287620E-22
  0.150000006      -1.58040116E-22
  0.209999993      -1.95609111E-21
  0.270000011      -5.94837857E-21
  0.330000013      -1.12495990E-20
  0.389999986      -1.25367453E-20
  0.449999988       1.67073884E-21
  0.509999990       4.53425450E-20
  0.569999993       1.21415806E-19
  0.629999995       1.99537832E-19
  0.689999998       1.98322575E-19
  0.750000000      -1.83158669E-21
  0.810000002      -4.89523470E-19
  0.870000005      -1.19883121E-18
  0.930000007      -1.79012018E-18
  0.990000010      -1.65103441E-18
   1.04999995      -1.35885690E-19
   1.11000001       2.94402452E-18
   1.16999996       6.77674045E-18
   1.23000002       9.36001682E-18
   1.28999996       8.09312353E-18
   1.35000002       1.24372985E-18
   1.40999997      -1.02726320E-17
   1.47000003      -2.20004615E-17
   1.52999997      -2.71940060E-17
   1.59000003      -2.04975852E-17
   1.64999998      -2.52067451E-18
   1.71000004       1.79014805E-17
   1.76999998       2.69704935E-17
   1.83000004       1.52073764E-17
   1.88999999      -1.15369643E-17
   1.95000005      -2.77256184E-17
   2.00999999       1.62724552E-18
   2.06999993       9.54742451E-17
   2.13000011       2.27499577E-16
   2.19000006       3.14589440E-16
   2.25000000       2.43120135E-16
   2.30999994      -6.45682959E-17
   2.36999989      -5.70262549E-16
   2.43000007      -1.07752956E-15
   2.49000001      -1.27683737E-15
   2.54999995      -8.90355400E-16
   2.60999990       1.35216012E-16
   2.67000008       1.49555928E-15
   2.73000002       2.56889275E-15
   2.78999996       2.67363366E-15
   2.84999990       1.46163465E-15
   2.91000009      -7.54266058E-16
   2.97000003      -2.96980191E-15
   3.02999997      -3.87726155E-15
   3.08999991      -2.56791866E-15
   3.15000010       7.86691379E-16
   3.21000004       4.70145044E-15
   3.26999998       6.86992552E-15
   3.32999992       5.29528195E-15
   3.39000010      -4.39131817E-16
   3.45000005      -8.47582333E-15
   3.50999999      -1.51222215E-14
   3.56999993      -1.64468540E-14
   3.63000011      -1.03850407E-14
   3.69000006       1.73509977E-15
   3.75000000       1.52360424E-14
   3.80999994       2.39981764E-14
   3.86999989       2.35204397E-14
   3.93000007       1.36295529E-14
   3.99000001      -7.54081828E-16
   4.05000019      -1.15871066E-14
   4.11000013      -1.18132399E-14
   4.17000008       2.90544927E-16
   4.23000002       1.89151927E-14
   4.28999996       3.23048845E-14
   4.34999990       2.79980337E-14
   4.40999985      -3.94884060E-16
   4.46999979      -4.81792950E-14
   4.53000021      -9.92606740E-14
   4.59000015      -1.31495279E-13
   4.65000010      -1.25930340E-13
   4.71000004      -7.59388280E-14
   4.76999998       8.21719114E-15
   4.82999992       1.02121206E-13
   4.88999987       1.76632580E-13
   4.94999981       2.10015517E-13
   5.01000023       1.97051522E-13
   5.07000017       1.50458733E-13
   5.13000011       9.34964657E-14
   5.19000006       4.71197991E-14
   5.25000000       1.81958212E-14
   5.30999994      -4.71452143E-15
   5.36999989      -4.50023929E-14
   5.42999983      -1.23560450E-13
   5.48999977      -2.43423554E-13
   5.55000019      -3.81992967E-13
   5.61000013      -4.96155526E-13
   5.67000008      -5.39200466E-13
   5.73000002      -4.81945701E-13
   5.78999996      -3.27412901E-13
   5.84999990      -1.10718617E-13
   5.90999985       1.17189610E-13
   5.96999979       3.15018763E-13
   6.03000021       4.73486268E-13
   6.09000015       6.22594858E-13
   6.15000010       8.18135381E-13
   6.21000004       1.11091171E-12
   6.26999998       1.50995481E-12
   6.32999992       1.95391641E-12
   6.38999987       2.30212832E-12
   6.44999981       2.35051323E-12
   6.51000023       1.87095196E-12
   6.57000017       6.68291052E-13
   6.63000011      -1.35301525E-12
   6.69000006      -4.12246019E-12
   6.75000000      -7.35046312E-12
   6.80999994      -1.05066199E-11
   6.86999989      -1.28494836E-11
   6.92999983      -1.35233543E-11
   6.98999977      -1.17224182E-11
   7.05000019      -6.89909501E-12
   7.11000013       1.03016868E-12
   7.17000008       1.15408117E-11
   7.23000002       2.34687981E-11
   7.28999996       3.51134365E-11
   7.34999990       4.44538850E-11
   7.40999985       4.94219075E-11
   7.46999979       4.81582690E-11
   7.53000021       3.91951992E-11
   7.59000015       2.15469951E-11
   7.65000010      -5.26323559E-12
   7.71000004      -4.11834074E-11
   7.76999998      -8.55649024E-11
   7.82999992      -1.37029679E-10
   7.88999987      -1.93306746E-10
   7.94999981      -2.51115462E-10
   8.01000023      -3.06182441E-10
   8.06999969      -3.53447133E-10
   8.13000011      -3.87449989E-10
   8.18999958      -4.02831851E-10
   8.25000000      -3.94833638E-10
   8.31000042      -3.59690500E-10
   8.36999989      -2.94857833E-10
   8.43000031      -1.99072300E-10
   8.48999977      -7.23065011E-11
   8.55000019       8.43005249E-11
   8.60999966       2.68469441E-10
   8.67000008       4.76739315E-10
   8.72999954       7.04382663E-10
   8.78999996       9.45334255E-10
   8.85000038       1.19219667E-09
   8.90999985       1.43636858E-09
   8.97000027       1.66831482E-09
   9.02999973       1.87797466E-09
   9.09000015       2.05529282E-09
   9.14999962       2.19085550E-09
   9.21000004       2.27660046E-09
   9.27000046       2.30655450E-09
   9.32999992       2.27752039E-09
   9.39000034       2.18960095E-09
   9.44999981       2.04644457E-09
   9.51000023       1.85511795E-09
   9.56999969       1.62558156E-09
   9.63000011       1.36982126E-09
   9.68999958       1.10077270E-09
   9.75000000       8.31210378E-10
   9.81000042       5.72769610E-10
   9.86999989       3.35202560E-10
   9.93000031       1.25894475E-10
   9.98999977      -5.04044480E-11
   10.0500002      -1.91704777E-10
   10.1099997      -2.98811142E-10
   10.1700001      -3.75261044E-10
   10.2299995      -4.27110181E-10
   10.2900000      -4.62485050E-10
   10.3500004      -4.90853136E-10
   10.4099998      -5.22040411E-10
   10.4700003      -5.65121616E-10
   10.5299997      -6.27386199E-10
   10.5900002      -7.13602899E-10
   10.6499996      -8.25755408E-10
   10.7100000      -9.63313762E-10
   10.7700005      -1.12396725E-09
   10.8299999      -1.30462519E-09
   10.8900003      -1.50242507E-09
   10.9499998      -1.71549441E-09
   11.0100002      -1.94328509E-09
   11.0699997      -2.18643037E-09
   11.1300001      -2.44619924E-09
   11.1899996      -2.72373168E-09
   11.2500000      -3.01928171E-09
   11.3100004      -3.33167227E-09
   11.3699999      -3.65809183E-09
   11.4300003      -3.99424049E-09
   11.4899998      -4.33474279E-09
   11.5500002      -4.67365657E-09
   11.6099997      -5.00489961E-09
   11.6700001      -5.32246691E-09
   11.7299995      -5.62037528E-09
   11.7900000      -5.89240878E-09
   11.8500004      -6.13180084E-09
   11.9099998      -6.33106945E-09
   11.9700003      -6.48218368E-09
   12.0299997      -6.57716459E-09
   12.0900002      -6.60908839E-09
   12.1499996      -6.57330101E-09
   12.2100000      -6.46853726E-09
   12.2700005      -6.29759977E-09
   12.3299999      -6.06733108E-09
   12.3900003      -5.78779913E-09
   12.4499998      -5.47083934E-09
   12.5100002      -5.12833553E-09
   12.5699997      -4.77071627E-09
   12.6300001      -4.40611814E-09
   12.6899996      -4.04044664E-09
   12.7500000      -3.67826436E-09
   12.8100004      -3.32410721E-09
   12.8699999      -2.98364666E-09
   12.9300003      -2.66410138E-09
   12.9899998      -2.37355113E-09
   13.0500002      -2.11920903E-09
   13.1099997      -1.90514293E-09
   13.1700001      -1.73024972E-09
   13.2299995      -1.58732127E-09
   13.2900000      -1.46375412E-09
   13.3500004      -1.34392530E-09
   13.4099998      -1.21265720E-09
   13.4700003      -1.05875608E-09
   13.5299997      -8.77514783E-10
   13.5900002      -6.71391664E-10
   13.6499996      -4.48693083E-10
   13.7100000      -2.20780519E-10
   13.7700005       1.17992497E-12
   13.8299999       2.08806028E-10
   13.8900003       3.97632594E-10
   13.9499998       5.66604930E-10
   14.0100002       7.16388504E-10
   14.0699997       8.47365345E-10
   14.1300001       9.58218505E-10
   14.1899996       1.04567688E-09
   14.2500000       1.10546339E-09
   14.3100004       1.13398468E-09
   14.3699999       1.13003462E-09
   14.4300003       1.09582199E-09
   14.4899998       1.03694930E-09
   14.5500002       9.61390634E-10
   14.6099997       8.77892703E-10
   14.6700001       7.94386279E-10
   14.7299995       7.16927906E-10
   14.7900000       6.49427845E-10
   14.8500004       5.94084892E-10
   14.9099998       5.52180690E-10
   14.9700003       5.24780497E-10
   15.0299997       5.12982268E-10
   15.0900002       5.17591026E-10
   15.1499996       5.38372735E-10
   15.2100000       5.73235237E-10
   15.2700005       6.17724039E-10
   15.3299999       6.65092703E-10
   15.3900003       7.06986414E-10
   15.4499998       7.34561301E-10
   15.5100002       7.39738271E-10
   15.5699997       7.16296411E-10
   15.6300001       6.60602906E-10
   15.6899996       5.71892755E-10
   15.7500000       4.52094473E-10
   15.8100004       3.05223458E-10
   15.8699999       1.36394021E-10
   15.9300003      -4.94359102E-11
   15.9899998      -2.48753906E-10
   16.0499992      -4.60462640E-10
   16.1100006      -6.86146084E-10
   16.1700001      -9.29391508E-10
   16.2299995      -1.19423371E-09
   16.2900009      -1.48315460E-09
   16.3500004      -1.79531667E-09
   16.4099998      -2.12570095E-09
   16.4699993      -2.46549803E-09
   16.5300007      -2.80360690E-09
   16.5900002      -3.12864246E-09
   16.6499996      -3.43066442E-09
   16.7099991      -3.70200604E-09
   16.7700005      -3.93704092E-09
   16.8299999      -4.13123757E-09
   16.8899994      -4.28015090E-09
   16.9500008      -4.37898162E-09
   17.0100002      -4.42296022E-09
   17.0699997      -4.40834347E-09
   17.1299992      -4.33345670E-09
   17.1900005      -4.19917212E-09
   17.2500000      -4.00848954E-09
   17.3099995      -3.76533693E-09
   17.3700008      -3.47309892E-09
   17.4300003      -3.13353476E-09
   17.4899998      -2.74656542E-09
   17.5499992      -2.31105068E-09
   17.6100006      -1.82624438E-09
   17.6700001      -1.29336974E-09
   17.7299995      -7.16727455E-10
   17.7900009      -1.03981254E-10
   17.8500004       5.34406741E-10
   17.9099998       1.18629762E-09
   17.9699993       1.83908955E-09
   18.0300007       2.48057908E-09
   18.0900002       3.09921333E-09
   18.1499996       3.68375730E-09
   18.2099991       4.22267421E-09
   18.2700005       4.70367789E-09
   18.3299999       5.11388887E-09
   18.3899994       5.44083845E-09
   18.4500008       5.67420422E-09
   18.5100002       5.80784132E-09
   18.5699997       5.84142335E-09
   18.6299992       5.78106141E-09
   18.6900005       5.63852476E-09
   18.7500000       5.42917267E-09
   18.8099995       5.16918464E-09
   18.8700008       4.87295893E-09
   18.9300003       4.55151294E-09
   18.9899998       4.21235802E-09
   19.0499992       3.86074150E-09
   19.1100006       3.50163387E-09
   19.1700001       3.14154902E-09
   19.2299995       2.78942358E-09
   19.2900009       2.45621878E-09
   19.3500004       2.15349583E-09
   19.4099998       1.89165350E-09
   19.4699993       1.67862035E-09
   19.5300007       1.51950907E-09
   19.5900002       1.41723044E-09
   19.6499996       1.37358191E-09
   19.7099991       1.39012035E-09
   19.7700005       1.46830204E-09
   19.8299999       1.60881963E-09
   19.8899994       1.81054360E-09
   19.9500008       2.06972905E-09
   20.0100002       2.38003639E-09
   20.0699997       2.73351453E-09
   20.1299992       3.12221204E-09
   20.1900005       3.53978447E-09
   20.2500000       3.98245570E-09
   20.3099995       4.44900117E-09
   20.3700008       4.93981211E-09
   20.4300003       5.45542722E-09
   20.4899998       5.99503780E-09
   20.5499992       6.55539401E-09
   20.6100006       7.13034520E-09
   20.6700001       7.71109310E-09
   20.7299995       8.28707325E-09
   20.7900009       8.84731755E-09
   20.8500004       9.38201872E-09
   20.9099998       9.88394344E-09
   20.9699993       1.03493187E-08
   21.0300007       1.07778915E-08
   21.0900002       1.11721272E-08
   21.1499996       1.15357990E-08
   21.2099991       1.18724213E-08
   21.2700005       1.21839800E-08
   21.3299999       1.24702337E-08
   21.3899994       1.27285835E-08
   21.4500008       1.29542865E-08
   21.5100002       1.31407818E-08
   21.5699997       1.32800082E-08
   21.6299992       1.33627696E-08
   21.6900005       1.33792506E-08
   21.7500000       1.33197728E-08
   21.8099995       1.31756748E-08
   21.8700008       1.29401654E-08
   21.9300003       1.26090036E-08
   21.9899998       1.21809638E-08
   22.0499992       1.16581589E-08
   22.1100006       1.10462635E-08
   22.1700001       1.03545439E-08
   22.2299995       9.59543911E-09
   22.2900009       8.78346995E-09
   22.3500004       7.93347343E-09
   22.4099998       7.05849157E-09
   22.4699993       6.16799056E-09
   22.5300007       5.26704413E-09
   22.5900002       4.35683667E-09
   22.6499996       3.43631212E-09
   22.7099991       2.50432497E-09
   22.7700005       1.56149471E-09
   22.8299999       6.11140472E-10
   22.8899994      -3.40891815E-10
   22.9500008      -1.28724087E-09
   23.0100002      -2.22034724E-09
   23.0699997      -3.13353277E-09
   23.1299992      -4.02150357E-09
   23.1900005      -4.88019891E-09
   23.2500000      -5.70616709E-09
   23.3099995      -6.49574394E-09
   23.3700008      -7.24438598E-09
   23.4300003      -7.94641775E-09
   23.4899998      -8.59534488E-09
   23.5499992      -9.18467524E-09
   23.6100006      -9.70902647E-09
   23.6700001      -1.01651434E-08
   23.7299995      -1.05524931E-08
   23.7900009      -1.08732410E-08
   23.8500004      -1.11316272E-08
   23.9099998      -1.13329595E-08
   23.9699993      -1.14825083E-08
   24.0300007      -1.15845307E-08
   24.0900002      -1.16415819E-08
   24.1499996      -1.16542287E-08
   24.2099991      -1.16212266E-08
   24.2700005      -1.15402452E-08
   24.3299999      -1.14090160E-08
   24.3899994      -1.12266010E-08
   24.4500008      -1.09942579E-08
   24.5100002      -1.07153983E-08
   24.5699997      -1.03944906E-08
   24.6299992      -1.00352144E-08
   24.6900005      -9.63869695E-09
   24.7500000      -9.20270082E-09
   24.8099995      -8.72226114E-09
   24.8700008      -8.19161805E-09
   24.9300003      -7.60664154E-09
   24.9899998      -6.96679425E-09
   25.0499992      -6.27593089E-09
   25.1100006      -5.54191004E-09
   25.1700001      -4.77548623E-09
   25.2299995      -3.98909972E-09
   25.2900009      -3.19590554E-09
   25.3500004      -2.40893039E-09
   25.4099998      -1.64003433E-09
   25.4699993      -8.98510100E-10
   25.5300007      -1.89602459E-10
   25.5900002       4.86394869E-10
   25.6499996       1.13380494E-09
   25.7099991       1.75983328E-09
   25.7700005       2.37193754E-09
   25.8299999       2.97530134E-09
   25.8899994       3.57134566E-09
   25.9500008       4.15766399E-09
   26.0100002       4.72900252E-09
   26.0699997       5.27843635E-09
   26.1299992       5.79792214E-09
   26.1900005       6.27796615E-09
   26.2500000       6.70681866E-09
   26.3099995       7.07004411E-09
   26.3700008       7.35121075E-09
   26.4300003       7.53394502E-09
   26.4899998       7.60487939E-09
   26.5499992       7.55656870E-09
   26.6100006       7.38936690E-09
   26.6700001       7.11162951E-09
   26.7299995       6.73822331E-09
   26.7900009       6.28786312E-09
   26.8500004       5.78014347E-09
   26.9099998       5.23311661E-09
   26.9699993       4.66193395E-09
   27.0300007       4.07861123E-09
   27.0900002       3.49253781E-09
   27.1499996       2.91111046E-09
   27.2099991       2.33995934E-09
   27.2700005       1.78255055E-09
   27.3299999       1.23934030E-09
   27.3899994       7.06953773E-10
   27.4500008       1.77862780E-10
   27.5100002      -3.59184904E-10
   27.5699997      -9.18058074E-10
   27.6299992      -1.51374047E-09
   27.6900005      -2.16071538E-09
   27.7500000      -2.87135848E-09
   27.8099995      -3.65432218E-09
   27.8700008      -4.51292914E-09
   27.9300003      -5.44381118E-09
   27.9899998      -6.43625953E-09
   28.0499992      -7.47273177E-09
   28.1100006      -8.53062954E-09
   28.1700001      -9.58489021E-09
   28.2299995      -1.06104769E-08
   28.2900009      -1.15838450E-08
   28.3500004      -1.24829205E-08
   28.4099998      -1.32859741E-08
   28.4699993      -1.39703964E-08
   28.5300007      -1.45125245E-08
   28.5900002      -1.48891823E-08
   28.6499996      -1.50806905E-08
   28.7099991      -1.50743631E-08
   28.7700005      -1.48671226E-08
   28.8299999      -1.44663410E-08
   28.8899994      -1.38886236E-08
   28.9500008      -1.31571580E-08
   29.0100002      -1.22986181E-08
   29.0699997      -1.13405720E-08
   29.1299992      -1.03098943E-08
   29.1900005      -9.23218391E-09
   29.2500000      -8.13173706E-09
   29.3099995      -7.03151359E-09
   29.3700008      -5.95267657E-09
   29.4300003      -4.91352736E-09
   29.4899998      -3.92803789E-09
   29.5499992      -3.00439207E-09
   29.6100006      -2.14408802E-09
   29.6700001      -1.34201694E-09
   29.7299995      -5.87652649E-10
   29.7900009       1.32894612E-10
   29.8500004       8.34528058E-10
   29.9099998       1.53113944E-09
   29.9699993       2.23433205E-09
   30.0300007       2.95293368E-09
   30.0900002       3.69300945E-09
   30.1499996       4.45799264E-09
   30.2099991       5.24871657E-09
   30.2700005       6.06341866E-09
   30.3299999       6.89797774E-09
   30.3899994       7.74652431E-09
   30.4500008       8.60225846E-09
   30.5100002       9.45801482E-09
   30.5699997       1.03060769E-08
   30.6299992       1.11371321E-08
   30.6900005       1.19387931E-08
   30.7500000       1.26945698E-08
   30.8099995       1.33841249E-08
   30.8700008       1.39851597E-08
   30.9300003       1.44764414E-08
   30.9899998       1.48409232E-08
   31.0499992       1.50677995E-08
   31.1100006       1.51528212E-08
   31.1700001       1.50969850E-08
   31.2299995       1.49043906E-08
   31.2900009       1.45803130E-08
   31.3500004       1.41302392E-08
   31.4099998       1.35601024E-08
   31.4699993       1.28773356E-08
   31.5300007       1.20921300E-08
   31.5900002       1.12182814E-08
   31.6499996       1.02732143E-08
   31.7099991       9.27705912E-09
   31.7700005       8.25089419E-09
   31.8299999       7.21449211E-09
   31.8899994       6.18406615E-09
   31.9500008       5.17069809E-09
   32.0099983       4.18000834E-09
   32.0699997       3.21332339E-09
   32.1300011       2.27003483E-09
   32.1899986       1.35030187E-09
   32.2500000       4.57024946E-10
   32.3100014      -4.03725303E-10
   32.3699989      -1.22394961E-09
   32.4300003      -1.99599137E-09
   32.4900017      -2.71475442E-09
   32.5499992      -3.37889228E-09
   32.6100006      -3.99060340E-09
   32.6699982      -4.55439197E-09
   32.7299995      -5.07558839E-09
   32.7900009      -5.55934498E-09
   32.8499985      -6.01035399E-09
   32.9099998      -6.43298215E-09
   32.9700012      -6.83130885E-09
   33.0299988      -7.20872606E-09
   33.0900002      -7.56720109E-09
   33.1500015      -7.90664334E-09
   33.2099991      -8.22482260E-09
   33.2700005      -8.51791171E-09
   33.3300018      -8.78137030E-09
   33.3899994      -9.01064379E-09
   33.4500008      -9.20142185E-09
   33.5099983      -9.34957711E-09
   33.5699997      -9.45125844E-09
   33.6300011      -9.50356505E-09
   33.6899986      -9.50574197E-09
   33.7500000      -9.46038270E-09
   33.8100014      -9.37379863E-09
   33.8699989      -9.25510157E-09
   33.9300003      -9.11416187E-09
   33.9900017      -8.95935148E-09
   34.0499992      -8.79617090E-09
   34.1100006      -8.62747740E-09
   34.1699982      -8.45513881E-09
   34.2299995      -8.28217583E-09
   34.2900009      -8.11415202E-09
   34.3499985      -7.95897925E-09
   34.4099998      -7.82517517E-09
   34.4700012      -7.71942510E-09
   34.5299988      -7.64461028E-09
   34.5900002      -7.59919327E-09
   34.6500015      -7.57807950E-09
   34.7099991      -7.57440688E-09
   34.7700005      -7.58137197E-09
   34.8300018      -7.59337659E-09
   34.8899994      -7.60627916E-09
   34.9500008      -7.61701280E-09
   35.0099983      -7.62302932E-09
   35.0699997      -7.62192265E-09
   35.1300011      -7.61125118E-09
   35.1899986      -7.58843477E-09
   35.2500000      -7.55053176E-09
   35.3100014      -7.49397344E-09
   35.3699989      -7.41457207E-09
   35.4300003      -7.30817007E-09
   35.4900017      -7.17208026E-09
   35.5499992      -7.00699410E-09
   35.6100006      -6.81859103E-09
   35.6699982      -6.61792443E-09
   35.7299995      -6.41992326E-09
   35.7900009      -6.24008623E-09
   35.8499985      -6.09027762E-09
   35.9099998      -5.97513239E-09
   35.9700012      -5.89057336E-09
   36.0299988      -5.82525184E-09
   36.0900002      -5.76456216E-09
   36.1500015      -5.69576830E-09
   36.2099991      -5.61221292E-09
   36.2700005      -5.51487744E-09
   36.3300018      -5.41063860E-09
   36.3899994      -5.30796829E-09
   36.4500008      -5.21190957E-09
   36.5099983      -5.12044540E-09
   36.5699997      -5.02376807E-09
   36.6300011      -4.90672214E-09
   36.6899986      -4.75340745E-09
   36.7500000      -4.55218663E-09
   36.8100014      -4.29930003E-09
   36.8699989      -3.99999722E-09
   36.9300003      -3.66707975E-09
   36.9900017      -3.31763261E-09
   37.0499992      -2.96918157E-09
   37.1100006      -2.63647237E-09
   37.1699982      -2.32966113E-09
   37.2299995      -2.05412576E-09
   37.2900009      -1.81162663E-09
   37.3499985      -1.60220803E-09
   37.4099998      -1.42614232E-09
   37.4700012      -1.28529132E-09
   37.5299988      -1.18345045E-09
   37.5900002      -1.12551213E-09
   37.6500015      -1.11559584E-09
   37.7099991      -1.15461352E-09
   37.7700005      -1.23802169E-09
   37.8300018      -1.35464651E-09
   37.8899994      -1.48734214E-09
   37.9500008      -1.61577351E-09
   38.0099983      -1.72087333E-09
   38.0699997      -1.78973780E-09
   38.1300011      -1.81927251E-09
   38.1899986      -1.81708970E-09
   38.2500000      -1.79905901E-09
   38.3100014      -1.78423931E-09
   38.3699989      -1.78907966E-09
   38.4300003      -1.82316995E-09
   38.4900017      -1.88817983E-09
   38.5499992      -1.98017203E-09
   38.6100006      -2.09393791E-09
   38.6699982      -2.22712271E-09
   38.7299995      -2.38214892E-09
   38.7900009      -2.56514898E-09
   38.8499985      -2.78260615E-09
   38.9099998      -3.03741499E-09
   38.9700012      -3.32613248E-09
   39.0299988      -3.63842267E-09
   39.0900002      -3.95863919E-09
   39.1500015      -4.26871649E-09
   39.2099991      -4.55142013E-09
   39.2700005      -4.79326046E-09
   39.3300018      -4.98673858E-09
   39.3899994      -5.13165777E-09
   39.4500008      -5.23507770E-09
   39.5099983      -5.30944533E-09
   39.5699997      -5.36879208E-09
   39.6300011      -5.42371748E-09
   39.6899986      -5.47671952E-09
   39.7500000      -5.51979840E-09
   39.8100014      -5.53565505E-09
   39.8699989      -5.50248913E-09
   39.9300003      -5.40083711E-09
   39.9900017      -5.21991961E-09
   40.0499992      -4.96108310E-09
   40.1100006      -4.63700145E-09
   40.1699982      -4.26695834E-09
   40.2299995      -3.86990839E-09
   40.2900009      -3.45775031E-09
   40.3499985      -3.03105807E-09
   40.4099998      -2.57867638E-09
   40.4700012      -2.08139106E-09
   40.5299988      -1.51863788E-09
   40.5900002      -8.76249462E-10
   40.6500015      -1.52734131E-10
   40.7099991       6.38165076E-10
   40.7700005       1.46985002E-09
   40.8300018       2.30972597E-09
   40.8899994       3.12836312E-09
   40.9500008       3.90771770E-09
   41.0099983       4.64535077E-09
   41.0699997       5.35305267E-09
   41.1300011       6.05049388E-09
   41.1899986       6.75648959E-09
   41.2500000       7.48132756E-09
   41.3100014       8.22299029E-09
   41.3699989       8.96837271E-09
   41.4300003       9.69856195E-09
   41.4900017       1.03958540E-08
   41.5499992       1.10497913E-08
   41.6100006       1.16602275E-08
   41.6699982       1.22366535E-08
   41.7299995       1.27942910E-08
   41.7900009       1.33483713E-08
   41.8499985       1.39083980E-08
   41.9099998       1.44742138E-08
   41.9700012       1.50351287E-08
   42.0299988       1.55726152E-08
   42.0900002       1.60659379E-08
   42.1500015       1.64990155E-08
   42.2099991       1.68661671E-08
   42.2700005       1.71745320E-08
   42.3300018       1.74419554E-08
   42.3899994       1.76908088E-08
   42.4500008       1.79397901E-08
   42.5099983       1.81966406E-08
   42.5699997       1.84545605E-08
   42.6300011       1.86937346E-08
   42.6899986       1.88875777E-08
   42.7500000       1.90115692E-08
   42.8100014       1.90516332E-08
   42.8699989       1.90091374E-08
   42.9300003       1.89008293E-08
   42.9900017       1.87536813E-08
   43.0499992       1.85964488E-08
   43.1100006       1.84507982E-08
   43.1699982       1.83250943E-08
   43.2299995       1.82129476E-08
   43.2900009       1.80969622E-08
   43.3499985       1.79562125E-08
   43.4099998       1.77745960E-08
   43.4700012       1.75468990E-08
   43.5299988       1.72803301E-08
   43.5900002       1.69910219E-08
   43.6500015       1.66969834E-08
   43.7099991       1.64103042E-08
   43.7700005       1.61315850E-08
   43.8300018       1.58486202E-08
   43.8899994       1.55396815E-08
   43.9500008       1.51800350E-08
   44.0099983       1.47493537E-08
   44.0699997       1.42375036E-08
   44.1300011       1.36470000E-08
   44.1899986       1.29916602E-08
   44.2500000       1.22922090E-08
   44.3100014       1.15704264E-08
   44.3699989       1.08436709E-08
   44.4300003       1.01213002E-08
   44.4900017       9.40386702E-09
   44.5499992       8.68508643E-09
   44.6100006       7.95592747E-09
   44.6699982       7.20957738E-09
   44.7299995       6.44587805E-09
   44.7900009       5.67391112E-09
   44.8499985       4.91184604E-09
   44.9099998       4.18385504E-09
   44.9700012       3.51471652E-09
   45.0299988       2.92356672E-09
   45.0900002       2.41874165E-09
   45.1500015       1.99559236E-09
   45.2099991       1.63840030E-09
   45.2700005       1.32616440E-09
   45.3300018       1.04053999E-09
   45.3899994       7.73150155E-10
   45.4500008       5.29440936E-10
   45.5099983       3.27356892E-10
   45.5699997       1.91066496E-10
   45.6300011       1.41970782E-10
   45.6899986       1.90407523E-10
   45.7500000       3.31253469E-10
   45.8100014       5.45069712E-10
   45.8699989       8.04203815E-10
   45.9300003       1.08133746E-09
   45.9900017       1.35716571E-09
   46.0499992       1.62449476E-09
   46.1100006       1.88767779E-09
   46.1699982       2.15817808E-09
   46.2299995       2.44836529E-09
   46.2900009       2.76595569E-09
   46.3499985       3.11088644E-09
   46.4099998       3.47527696E-09
   46.4700012       3.84604615E-09
   46.5299988       4.20906865E-09
   46.5900002       4.55353533E-09
   46.6500015       4.87535123E-09
   46.7099991       5.17875298E-09
   46.7700005       5.47576429E-09
   46.8300018       5.78359671E-09
   46.8899994       6.12063955E-09
   46.9500008       6.50211351E-09
   47.0099983       6.93663216E-09
   47.0699997       7.42471773E-09
   47.1300011       7.95964628E-09
   47.1899986       8.53020765E-09
   47.2500000       9.12424714E-09
   47.3100014       9.73163505E-09
   47.3699989       1.03456372E-08
   47.4300003       1.09623235E-08
   47.4900017       1.15785070E-08
   47.5499992       1.21891803E-08
   47.6100006       1.27855273E-08
   47.6699982       1.33542786E-08
   47.7299995       1.38786573E-08
   47.7900009       1.43406487E-08
   47.8499985       1.47239785E-08
   47.9099998       1.50170365E-08
   47.9700012       1.52149919E-08
   48.0299988       1.53205164E-08
   48.0900002       1.53428363E-08
   48.1500015       1.52952389E-08
   48.2099991       1.51916346E-08
   48.2700005       1.50431063E-08
   48.3300018       1.48555150E-08
   48.3899994       1.46288874E-08
   48.4500008       1.43587835E-08
   48.5099983       1.40390908E-08
   48.5699997       1.36651988E-08
   48.6300011       1.32363613E-08
   48.6899986       1.27563666E-08
   48.7500000       1.22323094E-08
   48.8100014       1.16719514E-08
   48.8699989       1.10806919E-08
   48.9300003       1.04593285E-08
   48.9900017       9.80348336E-09
   49.0499992       9.10504117E-09
   49.1100006       8.35520364E-09
   49.1699982       7.54819318E-09
   49.2299995       6.68436462E-09
   49.2900009       5.77162806E-09
   49.3499985       4.82462648E-09
   49.4099998       3.86190235E-09
   49.4700012       2.90199109E-09
   49.5299988       1.95977878E-09
   49.5900002       1.04433184E-09
   49.6500015       1.58826508E-10
   49.7099991      -6.97605751E-10
   49.7700005      -1.52697288E-09
   49.8300018      -2.32961583E-09
   49.8899994      -3.10246495E-09
   49.9500008      -3.83879906E-09
   50.0099983      -4.52935067E-09
   50.0699997      -5.16418108E-09
   50.1300011      -5.73464121E-09
   50.1899986      -6.23484731E-09
   50.2500000      -6.66236577E-09
   50.3100014      -7.01799951E-09
   50.3699989      -7.30475946E-09
   50.4300003      -7.52625429E-09
   50.4900017      -7.68487052E-09
   50.5499992      -7.78029197E-09
   50.6100006      -7.80884424E-09