 -0.750000000       0.00000000    
 -0.689999998       0.00000000    
 -0.629999995       0.00000000    
 -0.569999993       0.00000000    
 -0.509999990       0.00000000    
 -0.449999988      -7.00111373E-21
 -0.389999986      -4.70288626E-20
 -0.330000013      -1.31075634E-19
 -0.270000011      -8.56232876E-20
 -0.209999993       7.30534743E-19
 -0.150000006       3.46721543E-18
  -9.00000036E-02   8.90093488E-18
  -2.99999993E-02   1.52078727E-17
   2.99999993E-02   1.52700519E-17
   9.00000036E-02  -3.70046361E-18
  0.150000006      -5.46176671E-17
  0.209999993      -1.37812009E-16
  0.270000011      -2.25875867E-16
  0.330000013      -2.57411724E-16
  0.389999986      -1.52556338E-16
  0.449999988       1.45296617E-16
  0.509999990       6.14635588E-16
  0.569999993       1.11838461E-15
  0.629999995       1.41842369E-15
  0.689999998       1.25791264E-15
  0.750000000       4.89633377E-16
  0.810000002      -8.09179680E-16
  0.870000005      -2.30743210E-15
  0.930000007      -3.51828285E-15
  0.990000010      -4.00053449E-15
   1.04999995      -3.56739234E-15
   1.11000001      -2.37438539E-15
   1.16999996      -7.99908905E-16
   1.23000002       8.52966731E-16
   1.28999996       2.66432138E-15
   1.35000002       5.16512941E-15
   1.40999997       8.97746927E-15
   1.47000003       1.40699940E-14
   1.52999997       1.89900501E-14
   1.59000003       2.06591980E-14
   1.64999998       1.52420936E-14
   1.71000004       1.20512102E-16
   1.76999998      -2.37395112E-14
   1.83000004      -5.03589954E-14
   1.88999999      -6.95995927E-14
   1.95000005      -7.07730044E-14
   2.00999999      -4.79448126E-14
   2.06999993      -4.42961513E-15
   2.13000011       4.63945966E-14
   2.19000006       8.55126855E-14
   2.25000000       9.68123761E-14
   2.30999994       7.58532438E-14
   2.36999989       3.38801490E-14
   2.43000007      -6.22381217E-15
   2.49000001      -2.12707049E-14
   2.54999995      -1.14020789E-15
   2.60999990       4.32361395E-14
   2.67000008       8.28073775E-14
   2.73000002       8.42483093E-14
   2.78999996       2.83326744E-14
   2.84999990      -7.70287900E-14
   2.91000009      -1.97039027E-13
   2.97000003      -2.84712222E-13
   3.02999997      -3.03048548E-13
   3.08999991      -2.42976104E-13
   3.15000010      -1.27080611E-13
   3.21000004       3.24516300E-15
   3.26999998       1.10274901E-13
   3.32999992       1.79436991E-13
   3.39000010       2.24647774E-13
   3.45000005       2.76153557E-13
   3.50999999       3.57338454E-13
   3.56999993       4.63187214E-13
   3.63000011       5.52418408E-13
   3.69000006       5.58425539E-13
   3.75000000       4.15134507E-13
   3.80999994       8.74408510E-14
   3.86999989      -4.05360695E-13
   3.93000007      -9.81394978E-13
   3.99000001      -1.50629910E-12
   4.05000019      -1.82007794E-12
   4.11000013      -1.77603342E-12
   4.17000008      -1.28443718E-12
   4.23000002      -3.50742195E-13
   4.28999996       9.03912904E-13
   4.34999990       2.25072608E-12
   4.40999985       3.39358988E-12
   4.46999979       4.03403699E-12
   4.53000021       3.94195050E-12
   4.59000015       3.00925951E-12
   4.65000010       1.27105683E-12
   4.71000004      -1.10537718E-12
   4.76999998      -3.84686250E-12
   4.82999992      -6.59290591E-12
   4.88999987      -8.89307638E-12
   4.94999981      -1.01910190E-11
   5.01000023      -9.82390124E-12
   5.07000017      -7.07226552E-12
   5.13000011      -1.27919973E-12
   5.19000006       7.97556726E-12
   5.25000000       2.06956709E-11
   5.30999994       3.63480669E-11
   5.36999989       5.38566865E-11
   5.42999983       7.17259793E-11
   5.48999977       8.82642917E-11
   5.55000019       1.01843520E-10
   5.61000013       1.11126483E-10
   5.67000008       1.15215476E-10
   5.73000002       1.13712532E-10
   5.78999996       1.06711674E-10
   5.84999990       9.47532885E-11
   5.90999985       7.87574311E-11
   5.96999979       5.99308450E-11
   6.03000021       3.96281202E-11
   6.09000015       1.91549120E-11
   6.15000010      -4.70286245E-13
   6.21000004      -1.87447662E-11
   6.26999998      -3.58289752E-11
   6.32999992      -5.25506791E-11
   6.38999987      -7.02443867E-11
   6.44999981      -9.04599590E-11
   6.51000023      -1.14619536E-10
   6.57000017      -1.43716011E-10
   6.63000011      -1.78122517E-10
   6.69000006      -2.17533380E-10
   6.75000000      -2.61010491E-10
   6.80999994      -3.07086467E-10
   6.86999989      -3.53889584E-10
   6.92999983      -3.99289657E-10
   6.98999977      -4.41093939E-10
   7.05000019      -4.77319906E-10
   7.11000013      -5.06529318E-10
   7.17000008      -5.28146471E-10
   7.23000002      -5.42639100E-10
   7.28999996      -5.51449331E-10
   7.34999990      -5.56635515E-10
   7.40999985      -5.60301250E-10
   7.46999979      -5.63987024E-10
   7.53000021      -5.68235015E-10
   7.59000015      -5.72480785E-10
   7.65000010      -5.75293813E-10
   7.71000004      -5.74848169E-10
   7.76999998      -5.69418679E-10
   7.82999992      -5.57709545E-10
   7.88999987      -5.38925848E-10
   7.94999981      -5.12634102E-10
   8.01000023      -4.78560913E-10
   8.06999969      -4.36487818E-10
   8.13000011      -3.86324750E-10
   8.18999958      -3.28322536E-10
   8.25000000      -2.63287087E-10
   8.31000042      -1.92640737E-10
   8.36999989      -1.18243013E-10
   8.43000031      -4.19985643E-11
   8.48999977       3.46160704E-11
   8.55000019       1.10938196E-10
   8.60999966       1.87286853E-10
   8.67000008       2.64874511E-10
   8.72999954       3.45517337E-10
   8.78999996       4.31253228E-10
   8.85000038       5.23976140E-10
   8.90999985       6.25154151E-10
   8.97000027       7.35651318E-10
   9.02999973       8.55642501E-10
   9.09000015       9.84608062E-10
   9.14999962       1.12140663E-09
   9.21000004       1.26443156E-09
   9.27000046       1.41185086E-09
   9.32999992       1.56190172E-09
   9.39000034       1.71319303E-09
   9.44999981       1.86494709E-09
   9.51000023       2.01712469E-09
   9.56999969       2.17038609E-09
   9.63000011       2.32587172E-09
   9.68999958       2.48479592E-09
   9.75000000       2.64789168E-09
   9.81000042       2.81477885E-09
   9.86999989       2.98339020E-09
   9.93000031       3.14964321E-09
   9.98999977       3.30754824E-09
   10.0500002       3.44987461E-09
   10.1099997       3.56933993E-09
   10.1700001       3.66007646E-09
   10.2299995       3.71896625E-09
   10.2900000       3.74639164E-09
   10.3500004       3.74608522E-09
   10.4099998       3.72407127E-09
   10.4700003       3.68702313E-09
   10.5299997       3.64061536E-09
   10.5900002       3.58844732E-09
   10.6499996       3.53187746E-09
   10.7100000       3.47069640E-09
   10.7700005       3.40421158E-09
   10.8299999       3.33214811E-09
   10.8900003       3.25493588E-09
   10.9499998       3.17329785E-09
   11.0100002       3.08746495E-09
   11.0699997       2.99653480E-09
   11.1300001       2.89839552E-09
   11.1899996       2.79029333E-09
   11.2500000       2.66973821E-09
   11.3100004       2.53522492E-09
   11.3699999       2.38634690E-09
   11.4300003       2.22321894E-09
   11.4899998       2.04552575E-09
   11.5500002       1.85173232E-09
   11.6099997       1.63892688E-09
   11.6700001       1.40343259E-09
   11.7299995       1.14194065E-09
   11.7900000       8.52668491E-10
   11.8500004       5.36063638E-10
   11.9099998       1.94817329E-10
   11.9700003      -1.66730935E-10
   12.0299997      -5.43488976E-10
   12.0900002      -9.30451938E-10
   12.1499996      -1.32323907E-09
   12.2100000      -1.71824788E-09
   12.2700005      -2.11248241E-09
   12.3299999      -2.50318011E-09
   12.3900003      -2.88738167E-09
   12.4499998      -3.26158944E-09
   12.5100002      -3.62165942E-09
   12.5699997      -3.96301036E-09
   12.6300001      -4.28112745E-09
   12.6899996      -4.57217464E-09
   12.7500000      -4.83342344E-09
   12.8100004      -5.06322806E-09
   12.8699999      -5.26046806E-09
   12.9300003      -5.42368772E-09
   12.9899998      -5.55034818E-09
   13.0500002      -5.63667779E-09
   13.1099997      -5.67833114E-09
   13.1700001      -5.67173286E-09
   13.2299995      -5.61563285E-09
   13.2900000      -5.51227997E-09
   13.3500004      -5.36777334E-09
   13.4099998      -5.19144949E-09
   13.4700003      -4.99451858E-09
   13.5299997      -4.78835327E-09
   13.5900002      -4.58288429E-09
   13.6499996      -4.38544445E-09
   13.7100000      -4.20025525E-09
   13.7700005      -4.02857481E-09
   13.8299999      -3.86938748E-09
   13.8900003      -3.72037112E-09
   13.9499998      -3.57880592E-09
   14.0100002      -3.44212037E-09
   14.0699997      -3.30795413E-09
   14.1300001      -3.17388893E-09
   14.1899996      -3.03724423E-09
   14.2500000      -2.89534108E-09
   14.3100004      -2.74639844E-09
   14.3699999      -2.59079380E-09
   14.4300003      -2.43205411E-09
   14.4899998      -2.27688668E-09
   14.5500002      -2.13390439E-09
   14.6099997      -2.01129424E-09
   14.6700001      -1.91422012E-09
   14.7299995      -1.84293292E-09
   14.7900000      -1.79229243E-09
   14.8500004      -1.75280179E-09
   14.9099998      -1.71267067E-09
   14.9700003      -1.66011049E-09
   15.0299997      -1.58514402E-09
   15.0900002      -1.48056534E-09
   15.1499996      -1.34208222E-09
   15.2100000      -1.16792509E-09
   15.2700005      -9.58258584E-10
   15.3299999      -7.14658221E-10
   15.3900003      -4.39816211E-10
   15.4499998      -1.37547071E-10
   15.5100002       1.86928972E-10
   15.5699997       5.26594379E-10
   15.6300001       8.72438233E-10
   15.6899996       1.21379395E-09
   15.7500000       1.53937085E-09
   15.8100004       1.83879700E-09
   15.8699999       2.10412998E-09
   15.9300003       2.33067809E-09
   15.9899998       2.51671550E-09
   16.0499992       2.66219691E-09
   16.1100006       2.76710965E-09
   16.1700001       2.83031554E-09
   16.2299995       2.84951218E-09
   16.2900009       2.82237456E-09
   16.3500004       2.74835266E-09
   16.4099998       2.63028976E-09
   16.4699993       2.47513210E-09
   16.5300007       2.29341524E-09
   16.5900002       2.09767359E-09
   16.6499996       1.90027372E-09
   16.7099991       1.71128678E-09
   16.7700005       1.53698254E-09
   16.8299999       1.37938927E-09
   16.8899994       1.23712973E-09
   16.9500008       1.10738241E-09
   17.0100002       9.88365834E-10
   17.0699997       8.81383522E-10
   17.1299992       7.91448906E-10
   17.1900005       7.25998706E-10
   17.2500000       6.92085944E-10
   17.3099995       6.93290980E-10
   17.3700008       7.27911897E-10
   17.4300003       7.89488364E-10
   17.4899998       8.69575356E-10
   17.5499992       9.61491109E-10
   17.6100006       1.06320452E-09
   17.6700001       1.17793997E-09
   17.7299995       1.31225364E-09
   17.7900009       1.47260937E-09
   17.8500004       1.66215386E-09
   17.9099998       1.87912330E-09
   17.9699993       2.11735585E-09
   18.0300007       2.36833153E-09
   18.0900002       2.62359290E-09
   18.1499996       2.87654345E-09
   18.2099991       3.12320259E-09
   18.2700005       3.36209083E-09
   18.3299999       3.59366736E-09
   18.3899994       3.81963172E-09
   18.4500008       4.04218170E-09
   18.5100002       4.26322666E-09
   18.5699997       4.48367654E-09
   18.6299992       4.70306416E-09
   18.6900005       4.91971308E-09
   18.7500000       5.13137621E-09
   18.8099995       5.33594768E-09
   18.8700008       5.53172264E-09
   18.9300003       5.71697445E-09
   18.9899998       5.88908033E-09
   19.0499992       6.04383876E-09
   19.1100006       6.17558760E-09
   19.1700001       6.27830676E-09
   19.2299995       6.34732267E-09
   19.2900009       6.38091935E-09
   19.3500004       6.38124265E-09
   19.4099998       6.35433839E-09
   19.4699993       6.30953823E-09
   19.5300007       6.25854257E-09
   19.5900002       6.21437657E-09
   19.6499996       6.19018259E-09
   19.7099991       6.19780716E-09
   19.7700005       6.24641272E-09
   19.8299999       6.34161346E-09
   19.8899994       6.48561604E-09
   19.9500008       6.67837785E-09
   20.0100002       6.91915547E-09
   20.0699997       7.20746529E-09
   20.1299992       7.54273177E-09
   20.1900005       7.92273802E-09
   20.2500000       8.34183300E-09
   20.3099995       8.79015349E-09
   20.3700008       9.25457755E-09
   20.4300003       9.72107372E-09
   20.4899998       1.01771835E-08
   20.5499992       1.06132996E-08
   20.6100006       1.10221325E-08
   20.6700001       1.13969110E-08
   20.7299995       1.17296191E-08
   20.7900009       1.20104735E-08
   20.8500004       1.22289752E-08
   20.9099998       1.23758790E-08
   20.9699993       1.24449340E-08
   21.0300007       1.24335955E-08
   21.0900002       1.23426567E-08
   21.1499996       1.21754145E-08
   21.2099991       1.19370416E-08
   21.2700005       1.16343601E-08
   21.3299999       1.12756977E-08
   21.3899994       1.08703881E-08
   21.4500008       1.04278826E-08
   21.5100002       9.95696503E-09
   21.5699997       9.46575884E-09
   21.6299992       8.96272301E-09
   21.6900005       8.45805470E-09
   21.7500000       7.96440958E-09
   21.8099995       7.49603490E-09
   21.8700008       7.06639280E-09
   21.9300003       6.68535094E-09
   21.9899998       6.35743369E-09
   22.0499992       6.08206463E-09
   22.1100006       5.85553250E-09
   22.1700001       5.67336222E-09
   22.2299995       5.53162183E-09
   22.2900009       5.42646594E-09
   22.3500004       5.35245048E-09
   22.4099998       5.30094857E-09
   22.4699993       5.25990274E-09
   22.5300007       5.21523580E-09
   22.5900002       5.15325249E-09
   22.6499996       5.06289854E-09
   22.7099991       4.93707430E-09
   22.7700005       4.77294737E-09
   22.8299999       4.57174698E-09
   22.8899994       4.33847358E-09
   22.9500008       4.08145251E-09
   23.0100002       3.81123977E-09
   23.0699997       3.53850260E-09
   23.1299992       3.27119576E-09
   23.1900005       3.01210434E-09
   23.2500000       2.75801382E-09
   23.3099995       2.50111931E-09
   23.3700008       2.23211138E-09
   23.4300003       1.94340388E-09
   23.4899998       1.63085223E-09
   23.5499992       1.29316868E-09
   23.6100006       9.29541000E-10
   23.6700001       5.36928335E-10
   23.7299995       1.08604958E-10
   23.7900009      -3.65235647E-10
   23.8500004      -8.95089780E-10
   23.9099998      -1.48901214E-09
   23.9699993      -2.14990981E-09
   24.0300007      -2.87400614E-09
   24.0900002      -3.65065000E-09
   24.1499996      -4.46325865E-09
   24.2099991      -5.29106448E-09
   24.2700005      -6.11136697E-09
   24.3299999      -6.90194657E-09
   24.3899994      -7.64322206E-09
   24.4500008      -8.31975555E-09
   24.5100002      -8.92091823E-09
   24.5699997      -9.44090850E-09
   24.6299992      -9.87858950E-09
   24.6900005      -1.02375264E-08
   24.7500000      -1.05262359E-08
   24.8099995      -1.07581641E-08
   24.8700008      -1.09507967E-08
   24.9300003      -1.11236282E-08
   24.9899998      -1.12954259E-08
   25.0499992      -1.14816805E-08
   25.1100006      -1.16931451E-08
   25.1700001      -1.19357368E-08
   25.2299995      -1.22113075E-08
   25.2900009      -1.25183881E-08
   25.3500004      -1.28522712E-08
   25.4099998      -1.32045344E-08
   25.4699993      -1.35627163E-08
   25.5300007      -1.39109657E-08
   25.5900002      -1.42318468E-08
   25.6499996      -1.45086574E-08
   25.7099991      -1.47271360E-08
   25.7700005      -1.48757469E-08
   25.8299999      -1.49446251E-08
   25.8899994      -1.49241863E-08
   25.9500008      -1.48047334E-08
   26.0100002      -1.45778447E-08
   26.0699997      -1.42392889E-08
   26.1299992      -1.37922900E-08
   26.1900005      -1.32497098E-08
   26.2500000      -1.26342110E-08
   26.3099995      -1.19763337E-08
   26.3700008      -1.13111636E-08
   26.4300003      -1.06745270E-08
   26.4899998      -1.00994431E-08
   26.5499992      -9.61326929E-09
   26.6100006      -9.23569043E-09
   26.6700001      -8.97773322E-09
   26.7299995      -8.84192008E-09
   26.7900009      -8.82351614E-09
   26.8500004      -8.91250451E-09
   26.9099998      -9.09564069E-09
   26.9699993      -9.35794553E-09
   27.0300007      -9.68334657E-09
   27.0900002      -1.00546780E-08
   27.1499996      -1.04536086E-08
   27.2099991      -1.08610081E-08
   27.2700005      -1.12579635E-08
   27.3299999      -1.16271952E-08
   27.3899994      -1.19544596E-08
   27.4500008      -1.22295472E-08
   27.5100002      -1.24467361E-08
   27.5699997      -1.26046604E-08
   27.6299992      -1.27055593E-08
   27.6900005      -1.27538957E-08
   27.7500000      -1.27544340E-08
   27.8099995      -1.27102808E-08
   27.8700008      -1.26216824E-08
   27.9300003      -1.24863524E-08
   27.9899998      -1.23015402E-08
   28.0499992      -1.20671029E-08
   28.1100006      -1.17881260E-08
   28.1700001      -1.14755832E-08
   28.2299995      -1.11443841E-08
   28.2900009      -1.08094227E-08
   28.3500004      -1.04812710E-08
   28.4099998      -1.01633599E-08
   28.4699993      -9.85170967E-09
   28.5300007      -9.53706980E-09
   28.5900002      -9.20836474E-09
   28.6499996      -8.85610962E-09
   28.7099991      -8.47488835E-09
   28.7700005      -8.06461298E-09
   28.8299999      -7.63067387E-09
   28.8899994      -7.18305015E-09
   28.9500008      -6.73432909E-09
   29.0100002      -6.29672803E-09
   29.0699997      -5.87871751E-09
   29.1299992      -5.48243895E-09
   29.1900005      -5.10317699E-09
   29.2500000      -4.73142769E-09
   29.3099995      -4.35686420E-09
   29.3700008      -3.97240241E-09
   29.4300003      -3.57642493E-09
   29.4899998      -3.17216320E-09
   29.5499992      -2.76479128E-09
   29.6100006      -2.35798470E-09
   29.6700001      -1.95184358E-09
   29.7299995      -1.54312296E-09
   29.7900009      -1.12733600E-09
   29.8500004      -7.01384006E-10
   29.9099998      -2.65412914E-10
   29.9699993       1.76602011E-10
   30.0300007       6.17199236E-10
   30.0900002       1.04607778E-09
   30.1499996       1.45081946E-09
   30.2099991       1.81799964E-09
   30.2700005       2.13511631E-09
   30.3299999       2.39318432E-09
   30.3899994       2.58903254E-09
   30.4500008       2.72599010E-09
   30.5100002       2.81224977E-09
   30.5699997       2.85748558E-09
   30.6299992       2.86944268E-09
   30.6900005       2.85235546E-09
   30.7500000       2.80797940E-09
   30.8099995       2.73835910E-09
   30.8700008       2.64832956E-09
   30.9300003       2.54593591E-09
   30.9899998       2.44033060E-09
   31.0499992       2.33837572E-09
   31.1100006       2.24198837E-09
   31.1700001       2.14774287E-09
   31.2299995       2.04876893E-09
   31.2900009       1.93764427E-09
   31.3500004       1.80864068E-09
   31.4099998       1.65845770E-09
   31.4699993       1.48577417E-09
   31.5300007       1.29063271E-09
   31.5900002       1.07438380E-09
   31.6499996       8.40031433E-10
   31.7099991       5.92174143E-10
   31.7700005       3.35943634E-10
   31.8299999       7.52869503E-11
   31.8899994      -1.88199192E-10
   31.9500008      -4.54693116E-10
   32.0099983      -7.23721305E-10
   32.0699997      -9.91183025E-10
   32.1300011      -1.24780175E-09
   32.1899986      -1.48028589E-09
   32.2500000      -1.67479708E-09
   32.3100014      -1.82080595E-09
   32.3699989      -1.91318450E-09
   32.4300003      -1.95164707E-09
   32.4900017      -1.93853378E-09
   32.5499992      -1.87702787E-09
   32.6100006      -1.77139514E-09
   32.6699982      -1.62903457E-09
   32.7299995      -1.46239998E-09
   32.7900009      -1.28854827E-09
   32.8499985      -1.12552911E-09
   32.9099998      -9.87105286E-10
   32.9700012      -8.78743633E-10
   33.0299988      -7.97313382E-10
   33.0900002      -7.34712957E-10
   33.1500015      -6.83168855E-10
   33.2099991      -6.38925413E-10
   33.2700005      -6.02164651E-10
   33.3300018      -5.73502357E-10
   33.3899994      -5.49583989E-10
   33.4500008      -5.20725962E-10
   33.5099983      -4.72031636E-10
   33.5699997      -3.87126498E-10
   33.6300011      -2.52219273E-10
   33.6899986      -5.84704299E-11
   33.7500000       1.97771549E-10
   33.8100014       5.15761378E-10
   33.8699989       8.90762186E-10
   33.9300003       1.31366318E-09
   33.9900017       1.77078863E-09
   34.0499992       2.24532393E-09
   34.1100006       2.72078871E-09
   34.1699982       3.18524718E-09
   34.2299995       3.63385677E-09
   34.2900009       4.06794731E-09
   34.3499985       4.49088100E-09
   34.4099998       4.90310459E-09
   34.4700012       5.29948929E-09
   34.5299988       5.67068348E-09
   34.5900002       6.00764638E-09
   34.6500015       6.30644825E-09
   34.7099991       6.57030963E-09
   34.7700005       6.80768020E-09
   34.8300018       7.02766201E-09
   34.8899994       7.23557525E-09
   34.9500008       7.43097939E-09
   35.0099983       7.60857510E-09
   35.0699997       7.76053177E-09
   35.1300011       7.87831489E-09
   35.1899986       7.95312083E-09
   35.2500000       7.97567878E-09
   35.3100014       7.93694444E-09
   35.3699989       7.83047405E-09
   35.4300003       7.65559793E-09
   35.4900017       7.41927852E-09
   35.5499992       7.13483850E-09
   35.6100006       6.81757450E-09
   35.6699982       6.47932419E-09
   35.7299995       6.12493611E-09
   35.7900009       5.75249803E-09
   35.8499985       5.35690692E-09
   35.9099998       4.93433472E-09
   35.9700012       4.48482806E-09
   36.0299988       4.01172429E-09
   36.0900002       3.51878082E-09
   36.1500015       3.00731307E-09
   36.2099991       2.47535570E-09
   36.2700005       1.91924499E-09
   36.3300018       1.33631162E-09
   36.3899994       7.26807392E-10
   36.4500008       9.40005782E-11
   36.5099983      -5.57131841E-10
   36.5699997      -1.22124133E-09
   36.6300011      -1.89283011E-09
   36.6899986      -2.56535038E-09
   36.7500000      -3.23023541E-09
   36.8100014      -3.87703381E-09
   36.8699989      -4.49493553E-09
   36.9300003      -5.07482101E-09
   36.9900017      -5.61048541E-09
   37.0499992      -6.09827122E-09
   37.1100006      -6.53554899E-09
   37.1699982      -6.91933577E-09
   37.2299995      -7.24619031E-09
   37.2900009      -7.51346096E-09
   37.3499985      -7.72083730E-09
   37.4099998      -7.87085952E-09
   37.4700012      -7.96782906E-09
   37.5299988      -8.01582090E-09
   37.5900002      -8.01730859E-09
   37.6500015      -7.97349564E-09
   37.7099991      -7.88623211E-09
   37.7700005      -7.76009301E-09
   37.8300018      -7.60290586E-09
   37.8899994      -7.42396233E-09
   37.9500008      -7.23066096E-09
   38.0099983      -7.02545710E-09
   38.0699997      -6.80488821E-09
   38.1300011      -6.56125021E-09
   38.1899986      -6.28603924E-09
   38.2500000      -5.97341865E-09
   38.3100014      -5.62224889E-09
   38.3699989      -5.23619326E-09
   38.4300003      -4.82240470E-09
   38.4900017      -4.38965264E-09
   38.5499992      -3.94648181E-09
   38.6100006      -3.49951956E-09
   38.6699982      -3.05195424E-09
   38.7299995      -2.60249955E-09
   38.7900009      -2.14556306E-09
   38.8499985      -1.67323000E-09
   38.9099998      -1.17892673E-09
   38.9700012      -6.61550981E-10
   39.0299988      -1.28213384E-10
   39.0900002       4.05972839E-10
   39.1500015       9.21370924E-10
   39.2099991       1.39934608E-09
   39.2700005       1.82760851E-09
   39.3300018       2.20320451E-09
   39.3899994       2.53202725E-09
   39.4500008       2.82514745E-09
   39.5099983       3.09341597E-09
   39.5699997       3.34225980E-09
   39.6300011       3.56836805E-09
   39.6899986       3.75932485E-09
   39.7500000       3.89640764E-09
   39.8100014       3.95988353E-09
   39.8699989       3.93531607E-09
   39.9300003       3.81884258E-09
   39.9900017       3.61943986E-09
   40.0499992       3.35707195E-09
   40.1100006       3.05714076E-09
   40.1699982       2.74323919E-09
   40.2299995       2.43103893E-09
   40.2900009       2.12567719E-09
   40.3499985       1.82343218E-09
   40.4099998       1.51652668E-09
   40.4700012       1.19862398E-09
   40.5299988       8.68577210E-10
   40.5900002       5.31164224E-10
   40.6500015       1.95119268E-10
   40.7099991      -1.30124314E-10
   40.7700005      -4.37411135E-10
   40.8300018      -7.23609395E-10
   40.8899994      -9.89967330E-10
   40.9500008      -1.24137045E-09
   41.0099983      -1.48476464E-09
   41.0699997      -1.72686032E-09
   41.1300011      -1.97132843E-09
   41.1899986      -2.21615348E-09
   41.2500000      -2.45226417E-09
   41.3100014      -2.66451083E-09
   41.3699989      -2.83526003E-09
   41.4300003      -2.94963054E-09
   41.4900017      -3.00038749E-09
   41.5499992      -2.99043479E-09
   41.6100006      -2.93182012E-09
   41.6699982      -2.84172885E-09
   41.7299995      -2.73721090E-09
   41.7900009      -2.63073519E-09
   41.8499985      -2.52800492E-09
   41.9099998      -2.42830711E-09
   41.9700012      -2.32669528E-09
   42.0299988      -2.21697039E-09
   42.0900002      -2.09459894E-09
   42.1500015      -1.95904648E-09
   42.2099991      -1.81512072E-09
   42.2700005      -1.67285263E-09
   42.3300018      -1.54552482E-09
   42.3899994      -1.44596213E-09
   42.4500008      -1.38209200E-09
   42.5099983      -1.35350975E-09
   42.5699997      -1.35075540E-09
   42.6300011      -1.35797373E-09
   42.6899986      -1.35799627E-09
   42.7500000      -1.33759426E-09
   42.8100014      -1.29049005E-09
   42.8699989      -1.21690347E-09
   42.9300003      -1.12026910E-09
   42.9900017      -1.00320852E-09
   43.0499992      -8.65021110E-10
   43.1100006      -7.01815661E-10
   43.1699982      -5.08737663E-10
   43.2299995      -2.82619539E-10
   43.2900009      -2.34633788E-11
   43.3499985       2.65730937E-10
   43.4099998       5.80038573E-10
   43.4700012       9.13342513E-10
   43.5299988       1.25806832E-09
   43.5900002       1.60440128E-09
   43.6500015       1.94023508E-09
   43.7099991       2.25283592E-09
   43.7700005       2.53202104E-09
   43.8300018       2.77338263E-09
   43.8899994       2.97966807E-09
   43.9500008       3.15927795E-09
   44.0099983       3.32245476E-09
   44.0699997       3.47710261E-09
   44.1300011       3.62638186E-09
   44.1899986       3.76916143E-09
   44.2500000       3.90275590E-09
   44.3100014       4.02618783E-09
   44.3699989       4.14219015E-09
   44.4300003       4.25714308E-09
   44.4900017       4.37941905E-09
   44.5499992       4.51728566E-09
   44.6100006       4.67731676E-09
   44.6699982       4.86352691E-09
   44.7299995       5.07685627E-09
   44.7900009       5.31466915E-09
   44.8499985       5.57043434E-09
   44.9099998       5.83416560E-09
   44.9700012       6.09402306E-09
   45.0299988       6.33872022E-09
   45.0900002       6.55961463E-09
   45.1500015       6.75129863E-09
   45.2099991       6.91033941E-09
   45.2700005       7.03309277E-09
   45.3300018       7.11429538E-09
   45.3899994       7.14776860E-09
   45.4500008       7.12917014E-09
   45.5099983       7.05916525E-09
   45.5699997       6.94479496E-09
   45.6300011       6.79765488E-09
   45.6899986       6.62935085E-09
   45.7500000       6.44640696E-09
   45.8100014       6.24726093E-09
   45.8699989       6.02291506E-09
   45.9300003       5.76089576E-09
   45.9900017       5.45054712E-09
   46.0499992       5.08728526E-09
   46.1100006       4.67428407E-09
   46.1699982       4.22145341E-09
   46.2299995       3.74264930E-09
   46.2900009       3.25229554E-09
   46.3499985       2.76229284E-09
   46.4099998       2.27968178E-09
   46.4700012       1.80546422E-09
   46.5299988       1.33509892E-09
   46.5900002       8.61009819E-10
   46.6500015       3.76698311E-10
   46.7099991      -1.18997159E-10
   46.7700005      -6.19560570E-10
   46.8300018      -1.11194509E-09
   46.8899994      -1.58116176E-09
   46.9500008      -2.01634820E-09
   47.0099983      -2.41532683E-09
   47.0699997      -2.78526446E-09
   47.1300011      -3.13903081E-09
   47.1899986      -3.48909102E-09
   47.2500000      -3.84192367E-09
   47.3100014      -4.19542845E-09
   47.3699989      -4.54000837E-09
   47.4300003      -4.86216178E-09
   47.4900017      -5.14857224E-09
   47.5499992      -5.38915934E-09
   47.6100006      -5.57866642E-09
   47.6699982      -5.71724712E-09
   47.7299995      -5.81055248E-09
   47.7900009      -5.86925086E-09
   47.8499985      -5.90748161E-09
   47.9099998      -5.93998806E-09
   47.9700012      -5.97858918E-09
   48.0299988      -6.02947114E-09
   48.0900002      -6.09277251E-09
   48.1500015      -6.16488949E-09
   48.2099991      -6.24243901E-09
   48.2700005      -6.32587671E-09
   48.3300018      -6.42099129E-09
   48.3899994      -6.53778631E-09
   48.4500008      -6.68767308E-09
   48.5099983      -6.88056634E-09
   48.5699997      -7.12303549E-09
   48.6300011      -7.41764161E-09
   48.6899986      -7.76283127E-09
   48.7500000      -8.15280288E-09
   48.8100014      -8.57750937E-09
   48.8699989      -9.02352415E-09
   48.9300003      -9.47631662E-09
   48.9900017      -9.92352689E-09
   49.0499992      -1.03577253E-08
   49.1100006      -1.07770095E-08
   49.1699982      -1.11827418E-08
   49.2299995      -1.15754730E-08
   49.2900009      -1.19512968E-08
   49.3499985      -1.23008022E-08
   49.4099998      -1.26112942E-08
   49.4700012      -1.28710811E-08
   49.5299988      -1.30734543E-08
   49.5900002      -1.32183962E-08
   49.6500015      -1.33114808E-08
   49.7099991      -1.33610190E-08
   49.7700005      -1.33751206E-08
   49.8300018      -1.33598297E-08
   49.8899994      -1.33183713E-08
   49.9500008      -1.32508990E-08
   50.0099983      -1.31542537E-08
   50.0699997      -1.30220359E-08
   50.1300011      -1.28457556E-08
   50.1899986      -1.26175008E-08
   50.2500000      -1.23334800E-08
   50.3100014      -1.19968133E-08
   50.3699989      -1.16179839E-08
   50.4300003      -1.12124487E-08
   50.4900017      -1.07965574E-08
   50.5499992      -1.03837996E-08
   50.6100006      -9.98303307E-09