  -2.400000      0.0000000E+00
  -2.340000      0.0000000E+00
  -2.280000      0.0000000E+00
  -2.220000      0.0000000E+00
  -2.160000      0.0000000E+00
  -2.100000      2.4289121E-21
  -2.040000      1.7964857E-20
  -1.980000      6.6250343E-20
  -1.920000      1.5576632E-19
  -1.860000      2.3834405E-19
  -1.800000      1.6510303E-19
  -1.740000     -2.9960521E-19
  -1.680000     -1.3538810E-18
  -1.620000     -2.9327866E-18
  -1.560000     -4.5046176E-18
  -1.500000     -5.1205201E-18
  -1.440000     -3.9264403E-18
  -1.380000     -1.0495895E-18
  -1.320000      1.7903150E-18
  -1.260000      2.0580800E-18
  -1.200000     -6.4213855E-19
  -1.140000     -2.8031915E-19
  -1.080000      1.7845469E-17
  -1.020000      7.2310065E-17
 -0.9600000      1.7041293E-16
 -0.9000000      2.8562970E-16
 -0.8400000      3.3952516E-16
 -0.7800000      2.0628254E-16
 -0.7200000     -2.4455543E-16
 -0.6600000     -1.0661671E-15
 -0.6000000     -2.1359668E-15
 -0.5400000     -3.0862594E-15
 -0.4800000     -3.3198671E-15
 -0.4200000     -2.1533930E-15
 -0.3600000      9.0929400E-16
 -0.3000000      5.8315089E-15
 -0.2400000      1.1747791E-14
 -0.1800000      1.6876957E-14
 -0.1200000      1.8783725E-14
 -5.9999999E-02  1.5031675E-14
  0.0000000E+00  4.1102566E-15
  5.9999999E-02 -1.3646734E-14
  0.1200000     -3.5517098E-14
  0.1800000     -5.6517135E-14
  0.2400000     -7.0274075E-14
  0.3000000     -7.0440059E-14
  0.3600000     -5.2259436E-14
  0.4200000     -1.3921230E-14
  0.4800000      4.2473132E-14
  0.5400000      1.1029282E-13
  0.6000000      1.7808022E-13
  0.6600000      2.2982704E-13
  0.7200000      2.4646219E-13
  0.7800000      2.0929287E-13
  0.8400000      1.0562493E-13
  0.9000000     -6.4345488E-14
  0.9600000     -2.8157012E-13
   1.020000     -5.0602898E-13
   1.080000     -6.8089225E-13
   1.140000     -7.4368040E-13
   1.200000     -6.4273755E-13
   1.260000     -3.5516981E-13
   1.320000      9.8751838E-14
   1.380000      6.4958135E-13
   1.440000      1.1846410E-12
   1.500000      1.5672803E-12
   1.560000      1.6677969E-12
   1.620000      1.4006166E-12
   1.680000      7.5843346E-13
   1.740000     -1.6845845E-13
   1.800000     -1.1983755E-12
   1.860000     -2.0946428E-12
   1.920000     -2.6264312E-12
   1.980000     -2.6371264E-12
   2.040000     -2.0967908E-12
   2.100000     -1.1178420E-12
   2.160000      7.4687130E-14
   2.220000      1.2094838E-12
   2.280000      2.0482971E-12
   2.340000      2.4498799E-12
   2.400000      2.3977244E-12
   2.460000      1.9868087E-12
   2.520000      1.3806807E-12
   2.580000      7.5849819E-13
   2.640000      2.6923131E-13
   2.700000      6.7288811E-16
   2.760000     -3.8413950E-14
   2.820000      7.2527792E-14
   2.880000      1.6568077E-13
   2.940000      1.8386587E-15
   3.000000     -6.8347969E-13
   3.060000     -2.0975821E-12
   3.120000     -4.2775540E-12
   3.180000     -6.9678226E-12
   3.240000     -9.5210645E-12
   3.300000     -1.0858012E-11
   3.360000     -9.5148178E-12
   3.420000     -3.7919004E-12
   3.480000      8.0022135E-12
   3.540000      2.7242136E-11
   3.600000      5.4665158E-11
   3.660000      9.0108615E-11
   3.720000      1.3237565E-10
   3.780000      1.7927920E-10
   3.840000      2.2787196E-10
   3.900000      2.7481861E-10
   3.960000      3.1682287E-10
   4.020000      3.5100767E-10
   4.080000      3.7516534E-10
   4.140000      3.8784501E-10
   4.200000      3.8829878E-10
   4.260000      3.7634951E-10
   4.320000      3.5224970E-10
   4.380000      3.1657932E-10
   4.440000      2.7018907E-10
   4.500000      2.1416180E-10
   4.560000      1.4974970E-10
   4.620000      7.8257859E-11
   4.680000      8.7476689E-13
   4.740000     -8.1513164E-11
   4.800000     -1.6846383E-10
   4.860000     -2.6001831E-10
   4.920000     -3.5660261E-10
   4.980000     -4.5880219E-10
   5.040000     -5.6706867E-10
   5.100000     -6.8144657E-10
   5.160000     -8.0140994E-10
   5.220000     -9.2585739E-10
   5.280000     -1.0532544E-09
   5.340000     -1.1818541E-09
   5.400000     -1.3099035E-09
   5.460000     -1.4357652E-09
   5.520000     -1.5579424E-09
   5.580000     -1.6750635E-09
   5.640000     -1.7859045E-09
   5.700000     -1.8895061E-09
   5.760000     -1.9853723E-09
   5.820000     -2.0736641E-09
   5.880000     -2.1552657E-09
   5.940000     -2.2316449E-09
   6.000000     -2.3045048E-09
   6.060000     -2.3753333E-09
   6.120000     -2.4450035E-09
   6.180000     -2.5135662E-09
   6.240000     -2.5802980E-09
   6.300000     -2.6439686E-09
   6.360000     -2.7032097E-09
   6.420000     -2.7568550E-09
   6.480000     -2.8041443E-09
   6.540000     -2.8447535E-09
   6.600000     -2.8786691E-09
   6.660000     -2.9059641E-09
   6.720000     -2.9265539E-09
   6.780000     -2.9399980E-09
   6.840000     -2.9454081E-09
   6.900000     -2.9414964E-09
   6.960000     -2.9267606E-09
   7.020000     -2.8997651E-09
   7.080000     -2.8594425E-09
   7.140000     -2.8053291E-09
   7.200000     -2.7376812E-09
   7.260000     -2.6574545E-09
   7.320000     -2.5661822E-09
   7.380000     -2.4658040E-09
   7.440000     -2.3584765E-09
   7.500000     -2.2463733E-09
   7.560000     -2.1314532E-09
   7.620000     -2.0152053E-09
   7.680000     -1.8984154E-09
   7.740000     -1.7810564E-09
   7.800000     -1.6624029E-09
   7.860000     -1.5414134E-09
   7.920000     -1.4173059E-09
   7.980000     -1.2901443E-09
   8.040000     -1.1612101E-09
   8.100000     -1.0329780E-09
   8.160000     -9.0866586E-10
   8.220000     -7.9148577E-10
   8.280000     -6.8384404E-10
   8.340000     -5.8674432E-10
   8.400000     -4.9955640E-10
   8.460000     -4.2016177E-10
   8.520000     -3.4536171E-10
   8.580000     -2.7138153E-10
   8.640000     -1.9434040E-10
   8.700000     -1.1063856E-10
   8.760000     -1.7280836E-11
   8.820000      8.7830868E-11
   8.880000      2.0564653E-10
   8.940000      3.3582431E-10
   9.000000      4.7677734E-10
   9.060000      6.2594624E-10
   9.120000      7.8024315E-10
   9.180000      9.3653185E-10
   9.240000      1.0919947E-09
   9.300000      1.2442969E-09
   9.360000      1.3915712E-09
   9.420000      1.5323263E-09
   9.480000      1.6654034E-09
   9.540000      1.7900408E-09
   9.600000      1.9060125E-09
   9.660000      2.0137456E-09
   9.720000      2.1143234E-09
   9.780000      2.2093416E-09
   9.840000      2.3006501E-09
   9.900000      2.3900419E-09
   9.960000      2.4789202E-09
   10.02000      2.5679514E-09
   10.08000      2.6567217E-09
   10.14000      2.7434715E-09
   10.20000      2.8250660E-09
   10.26000      2.8973672E-09
   10.32000      2.9560541E-09
   10.38000      2.9977265E-09
   10.44000      3.0209448E-09
   10.50000      3.0267913E-09
   10.56000      3.0187108E-09
   10.62000      3.0016847E-09
   10.68000      2.9810840E-09
   10.74000      2.9616707E-09
   10.80000      2.9470608E-09
   10.86000      2.9396832E-09
   10.92000      2.9409677E-09
   10.98000      2.9514238E-09
   11.04000      2.9704219E-09
   11.10000      2.9957830E-09
   11.16000      3.0235039E-09
   11.22000      3.0479668E-09
   11.28000      3.0627507E-09
   11.34000      3.0618614E-09
   11.40000      3.0409533E-09
   11.46000      2.9981242E-09
   11.52000      2.9340261E-09
   11.58000      2.8513258E-09
   11.64000      2.7537435E-09
   11.70000      2.6449865E-09
   11.76000      2.5278639E-09
   11.82000      2.4037967E-09
   11.88000      2.2728612E-09
   11.94000      2.1344053E-09
   12.00000      1.9881057E-09
   12.06000      1.8351247E-09
   12.12000      1.6788653E-09
   12.18000      1.5248621E-09
   12.24000      1.3796502E-09
   12.30000      1.2489364E-09
   12.36000      1.1358154E-09
   12.42000      1.0398582E-09
   12.48000      9.5754749E-10
   12.54000      8.8389152E-10
   12.60000      8.1443668E-10
   12.66000      7.4669654E-10
   12.72000      6.8033584E-10
   12.78000      6.1613031E-10
   12.84000      5.5438015E-10
   12.90000      4.9371296E-10
   12.96000      4.3094342E-10
   13.02000      3.6203776E-10
   13.08000      2.8364139E-10
   13.14000      1.9439507E-10
   13.20000      9.5474469E-11
   13.26000     -9.7416025E-12
   13.32000     -1.1655421E-10
   13.38000     -2.1992742E-10
   13.44000     -3.1528322E-10
   13.50000     -3.9908624E-10
   13.56000     -4.6934007E-10
   13.62000     -5.2603660E-10
   13.68000     -5.7139848E-10
   13.74000     -6.0963179E-10
   13.80000     -6.4602107E-10
   13.86000     -6.8551942E-10
   13.92000     -7.3132317E-10
   13.98000     -7.8403523E-10
   14.04000     -8.4180918E-10
   14.10000     -9.0142183E-10
   14.16000     -9.5979280E-10
   14.22000     -1.0152901E-09
   14.28000     -1.0683119E-09
   14.34000     -1.1210125E-09
   14.40000     -1.1764123E-09
   14.46000     -1.2373168E-09
   14.52000     -1.3054193E-09
   14.58000     -1.3807753E-09
   14.64000     -1.4616569E-09
   14.70000     -1.5447359E-09
   14.76000     -1.6255590E-09
   14.82000     -1.6993040E-09
   14.88000     -1.7617402E-09
   14.94000     -1.8101876E-09
   15.00000     -1.8441689E-09
   15.06000     -1.8654795E-09
   15.12000     -1.8776043E-09
   15.18000     -1.8846804E-09
   15.24000     -1.8904094E-09
   15.30000     -1.8973243E-09
   15.36000     -1.9066118E-09
   15.42000     -1.9184159E-09
   15.48000     -1.9323327E-09
   15.54000     -1.9477913E-09
   15.60000     -1.9641695E-09
   15.66000     -1.9806934E-09
   15.72000     -1.9962920E-09
   15.78000     -2.0095425E-09
   15.84000     -2.0187221E-09
   15.90000     -2.0218667E-09
   15.96000     -2.0167392E-09
   16.02000     -2.0007229E-09
   16.08000     -1.9707842E-09
   16.14000     -1.9237054E-09
   16.20000     -1.8566786E-09
   16.26000     -1.7681703E-09
   16.32000     -1.6587903E-09
   16.38000     -1.5318341E-09
   16.44000     -1.3932516E-09
   16.50000     -1.2509567E-09
   16.56000     -1.1135671E-09
   16.62000     -9.8880282E-10
   16.68000     -8.8187480E-10
   16.74000     -7.9428492E-10
   16.80000     -7.2348560E-10
   16.86000     -6.6374006E-10
   16.92000     -6.0819710E-10
   16.98000     -5.5169980E-10
   17.04000     -4.9337834E-10
   17.10000     -4.3792101E-10
   17.16000     -3.9477457E-10
   17.22000     -3.7533512E-10
   17.28000     -3.8910777E-10
   17.34000     -4.4035972E-10
   17.40000     -5.2663074E-10
   17.46000     -6.3963101E-10
   17.52000     -7.6796958E-10
   17.58000     -9.0039143E-10
   17.64000     -1.0281508E-09
   17.70000     -1.1457888E-09
   17.76000     -1.2504894E-09
   17.82000     -1.3408220E-09
   17.88000     -1.4157260E-09
   17.94000     -1.4741345E-09
   18.00000     -1.5150774E-09
   18.06000     -1.5378453E-09
   18.12000     -1.5419660E-09
   18.18000     -1.5271187E-09
   18.24000     -1.4933301E-09
   18.30000     -1.4416259E-09
   18.36000     -1.3748762E-09
   18.42000     -1.2982283E-09
   18.48000     -1.2185889E-09
   18.54000     -1.1431305E-09
   18.60000     -1.0774178E-09
   18.66000     -1.0240557E-09
   18.72000     -9.8248909E-10
   18.78000     -9.4991492E-10
   18.84000     -9.2264779E-10
   18.90000     -8.9712138E-10
   18.96000     -8.7011104E-10
   19.02000     -8.3839224E-10
   19.08000     -7.9845014E-10
   19.14000     -7.4673534E-10
   19.20000     -6.8045325E-10
   19.26000     -5.9839711E-10
   19.32000     -5.0126736E-10
   19.38000     -3.9131381E-10
   19.44000     -2.7165145E-10
   19.50000     -1.4580380E-10
   19.56000     -1.7720695E-11
   19.62000      1.0804163E-10
   19.68000      2.2662099E-10
   19.74000      3.3401804E-10
   19.80000      4.2878898E-10
   19.86000      5.1324106E-10
   19.92000      5.9307542E-10
   19.98000      6.7519990E-10
   20.04000      7.6459461E-10
   20.10000      8.6187379E-10
   20.16000      9.6296948E-10
   20.22000      1.0612060E-09
   20.28000      1.1506482E-09
   20.34000      1.2288810E-09
   20.40000      1.2977834E-09
   20.46000      1.3621363E-09
   20.52000      1.4271688E-09
   20.58000      1.4966171E-09
   20.64000      1.5722491E-09
   20.70000      1.6546523E-09
   20.76000      1.7442090E-09
   20.82000      1.8412292E-09
   20.88000      1.9450699E-09
   20.94000      2.0530591E-09
   21.00000      2.1603741E-09
   21.06000      2.2614297E-09
   21.12000      2.3521962E-09
   21.18000      2.4320530E-09
   21.24000      2.5038915E-09
   21.30000      2.5721982E-09
   21.36000      2.6401219E-09
   21.42000      2.7072167E-09
   21.48000      2.7691860E-09
   21.54000      2.8197873E-09
   21.60000      2.8538227E-09
   21.66000      2.8695903E-09
   21.72000      2.8695715E-09
   21.78000      2.8591587E-09
   21.84000      2.8442413E-09
   21.90000      2.8289011E-09
   21.96000      2.8142295E-09
   22.02000      2.7986009E-09
   22.08000      2.7790819E-09
   22.14000      2.7532923E-09
   22.20000      2.7210030E-09
   22.26000      2.6849492E-09
   22.32000      2.6506113E-09
   22.38000      2.6250240E-09
   22.44000      2.6149980E-09
   22.50000      2.6253815E-09
   22.56000      2.6580338E-09
   22.62000      2.7118978E-09
   22.68000      2.7840452E-09
   22.74000      2.8710752E-09
   22.80000      2.9700964E-09
   22.86000      3.0788330E-09
   22.92000      3.1949849E-09
   22.98000      3.3154615E-09
   23.04000      3.4361403E-09
   23.10000      3.5523844E-09
   23.16000      3.6599668E-09
   23.22000      3.7557464E-09
   23.28000      3.8376524E-09
   23.34000      3.9040660E-09
   23.40000      3.9531769E-09
   23.46000      3.9829158E-09
   23.52000      3.9916190E-09
   23.58000      3.9789971E-09
   23.64000      3.9466967E-09
   23.70000      3.8979913E-09
   23.76000      3.8367540E-09
   23.82000      3.7663499E-09
   23.88000      3.6891199E-09
   23.94000      3.6066430E-09
   24.00000      3.5203724E-09
   24.06000      3.4319545E-09
   24.12000      3.3428140E-09
   24.18000      3.2531999E-09
   24.24000      3.1613834E-09
   24.30000      3.0637057E-09
   24.36000      2.9556646E-09
   24.42000      2.8335849E-09
   24.48000      2.6960592E-09
   24.54000      2.5445075E-09
   24.60000      2.3827211E-09
   24.66000      2.2157562E-09
   24.72000      2.0487148E-09
   24.78000      1.8857869E-09
   24.84000      1.7296468E-09
   24.90000      1.5811780E-09
   24.96000      1.4395720E-09
   25.02000      1.3029274E-09
   25.08000      1.1693547E-09
   25.14000      1.0382420E-09
   25.20000      9.1102459E-10
   25.26000      7.9085649E-10
   25.32000      6.8111872E-10
   25.38000      5.8344957E-10
   25.44000      4.9642446E-10
   25.50000      4.1576531E-10
   25.56000      3.3608108E-10
   25.62000      2.5317529E-10
   25.68000      1.6555968E-10
   25.74000      7.4306998E-11
   25.80000     -1.8531914E-11
   25.86000     -1.1176029E-10
   25.92000     -2.0576432E-10
   25.98000     -3.0156436E-10
   26.04000     -3.9880746E-10
   26.10000     -4.9412752E-10
   26.16000     -5.8114619E-10
   26.22000     -6.5236616E-10
   26.28000     -7.0199008E-10
   26.34000     -7.2808859E-10
   26.40000     -7.3292827E-10
   26.46000     -7.2137285E-10
   26.52000     -6.9836809E-10
   26.58000     -6.6693018E-10
   26.64000     -6.2758959E-10
   26.70000     -5.7927385E-10
   26.76000     -5.2080473E-10
   26.82000     -4.5200360E-10
   26.88000     -3.7385461E-10
   26.94000     -2.8788480E-10
   27.00000     -1.9538246E-10
   27.06000     -9.7055121E-11
   27.12000      6.6759545E-12
   27.18000      1.1499272E-10
   27.24000      2.2606413E-10
   27.30000      3.3683728E-10
   27.36000      4.4329709E-10
   27.42000      5.4101540E-10
   27.48000      6.2574385E-10
   27.54000      6.9388001E-10
   27.60000      7.4275747E-10
   27.66000      7.7078299E-10
   27.72000      7.7746448E-10
   27.78000      7.6335510E-10
   27.84000      7.2992801E-10
   27.90000      6.7938122E-10
   27.96000      6.1435634E-10
   28.02000      5.3755689E-10
   28.08000      4.5130452E-10
   28.14000      3.5716577E-10
   28.20000      2.5585106E-10
   28.26000      1.4753554E-10
   28.32000      3.2537167E-11
   28.38000     -8.7983815E-11
   28.44000     -2.1177045E-10
   28.50000     -3.3595626E-10
   28.56000     -4.5815407E-10
   28.62000     -5.7755845E-10
   28.68000     -6.9534978E-10
   28.74000     -8.1404600E-10
   28.80000     -9.3611485E-10
   28.86000     -1.0626973E-09
   28.92000     -1.1932957E-09
   28.98000     -1.3266777E-09
   29.04000     -1.4623889E-09
   29.10000     -1.6017561E-09
   29.16000     -1.7474899E-09
   29.22000     -1.9018807E-09
   29.28000     -2.0645659E-09
   29.34000     -2.2312665E-09
   29.40000     -2.3944164E-09
   29.46000     -2.5455207E-09
   29.52000     -2.6780549E-09
   29.58000     -2.7894065E-09
   29.64000     -2.8809541E-09
   29.70000     -2.9564557E-09
   29.76000     -3.0197966E-09
   29.82000     -3.0733212E-09
   29.88000     -3.1174006E-09
   29.94000     -3.1510734E-09
   30.00000     -3.1730538E-09
   30.06000     -3.1824356E-09
   30.12000     -3.1788685E-09
   30.18000     -3.1624234E-09
   30.24000     -3.1334846E-09
   30.30000     -3.0927925E-09
   30.36000     -3.0414848E-09
   30.42000     -2.9809086E-09
   30.48000     -2.9121949E-09
   30.54000     -2.8358378E-09
   30.60000     -2.7515892E-09
   30.66000     -2.6587501E-09
   30.72000     -2.5566140E-09
   30.78000     -2.4446833E-09
   30.84000     -2.3225026E-09
   30.90000     -2.1893303E-09
   30.96000     -2.0441047E-09
   31.02000     -1.8859831E-09
   31.08000     -1.7152320E-09
   31.14000     -1.5338470E-09
   31.20000     -1.3453220E-09
   31.26000     -1.1535350E-09
   31.32000     -9.6142461E-10
   31.38000     -7.7039047E-10
   31.44000     -5.8094290E-10
   31.50000     -3.9421952E-10
   31.56000     -2.1325983E-10
   31.62000     -4.2933771E-11
   31.68000      1.1173016E-10
   31.74000      2.4793506E-10
   31.80000      3.6671133E-10
   31.86000      4.7258802E-10
   31.92000      5.7141863E-10
   31.98000      6.6766975E-10
   32.04000      7.6288503E-10
   32.10000      8.5629864E-10
   32.16000      9.4715336E-10
   32.22000      1.0371344E-09
   32.28000      1.1312189E-09
   32.34000      1.2362444E-09
   32.40000      1.3579379E-09
   32.46000      1.4980830E-09
   32.52000      1.6533626E-09
   32.58000      1.8163602E-09
   32.64000      1.9779989E-09
   32.70000      2.1300754E-09
   32.76000      2.2668423E-09
   32.82000      2.3853961E-09
   32.88000      2.4853504E-09
   32.94000      2.5683742E-09
   33.00000      2.6377913E-09
   33.06000      2.6979559E-09
   33.12000      2.7530893E-09
   33.18000      2.8056897E-09
   33.24000      2.8552023E-09
   33.30000      2.8978149E-09
   33.36000      2.9277676E-09
   33.42000      2.9397065E-09
   33.48000      2.9309297E-09
   33.54000      2.9023557E-09
   33.60000      2.8577349E-09
   33.66000      2.8016001E-09
   33.72000      2.7370881E-09
   33.78000      2.6647069E-09
   33.84000      2.5824989E-09
   33.90000      2.4872848E-09
   33.96000      2.3762676E-09
   34.02000      2.2483442E-09
   34.08000      2.1048361E-09
   34.14000      1.9496564E-09
   34.20000      1.7889769E-09
   34.26000      1.6303726E-09
   34.32000      1.4814249E-09
   34.38000      1.3479914E-09
   34.44000      1.2327003E-09
   34.50000      1.1343548E-09
   34.56000      1.0486401E-09
   34.62000      9.6987041E-10
   34.68000      8.9291391E-10
   34.74000      8.1431317E-10
   34.80000      7.3212686E-10
   34.86000      6.4487293E-10
   34.92000      5.5057187E-10
   34.98000      4.4683429E-10
   35.04000      3.3220426E-10
   35.10000      2.0801692E-10
   35.16000      7.9502696E-11
   35.22000     -4.4851033E-11
   35.28000     -1.5572148E-10
   35.34000     -2.4615379E-10
   35.40000     -3.1404135E-10
   35.46000     -3.6271217E-10
   35.52000     -3.9940290E-10
   35.58000     -4.3241261E-10
   35.64000     -4.6824933E-10
   35.70000     -5.0990084E-10
   35.76000     -5.5668631E-10
   35.82000     -6.0540317E-10
   35.88000     -6.5205008E-10
   35.94000     -6.9340367E-10
   36.00000     -7.2801398E-10
   36.06000     -7.5651924E-10
   36.12000     -7.8140006E-10
   36.18000     -8.0636237E-10
   36.24000     -8.3552887E-10
   36.30000     -8.7260393E-10
   36.36000     -9.2017138E-10
   36.42000     -9.7927000E-10
   36.48000     -1.0493463E-09
   36.54000     -1.1286078E-09
   36.60000     -1.2147223E-09
   36.66000     -1.3057223E-09
   36.72000     -1.4008841E-09
   36.78000     -1.5012589E-09
   36.84000     -1.6095297E-09
   36.90000     -1.7290211E-09
   36.96000     -1.8620454E-09
   37.02000     -2.0081787E-09
   37.08000     -2.1633106E-09
   37.14000     -2.3201336E-09
   37.20000     -2.4701456E-09
   37.26000     -2.6064471E-09
   37.32000     -2.7261051E-09
   37.38000     -2.8309395E-09
   37.44000     -2.9263192E-09
   37.50000     -3.0185323E-09
   37.56000     -3.1119738E-09
   37.62000     -3.2073850E-09
   37.68000     -3.3017196E-09
   37.74000     -3.3893532E-09
   37.80000     -3.4638168E-09
   37.86000     -3.5192933E-09
   37.92000     -3.5516117E-09
   37.98000     -3.5588907E-09
   38.04000     -3.5420422E-09
   38.10000     -3.5049668E-09
   38.16000     -3.4539396E-09
   38.22000     -3.3957857E-09
   38.28000     -3.3351397E-09
   38.34000     -3.2719329E-09
   38.40000     -3.2006007E-09
   38.46000     -3.1119176E-09
   38.52000     -2.9969942E-09
   38.58000     -2.8516240E-09
   38.64000     -2.6787066E-09
   38.70000     -2.4873448E-09
   38.76000     -2.2889755E-09
   38.82000     -2.0925155E-09
   38.88000     -1.9010102E-09
   38.94000     -1.7113426E-09
   39.00000     -1.5167895E-09
   39.06000     -1.3107054E-09
   39.12000     -1.0892658E-09
   39.18000     -8.5210694E-10
   39.24000     -6.0115557E-10
   39.30000     -3.3894754E-10
   39.36000     -6.7688570E-11
   39.42000      2.1060390E-10
   39.48000      4.9354199E-10
   39.54000      7.7837786E-10
   39.60000      1.0629986E-09
   39.66000      1.3473500E-09
   39.72000      1.6341498E-09
   39.78000      1.9280342E-09
   39.84000      2.2332789E-09
   39.90000      2.5512290E-09
   39.96000      2.8788589E-09
   40.02000      3.2092595E-09
   40.08000      3.5337524E-09
   40.14000      3.8444963E-09
   40.20000      4.1363801E-09
   40.26000      4.4076192E-09
   40.32000      4.6592441E-09
   40.38000      4.8940656E-09
   40.44000      5.1155356E-09
   40.50000      5.3265397E-09
   40.56000      5.5280456E-09
   40.62000      5.7178187E-09
   40.68000      5.8898966E-09
   40.74000      6.0355778E-09
   40.80000      6.1460677E-09
   40.86000      6.2158647E-09
   40.92000      6.2451915E-09
   40.98000      6.2399592E-09
   41.04000      6.2089578E-09
   41.10000      6.1595578E-09
   41.16000      6.0941825E-09
   41.22000      6.0094676E-09
   41.28000      5.8985403E-09
   41.34000      5.7551071E-09
   41.40000      5.5771241E-09
   41.46000      5.3682543E-09
   41.52000      5.1367199E-09
   41.58000      4.8925961E-09
   41.64000      4.6451230E-09
   41.70000      4.4011186E-09
   41.76000      4.1645336E-09
   41.82000      3.9364840E-09
   41.88000      3.7152208E-09
   41.94000      3.4961474E-09
   42.00000      3.2725826E-09
   42.06000      3.0377569E-09
   42.12000      2.7876734E-09
   42.18000      2.5234985E-09
   42.24000      2.2519764E-09
   42.30000      1.9831985E-09
   42.36000      1.7265509E-09
   42.42000      1.4867790E-09
   42.48000      1.2621517E-09
   42.54000      1.0455636E-09
   42.60000      8.2783685E-10
   42.66000      6.0142868E-10
   42.72000      3.6281886E-10
   42.78000      1.1285410E-10
   42.84000     -1.4448269E-10
   42.90000     -4.0379533E-10
   42.96000     -6.5961886E-10
   43.02000     -9.0718932E-10
   43.08000     -1.1429450E-09
   43.14000     -1.3650323E-09
   43.20000     -1.5736568E-09
   43.26000     -1.7707940E-09
   43.32000     -1.9589470E-09
   43.38000     -2.1392652E-09
   43.44000     -2.3099340E-09
   43.50000     -2.4658144E-09
   43.56000     -2.5996783E-09
   43.62000     -2.7044909E-09
   43.68000     -2.7755849E-09
   43.74000     -2.8117244E-09
   43.80000     -2.8147653E-09
   43.86000     -2.7884297E-09
   43.92000     -2.7370088E-09
   43.98000     -2.6645099E-09
   44.04000     -2.5741838E-09
   44.10000     -2.4680473E-09
   44.16000     -2.3461966E-09
   44.22000     -2.2062117E-09
   44.28000     -2.0432895E-09
   44.34000     -1.8515186E-09
   44.40000     -1.6260266E-09
   44.46000     -1.3650759E-09
   44.52000     -1.0710520E-09
   44.58000     -7.4986023E-10
   44.64000     -4.0913395E-10
   44.70000     -5.6253925E-11
   44.76000      3.0290451E-10
   44.82000      6.6421929E-10
   44.88000      1.0249716E-09
   44.94000      1.3835033E-09
   45.00000      1.7391268E-09
   45.06000      2.0919775E-09
   45.12000      2.4423146E-09
   45.18000      2.7891698E-09
   45.24000      3.1289586E-09
   45.30000      3.4550673E-09
   45.36000      3.7590993E-09
   45.42000      4.0335082E-09
   45.48000      4.2743706E-09
   45.54000      4.4827875E-09
   45.60000      4.6640749E-09
   45.66000      4.8251509E-09
   45.72000      4.9714917E-09
   45.78000      5.1051714E-09
   45.84000      5.2247362E-09
   45.90000      5.3265845E-09
   45.96000      5.4068310E-09
   46.02000      5.4627067E-09
   46.08000      5.4931344E-09
   46.14000      5.4987166E-09
   46.20000      5.4815117E-09
   46.26000      5.4447025E-09
   46.32000      5.3919460E-09
   46.38000      5.3262514E-09
   46.44000      5.2486806E-09
   46.50000      5.1575806E-09
   46.56000      5.0490359E-09
   46.62000      4.9185940E-09
   46.68000      4.7634918E-09
   46.74000      4.5841988E-09
   46.80000      4.3844439E-09
   46.86000      4.1698200E-09
   46.92000      3.9459032E-09
   46.98000      3.7169681E-09
   47.04000      3.4857679E-09
   47.10000      3.2539613E-09
   47.16000      3.0223566E-09
   47.22000      2.7905194E-09
   47.28000      2.5561500E-09
   47.34000      2.3151951E-09
   47.40000      2.0633635E-09
   47.46000      1.7986700E-09
   47.52000      1.5235958E-09
   47.58000      1.2453113E-09
   47.64000      9.7342423E-10
   47.70000      7.1628431E-10
   47.76000      4.7791432E-10
   47.82000      2.5735464E-10
   47.88000      5.0714863E-11
   47.94000     -1.4547777E-10
   48.00000     -3.3179612E-10
   48.06000     -5.0575516E-10
   48.12000     -6.6379791E-10
   48.18000     -8.0384432E-10
   48.24000     -9.2661795E-10
   48.30000     -1.0350246E-09
   48.36000     -1.1323226E-09
   48.42000     -1.2205936E-09
   48.48000     -1.3005851E-09
   48.54000     -1.3727719E-09
   48.60000     -1.4384927E-09
   48.66000     -1.5000324E-09
   48.72000     -1.5595001E-09
   48.78000     -1.6174476E-09
   48.84000     -1.6724799E-09
   48.90000     -1.7223297E-09
   48.96000     -1.7656413E-09
   49.02000     -1.8030287E-09
   49.08000     -1.8364692E-09
   49.14000     -1.8674033E-09
   49.20000     -1.8950392E-09
   49.26000     -1.9163426E-09
   49.32000     -1.9279767E-09
   49.38000     -1.9289015E-09
   49.44000     -1.9216733E-09
   49.50000     -1.9112825E-09
   49.56000     -1.9021134E-09
   49.62000     -1.8950361E-09
   49.68000     -1.8866646E-09
   49.74000     -1.8713597E-09
   49.80000     -1.8446549E-09
   49.86000     -1.8058277E-09
   49.92000     -1.7579961E-09
   49.98000     -1.7059139E-09
   50.04000     -1.6532249E-09
   50.10000     -1.6011553E-09
   50.16000     -1.5493616E-09
   50.22000     -1.4979354E-09
   50.28000     -1.4486961E-09
   50.34000     -1.4045836E-09
   50.40000     -1.3676131E-09
   50.46000     -1.3371727E-09
   50.52000     -1.3103492E-09
   50.58000     -1.2844751E-09
   50.64000     -1.2602788E-09
   50.70000     -1.2433136E-09
   50.76000     -1.2423252E-09
   50.82000     -1.2652543E-09
   50.88000     -1.3152205E-09
   50.94000     -1.3889209E-09
   51.00000     -1.4783240E-09
   51.06000     -1.5744551E-09
   51.12000     -1.6708924E-09
   51.18000     -1.7650691E-09
   51.24000     -1.8571488E-09
   51.30000     -1.9478621E-09
   51.36000     -2.0371167E-09
   51.42000     -2.1242654E-09
   51.48000     -2.2094451E-09
   51.54000     -2.2945617E-09
   51.60000     -2.3828637E-09
   51.66000     -2.4772731E-09
   51.72000     -2.5786961E-09
   51.78000     -2.6856348E-09
   51.84000     -2.7954574E-09
   51.90000     -2.9064822E-09
   51.96000     -3.0194445E-09
   52.02000     -3.1373912E-09
   52.08000     -3.2641734E-09
   52.14000     -3.4026286E-09
   52.20000     -3.5536465E-09
   52.26000     -3.7165948E-09
   52.32000     -3.8906562E-09
   52.38000     -4.0761661E-09
   52.44000     -4.2752877E-09
   52.50000     -4.4919721E-09
   52.56000     -4.7316173E-09
   52.62000     -5.0008140E-09
   52.68000     -5.3072049E-09
   52.74000     -5.6592140E-09
   52.80000     -6.0654881E-09
   52.86000     -6.5342483E-09
   52.92000     -7.0729960E-09
   52.98000     -7.6888442E-09
   53.04000     -8.3892786E-09
   53.10000     -9.1827665E-09
   53.16000     -1.0078684E-08
   53.22000     -1.1086645E-08
   53.28000     -1.2215899E-08
   53.34000     -1.3475531E-08
   53.40000     -1.4875673E-08
   53.46000     -1.6429029E-08
   53.52000     -1.8151562E-08
   53.58000     -2.0061570E-08
   53.64000     -2.2177399E-08
   53.70000     -2.4515030E-08
   53.76000     -2.7086891E-08
   53.82000     -2.9902562E-08
   53.88000     -3.2970696E-08
   53.94000     -3.6300804E-08
   54.00000     -3.9903664E-08
   54.06000     -4.3790035E-08
   54.12000     -4.7968712E-08
   54.18000     -5.2444911E-08
   54.24000     -5.7219712E-08
   54.30000     -6.2290297E-08
   54.36000     -6.7649964E-08
   54.42000     -7.3287453E-08
   54.48000     -7.9185561E-08
   54.54000     -8.5319826E-08
   54.60000     -9.1658180E-08
   54.66000     -9.8161536E-08
   54.72000     -1.0478465E-07
   54.78000     -1.1147640E-07
   54.84000     -1.1817878E-07
   54.90000     -1.2482508E-07
   54.96000     -1.3133814E-07
   55.02000     -1.3762943E-07
   55.08000     -1.4359932E-07
   55.14000     -1.4913788E-07
   55.20000     -1.5412544E-07
   55.26000     -1.5843280E-07
   55.32000     -1.6192122E-07
   55.38000     -1.6444299E-07
   55.44000     -1.6584258E-07
   55.50000     -1.6595833E-07
   55.56000     -1.6462391E-07