 -0.750000000       0.00000000    
 -0.689999998       0.00000000    
 -0.629999995       0.00000000    
 -0.569999993       0.00000000    
 -0.509999990       0.00000000    
 -0.449999988      -4.63202443E-21
 -0.389999986      -3.01933331E-20
 -0.330000013      -8.02966128E-20
 -0.270000011      -3.90134986E-20
 -0.209999993       4.91451473E-19
 -0.150000006       2.18936696E-18
  -9.00000036E-02   5.48066258E-18
  -2.99999993E-02   9.29639505E-18
   2.99999993E-02   9.63927795E-18
   9.00000036E-02  -5.96844830E-19
  0.150000006      -2.87495258E-17
  0.209999993      -7.57265256E-17
  0.270000011      -1.27541801E-16
  0.330000013      -1.50273028E-16
  0.389999986      -9.52634662E-17
  0.449999988       8.08230037E-17
  0.509999990       3.83162156E-16
  0.569999993       7.44513426E-16
  0.629999995       1.00876521E-15
  0.689999998       9.53047803E-16
  0.750000000       3.60810730E-16
  0.810000002      -8.60684207E-16
  0.870000005      -2.55102459E-15
  0.930000007      -4.21296061E-15
  0.990000010      -5.04333962E-15
   1.04999995      -4.13184196E-15
   1.11000001      -8.28538459E-16
   1.16999996       4.80257474E-15
   1.23000002       1.16169451E-14
   1.28999996       1.73333587E-14
   1.35000002       1.89739717E-14
   1.40999997       1.38332872E-14
   1.47000003       7.67939181E-16
   1.52999997      -1.86425633E-14
   1.59000003      -3.96311300E-14
   1.64999998      -5.49291989E-14
   1.71000004      -5.66972108E-14
   1.76999998      -3.92859641E-14
   1.83000004      -1.96584827E-15
   1.88999999       4.94129341E-14
   1.95000005       1.02642341E-13
   2.00999999       1.41502925E-13
   2.06999993       1.49776987E-13
   2.13000011       1.15923032E-13
   2.19000006       3.72161205E-14
   2.25000000      -7.76591587E-14
   2.30999994      -2.08186563E-13
   2.36999989      -3.24028320E-13
   2.43000007      -3.89524838E-13
   2.49000001      -3.70609332E-13
   2.54999995      -2.43752311E-13
   2.60999990      -5.81871062E-15
   2.67000008       3.17395388E-13
   2.73000002       6.67252549E-13
   2.78999996       9.56579542E-13
   2.84999990       1.08456256E-12
   2.91000009       9.61679846E-13
   2.97000003       5.40068207E-13
   3.02999997      -1.59047160E-13
   3.08999991      -1.03096492E-12
   3.15000010      -1.89459841E-12
   3.21000004      -2.52417011E-12
   3.26999998      -2.70094602E-12
   3.32999992      -2.27295158E-12
   3.39000010      -1.20620202E-12
   3.45000005       3.88174871E-13
   3.50999999       2.26030002E-12
   3.56999993       4.06109998E-12
   3.63000011       5.40538447E-12
   3.69000006       5.94328102E-12
   3.75000000       5.42529259E-12
   3.80999994       3.75164916E-12
   3.86999989       1.00345860E-12
   3.93000007      -2.54292052E-12
   3.99000001      -6.41853237E-12
   4.05000019      -9.98791154E-12
   4.11000013      -1.25107147E-11
   4.17000008      -1.32498604E-11
   4.23000002      -1.16249788E-11
   4.28999996      -7.38859668E-12
   4.34999990      -7.80121248E-13
   4.40999985       7.39890874E-12
   4.46999979       1.58359246E-11
   4.53000021       2.29015210E-11
   4.59000015       2.69594069E-11
   4.65000010       2.67239408E-11
   4.71000004       2.15764802E-11
   4.76999998       1.17603566E-11
   4.82999992      -1.59156726E-12
   4.88999987      -1.65976313E-11
   4.94999981      -3.08995399E-11
   5.01000023      -4.20114707E-11
   5.07000017      -4.76947683E-11
   5.13000011      -4.63203018E-11
   5.19000006      -3.71893454E-11
   5.25000000      -2.07789081E-11
   5.30999994       1.13870003E-12
   5.36999989       2.55650588E-11
   5.42999983       4.85882862E-11
   5.48999977       6.59533331E-11
   5.55000019       7.38357153E-11
   5.61000013       6.96882066E-11
   5.67000008       5.29746247E-11
   5.73000002       2.55948023E-11
   5.78999996      -8.14706028E-12
   5.84999990      -4.20825180E-11
   5.90999985      -6.91586302E-11
   5.96999979      -8.26779201E-11
   6.03000021      -7.75494322E-11
   6.09000015      -5.12924737E-11
   6.15000010      -4.58776723E-12
   6.21000004       5.87286816E-11
   6.26999998       1.32213948E-10
   6.32999992       2.07786385E-10
   6.38999987       2.76922762E-10
   6.44999981       3.31876165E-10
   6.51000023       3.66734920E-10
   6.57000017       3.78199388E-10
   6.63000011       3.66011388E-10
   6.69000006       3.33015865E-10
   6.75000000       2.84858415E-10
   6.80999994       2.29335634E-10
   6.86999989       1.75438303E-10
   6.92999983       1.32165931E-10
   6.98999977       1.07248960E-10
   7.05000019       1.05970240E-10
   7.11000013       1.30302935E-10
   7.17000008       1.78556975E-10
   7.23000002       2.45641535E-10
   7.28999996       3.23925220E-10
   7.34999990       4.04540540E-10
   7.40999985       4.78876272E-10
   7.46999979       5.39958467E-10
   7.53000021       5.83452675E-10
   7.59000015       6.08113893E-10
   7.65000010       6.15641482E-10
   7.71000004       6.10028417E-10
   7.76999998       5.96594496E-10
   7.82999992       5.80939796E-10
   7.88999987       5.68041947E-10
   7.94999981       5.61649061E-10
   8.01000023       5.64020664E-10
   8.06999969       5.75963832E-10
   8.13000011       5.97037642E-10
   8.18999958       6.25774321E-10
   8.25000000       6.59804156E-10
   8.31000042       6.95850266E-10
   8.36999989       7.29650729E-10
   8.43000031       7.55931207E-10
   8.48999977       7.68553998E-10
   8.55000019       7.60911389E-10
   8.60999966       7.26523730E-10
   8.67000008       6.59699739E-10
   8.72999954       5.56057589E-10
   8.78999996       4.12731266E-10
   8.85000038       2.28184929E-10
   8.90999985       1.70365718E-12
   8.97000027      -2.67247530E-10
   9.02999973      -5.79540693E-10
   9.09000015      -9.36560940E-10
   9.14999962      -1.33993960E-09
   9.21000004      -1.79089987E-09
   9.27000046      -2.28940111E-09
   9.32999992      -2.83334645E-09
   9.39000034      -3.41808870E-09
   9.44999981      -4.03638278E-09
   9.51000023      -4.67878447E-09
   9.56999969      -5.33435784E-09
   9.63000011      -5.99146244E-09
   9.68999958      -6.63837740E-09
   9.75000000      -7.26360350E-09
   9.81000042      -7.85581644E-09
   9.86999989      -8.40362446E-09
   9.93000031      -8.89537599E-09
   9.98999977      -9.31928668E-09
   10.0500002      -9.66401448E-09
   10.1099997      -9.91961624E-09
   10.1700001      -1.00786037E-08
   10.2299995      -1.01367208E-08
   10.2900000      -1.00931263E-08
   10.3500004      -9.94990135E-09
   10.4099998      -9.71105152E-09
   10.4700003      -9.38139610E-09
   10.5299997      -8.96576857E-09
   10.5900002      -8.46877768E-09
   10.6499996      -7.89510146E-09
   10.7100000      -7.25005478E-09
   10.7700005      -6.54006893E-09
   10.8299999      -5.77282488E-09
   10.8900003      -4.95699171E-09
   10.9499998      -4.10176737E-09
   11.0100002      -3.21651594E-09
   11.0699997      -2.31073827E-09
   11.1300001      -1.39443412E-09
   11.1899996      -4.78693640E-10
   11.2500000       4.23778151E-10
   11.3100004       1.29849043E-09
   11.3699999       2.12951345E-09
   11.4300003       2.90032531E-09
   11.4899998       3.59498409E-09
   11.5500002       4.19937907E-09
   11.6099997       4.70234474E-09
   11.6700001       5.09649878E-09
   11.7299995       5.37875877E-09
   11.7900000       5.55054092E-09
   11.8500004       5.61764146E-09
   11.9099998       5.58974245E-09
   11.9700003       5.47947465E-09
   12.0299997       5.30101341E-09
   12.0900002       5.06833997E-09
   12.1499996       4.79350382E-09
   12.2100000       4.48536186E-09
   12.2700005       4.14925783E-09
   12.3299999       3.78782294E-09
   12.3900003       3.40267481E-09
   12.4499998       2.99635361E-09
   12.5100002       2.57369037E-09
   12.5699997       2.14199103E-09
   12.6300001       1.70996939E-09
   12.6899996       1.28596800E-09
   12.7500000       8.76381467E-10
   12.8100004       4.85094909E-10
   12.8699999       1.14205451E-10
   12.9300003      -2.34412184E-10
   12.9899998      -5.57614732E-10
   13.0500002      -8.50465587E-10
   13.1099997      -1.10703569E-09
   13.1700001      -1.32215305E-09
   13.2299995      -1.49320123E-09
   13.2900000      -1.62105507E-09
   13.3500004      -1.70973591E-09
   13.4099998      -1.76505566E-09
   13.4700003      -1.79301063E-09
   13.5299997      -1.79869297E-09
   13.5900002      -1.78606696E-09
   13.6499996      -1.75840154E-09
   13.7100000      -1.71881342E-09
   13.7700005      -1.67045788E-09
   13.8299999      -1.61628655E-09
   13.8900003      -1.55868829E-09
   13.9499998      -1.49943147E-09
   14.0100002      -1.44007684E-09
   14.0699997      -1.38261025E-09
   14.1300001      -1.32978928E-09
   14.1899996      -1.28482358E-09
   14.2500000      -1.25047317E-09
   14.3100004      -1.22814015E-09
   14.3699999      -1.21769139E-09
   14.4300003      -1.21839849E-09
   14.4899998      -1.23068533E-09
   14.5500002      -1.25773825E-09
   14.6099997      -1.30589128E-09
   14.6700001      -1.38321743E-09
   14.7299995      -1.49668722E-09
   14.7900000      -1.64912017E-09
   14.8500004      -1.83741711E-09
   14.9099998      -2.05304418E-09
   14.9700003      -2.28467734E-09
   15.0299997      -2.52185894E-09
   15.0900002      -2.75804224E-09
   15.1499996      -2.99175706E-09
   15.2100000      -3.22564309E-09
   15.2700005      -3.46418827E-09
   15.3299999      -3.71162434E-09
   15.3900003      -3.97120425E-09
   15.4499998      -4.24619229E-09
   15.5100002      -4.54181270E-09
   15.5699997      -4.86673590E-09
   15.6300001      -5.23282306E-09
   15.6899996      -5.65270231E-09
   15.7500000      -6.13589535E-09
   15.8100004      -6.68503031E-09
   15.8699999      -7.29377891E-09
   15.9300003      -7.94745691E-09
   15.9899998      -8.62609895E-09
   16.0499992      -9.30880706E-09
   16.1100006      -9.97774041E-09
   16.1700001      -1.06203588E-08
   16.2299995      -1.12294112E-08
   16.2900009      -1.18010677E-08
   16.3500004      -1.23323227E-08
   16.4099998      -1.28189113E-08
   16.4699993      -1.32546623E-08
   16.5300007      -1.36324880E-08
   16.5900002      -1.39465524E-08
   16.6499996      -1.41946588E-08
   16.7099991      -1.43798564E-08
   16.7700005      -1.45105279E-08
   16.8299999      -1.45988022E-08
   16.8899994      -1.46577701E-08
   16.9500008      -1.46984185E-08
   17.0100002      -1.47273491E-08
   17.0699997      -1.47460444E-08
   17.1299992      -1.47518895E-08
   17.1900005      -1.47405048E-08
   17.2500000      -1.47084940E-08
   17.3099995      -1.46556411E-08
   17.3700008      -1.45858428E-08
   17.4300003      -1.45065870E-08
   17.4899998      -1.44272541E-08
   17.5499992      -1.43568384E-08
   17.6100006      -1.43017838E-08
   17.6700001      -1.42645069E-08
   17.7299995      -1.42430174E-08
   17.7900009      -1.42317749E-08
   17.8500004      -1.42236241E-08
   17.9099998      -1.42122891E-08
   17.9699993      -1.41946526E-08
   18.0300007      -1.41719312E-08
   18.0900002      -1.41492089E-08
   18.1499996      -1.41333523E-08
   18.2099991      -1.41300811E-08
   18.2700005      -1.41413858E-08
   18.3299999      -1.41644323E-08
   18.3899994      -1.41924499E-08
   18.4500008      -1.42172478E-08
   18.5100002      -1.42322927E-08
   18.5699997      -1.42351286E-08
   18.6299992      -1.42283314E-08
   18.6900005      -1.42188528E-08
   18.7500000      -1.42163046E-08
   18.8099995      -1.42308592E-08
   18.8700008      -1.42713930E-08
   18.9300003      -1.43440930E-08
   18.9899998      -1.44515422E-08
   19.0499992      -1.45922554E-08
   19.1100006      -1.47607837E-08
   19.1700001      -1.49484691E-08
   19.2299995      -1.51448472E-08
   19.2900009      -1.53393511E-08
   19.3500004      -1.55227831E-08
   19.4099998      -1.56880926E-08
   19.4699993      -1.58302722E-08
   19.5300007      -1.59456341E-08
   19.5900002      -1.60309153E-08
   19.6499996      -1.60826570E-08
   19.7099991      -1.60969940E-08
   19.7700005      -1.60697375E-08
   19.8299999      -1.59965623E-08
   19.8899994      -1.58732227E-08
   19.9500008      -1.56958730E-08
   20.0100002      -1.54616036E-08
   20.0699997      -1.51690962E-08
   20.1299992      -1.48190900E-08
   20.1900005      -1.44142298E-08
   20.2500000      -1.39581191E-08
   20.3099995      -1.34538256E-08
   20.3700008      -1.29024222E-08
   20.4300003      -1.23022552E-08
   20.4899998      -1.16493108E-08
   20.5499992      -1.09385887E-08
   20.6100006      -1.01659889E-08
   20.6700001      -9.33012778E-09
   20.7299995      -8.43359960E-09
   20.7900009      -7.48345030E-09
   20.8500004      -6.49072973E-09
   20.9099998      -5.46908652E-09
   20.9699993      -4.43250325E-09
   21.0300007      -3.39257156E-09
   21.0900002      -2.35613284E-09
   21.1499996      -1.32428435E-09
   21.2099991      -2.93466418E-10
   21.2700005       7.41490924E-10
   21.3299999       1.78350512E-09
   21.3899994       2.83031310E-09
   21.4500008       3.87399446E-09
   21.5100002       4.90336838E-09
   21.5699997       5.90825255E-09
   21.6299992       6.88361546E-09
   21.6900005       7.83165799E-09
   21.7500000       8.76088269E-09
   21.8099995       9.68266001E-09
   21.8700008       1.06068976E-08
   21.9300003       1.15386687E-08
   21.9899998       1.24770274E-08
   22.0499992       1.34161873E-08
   22.1100006       1.43483403E-08
   22.1700001       1.52669912E-08
   22.2299995       1.61697056E-08
   22.2900009       1.70595200E-08
   22.3500004       1.79445507E-08
   22.4099998       1.88356974E-08
   22.4699993       1.97428136E-08
   22.5300007       2.06701358E-08
   22.5900002       2.16123901E-08
   22.6499996       2.25529604E-08
   22.7099991       2.34650557E-08
   22.7700005       2.43157618E-08
   22.8299999       2.50717509E-08
   22.8899994       2.57047557E-08
   22.9500008       2.61950674E-08
   23.0100002       2.65321702E-08
   23.0699997       2.67128115E-08
   23.1299992       2.67376983E-08
   23.1900005       2.66083795E-08
   23.2500000       2.63255586E-08
   23.3099995       2.58893884E-08
   23.3700008       2.53015369E-08
   23.4300003       2.45682070E-08
   23.4899998       2.37028424E-08
   23.5499992       2.27273400E-08
   23.6100006       2.16708944E-08
   23.6700001       2.05664676E-08
   23.7299995       1.94457499E-08
   23.7900009       1.83342621E-08
   23.8500004       1.72482366E-08
   23.9099998       1.61942708E-08
   23.9699993       1.51714428E-08
   24.0300007       1.41745096E-08
   24.0900002       1.31964715E-08
   24.1499996       1.22294441E-08
   24.2099991       1.12640057E-08
   24.2700005       1.02882645E-08
   24.3299999       9.28810540E-09
   24.3899994       8.24932123E-09
   24.4500008       7.16108284E-09
   24.5100002       6.01930417E-09
   24.5699997       4.82839768E-09
   24.6299992       3.60073660E-09
   24.6900005       2.35422726E-09
   24.7500000       1.10909459E-09
   24.8099995      -1.15063098E-10
   24.8700008      -1.30144584E-09
   24.9300003      -2.43750109E-09
   24.9899998      -3.51583562E-09
   25.0499992      -4.53450344E-09
   25.1100006      -5.49630252E-09
   25.1700001      -6.40684128E-09
   25.2299995      -7.27177563E-09
   25.2900009      -8.09431988E-09
   25.3500004      -8.87438745E-09
   25.4099998      -9.61011537E-09
   25.4699993      -1.03013740E-08
   25.5300007      -1.09536877E-08
   25.5900002      -1.15805880E-08
   25.6499996      -1.22029524E-08
   25.7099991      -1.28451632E-08
   25.7700005      -1.35292249E-08
   25.8299999      -1.42687142E-08
   25.8899994      -1.50644617E-08
   25.9500008      -1.59032325E-08
   26.0100002      -1.67598060E-08
   26.0699997      -1.76019821E-08
   26.1299992      -1.83972748E-08
   26.1900005      -1.91195610E-08
   26.2500000      -1.97536600E-08
   26.3099995      -2.02963300E-08
   26.3700008      -2.07531254E-08
   26.4300003      -2.11322053E-08
   26.4899998      -2.14374047E-08
   26.5499992      -2.16634035E-08
   26.6100006      -2.17949232E-08
   26.6700001      -2.18102532E-08
   26.7299995      -2.16874607E-08
   26.7900009      -2.14107452E-08
   26.8500004      -2.09745448E-08
   26.9099998      -2.03843147E-08
   26.9699993      -1.96542995E-08
   27.0300007      -1.88035703E-08
   27.0900002      -1.78517290E-08
   27.1499996      -1.68153509E-08
   27.2099991      -1.57057567E-08
   27.2700005      -1.45285561E-08
   27.3299999      -1.32853302E-08
   27.3899994      -1.19774164E-08
   27.4500008      -1.06110036E-08
   27.5100002      -9.20183041E-09
   27.5699997      -7.77736187E-09
   27.6299992      -6.37488595E-09
   27.6900005      -5.03554354E-09
   27.7500000      -3.79606035E-09
   27.8099995      -2.68109024E-09
   27.8700008      -1.69885717E-09
   27.9300003      -8.41384351E-10
   27.9899998      -8.87891080E-11
   28.0499992       5.84188753E-10
   28.1100006       1.20155197E-09
   28.1700001       1.78086890E-09
   28.2299995       2.33026975E-09
   28.2900009       2.84773316E-09
   28.3500004       3.32253358E-09
   28.4099998       3.73855347E-09
   28.4699993       4.07878087E-09
   28.5300007       4.32972724E-09
   28.5900002       4.48413084E-09
   28.6499996       4.54067450E-09
   28.7099991       4.50057236E-09
   28.7700005       4.36239445E-09
   28.8299999       4.11747525E-09
   28.8899994       3.74813736E-09
   28.9500008       3.22970561E-09
   29.0100002       2.53556220E-09
   29.0699997       1.64324265E-09
   29.1299992       5.39380762E-10
   29.1900005      -7.77878817E-10
   29.2500000      -2.29918529E-09
   29.3099995      -4.00629085E-09
   29.3700008      -5.87539395E-09
   29.4300003      -7.88072985E-09
   29.4899998      -9.99788519E-09
   29.5499992      -1.22063133E-08
   29.6100006      -1.44904879E-08
   29.6700001      -1.68392376E-08
   29.7299995      -1.92433749E-08
   29.7900009      -2.16924949E-08
   29.8500004      -2.41723992E-08
   29.9099998      -2.66643703E-08
   29.9699993      -2.91466709E-08
   30.0300007      -3.15974873E-08
   30.0900002      -3.39978286E-08
   30.1499996      -3.63329633E-08
   30.2099991      -3.85920238E-08
   30.2700005      -4.07661602E-08
   30.3299999      -4.28464730E-08
   30.3899994      -4.48225563E-08
   30.4500008      -4.66818904E-08
   30.5100002      -4.84096851E-08
   30.5699997      -4.99887065E-08
   30.6299992      -5.13989526E-08
   30.6900005      -5.26174588E-08
   30.7500000      -5.36188338E-08
   30.8099995      -5.43766703E-08
   30.8700008      -5.48656480E-08
   30.9300003      -5.50636834E-08
   30.9899998      -5.49535670E-08
   31.0499992      -5.45239907E-08
   31.1100006      -5.37700053E-08
   31.1700001      -5.26932453E-08
   31.2299995      -5.13017611E-08
   31.2900009      -4.96093229E-08
   31.3500004      -4.76338435E-08
   31.4099998      -4.53951685E-08
   31.4699993      -4.29128129E-08
   31.5300007      -4.02044726E-08
   31.5900002      -3.72858331E-08
   31.6499996      -3.41715136E-08
   31.7099991      -3.08765635E-08
   31.7700005      -2.74175544E-08
   31.8299999      -2.38128788E-08
   31.8899994      -2.00821955E-08
   31.9500008      -1.62455258E-08
   32.0099983      -1.23224355E-08
   32.0699997      -8.33155411E-09
   32.1300011      -4.29041780E-09
   32.1899986      -2.15626517E-10
   32.2500000       3.87657906E-09
   32.3100014       7.96917465E-09
   32.3699989       1.20427304E-08
   32.4300003       1.60738587E-08
   32.4900017       2.00346051E-08
   32.5499992       2.38935023E-08
   32.6100006       2.76183219E-08
   32.6699982       3.11795922E-08
   32.7299995       3.45533664E-08
   32.7900009       3.77219465E-08
   32.8499985       4.06720275E-08
   32.9099998       4.33911325E-08
   32.9700012       4.58638318E-08
   33.0299988       4.80694133E-08
   33.0900002       4.99820061E-08
   33.1500015       5.15731315E-08
   33.2099991       5.28159205E-08
   33.2700005       5.36897637E-08
   33.3300018       5.41842482E-08
   33.3899994       5.43011822E-08
   33.4500008       5.40540803E-08
   33.5099983       5.34647455E-08
   33.5699997       5.25575246E-08
   33.6300011       5.13526359E-08
   33.6899986       4.98607022E-08
   33.7500000       4.80805866E-08
   33.8100014       4.60015741E-08
   33.8699989       4.36094361E-08
   33.9300003       4.08942391E-08
   33.9900017       3.78571627E-08
   34.0499992       3.45138567E-08
   34.1100006       3.08935064E-08
   34.1699982       2.70342486E-08
   34.2299995       2.29769448E-08
   34.2900009       1.87594509E-08
   34.3499985       1.44132626E-08
   34.4099998       9.96329153E-09
   34.4700012       5.43063194E-09
   34.5299988       8.37279246E-10
   34.5900002      -3.78882747E-09
   34.6500015      -8.41033909E-09
   34.7099991      -1.29802187E-08
   34.7700005      -1.74453518E-08
   34.8300018      -2.17532925E-08
   34.8899994      -2.58599595E-08
   34.9500008      -2.97354088E-08
   35.0099983      -3.33652679E-08
   35.0699997      -3.67471316E-08
   35.1300011      -3.98831830E-08
   35.1899986      -4.27718945E-08
   35.2500000      -4.54019506E-08
   35.3100014      -4.77503725E-08
   35.3699989      -4.97852604E-08
   35.4300003      -5.14718685E-08
   35.4900017      -5.27799884E-08
   35.5499992      -5.36905027E-08
   35.6100006      -5.41995107E-08
   35.6699982      -5.43189635E-08
   35.7299995      -5.40735741E-08
   35.7900009      -5.34944817E-08
   35.8499985      -5.26113517E-08
   35.9099998      -5.14453511E-08
   35.9700012      -5.00056743E-08
   36.0299988      -4.82913443E-08
   36.0900002      -4.62979735E-08
   36.1500015      -4.40269758E-08
   36.2099991      -4.14935037E-08
   36.2700005      -3.87297021E-08
   36.3300018      -3.57819765E-08
   36.3899994      -3.27034044E-08
   36.4500008      -2.95445393E-08
   36.5099983      -2.63460151E-08
   36.5699997      -2.31353301E-08
   36.6300011      -1.99282280E-08
   36.6899986      -1.67335070E-08
   36.7500000      -1.35592231E-08
   36.8100014      -1.04183817E-08
   36.8699989      -7.33263006E-09
   36.9300003      -4.33296510E-09
   36.9900017      -1.45706691E-09
   37.0499992       1.25642186E-09
   37.1100006       3.77528764E-09
   37.1699982       6.08046369E-09
   37.2299995       8.16945267E-09
   37.2900009       1.00546922E-08
   37.3499985       1.17569563E-08
   37.4099998       1.32959679E-08
   37.4700012       1.46815626E-08
   37.5299988       1.59085385E-08
   37.5900002       1.69567702E-08
   37.6500015       1.77961788E-08
   37.7099991       1.83946423E-08
   37.7700005       1.87265226E-08
   37.8300018       1.87796694E-08
   37.8899994       1.85594740E-08
   37.9500008       1.80889916E-08
   38.0099983       1.74046573E-08
   38.0699997       1.65480571E-08
   38.1300011       1.55555497E-08
   38.1899986       1.44489158E-08
   38.2500000       1.32306148E-08
   38.3100014       1.18860664E-08
   38.3699989       1.03925952E-08
   38.4300003       8.73165718E-09
   38.4900017       6.89928026E-09
   38.5499992       4.91031527E-09
   38.6100006       2.79498491E-09
   38.6699982       5.89773008E-10
   38.7299995      -1.67289149E-09
   38.7900009      -3.97168698E-09
   38.8499985      -6.29777963E-09
   38.9099998      -8.65098659E-09
   38.9700012      -1.10332046E-08
   39.0299988      -1.34419915E-08
   39.0900002      -1.58662381E-08
   39.1500015      -1.82845952E-08
   39.2099991      -2.06664801E-08
   39.2700005      -2.29753638E-08
   39.3300018      -2.51739785E-08
   39.3899994      -2.72306178E-08
   39.4500008      -2.91249052E-08
   39.5099983      -3.08507708E-08
   39.5699997      -3.24149205E-08
   39.6300011      -3.38307338E-08
   39.6899986      -3.51097817E-08
   39.7500000      -3.62545833E-08
   39.8100014      -3.72559050E-08
   39.8699989      -3.80957061E-08
   39.9300003      -3.87543366E-08
   39.9900017      -3.92184702E-08
   40.0499992      -3.94864479E-08
   40.1100006      -3.95692936E-08
   40.1699982      -3.94878334E-08
   40.2299995      -3.92679596E-08
   40.2900009      -3.89360260E-08
   40.3499985      -3.85156191E-08
   40.4099998      -3.80256537E-08
   40.4700012      -3.74794951E-08
   40.5299988      -3.68848241E-08
   40.5900002      -3.62444545E-08
   40.6500015      -3.55583616E-08
   40.7099991      -3.48265523E-08
   40.7700005      -3.40517410E-08
   40.8300018      -3.32405250E-08
   40.8899994      -3.24024256E-08
   40.9500008      -3.15471453E-08
   41.0099983      -3.06815018E-08
   41.0699997      -2.98075378E-08
   41.1300011      -2.89225888E-08
   41.1899986      -2.80211090E-08
   41.2500000      -2.70971050E-08
   41.3100014      -2.61461643E-08
   41.3699989      -2.51665124E-08
   41.4300003      -2.41592168E-08
   41.4900017      -2.31278676E-08
   41.5499992      -2.20777832E-08
   41.6100006      -2.10145910E-08
   41.6699982      -1.99419201E-08
   41.7299995      -1.88586284E-08
   41.7900009      -1.77565180E-08
   41.8499985      -1.66199090E-08
   41.9099998      -1.54278794E-08
   41.9700012      -1.41589345E-08
   42.0299988      -1.27967557E-08
   42.0900002      -1.13350378E-08
   42.1500015      -9.77977521E-09
   42.2099991      -8.14829804E-09
   42.2700005      -6.46550280E-09
   42.3300018      -4.75855177E-09
   42.3899994      -3.05156789E-09
   42.4500008      -1.36166523E-09
   42.5099983       3.02831121E-10
   42.5699997       1.94168992E-09
   42.6300011       3.55992125E-09
   42.6899986       5.16367527E-09
   42.7500000       6.75621115E-09
   42.8100014       8.33532710E-09
   42.8699989       9.89314231E-09
   42.9300003       1.14182814E-08
   42.9900017       1.28995223E-08
   43.0499992       1.43294434E-08
   43.1100006       1.57066147E-08
   43.1699982       1.70356227E-08
   43.2299995       1.83250606E-08
   43.2900009       1.95844390E-08
   43.3499985       2.08212025E-08
   43.4099998       2.20389680E-08
   43.4700012       2.32375506E-08
   43.5299988       2.44147635E-08
   43.5900002       2.55693653E-08
   43.6500015       2.67039937E-08
   43.7099991       2.78267542E-08
   43.7700005       2.89504314E-08
   43.8300018       3.00890548E-08
   43.8899994       3.12528528E-08
   43.9500008       3.24435128E-08
   44.0099983       3.36520074E-08
   44.0699997       3.48603955E-08
   44.1300011       3.60472505E-08
   44.1899986       3.71947877E-08
   44.2500000       3.82946936E-08
   44.3100014       3.93502368E-08
   44.3699989       4.03737204E-08
   44.4300003       4.13803498E-08
   44.4900017       4.23810889E-08
   44.5499992       4.33771739E-08
   44.6100006       4.43582131E-08
   44.6699982       4.53041800E-08
   44.7299995       4.61902836E-08
   44.7900009       4.69929837E-08
   44.8499985       4.76952273E-08
   44.9099998       4.82895395E-08
   44.9700012       4.87782188E-08
   45.0299988       4.91706089E-08
   45.0900002       4.94782810E-08
   45.1500015       4.97094028E-08
   45.2099991       4.98641093E-08
   45.2700005       4.99324138E-08
   45.3300018       4.98954300E-08
   45.3899994       4.97297172E-08
   45.4500008       4.94133516E-08
   45.5099983       4.89317529E-08
   45.5699997       4.82813221E-08
   45.6300011       4.74696833E-08
   45.6899986       4.65124295E-08
   45.7500000       4.54273597E-08
   45.8100014       4.42281483E-08
   45.8699989       4.29195737E-08
   45.9300003       4.14961434E-08
   45.9900017       3.99449398E-08
   46.0499992       3.82520042E-08
   46.1100006       3.64102739E-08
   46.1699982       3.44261757E-08
   46.2299995       3.23223297E-08
   46.2900009       3.01351832E-08
   46.3499985       2.79083086E-08
   46.4099998       2.56838231E-08
   46.4700012       2.34950797E-08
   46.5299988       2.13630535E-08
   46.5900002       1.92973335E-08
   46.6500015       1.73007315E-08
   46.7099991       1.53753970E-08
   46.7700005       1.35280791E-08
   46.8300018       1.17728955E-08
   46.8899994       1.01309148E-08
   46.9500008       8.62699689E-09
   47.0099983       7.28493621E-09
   47.0699997       6.12247497E-09
   47.1300011       5.14776799E-09
   47.1899986       4.35859215E-09
   47.2500000       3.74475073E-09
   47.3100014       3.29296612E-09
   47.3699989       2.99240788E-09
   47.4300003       2.83854162E-09
   47.4900017       2.83355051E-09
   47.5499992       2.98304470E-09
   47.6100006       3.29047056E-09
   47.6699982       3.75167097E-09
   47.7299995       4.35193082E-09
   47.7900009       5.06661912E-09
   47.8499985       5.86503068E-09
   47.9099998       6.71588252E-09
   47.9700012       7.59270247E-09
   48.0299988       8.47778558E-09
   48.0900002       9.36401445E-09
   48.1500015       1.02542730E-08
   48.2099991       1.11584093E-08
   48.2700005       1.20880443E-08
   48.3300018       1.30502888E-08
   48.3899994       1.40422181E-08
   48.4500008       1.50483768E-08
   48.5099983       1.60427778E-08
   48.5699997       1.69951520E-08
   48.6300011       1.78790422E-08
   48.6899986       1.86783335E-08
   48.7500000       1.93893008E-08
   48.8100014       2.00175201E-08
   48.8699989       2.05715178E-08
   48.9300003       2.10565538E-08
   48.9900017       2.14714824E-08
   49.0499992       2.18096972E-08
   49.1100006       2.20628191E-08
   49.1699982       2.22245458E-08
   49.2299995       2.22924736E-08
   49.2900009       2.22673915E-08
   49.3499985       2.21510597E-08
   49.4099998       2.19441887E-08
   49.4700012       2.16457021E-08
   49.5299988       2.12532072E-08
   49.5900002       2.07638333E-08
   49.6500015       2.01747010E-08
   49.7099991       1.94830641E-08
   49.7700005       1.86867943E-08
   49.8300018       1.77857711E-08
   49.8899994       1.67839627E-08
   49.9500008       1.56910325E-08
   50.0099983       1.45221568E-08
   50.0699997       1.32954829E-08
   50.1300011       1.20280079E-08
   50.1899986       1.07317168E-08
   50.2500000       9.41182954E-09
   50.3100014       8.06802980E-09
   50.3699989       6.69802880E-09
   50.4300003       5.30179722E-09
   50.4900017       3.88458155E-09
   50.5499992       2.45756082E-09
   50.6100006       1.03601649E-09