  -2.400000      0.0000000E+00
  -2.340000      0.0000000E+00
  -2.280000      0.0000000E+00
  -2.220000      0.0000000E+00
  -2.160000      0.0000000E+00
  -2.100000     -5.3909865E-21
  -2.040000     -3.5679466E-20
  -1.980000     -9.7885374E-20
  -1.920000     -6.2973338E-20
  -1.860000      5.3101955E-19
  -1.800000      2.5030915E-18
  -1.740000      6.4462735E-18
  -1.680000      1.1287788E-17
  -1.620000      1.2519549E-17
  -1.560000      1.7190043E-18
  -1.500000     -3.0486536E-17
  -1.440000     -8.6917207E-17
  -1.380000     -1.5368175E-16
  -1.320000     -1.9305506E-16
  -1.260000     -1.4733868E-16
  -1.200000      4.0205150E-17
  -1.140000      3.8826370E-16
  -1.080000      8.3564295E-16
  -1.020000      1.2157988E-15
 -0.9600000      1.2722443E-15
 -0.9000000      7.3199031E-16
 -0.8400000     -5.6542493E-16
 -0.7800000     -2.5145952E-15
 -0.7200000     -4.6276713E-15
 -0.6600000     -6.0330786E-15
 -0.6000000     -5.6574093E-15
 -0.5400000     -2.6078078E-15
 -0.4800000      3.3167796E-15
 -0.4200000      1.1160313E-14
 -0.3600000      1.8635648E-14
 -0.3000000      2.2469040E-14
 -0.2400000      1.9347996E-14
 -0.1800000      7.3068611E-15
 -0.1200000     -1.2890363E-14
 -5.9999999E-02 -3.6978301E-14
  0.0000000E+00 -5.7575696E-14
  5.9999999E-02 -6.5938967E-14
  0.1200000     -5.4771573E-14
  0.1800000     -2.1266270E-14
  0.2400000      3.0703701E-14
  0.3000000      9.0186308E-14
  0.3600000      1.4096015E-13
  0.4200000      1.6525521E-13
  0.4800000      1.4848269E-13
  0.5400000      8.3799687E-14
  0.6000000     -2.4557638E-14
  0.6600000     -1.5990072E-13
  0.7200000     -2.9407336E-13
  0.7800000     -3.9101480E-13
  0.8400000     -4.1302533E-13
  0.9000000     -3.2958076E-13
  0.9600000     -1.2781262E-13
   1.020000      1.7742698E-13
   1.080000      5.3726105E-13
   1.140000      8.7017475E-13
   1.200000      1.0741444E-12
   1.260000      1.0498719E-12
   1.320000      7.3143618E-13
   1.380000      1.1653834E-13
   1.440000     -7.1393743E-13
   1.500000     -1.5965629E-12
   1.560000     -2.3111769E-12
   1.620000     -2.6294015E-12
   1.680000     -2.3753553E-12
   1.740000     -1.4823400E-12
   1.800000     -2.8427361E-14
   1.860000      1.7612438E-12
   1.920000      3.5483827E-12
   1.980000      4.9441961E-12
   2.040000      5.5857328E-12
   2.100000      5.2089145E-12
   2.160000      3.7050692E-12
   2.220000      1.1547210E-12
   2.280000     -2.1618141E-12
   2.340000     -5.7762272E-12
   2.400000     -9.0690415E-12
   2.460000     -1.1338606E-11
   2.520000     -1.1909070E-11
   2.580000     -1.0274512E-11
   2.640000     -6.2581515E-12
   2.700000     -1.4556614E-13
   2.760000      7.2597002E-12
   2.820000      1.4701273E-11
   2.880000      2.0669152E-11
   2.940000      2.3703376E-11
   3.000000      2.2732682E-11
   3.060000      1.7359272E-11
   3.120000      8.0113772E-12
   3.180000     -4.0772693E-12
   3.240000     -1.7053178E-11
   3.300000     -2.8745664E-11
   3.360000     -3.7020012E-11
   3.420000     -4.0121646E-11
   3.480000     -3.6971828E-11
   3.540000     -2.7392954E-11
   3.600000     -1.2244689E-11
   3.660000      6.5582015E-12
   3.720000      2.6186601E-11
   3.780000      4.3231450E-11
   3.840000      5.4233628E-11
   3.900000      5.6354033E-11
   3.960000      4.8065378E-11
   4.020000      2.9704721E-11
   4.080000      3.7257294E-12
   4.140000     -2.5460174E-11
   4.200000     -5.2074508E-11
   4.260000     -6.9909786E-11
   4.320000     -7.3440601E-11
   4.380000     -5.8884030E-11
   4.440000     -2.4990203E-11
   4.500000      2.6599866E-11
   4.560000      9.1499114E-11
   4.620000      1.6318727E-10
   4.680000      2.3396607E-10
   4.740000      2.9607597E-10
   4.800000      3.4278319E-10
   4.860000      3.6927805E-10
   4.920000      3.7328132E-10
   4.980000      3.5531567E-10
   5.040000      3.1864561E-10
   5.100000      2.6891170E-10
   5.160000      2.1349444E-10
   5.220000      1.6065116E-10
   5.280000      1.1849048E-10
   5.340000      9.3887113E-11
   5.400000      9.1482349E-11
   5.460000      1.1294381E-10
   5.520000      1.5664726E-10
   5.580000      2.1788678E-10
   5.640000      2.8962016E-10
   5.700000      3.6364045E-10
   5.760000      4.3196030E-10
   5.820000      4.8813525E-10
   5.880000      5.2825583E-10
   5.940000      5.5140637E-10
   6.000000      5.5951099E-10
   6.060000      5.5663263E-10
   6.120000      5.4792071E-10
   6.180000      5.3848298E-10
   6.240000      5.3245608E-10
   6.300000      5.3247101E-10
   6.360000      5.3957011E-10
   6.420000      5.5348698E-10
   6.480000      5.7309080E-10
   6.540000      5.9677341E-10
   6.600000      6.2261807E-10
   6.660000      6.4831640E-10
   6.720000      6.7092804E-10
   6.780000      6.8666201E-10
   6.840000      6.9085626E-10
   6.900000      6.7824152E-10
   6.960000      6.4345018E-10
   7.020000      5.8160715E-10
   7.080000      4.8879301E-10
   7.140000      3.6220266E-10
   7.200000      1.9994102E-10
   7.260000      5.3626862E-13
   7.320000     -2.3762942E-10
   7.380000     -5.1672921E-10
   7.440000     -8.3954615E-10
   7.500000     -1.2090956E-09
   7.560000     -1.6278882E-09
   7.620000     -2.0970308E-09
   7.680000     -2.6154241E-09
   7.740000     -3.1792888E-09
   7.800000     -3.7821497E-09
   7.860000     -4.4152619E-09
   7.920000     -5.0683147E-09
   7.980000     -5.7301759E-09
   8.040000     -6.3894237E-09
   8.100000     -7.0345263E-09
   8.160000     -7.6536804E-09
   8.220000     -8.2344966E-09
   8.280000     -8.7638181E-09
   8.340000     -9.2279464E-09
   8.400000     -9.6133892E-09
   8.460000     -9.9080264E-09
   8.520000     -1.0102363E-08
   8.580000     -1.0190456E-08
   8.640000     -1.0170183E-08
   8.700000     -1.0042774E-08
   8.760000     -9.8117869E-09
   8.820000     -9.4819770E-09
   8.880000     -9.0584633E-09
   8.940000     -8.5464729E-09
   9.000000     -7.9516109E-09
   9.060000     -7.2803745E-09
   9.120000     -6.5405534E-09
   9.180000     -5.7412497E-09
   9.240000     -4.8925264E-09
   9.300000     -4.0049062E-09
   9.360000     -3.0890344E-09
   9.420000     -2.1557023E-09
   9.480000     -1.2162209E-09
   9.540000     -2.8291419E-10
   9.600000      6.3056921E-10
   9.660000      1.5093351E-09
   9.720000      2.3377433E-09
   9.780000      3.1001846E-09
   9.840000      3.7819321E-09
   9.900000      4.3699417E-09
   9.960000      4.8535860E-09
   10.02000      5.2253930E-09
   10.08000      5.4818190E-09
   10.14000      5.6239466E-09
   10.20000      5.6578466E-09
   10.26000      5.5943068E-09
   10.32000      5.4477249E-09
   10.38000      5.2342504E-09
   10.44000      4.9695505E-09
   10.50000      4.6668016E-09
   10.56000      4.3355066E-09
   10.62000      3.9815156E-09
   10.68000      3.6082008E-09
   10.74000      3.2183163E-09
   10.80000      2.8157796E-09
   10.86000      2.4066500E-09
   10.92000      1.9988939E-09
   10.98000      1.6010699E-09
   11.04000      1.2205577E-09
   11.10000      8.6217983E-10
   11.16000      5.2788335E-10
   11.22000      2.1762370E-10
   11.28000     -6.9015627E-11
   11.34000     -3.3132130E-10
   11.40000     -5.6686117E-10
   11.46000     -7.7211842E-10
   11.52000     -9.4400510E-10
   11.58000     -1.0814454E-09
   11.64000     -1.1862052E-09
   11.70000     -1.2625828E-09
   11.76000     -1.3161990E-09
   11.82000     -1.3525752E-09
   11.88000     -1.3761968E-09
   11.94000     -1.3903758E-09
   12.00000     -1.3976871E-09
   12.06000     -1.4004562E-09
   12.12000     -1.4008533E-09
   12.18000     -1.4005582E-09
   12.24000     -1.4003586E-09
   12.30000     -1.4001525E-09
   12.36000     -1.3995426E-09
   12.42000     -1.3987387E-09
   12.48000     -1.3991733E-09
   12.54000     -1.4033411E-09
   12.60000     -1.4138656E-09
   12.66000     -1.4323680E-09
   12.72000     -1.4589445E-09
   12.78000     -1.4927601E-09
   12.84000     -1.5335671E-09
   12.90000     -1.5832764E-09
   12.96000     -1.6465187E-09
   13.02000     -1.7295801E-09
   13.08000     -1.8380031E-09
   13.14000     -1.9739470E-09
   13.20000     -2.1346647E-09
   13.26000     -2.3129518E-09
   13.32000     -2.4994582E-09
   13.38000     -2.6858136E-09
   13.44000     -2.8671663E-09
   13.50000     -3.0430993E-09
   13.56000     -3.2168006E-09
   13.62000     -3.3932530E-09
   13.68000     -3.5776428E-09
   13.74000     -3.7749053E-09
   13.80000     -3.9905528E-09
   13.86000     -4.2320836E-09
   13.92000     -4.5098281E-09
   13.98000     -4.8362754E-09
   14.04000     -5.2236673E-09
   14.10000     -5.6805387E-09
   14.16000     -6.2085190E-09
   14.22000     -6.8007391E-09
   14.28000     -7.4426154E-09
   14.34000     -8.1148386E-09
   14.40000     -8.7974890E-09
   14.46000     -9.4737906E-09
   14.52000     -1.0132165E-08
   14.58000     -1.0766035E-08
   14.64000     -1.1371758E-08
   14.70000     -1.1945857E-08
   14.76000     -1.2482910E-08
   14.82000     -1.2975110E-08
   14.88000     -1.3413666E-08
   14.94000     -1.3791404E-08
   15.00000     -1.4105414E-08
   15.06000     -1.4358575E-08
   15.12000     -1.4559335E-08
   15.18000     -1.4719800E-08
   15.24000     -1.4852804E-08
   15.30000     -1.4968990E-08
   15.36000     -1.5074757E-08
   15.42000     -1.5171652E-08
   15.48000     -1.5257212E-08
   15.54000     -1.5326947E-08
   15.60000     -1.5376767E-08
   15.66000     -1.5405151E-08
   15.72000     -1.5414409E-08
   15.78000     -1.5410622E-08
   15.84000     -1.5402254E-08
   15.90000     -1.5397797E-08
   15.96000     -1.5403216E-08
   16.02000     -1.5420049E-08
   16.08000     -1.5444883E-08
   16.14000     -1.5470482E-08
   16.20000     -1.5488263E-08
   16.26000     -1.5491246E-08
   16.32000     -1.5476427E-08
   16.38000     -1.5445693E-08
   16.44000     -1.5404867E-08
   16.50000     -1.5361280E-08
   16.56000     -1.5320778E-08
   16.62000     -1.5285305E-08
   16.68000     -1.5252073E-08
   16.74000     -1.5214574E-08
   16.80000     -1.5165144E-08
   16.86000     -1.5098053E-08
   16.92000     -1.5012066E-08
   16.98000     -1.4911571E-08
   17.04000     -1.4805965E-08
   17.10000     -1.4707670E-08
   17.16000     -1.4629424E-08
   17.22000     -1.4581718E-08
   17.28000     -1.4570969E-08
   17.34000     -1.4598716E-08
   17.40000     -1.4661791E-08
   17.46000     -1.4753236E-08
   17.52000     -1.4863668E-08
   17.58000     -1.4982783E-08
   17.64000     -1.5100742E-08
   17.70000     -1.5209196E-08
   17.76000     -1.5301795E-08
   17.82000     -1.5374130E-08
   17.88000     -1.5423213E-08
   17.94000     -1.5446703E-08
   18.00000     -1.5442193E-08
   18.06000     -1.5406679E-08
   18.12000     -1.5336393E-08
   18.18000     -1.5226959E-08
   18.24000     -1.5073818E-08
   18.30000     -1.4872835E-08
   18.36000     -1.4620984E-08
   18.42000     -1.4316876E-08
   18.48000     -1.3960971E-08
   18.54000     -1.3555227E-08
   18.60000     -1.3102210E-08
   18.66000     -1.2603873E-08
   18.72000     -1.2060440E-08
   18.78000     -1.1469862E-08
   18.84000     -1.0828155E-08
   18.90000     -1.0130601E-08
   18.96000     -9.3735011E-09
   19.02000     -8.5559382E-09
   19.08000     -7.6810514E-09
   19.14000     -6.7564048E-09
   19.20000     -5.7932907E-09
   19.26000     -4.8050151E-09
   19.32000     -3.8044767E-09
   19.38000     -2.8016289E-09
   19.44000     -1.8016080E-09
   19.50000     -8.0429075E-10
   19.56000      1.9432127E-10
   19.62000      1.1991775E-09
   19.68000      2.2127473E-09
   19.74000      3.2325302E-09
   19.80000      4.2507300E-09
   19.86000      5.2564424E-09
   19.92000      6.2395404E-09
   19.98000      7.1945965E-09
   20.04000      8.1230498E-09
   20.10000      9.0326377E-09
   20.16000      9.9343245E-09
   20.22000      1.0838097E-08
   20.28000      1.1749434E-08
   20.34000      1.2667836E-08
   20.40000      1.3587838E-08
   20.46000      1.4501911E-08
   20.52000      1.5403993E-08
   20.58000      1.6292329E-08
   20.64000      1.7170715E-08
   20.70000      1.8047693E-08
   20.76000      1.8933941E-08
   20.82000      1.9838382E-08
   20.88000      2.0764027E-08
   20.94000      2.1704645E-08
   21.00000      2.2643361E-08
   21.06000      2.3553829E-08
   21.12000      2.4403880E-08
   21.18000      2.5160663E-08
   21.24000      2.5795735E-08
   21.30000      2.6288527E-08
   21.36000      2.6627280E-08
   21.42000      2.6807511E-08
   21.48000      2.6829033E-08
   21.54000      2.6693010E-08
   21.60000      2.6400327E-08
   21.66000      2.5951941E-08
   21.72000      2.5350916E-08
   21.78000      2.4605203E-08
   21.84000      2.3729870E-08
   21.90000      2.2747654E-08
   21.96000      2.1687324E-08
   22.02000      2.0580101E-08
   22.08000      1.9455156E-08
   22.14000      1.8335616E-08
   22.20000      1.7236262E-08
   22.26000      1.6163531E-08
   22.32000      1.5117326E-08
   22.38000      1.4093573E-08
   22.44000      1.3086152E-08
   22.50000      1.2087559E-08
   22.56000      1.1088479E-08
   22.62000      1.0077326E-08
   22.68000      9.0408250E-09
   22.74000      7.9661637E-09
   22.80000      6.8441777E-09
   22.86000      5.6723182E-09
   22.92000      4.4561039E-09
   22.98000      3.2084044E-09
   23.04000      1.9469224E-09
   23.10000      6.9089401E-10
   23.16000     -5.4187399E-10
   23.22000     -1.7369980E-09
   23.28000     -2.8844798E-09
   23.34000     -3.9789070E-09
   23.40000     -5.0190767E-09
   23.46000     -6.0070233E-09
   23.52000     -6.9464021E-09
   23.58000     -7.8404998E-09
   23.64000     -8.6906153E-09
   23.70000     -9.4957366E-09
   23.76000     -1.0254054E-08
   23.82000     -1.0965993E-08
   23.88000     -1.1637517E-08
   23.94000     -1.2282044E-08
   24.00000     -1.2919740E-08
   24.06000     -1.3573967E-08
   24.12000     -1.4265852E-08
   24.18000     -1.5008695E-08
   24.24000     -1.5803998E-08
   24.30000     -1.6640287E-08
   24.36000     -1.7495099E-08
   24.42000     -1.8339529E-08
   24.48000     -1.9144153E-08
   24.54000     -1.9884725E-08
   24.60000     -2.0546002E-08
   24.66000     -2.1122535E-08
   24.72000     -2.1616090E-08
   24.78000     -2.2030610E-08
   24.84000     -2.2366583E-08
   24.90000     -2.2617069E-08
   24.96000     -2.2767029E-08
   25.02000     -2.2796209E-08
   25.08000     -2.2684407E-08
   25.14000     -2.2417002E-08
   25.20000     -2.1988747E-08
   25.26000     -2.1404759E-08
   25.32000     -2.0678803E-08
   25.38000     -1.9829855E-08
   25.44000     -1.8878128E-08
   25.50000     -1.7841502E-08
   25.56000     -1.6733061E-08
   25.62000     -1.5560168E-08
   25.68000     -1.4325575E-08
   25.74000     -1.3030638E-08
   25.80000     -1.1680060E-08
   25.86000     -1.0286674E-08
   25.92000     -8.8742631E-09
   25.98000     -7.4767286E-09
   26.04000     -6.1332290E-09
   26.10000     -4.8805906E-09
   26.16000     -3.7455301E-09
   26.22000     -2.7394049E-09
   26.28000     -1.8571443E-09
   26.34000     -1.0804254E-09
   26.40000     -3.8371700E-10
   26.46000      2.5877664E-10
   26.52000      8.6705465E-10
   26.58000      1.4512896E-09
   26.64000      2.0103654E-09
   26.70000      2.5330822E-09
   26.76000      3.0017289E-09
   26.82000      3.3971603E-09
   26.88000      3.7038801E-09
   26.94000      3.9132844E-09
   27.00000      4.0236294E-09
   27.06000      4.0365271E-09
   27.12000      3.9513530E-09
   27.18000      3.7600825E-09
   27.24000      3.4450283E-09
   27.30000      2.9806924E-09
   27.36000      2.3391009E-09
   27.42000      1.4965096E-09
   27.48000      4.3899923E-10
   27.54000     -8.3475271E-10
   27.60000     -2.3139040E-09
   27.66000     -3.9783141E-09
   27.72000     -5.8026046E-09
   27.78000     -7.7603044E-09
   27.84000     -9.8273460E-09
   27.90000     -1.1984397E-08
   27.96000     -1.4217604E-08
   28.02000     -1.6517507E-08
   28.08000     -1.8876316E-08
   28.14000     -2.1284489E-08
   28.20000     -2.3728017E-08
   28.26000     -2.6187671E-08
   28.32000     -2.8640644E-08
   28.38000     -3.1063848E-08
   28.44000     -3.3437285E-08
   28.50000     -3.5745913E-08
   28.56000     -3.7979383E-08
   28.62000     -4.0129983E-08
   28.68000     -4.2190059E-08
   28.74000     -4.4149992E-08
   28.80000     -4.5997290E-08
   28.86000     -4.7716483E-08
   28.92000     -4.9289277E-08
   28.98000     -5.0694542E-08
   29.04000     -5.1908334E-08
   29.10000     -5.2904326E-08
   29.16000     -5.3655089E-08
   29.22000     -5.4134084E-08
   29.28000     -5.4318008E-08
   29.34000     -5.4188796E-08
   29.40000     -5.3734926E-08
   29.46000     -5.2952043E-08
   29.52000     -5.1842949E-08
   29.58000     -5.0417142E-08
   29.64000     -4.8689785E-08
   29.70000     -4.6680086E-08
   29.76000     -4.4409205E-08
   29.82000     -4.1898240E-08
   29.88000     -3.9166771E-08
   29.94000     -3.6232453E-08
   30.00000     -3.3111544E-08
   30.06000     -2.9819862E-08
   30.12000     -2.6373572E-08
   30.18000     -2.2789440E-08
   30.24000     -1.9084577E-08
   30.30000     -1.5276047E-08
   30.36000     -1.1380593E-08
   30.42000     -7.4146307E-09
   30.48000     -3.3944072E-09
   30.54000      6.6369066E-10
   30.60000      4.7425965E-09
   30.66000      8.8236218E-09
   30.72000      1.2885193E-08
   30.78000      1.6901751E-08
   30.84000      2.0843606E-08
   30.90000      2.4678318E-08
   30.96000      2.8373600E-08
   31.02000      3.1900715E-08
   31.08000      3.5236976E-08
   31.14000      3.8366057E-08
   31.20000      4.1275829E-08
   31.26000      4.3954497E-08
   31.32000      4.6386749E-08
   31.38000      4.8551453E-08
   31.44000      5.0421896E-08
   31.50000      5.1968598E-08
   31.56000      5.3163756E-08
   31.62000      5.3986184E-08
   31.68000      5.4425389E-08
   31.74000      5.4483678E-08
   31.80000      5.4175494E-08
   31.86000      5.3523749E-08
   31.92000      5.2553798E-08
   31.98000      5.1286577E-08
   32.04000      4.9733124E-08
   32.10000      4.7892595E-08
   32.16000      4.5754661E-08
   32.22000      4.3305782E-08
   32.28000      4.0537024E-08
   32.34000      3.7450707E-08
   32.40000      3.4063522E-08
   32.46000      3.0405332E-08
   32.52000      2.6514504E-08
   32.58000      2.2431683E-08
   32.64000      1.8194182E-08
   32.70000      1.3832737E-08
   32.76000      9.3713837E-09
   32.82000      4.8302842E-09
   32.88000      2.3052105E-10
   32.94000     -4.4007442E-09
   33.00000     -9.0266914E-09
   33.06000     -1.3600488E-08
   33.12000     -1.8068894E-08
   33.18000     -2.2379053E-08
   33.24000     -2.6486230E-08
   33.30000     -3.0359619E-08
   33.36000     -3.3983810E-08
   33.42000     -3.7355296E-08
   33.48000     -4.0475346E-08
   33.54000     -4.3342062E-08
   33.60000     -4.5944514E-08
   33.66000     -4.8260844E-08
   33.72000     -5.0260631E-08
   33.78000     -5.1910359E-08
   33.84000     -5.3180216E-08
   33.90000     -5.4050474E-08
   33.96000     -5.4515851E-08
   34.02000     -5.4586831E-08
   34.08000     -5.4287209E-08
   34.14000     -5.3648137E-08
   34.20000     -5.2700120E-08
   34.26000     -5.1465513E-08
   34.32000     -4.9954544E-08
   34.38000     -4.8166807E-08
   34.44000     -4.6098009E-08
   34.50000     -4.3749406E-08
   34.56000     -4.1136008E-08
   34.62000     -3.8289997E-08
   34.68000     -3.5258044E-08
   34.74000     -3.2093848E-08
   34.80000     -2.8848991E-08
   34.86000     -2.5565599E-08
   34.92000     -2.2272994E-08
   34.98000     -1.8988723E-08
   35.04000     -1.5722895E-08
   35.10000     -1.2484068E-08
   35.16000     -9.2850367E-09
   35.22000     -6.1469949E-09
   35.28000     -3.1008642E-09
   35.34000     -1.8495776E-10
   35.40000      2.5609732E-09
   35.46000      5.1038493E-09
   35.52000      7.4247790E-09
   35.58000      9.5228252E-09
   35.64000      1.1412977E-08
   35.70000      1.3118568E-08
   35.76000      1.4660803E-08
   35.82000      1.6049370E-08
   35.88000      1.7277525E-08
   35.94000      1.8323098E-08
   36.00000      1.9154461E-08
   36.06000      1.9739099E-08
   36.12000      2.0052067E-08
   36.18000      2.0082441E-08
   36.24000      1.9836689E-08
   36.30000      1.9338367E-08
   36.36000      1.8623860E-08
   36.42000      1.7734502E-08
   36.48000      1.6706640E-08
   36.54000      1.5562531E-08
   36.60000      1.4305637E-08
   36.66000      1.2922713E-08
   36.72000      1.1392464E-08
   36.78000      9.6974935E-09
   36.84000      7.8344877E-09
   36.90000      5.8182921E-09
   36.96000      3.6784049E-09
   37.02000      1.4499933E-09
   37.08000     -8.3613627E-10
   37.14000     -3.1602219E-09
   37.20000     -5.5146270E-09
   37.26000     -7.8998745E-09
   37.32000     -1.0318142E-08
   37.38000     -1.2766986E-08
   37.44000     -1.5235129E-08
   37.50000     -1.7700904E-08
   37.56000     -2.0133230E-08
   37.62000     -2.2494937E-08
   37.68000     -2.4748106E-08
   37.74000     -2.6860581E-08
   37.80000     -2.8811874E-08
   37.86000     -3.0596098E-08
   37.92000     -3.2220218E-08
   37.98000     -3.3697706E-08
   38.04000     -3.5039992E-08
   38.10000     -3.6249361E-08
   38.16000     -3.7316539E-08
   38.22000     -3.8223892E-08
   38.28000     -3.8952461E-08
   38.34000     -3.9489510E-08
   38.40000     -3.9833335E-08
   38.46000     -3.9993893E-08
   38.52000     -3.9990063E-08
   38.58000     -3.9845400E-08
   38.64000     -3.9584339E-08
   38.70000     -3.9229558E-08
   38.76000     -3.8800341E-08
   38.82000     -3.8311423E-08
   38.88000     -3.7772189E-08
   38.94000     -3.7186755E-08
   39.00000     -3.6555395E-08
   39.06000     -3.5877200E-08
   39.12000     -3.5152990E-08
   39.18000     -3.4387138E-08
   39.24000     -3.3587419E-08
   39.30000     -3.2762980E-08
   39.36000     -3.1921555E-08
   39.42000     -3.1067259E-08
   39.48000     -3.0199828E-08
   39.54000     -2.9315462E-08
   39.60000     -2.8408502E-08
   39.66000     -2.7473373E-08
   39.72000     -2.6506227E-08
   39.78000     -2.5506118E-08
   39.84000     -2.4475566E-08
   39.90000     -2.3420181E-08
   39.96000     -2.2346997E-08
   40.02000     -2.1261542E-08
   40.08000     -2.0164356E-08
   40.14000     -1.9048315E-08
   40.20000     -1.7898140E-08
   40.26000     -1.6692827E-08
   40.32000     -1.5410569E-08
   40.38000     -1.4034645E-08
   40.44000     -1.2558362E-08
   40.50000     -1.0987419E-08
   40.56000     -9.3390540E-09
   40.62000     -7.6383193E-09
   40.68000     -5.9126330E-09
   40.74000     -4.1861301E-09
   40.80000     -2.4753055E-09
   40.86000     -7.8708662E-10
   40.92000      8.8016822E-10
   40.98000      2.5330953E-09
   41.04000      4.1783945E-09
   41.10000      5.8183045E-09
   41.16000      7.4481776E-09
   41.22000      9.0570316E-09
   41.28000      1.0630781E-08
   41.34000      1.2156728E-08
   41.40000      1.3627487E-08
   41.46000      1.5042856E-08
   41.52000      1.6409130E-08
   41.58000      1.7736390E-08
   41.64000      1.9034925E-08
   41.70000      2.0312164E-08
   41.76000      2.1571056E-08
   41.82000      2.2810394E-08
   41.88000      2.4026980E-08
   41.94000      2.5218860E-08
   42.00000      2.6388514E-08
   42.06000      2.7544491E-08
   42.12000      2.8700439E-08
   42.18000      2.9871288E-08
   42.24000      3.1067717E-08
   42.30000      3.2291119E-08
   42.36000      3.3531450E-08
   42.42000      3.4769357E-08
   42.48000      3.5982186E-08
   42.54000      3.7151530E-08
   42.60000      3.8269281E-08
   42.66000      3.9339557E-08
   42.72000      4.0375774E-08
   42.78000      4.1394177E-08
   42.84000      4.2406384E-08
   42.90000      4.3413781E-08
   42.96000      4.4405613E-08
   43.02000      4.5361073E-08
   43.08000      4.6254431E-08
   43.14000      4.7061413E-08
   43.20000      4.7764889E-08
   43.26000      4.8358316E-08
   43.32000      4.8845873E-08
   43.38000      4.9239304E-08
   43.44000      4.9552362E-08
   43.50000      4.9794540E-08
   43.56000      4.9966228E-08
   43.62000      5.0056901E-08
   43.68000      5.0047102E-08
   43.74000      4.9913421E-08
   43.80000      4.9634778E-08
   43.86000      4.9197940E-08
   43.92000      4.8600459E-08
   43.98000      4.7850332E-08
   44.04000      4.6962512E-08
   44.10000      4.5953460E-08
   44.16000      4.4835311E-08
   44.22000      4.3611582E-08
   44.28000      4.2276007E-08
   44.34000      4.0815287E-08
   44.40000      3.9215340E-08
   44.46000      3.7469142E-08
   44.52000      3.5583298E-08
   44.58000      3.3580704E-08
   44.64000      3.1497951E-08
   44.70000      2.9378215E-08
   44.76000      2.7262377E-08
   44.82000      2.5181668E-08
   44.88000      2.3154481E-08
   44.94000      2.1188034E-08
   45.00000      1.9283561E-08
   45.06000      1.7442584E-08
   45.12000      1.5671867E-08
   45.18000      1.3985543E-08
   45.24000      1.2404203E-08
   45.30000      1.0951580E-08
   45.36000      9.6499662E-09
   45.42000      8.5156593E-09
   45.48000      7.5557400E-09
   45.54000      6.7673342E-09
   45.60000      6.1399108E-09
   45.66000      5.6601053E-09
   45.72000      5.3173768E-09
   45.78000      5.1080833E-09
   45.84000      5.0359792E-09
   45.90000      5.1086313E-09
   45.96000      5.3311924E-09
   46.02000      5.7003011E-09
   46.08000      6.2008567E-09
   46.14000      6.8070403E-09
   46.20000      7.4870377E-09
   46.26000      8.2094891E-09
   46.32000      8.9493488E-09
   46.38000      9.6915906E-09
   46.44000      1.0432176E-08
   46.50000      1.1176500E-08
   46.56000      1.1935740E-08
   46.62000      1.2721662E-08
   46.68000      1.3540762E-08
   46.74000      1.4389321E-08
   46.80000      1.5251285E-08
   46.86000      1.6100429E-08
   46.92000      1.6906665E-08
   46.98000      1.7644266E-08
   47.04000      1.8298607E-08
   47.10000      1.8868272E-08
   47.16000      1.9361682E-08
   47.22000      1.9790033E-08
   47.28000      2.0160194E-08
   47.34000      2.0471020E-08
   47.40000      2.0714396E-08
   47.46000      2.0879678E-08
   47.52000      2.0958595E-08
   47.58000      2.0947850E-08
   47.64000      2.0848510E-08
   47.70000      2.0663286E-08
   47.76000      2.0393784E-08
   47.82000      2.0039318E-08
   47.88000      1.9597440E-08
   47.94000      1.9065183E-08
   48.00000      1.8439920E-08
   48.06000      1.7719477E-08
   48.12000      1.6902233E-08
   48.18000      1.5988039E-08
   48.24000      1.4980179E-08
   48.30000      1.3887288E-08
   48.36000      1.2723735E-08
   48.42000      1.1507427E-08
   48.48000      1.0255512E-08
   48.54000      8.9799075E-09
   48.60000      7.6849478E-09
   48.66000      6.3685071E-09
   48.72000      5.0261564E-09
   48.78000      3.6563625E-09
   48.84000      2.2642688E-09
   48.90000      8.6240765E-10
   48.96000     -5.3181398E-10
   49.02000     -1.9006963E-09
   49.08000     -3.2311405E-09
   49.14000     -4.5183004E-09
   49.20000     -5.7670073E-09
   49.26000     -6.9905930E-09
   49.32000     -8.2072269E-09
   49.38000     -9.4344275E-09
   49.44000     -1.0683056E-08
   49.50000     -1.1952674E-08
   49.56000     -1.3230138E-08
   49.62000     -1.4492433E-08
   49.68000     -1.5713091E-08
   49.74000     -1.6869821E-08
   49.80000     -1.7950182E-08
   49.86000     -1.8952791E-08
   49.92000     -1.9883501E-08
   49.98000     -2.0748303E-08
   50.04000     -2.1546148E-08
   50.10000     -2.2264896E-08
   50.16000     -2.2882007E-08
   50.22000     -2.3369614E-08
   50.28000     -2.3701899E-08
   50.34000     -2.3862162E-08
   50.40000     -2.3847393E-08
   50.46000     -2.3669278E-08
   50.52000     -2.3351532E-08
   50.58000     -2.2924350E-08
   50.64000     -2.2417195E-08
   50.70000     -2.1851674E-08
   50.76000     -2.1236430E-08
   50.82000     -2.0565814E-08
   50.88000     -1.9823283E-08
   50.94000     -1.8988898E-08
   51.00000     -1.8048798E-08
   51.06000     -1.7003369E-08
   51.12000     -1.5871112E-08
   51.18000     -1.4686541E-08
   51.24000     -1.3492620E-08
   51.30000     -1.2330227E-08
   51.36000     -1.1228176E-08
   51.42000     -1.0197124E-08
   51.48000     -9.2293071E-09
   51.54000     -8.3041334E-09
   51.60000     -7.3977930E-09
   51.66000     -6.4937842E-09
   51.72000     -5.5909739E-09
   51.78000     -4.7065440E-09
   51.84000     -3.8727932E-09
   51.90000     -3.1288079E-09
   51.96000     -2.5098175E-09
   52.02000     -2.0379141E-09
   52.08000     -1.7173853E-09
   52.14000     -1.5362061E-09
   52.20000     -1.4729664E-09
   52.26000     -1.5065637E-09
   52.32000     -1.6251485E-09
   52.38000     -1.8313396E-09
   52.44000     -2.1422948E-09
   52.50000     -2.5850964E-09
   52.56000     -3.1893710E-09
   52.62000     -3.9797112E-09
   52.68000     -4.9702451E-09
   52.74000     -6.1629200E-09
   52.80000     -7.5499411E-09
   52.86000     -9.1196375E-09
   52.92000     -1.0863964E-08
   52.98000     -1.2785197E-08
   53.04000     -1.4899388E-08
   53.10000     -1.7235026E-08
   53.16000     -1.9826974E-08
   53.22000     -2.2707596E-08
   53.28000     -2.5898201E-08
   53.34000     -2.9404033E-08
   53.40000     -3.3214658E-08
   53.46000     -3.7309523E-08
   53.52000     -4.1666276E-08
   53.58000     -4.6268472E-08
   53.64000     -5.1109541E-08
   53.70000     -5.6191588E-08
   53.76000     -6.1519621E-08
   53.82000     -6.7093559E-08
   53.88000     -7.2900683E-08
   53.94000     -7.8911015E-08
   54.00000     -8.5076159E-08
   54.06000     -9.1331188E-08
   54.12000     -9.7597855E-08
   54.18000     -1.0378740E-07
   54.24000     -1.0980195E-07
   54.30000     -1.1553431E-07
   54.36000     -1.2086660E-07
   54.42000     -1.2566883E-07
   54.48000     -1.2979756E-07
   54.54000     -1.3309514E-07
   54.60000     -1.3538919E-07
   54.66000     -1.3649228E-07
   54.72000     -1.3620222E-07
   54.78000     -1.3430297E-07
   54.84000     -1.3056673E-07
   54.90000     -1.2475675E-07
   54.96000     -1.1663041E-07
   55.02000     -1.0594231E-07
   55.08000     -9.2447259E-08
   55.14000     -7.5903777E-08
   55.20000     -5.6078949E-08
   55.26000     -3.2754304E-08
   55.32000     -5.7319864E-09
   55.38000      2.5160450E-08
   55.44000      6.0067798E-08
   55.50000      9.9107339E-08
   55.56000      1.4236977E-07