 -0.750000000       0.00000000    
 -0.689999998       0.00000000    
 -0.629999995       0.00000000    
 -0.569999993       0.00000000    
 -0.509999990       0.00000000    
 -0.449999988       3.16629855E-21
 -0.389999986       2.44072322E-20
 -0.330000013       9.45842838E-20
 -0.270000011       2.36935883E-19
 -0.209999993       3.98822496E-19
 -0.150000006       3.60746752E-19
  -9.00000036E-02  -2.98518523E-19
  -2.99999993E-02  -2.06601531E-18
   2.99999993E-02  -5.10984537E-18
   9.00000036E-02  -8.71798569E-18
  0.150000006      -1.08809836E-17
  0.209999993      -8.54434477E-18
  0.270000011       1.04394329E-18
  0.330000013       1.80885937E-17
  0.389999986       3.83047258E-17
  0.449999988       5.31647740E-17
  0.509999990       5.36433410E-17
  0.569999993       3.65295135E-17
  0.629999995       9.42286021E-18
  0.689999998      -1.09186873E-17
  0.750000000      -9.99846707E-18
  0.810000002       6.20845992E-18
  0.870000005      -3.52901347E-18
  0.930000007      -1.13065227E-16
  0.990000010      -3.98413752E-16
   1.04999995      -8.80554753E-16
   1.11000001      -1.45872414E-15
   1.16999996      -1.86607520E-15
   1.23000002      -1.68606948E-15
   1.28999996      -4.59866046E-16
   1.35000002       2.11194896E-15
   1.40999997       5.91443635E-15
   1.47000003       1.02015081E-14
   1.52999997       1.35399572E-14
   1.59000003       1.40205688E-14
   1.64999998       9.76391057E-15
   1.71000004      -3.73484302E-16
   1.76999998      -1.60972445E-14
   1.83000004      -3.52177631E-14
   1.88999999      -5.36128521E-14
   1.95000005      -6.56613300E-14
   2.00999999      -6.51016513E-14
   2.06999993      -4.62653699E-14
   2.13000011      -5.69027967E-15
   2.19000006       5.59050487E-14
   2.25000000       1.31551671E-13
   2.30999994       2.06602734E-13
   2.36999989       2.59131719E-13
   2.43000007       2.63345118E-13
   2.49000001       1.96427767E-13
   2.54999995       4.77489650E-14
   2.60999990      -1.72298428E-13
   2.67000008      -4.27508750E-13
   2.73000002      -6.58355152E-13
   2.78999996      -7.93035342E-13
   2.84999990      -7.65510268E-13
   2.91000009      -5.36332534E-13
   2.97000003      -1.10557403E-13
   3.02999997       4.52929496E-13
   3.08999991       1.04489106E-12
   3.15000010       1.52376245E-12
   3.21000004       1.74666564E-12
   3.26999998       1.60794446E-12
   3.32999992       1.07582541E-12
   3.39000010       2.15307630E-13
   3.45000005      -8.13643261E-13
   3.50999999      -1.78767309E-12
   3.56999993      -2.47636612E-12
   3.63000011      -2.70745579E-12
   3.69000006      -2.41868136E-12
   3.75000000      -1.67648805E-12
   3.80999994      -6.53491313E-13
   3.86999989       4.26944504E-13
   3.93000007       1.35730977E-12
   3.99000001       1.99864084E-12
   4.05000019       2.30258629E-12
   4.11000013       2.30149493E-12
   4.17000008       2.07885727E-12
   4.23000002       1.73692419E-12
   4.28999996       1.37226428E-12
   4.34999990       1.05883802E-12
   4.40999985       8.30763626E-13
   4.46999979       6.59417995E-13
   4.53000021       4.30922632E-13
   4.59000015      -5.74588662E-14
   4.65000010      -1.05980936E-12
   4.71000004      -2.79118872E-12
   4.76999998      -5.29423207E-12
   4.82999992      -8.29543725E-12
   4.88999987      -1.10969532E-11
   4.94999981      -1.25468655E-11
   5.01000023      -1.11133993E-11
   5.07000017      -5.06381092E-12
   5.13000011       7.27555993E-12
   5.19000006       2.72198548E-11
   5.25000000       5.54393892E-11
   5.30999994       9.17417323E-11
   5.36999989       1.34970965E-10
   5.42999983       1.83054308E-10
   5.48999977       2.33196795E-10
   5.55000019       2.82188911E-10
   5.61000013       3.26762728E-10
   5.67000008       3.63921115E-10
   5.73000002       3.91179089E-10
   5.78999996       4.06690431E-10
   5.84999990       4.09273782E-10
   5.90999985       3.98378941E-10
   5.96999979       3.74039438E-10
   6.03000021       3.36835365E-10
   6.09000015       2.87861235E-10
   6.15000010       2.28668404E-10
   6.21000004       1.61146790E-10
   6.26999998       8.73270761E-11
   6.32999992       9.11852972E-12
   6.38999987      -7.19703672E-11
   6.44999981      -1.55059118E-10
   6.51000023      -2.40002213E-10
   6.57000017      -3.27334382E-10
   6.63000011      -4.18056756E-10
   6.69000006      -5.13316445E-10
   6.75000000      -6.14068130E-10
   6.80999994      -7.20812687E-10
   6.86999989      -8.33476399E-10
   6.92999983      -9.51439483E-10
   6.98999977      -1.07366349E-09
   7.05000019      -1.19883692E-09
   7.11000013      -1.32547107E-09
   7.17000008      -1.45193035E-09
   7.23000002      -1.57643798E-09
   7.28999996      -1.69713188E-09
   7.34999990      -1.81222770E-09
   7.40999985      -1.92027838E-09
   7.46999979      -2.02045514E-09
   7.53000021      -2.11272799E-09
   7.59000015      -2.19785701E-09
   7.65000010      -2.27716401E-09
   7.71000004      -2.35216269E-09
   7.76999998      -2.42416887E-09
   7.82999992      -2.49402210E-09
   7.88999987      -2.56198973E-09
   7.94999981      -2.62784572E-09
   8.01000023      -2.69105205E-09
   8.06999969      -2.75095191E-09
   8.13000011      -2.80689427E-09
   8.18999958      -2.85826296E-09
   8.25000000      -2.90442426E-09
   8.31000042      -2.94462477E-09
   8.36999989      -2.97789438E-09
   8.43000031      -3.00299186E-09
   8.48999977      -3.01842995E-09
   8.55000019      -3.02258374E-09
   8.60999966      -3.01387137E-09
   8.67000008      -2.99096725E-09
   8.72999954      -2.95299007E-09
   8.78999996      -2.89962343E-09
   8.85000038      -2.83115265E-09
   8.90999985      -2.74843170E-09
   8.97000027      -2.65281397E-09
   9.02999973      -2.54606847E-09
   9.09000015      -2.43027465E-09
   9.14999962      -2.30766806E-09
   9.21000004      -2.18040941E-09
   9.27000046      -2.05030659E-09
   9.32999992      -1.91856664E-09
   9.39000034      -1.78569481E-09
   9.44999981      -1.65162439E-09
   9.51000023      -1.51607771E-09
   9.56999969      -1.37905043E-09
   9.63000011      -1.24123689E-09
   9.68999958      -1.10421605E-09
   9.75000000      -9.70306613E-10
   9.81000042      -8.42126646E-10
   9.86999989      -7.22003901E-10
   9.93000031      -6.11423967E-10
   9.98999977      -5.10663734E-10
   10.0500002      -4.18669238E-10
   10.1099997      -3.33153893E-10
   10.1700001      -2.50850091E-10
   10.2299995      -1.67857256E-10
   10.2900000      -8.00628938E-11
   10.3500004       1.63723323E-11
   10.4099998       1.24495289E-10
   10.4700003       2.46090204E-10
   10.5299997       3.81379844E-10
   10.5900002       5.29009669E-10
   10.6499996       6.86347923E-10
   10.7100000       8.50019388E-10
   10.7700005       1.01649422E-09
   10.8299999       1.18253762E-09
   10.8900003       1.34539802E-09
   10.9499998       1.50275092E-09
   11.0100002       1.65253511E-09
   11.0699997       1.79285731E-09
   11.1300001       1.92208272E-09
   11.1899996       2.03909889E-09
   11.2500000       2.14362172E-09
   11.3100004       2.23637597E-09
   11.3699999       2.31904007E-09
   11.4300003       2.39396036E-09
   11.4899998       2.46372700E-09
   11.5500002       2.53073162E-09
   11.6099997       2.59676614E-09
   11.6700001       2.66267497E-09
   11.7299995       2.72805512E-09
   11.7900000       2.79106382E-09
   11.8500004       2.84847812E-09
   11.9099998       2.89615065E-09
   11.9700003       2.92990299E-09
   12.0299997       2.94667135E-09
   12.0900002       2.94553693E-09
   12.1499996       2.92822033E-09
   12.2100000       2.89880830E-09
   12.2700005       2.86278889E-09
   12.3299999       2.82578894E-09
   12.3900003       2.79250978E-09
   12.4499998       2.76620971E-09
   12.5100002       2.74875345E-09
   12.5699997       2.74095391E-09
   12.6300001       2.74281442E-09
   12.6899996       2.75344747E-09
   12.7500000       2.77072343E-09
   12.8100004       2.79095924E-09
   12.8699999       2.80898482E-09
   12.9300003       2.81875456E-09
   12.9899998       2.81437229E-09
   13.0500002       2.79118928E-09
   13.1099997       2.74660716E-09
   13.1700001       2.68035594E-09
   13.2299995       2.59422350E-09
   13.2900000       2.49137666E-09
   13.3500004       2.37548492E-09
   13.4099998       2.24985786E-09
   13.4700003       2.11680917E-09
   13.5299997       1.97744798E-09
   13.5900002       1.83203230E-09
   13.6499996       1.68083802E-09
   13.7100000       1.52523838E-09
   13.7700005       1.36847345E-09
   13.8299999       1.21560351E-09
   13.8900003       1.07245746E-09
   13.9499998       9.43901735E-10
   14.0100002       8.32187208E-10
   14.0699997       7.36210481E-10
   14.1300001       6.52125742E-10
   14.1899996       5.75064107E-10
   14.2500000       5.01116815E-10
   14.3100004       4.28588609E-10
   14.3699999       3.57927327E-10
   14.4300003       2.90471563E-10
   14.4899998       2.26796845E-10
   14.5500002       1.65617547E-10
   14.6099997       1.03831610E-10
   14.6700001       3.76240428E-11
   14.7299995      -3.60128559E-11
   14.7900000      -1.18118348E-10
   14.8500004      -2.07423828E-10
   14.9099998      -3.00791586E-10
   14.9700003      -3.94029726E-10
   15.0299997      -4.82666851E-10
   15.0900002      -5.62527358E-10
   15.1499996      -6.30222374E-10
   15.2100000      -6.83730406E-10
   15.2700005      -7.23037907E-10
   15.3299999      -7.50533802E-10
   15.3900003      -7.70757014E-10
   15.4499998      -7.89321331E-10
   15.5100002      -8.11285539E-10
   15.5699997      -8.39613989E-10
   15.6300001      -8.74425643E-10
   15.6899996      -9.13386033E-10
   15.7500000      -9.53045198E-10
   15.8100004      -9.90482474E-10
   15.8699999      -1.02453224E-09
   15.9300003      -1.05614650E-09
   15.9899998      -1.08790643E-09
   16.0499992      -1.12304865E-09
   16.1100006      -1.16445564E-09
   16.1700001      -1.21390220E-09
   16.2299995      -1.27161814E-09
   16.2900009      -1.33610623E-09
   16.3500004      -1.40418632E-09
   16.4099998      -1.47133261E-09
   16.4699993      -1.53238666E-09
   16.5300007      -1.58260560E-09
   16.5900002      -1.61878777E-09
   16.6499996      -1.64008984E-09
   16.7099991      -1.64820302E-09
   16.7700005      -1.64680691E-09
   16.8299999      -1.64052627E-09
   16.8899994      -1.63379954E-09
   16.9500008      -1.63003877E-09
   17.0100002      -1.63126024E-09
   17.0699997      -1.63812841E-09
   17.1299992      -1.65022818E-09
   17.1900005      -1.66639780E-09
   17.2500000      -1.68505421E-09
   17.3099995      -1.70450887E-09
   17.3700008      -1.72325387E-09
   17.4300003      -1.74012760E-09
   17.4899998      -1.75423542E-09
   17.5499992      -1.76459092E-09
   17.6100006      -1.76960013E-09
   17.6700001      -1.76666570E-09
   17.7299995      -1.75219539E-09
   17.7900009      -1.72214565E-09
   17.8500004      -1.67298675E-09
   17.9099998      -1.60277791E-09
   17.9699993      -1.51199919E-09
   18.0300007      -1.40388812E-09
   18.0900002      -1.28419331E-09
   18.1499996      -1.16038379E-09
   18.2099991      -1.04040987E-09
   18.2700005      -9.31165589E-10
   18.3299999      -8.36919645E-10
   18.3899994      -7.58154872E-10
   18.4500008      -6.91362190E-10
   18.5100002      -6.30196728E-10
   18.5699997      -5.67946690E-10
   18.6299992      -5.00628261E-10
   18.6900005      -4.29521557E-10
   18.7500000      -3.61949415E-10
   18.8099995      -3.09700043E-10
   18.8700008      -2.85495266E-10
   18.9300003      -2.98825492E-10
   18.9899998      -3.52812807E-10
   19.0499992      -4.43317244E-10
   19.1100006      -5.60480773E-10
   19.1700001      -6.91845081E-10
   19.2299995      -8.25620350E-10
   19.2900009      -9.52870782E-10
   19.3500004      -1.06811782E-09
   19.4099998      -1.16867893E-09
   19.4699993      -1.25350941E-09
   19.5300007      -1.32222810E-09
   19.5900002      -1.37459522E-09
   19.6499996      -1.41031908E-09
   19.7099991      -1.42897127E-09
   19.7700005      -1.42997092E-09
   19.8299999      -1.41279821E-09
   19.8899994      -1.37759482E-09
   19.9500008      -1.32602318E-09
   20.0100002      -1.26192978E-09
   20.0699997      -1.19126375E-09
   20.1299992      -1.12101683E-09
   20.1900005      -1.05749309E-09
   20.2500000      -1.00466424E-09
   20.3099995      -9.63376823E-10
   20.3700008      -9.31725253E-10
   20.4300003      -9.06268949E-10
   20.4899998      -8.83362106E-10
   20.5499992      -8.59935567E-10
   20.6100006      -8.33537017E-10
   20.6700001      -8.01948119E-10
   20.7299995      -7.62899799E-10
   20.7900009      -7.14194703E-10
   20.8500004      -6.54138799E-10
   20.9099998      -5.81925175E-10
   20.9699993      -4.97699992E-10
   21.0300007      -4.02384709E-10
   21.0900002      -2.97582181E-10
   21.1499996      -1.85810159E-10
   21.2099991      -7.09006950E-11
   21.2700005       4.19854811E-11
   21.3299999       1.47258927E-10
   21.3899994       2.40712728E-10
   21.4500008       3.21485616E-10
   21.5100002       3.93001354E-10
   21.5699997       4.62024669E-10
   21.6299992       5.35954059E-10
   21.6900005       6.19544693E-10
   21.7500000       7.12724768E-10
   21.8099995       8.10673195E-10
   21.8700008       9.06112019E-10
   21.9300003       9.92570137E-10
   21.9899998       1.06692855E-09
   22.0499992       1.13010556E-09
   22.1100006       1.18589838E-09
   22.1700001       1.23899702E-09
   22.2299995       1.29342237E-09
   22.2900009       1.35204292E-09
   22.3500004       1.41691592E-09
   22.4099998       1.48964341E-09
   22.4699993       1.57110858E-09
   22.5300007       1.66066960E-09
   22.5900002       1.75554360E-09
   22.6499996       1.85117865E-09
   22.7099991       1.94278660E-09
   22.7700005       2.02733585E-09
   22.8299999       2.10482076E-09
   22.8899994       2.17790053E-09
   22.9500008       2.24994423E-09
   23.0100002       2.32249642E-09
   23.0699997       2.39359688E-09
   23.1299992       2.45796894E-09
   23.1900005       2.50906695E-09
   23.2500000       2.54198262E-09
   23.3099995       2.55576804E-09
   23.3700008       2.55406429E-09
   23.4300003       2.54378074E-09
   23.4899998       2.53248111E-09
   23.5499992       2.52564969E-09
   23.6100006       2.52497712E-09
   23.6700001       2.52830668E-09
   23.7299995       2.53118149E-09
   23.7900009       2.52931609E-09
   23.8500004       2.52099497E-09
   23.9099998       2.50844323E-09
   23.9699993       2.49762966E-09
   24.0300007       2.49660070E-09
   24.0900002       2.51304622E-09
   24.1499996       2.55211496E-09
   24.2099991       2.61533417E-09
   24.2700005       2.70092237E-09
   24.3299999       2.80510082E-09
   24.3899994       2.92358560E-09
   24.4500008       3.05250425E-09
   24.5100002       3.18847260E-09
   24.5699997       3.32813865E-09
   24.6299992       3.46777851E-09
   24.6900005       3.60336849E-09
   24.7500000       3.73109099E-09
   24.8099995       3.84786381E-09
   24.8700008       3.95146404E-09
   24.9300003       4.04016509E-09
   24.9899998       4.11223633E-09
   25.0499992       4.16580059E-09
   25.1100006       4.19929647E-09
   25.1700001       4.21228341E-09
   25.2299995       4.20601776E-09
   25.2900009       4.18330792E-09
   25.3500004       4.14762624E-09
   25.4099998       4.10197609E-09
   25.4699993       4.04818490E-09
   25.5300007       3.98699118E-09
   25.5900002       3.91874133E-09
   25.6499996       3.84409971E-09
   25.7099991       3.76421561E-09
   25.7700005       3.68022368E-09
   25.8299999       3.59245167E-09
   25.8899994       3.49992524E-09
   25.9500008       3.40053674E-09
   26.0100002       3.29178707E-09
   26.0699997       3.17168825E-09
   26.1299992       3.03940006E-09
   26.1900005       2.89546187E-09
   26.2500000       2.74175238E-09
   26.3099995       2.58135446E-09
   26.3700008       2.41831399E-09
   26.4300003       2.25710894E-09
   26.4899998       2.10172213E-09
   26.5499992       1.95456273E-09
   26.6100006       1.81581983E-09
   26.6700001       1.68380598E-09
   26.7299995       1.55634738E-09
   26.7900009       1.43255241E-09
   26.8500004       1.31388078E-09
   26.9099998       1.20370813E-09
   26.9699993       1.10546949E-09
   27.0300007       1.02041231E-09
   27.0900002       9.46343115E-10
   27.1499996       8.78209838E-10
   27.2099991       8.10220890E-10
   27.2700005       7.38218486E-10
   27.3299999       6.60872357E-10
   27.3899994       5.79056969E-10
   27.4500008       4.94006669E-10
   27.5100002       4.05662004E-10
   27.5699997       3.12464221E-10
   27.6299992       2.12831752E-10
   27.6900005       1.07348005E-10
   27.7500000       1.26396737E-13
   27.8099995      -1.01718349E-10
   27.8700008      -1.90394200E-10
   27.9300003      -2.60333560E-10
   27.9899998      -3.10101472E-10
   28.0499992      -3.42342349E-10
   28.1100006      -3.61928376E-10
   28.1700001      -3.73420156E-10
   28.2299995      -3.79178272E-10
   28.2900009      -3.78926251E-10
   28.3500004      -3.70680681E-10
   28.4099998      -3.52284535E-10
   28.4699993      -3.22640026E-10
   28.5300007      -2.82096208E-10
   28.5900002      -2.32007941E-10
   28.6499996      -1.73894371E-10
   28.7099991      -1.08736367E-10
   28.7700005      -3.67871011E-11
   28.8299999       4.20183367E-11
   28.8899994       1.27247352E-10
   28.9500008       2.17119892E-10
   29.0100002       3.08039594E-10
   29.0699997       3.94795613E-10
   29.1299992       4.71452932E-10
   29.1900005       5.32617173E-10
   29.2500000       5.74543524E-10
   29.3099995       5.95607286E-10
   29.3700008       5.95977434E-10
   29.4300003       5.76771575E-10
   29.4899998       5.39233325E-10
   29.5499992       4.84391582E-10
   29.6100006       4.13276996E-10
   29.6700001       3.27363997E-10
   29.7299995       2.28772196E-10
   29.7900009       1.20003230E-10
   29.8500004       3.41110321E-12
   29.9099998      -1.19138810E-10
   29.9699993      -2.46103332E-10
   30.0300007      -3.75710296E-10
   30.0900002      -5.05538222E-10
   30.1499996      -6.32740360E-10
   30.2099991      -7.54966201E-10
   30.2700005      -8.71445360E-10
   30.3299999      -9.83442217E-10
   30.3899994      -1.09363085E-09
   30.4500008      -1.20468124E-09
   30.5100002      -1.31796762E-09
   30.5699997      -1.43330381E-09
   30.6299992      -1.54992219E-09
   30.6900005      -1.66799063E-09
   30.7500000      -1.78947035E-09
   30.8099995      -1.91746308E-09
   30.8700008      -2.05421280E-09
   30.9300003      -2.19890617E-09
   30.9899998      -2.34670572E-09
   31.0499992      -2.48978194E-09
   31.1100006      -2.61992850E-09
   31.1700001      -2.73139578E-09
   31.2299995      -2.82249557E-09
   31.2900009      -2.89530133E-09
   31.3500004      -2.95387048E-09
   31.4099998      -3.00212100E-09
   31.4699993      -3.04242898E-09
   31.5300007      -3.07534243E-09
   31.5900002      -3.10009396E-09
   31.6499996      -3.11529491E-09
   31.7099991      -3.11943071E-09
   31.7700005      -3.11117243E-09
   31.8299999      -3.08973314E-09
   31.8899994      -3.05531289E-09
   31.9500008      -3.00936942E-09
   32.0099983      -2.95435232E-09
   32.0699997      -2.89283242E-09
   32.1300011      -2.82645019E-09
   32.1899986      -2.75535239E-09
   32.2500000      -2.67854272E-09
   32.3100014      -2.59492183E-09
   32.3699989      -2.50425991E-09
   32.4300003      -2.40733966E-09
   32.4900017      -2.30512054E-09
   32.5499992      -2.19755769E-09
   32.6100006      -2.08305528E-09
   32.6699982      -1.95912042E-09
   32.7299995      -1.82388593E-09
   32.7900009      -1.67744196E-09
   32.8499985      -1.52197066E-09
   32.9099998      -1.36051248E-09
   32.9700012      -1.19524379E-09
   33.0299988      -1.02659026E-09
   33.0900002      -8.53958182E-10
   33.1500015      -6.77666034E-10
   33.2099991      -5.00662900E-10
   33.2700005      -3.28611832E-10
   33.3300018      -1.67967640E-10
   33.3899994      -2.30919849E-11
   33.4500008       1.05776540E-10
   33.5099983       2.22352053E-10
   33.5699997       3.32015415E-10
   33.6300011       4.38915987E-10
   33.6899986       5.44381928E-10
   33.7500000       6.47656373E-10
   33.8100014       7.48378137E-10
   33.8699989       8.49008142E-10
   33.9300003       9.55414858E-10
   33.9900017       1.07503251E-09
   34.0499992       1.21356958E-09
   34.1100006       1.37214373E-09
   34.1699982       1.54638080E-09
   34.2299995       1.72778869E-09
   34.2900009       1.90645300E-09
   34.3499985       2.07361306E-09
   34.4099998       2.22314434E-09
   34.4700012       2.35189890E-09
   34.5299988       2.45949172E-09
   34.5900002       2.54806665E-09
   34.6500015       2.62203081E-09
   34.7099991       2.68729727E-09
   34.7700005       2.74969358E-09
   34.8300018       2.81285684E-09
   34.8899994       2.87658164E-09
   34.9500008       2.93665448E-09
   35.0099983       2.98651348E-09
   35.0699997       3.02000758E-09
   35.1300011       3.03383962E-09
   35.1899986       3.02843617E-09
   35.2500000       3.00690983E-09
   35.3100014       2.97287062E-09
   35.3699989       2.92838509E-09
   35.4300003       2.87311130E-09
   35.4900017       2.80480927E-09
   35.5499992       2.72066014E-09
   35.6100006       2.61860378E-09
   35.6699982       2.49821897E-09
   35.7299995       2.36115616E-09
   35.7900009       2.21133489E-09
   35.8499985       2.05492601E-09
   35.9099998       1.89982696E-09
   35.9700012       1.75431103E-09
   36.0299988       1.62497216E-09
   36.0900002       1.51471347E-09
   36.1500015       1.42181700E-09
   36.2099991       1.34075151E-09
   36.2700005       1.26443689E-09
   36.3300018       1.18680032E-09
   36.3899994       1.10425580E-09
   36.4500008       1.01543207E-09
   36.5099983       9.19643472E-10
   36.5699997       8.15450818E-10
   36.6300011       7.00595526E-10
   36.6899986       5.73592840E-10
   36.7500000       4.36021358E-10
   36.8100014       2.93874786E-10
   36.8699989       1.56758398E-10
   36.9300003       3.49663146E-11
   36.9900017      -6.42216905E-11
   37.0499992      -1.39161668E-10
   37.1100006      -1.94096891E-10
   37.1699982      -2.37038500E-10
   37.2299995      -2.76475259E-10
   37.2900009      -3.18538029E-10
   37.3499985      -3.65745684E-10
   37.4099998      -4.17459484E-10
   37.4700012      -4.71325978E-10
   37.5299988      -5.24747079E-10
   37.5900002      -5.75770265E-10
   37.6500015      -6.23362917E-10
   37.7099991      -6.67402689E-10
   37.7700005      -7.08690107E-10
   37.8300018      -7.49021567E-10
   37.8899994      -7.91121668E-10
   37.9500008      -8.38242475E-10
   38.0099983      -8.93448038E-10
   38.0699997      -9.58844448E-10
   38.1300011      -1.03509368E-09
   38.1899986      -1.12142962E-09
   38.2500000      -1.21617094E-09
   38.3100014      -1.31753841E-09
   38.3699989      -1.42448919E-09
   38.4300003      -1.53727087E-09
   38.4900017      -1.65743497E-09
   38.5499992      -1.78716231E-09
   38.6100006      -1.92798821E-09
   38.6699982      -2.07933759E-09
   38.7299995      -2.23755481E-09
   38.7900009      -2.39610065E-09
   38.8499985      -2.54715360E-09
   38.9099998      -2.68414890E-09
   38.9700012      -2.80415913E-09
   39.0299988      -2.90892554E-09
   39.0900002      -3.00391312E-09
   39.1500015      -3.09574788E-09
   39.2099991      -3.18922755E-09
   39.2700005      -3.28528427E-09
   39.3300018      -3.38070039E-09
   39.3899994      -3.46941964E-09
   39.4500008      -3.54456264E-09
   39.5099983      -3.60017727E-09
   39.5699997      -3.63224029E-09
   39.6300011      -3.63906683E-09
   39.6899986      -3.62150221E-09
   39.7500000      -3.58299723E-09
   39.8100014      -3.52919050E-09
   39.8699989      -3.46650797E-09
   39.9300003      -3.39979822E-09
   39.9900017      -3.32988392E-09
   40.0499992      -3.25245120E-09
   40.1100006      -3.15934345E-09
   40.1699982      -3.04208880E-09
   40.2299995      -2.89607271E-09
   40.2900009      -2.72312928E-09
   40.3499985      -2.53101451E-09
   40.4099998      -2.32992448E-09
   40.4700012      -2.12792584E-09
   40.5299988      -1.92777838E-09
   40.5900002      -1.72673398E-09
   40.6500015      -1.51910950E-09
   40.7099991      -1.29984468E-09
   40.7700005      -1.06692466E-09
   40.8300018      -8.21552937E-10
   40.8899994      -5.66547198E-10
   40.9500008      -3.04472142E-10
   41.0099983      -3.68681578E-11
   41.0699997       2.35188008E-10
   41.1300011       5.10114506E-10
   41.1899986       7.85676746E-10
   41.2500000       1.06013553E-09
   41.3100014       1.33395917E-09
   41.3699989       1.61068336E-09
   41.4300003       1.89590477E-09
   41.4900017       2.19463381E-09
   41.5499992       2.50841858E-09
   41.6100006       2.83391355E-09
   41.6699982       3.16372595E-09
   41.7299995       3.48899287E-09
   41.7900009       3.80220877E-09
   41.8499985       4.09890477E-09
   41.9099998       4.37771863E-09
   41.9700012       4.63941818E-09
   42.0299988       4.88582241E-09
   42.0900002       5.11912557E-09
   42.1500015       5.34140643E-09
   42.2099991       5.55377211E-09
   42.2700005       5.75504711E-09
   42.3300018       5.94068128E-09
   42.3899994       6.10300610E-09
   42.4500008       6.23339869E-09
   42.5099983       6.32569686E-09
   42.5699997       6.37907505E-09
   42.6300011       6.39853681E-09
   42.6899986       6.39238529E-09
   42.7500000       6.36784270E-09
   42.8100014       6.32723118E-09
   42.8699989       6.26687813E-09
   42.9300003       6.17935569E-09
   42.9900017       6.05770767E-09
   43.0499992       5.89928861E-09
   43.1100006       5.70729242E-09
   43.1699982       5.48958345E-09
   43.2299995       5.25598676E-09
   43.2900009       5.01571318E-09
   43.3499985       4.77595341E-09
   43.4099998       4.54152138E-09
   43.4700012       4.31472325E-09
   43.5299988       4.09491152E-09
   43.5900002       3.87805255E-09
   43.6500015       3.65727670E-09
   43.7099991       3.42506667E-09
   43.7700005       3.17660120E-09
   43.8300018       2.91263191E-09
   43.8899994       2.64006084E-09
   43.9500008       2.36947151E-09
   44.0099983       2.11060658E-09
   44.0699997       1.86807347E-09
   44.1300011       1.63950098E-09
   44.1899986       1.41699297E-09
   44.2500000       1.19089727E-09
   44.3100014       9.53803481E-10
   44.3699989       7.02884195E-10
   44.4300003       4.39926262E-10
   44.4900017       1.69742082E-10
   44.5499992      -1.01765096E-10
   44.6100006      -3.68967634E-10
   44.6699982      -6.27213836E-10
   44.7299995      -8.73286776E-10
   44.7900009      -1.10591591E-09
   44.8499985      -1.32609346E-09
   44.9099998      -1.53661561E-09
   44.9700012      -1.74054304E-09
   45.0299988      -1.93904803E-09
   45.0900002      -2.12975193E-09
   45.1500015      -2.30660846E-09
   45.2099991      -2.46156540E-09
   45.2700005      -2.58719490E-09
   45.3300018      -2.67892397E-09
   45.3899994      -2.73583600E-09
   45.4500008      -2.75995893E-09
   45.5099983      -2.75482659E-09
   45.5699997      -2.72429146E-09
   45.6300011      -2.67202505E-09
   45.6899986      -2.60138000E-09
   45.7500000      -2.51497623E-09
   45.8100014      -2.41374365E-09
   45.8699989      -2.29588459E-09
   45.9300003      -2.15666640E-09
   45.9900017      -1.98964623E-09
   46.0499992      -1.78904724E-09
   46.1100006      -1.55217728E-09
   46.1699982      -1.28063604E-09
   46.2299995      -9.79760717E-10
   46.2900009      -6.56789012E-10
   46.3499985      -3.18876731E-10
   46.4099998       2.80637076E-11
   46.4700012       3.79514531E-10
   46.5299988       7.32046035E-10
   46.5900002       1.08322984E-09
   46.6500015       1.43191370E-09
   46.7099991       1.77833215E-09
   46.7700005       2.12336104E-09
   46.8300018       2.46681364E-09
   46.8899994       2.80558576E-09
   46.9500008       3.13293991E-09
   47.0099983       3.43978335E-09
   47.0699997       3.71761155E-09
   47.1300011       3.96163635E-09
   47.1899986       4.17235757E-09
   47.2500000       4.35467573E-09
   47.3100014       4.51507853E-09
   47.3699989       4.65851713E-09
   47.4300003       4.78661555E-09
   47.4900017       4.89788610E-09
   47.5499992       4.98937158E-09
   47.6100006       5.05847497E-09
   47.6699982       5.10395815E-09
   47.7299995       5.12596454E-09
   47.7900009       5.12558973E-09
   47.8499985       5.10462783E-09
   47.9099998       5.06557551E-09
   47.9700012       5.01146191E-09
   48.0299988       4.94506391E-09
   48.0900002       4.86759921E-09
   48.1500015       4.77766848E-09
   48.2099991       4.67135486E-09
   48.2700005       4.54377869E-09
   48.3300018       4.39145076E-09
   48.3899994       4.21415480E-09
   48.4500008       4.01531697E-09
   48.5099983       3.80075971E-09
   48.5699997       3.57670493E-09
   48.6300011       3.34819661E-09
   48.6899986       3.11857673E-09
   48.7500000       2.88975244E-09
   48.8100014       2.66246580E-09
   48.8699989       2.43605758E-09
   48.9300003       2.20800489E-09
   48.9900017       1.97410177E-09
   49.0499992       1.72992687E-09
   49.1100006       1.47327806E-09
   49.1699982       1.20625865E-09
   49.2299995       9.35542421E-10
   49.2900009       6.70283384E-10
   49.3499985       4.18633544E-10
   49.4099998       1.84824989E-10
   49.4700012      -3.14999207E-11
   49.5299988      -2.33436326E-10
   49.5900002      -4.23775376E-10
   49.6500015      -6.02797312E-10
   49.7099991      -7.68220765E-10
   49.7700005      -9.17075582E-10
   49.8300018      -1.04797537E-09
   49.8899994      -1.16214605E-09
   49.9500008      -1.26262145E-09
   50.0099983      -1.35241318E-09
   50.0699997      -1.43312340E-09
   50.1300011      -1.50497115E-09
   50.1899986      -1.56797741E-09
   50.2500000      -1.62313529E-09
   50.3100014      -1.67248315E-09
   50.3699989      -1.71800785E-09
   50.4300003      -1.76036730E-09
   50.4900017      -1.79864856E-09
   50.5499992      -1.83152704E-09
   50.6100006      -1.85896110E-09