  -2.400000      0.0000000E+00
  -2.340000      0.0000000E+00
  -2.280000      0.0000000E+00
  -2.220000      0.0000000E+00
  -2.160000      0.0000000E+00
  -2.100000      2.3773626E-20
  -2.040000      2.4648814E-19
  -1.980000      1.2844739E-18
  -1.920000      4.3861058E-18
  -1.860000      1.0605189E-17
  -1.800000      1.7645911E-17
  -1.740000      1.4297522E-17
  -1.680000     -2.3690150E-17
  -1.620000     -1.2720315E-16
  -1.560000     -3.0666412E-16
  -1.500000     -5.0445227E-16
  -1.440000     -5.5082293E-16
  -1.380000     -1.7293554E-16
  -1.320000      8.9073413E-16
  -1.260000      2.6620753E-15
  -1.200000      4.6607653E-15
  -1.140000      5.7772001E-15
  -1.080000      4.4729070E-15
  -1.020000     -5.9934246E-16
 -0.9600000     -9.6758564E-15
 -0.9000000     -2.1019643E-14
 -0.8400000     -3.0604523E-14
 -0.7800000     -3.2764407E-14
 -0.7200000     -2.1941298E-14
 -0.6600000      4.7581961E-15
 -0.6000000      4.4929938E-14
 -0.5400000      8.9231506E-14
 -0.4800000      1.2190135E-13
 -0.4200000      1.2430345E-13
 -0.3600000      8.1499179E-14
 -0.3000000     -9.5745979E-15
 -0.2400000     -1.3334205E-13
 -0.1800000     -2.5420386E-13
 -0.1200000     -3.2378058E-13
 -5.9999999E-02 -2.9712739E-13
  0.0000000E+00 -1.5377566E-13
  5.9999999E-02  8.4690501E-14
  0.1200000      3.5009276E-13
  0.1800000      5.4240607E-13
  0.2400000      5.6257321E-13
  0.3000000      3.5346430E-13
  0.3600000     -6.6615780E-14
  0.4200000     -5.9281063E-13
  0.4800000     -1.0525862E-12
  0.5400000     -1.2512469E-12
  0.6000000     -1.0310852E-12
  0.6600000     -3.2681559E-13
  0.7200000      7.9807618E-13
  0.7800000      2.1432613E-12
  0.8400000      3.3940370E-12
  0.9000000      4.1712653E-12
  0.9600000      4.1020815E-12
   1.020000      2.9016134E-12
   1.080000      4.5304383E-13
   1.140000     -3.1280568E-12
   1.200000     -7.4571686E-12
   1.260000     -1.1878664E-11
   1.320000     -1.5499614E-11
   1.380000     -1.7261519E-11
   1.440000     -1.6059567E-11
   1.500000     -1.0927565E-11
   1.560000     -1.3028568E-12
   1.620000      1.2643163E-11
   1.680000      2.9676251E-11
   1.740000      4.7296222E-11
   1.800000      6.1808100E-11
   1.860000      6.8776665E-11
   1.920000      6.3863678E-11
   1.980000      4.3900685E-11
   2.040000      7.9306145E-12
   2.100000     -4.2076898E-11
   2.160000     -1.0104100E-10
   2.220000     -1.6114254E-10
   2.280000     -2.1259614E-10
   2.340000     -2.4456179E-10
   2.400000     -2.4596947E-10
   2.460000     -2.0617553E-10
   2.520000     -1.1554175E-10
   2.580000      3.3876835E-11
   2.640000      2.4739688E-10
   2.700000      5.2656063E-10
   2.760000      8.6802598E-10
   2.820000      1.2628660E-09
   2.880000      1.6966127E-09
   2.940000      2.1501789E-09
   3.000000      2.6015061E-09
   3.060000      3.0275622E-09
   3.120000      3.4062371E-09
   3.180000      3.7178058E-09
   3.240000      3.9458699E-09
   3.300000      4.0779211E-09
   3.360000      4.1058130E-09
   3.420000      4.0263428E-09
   3.480000      3.8419530E-09
   3.540000      3.5612966E-09
   3.600000      3.1992498E-09
   3.660000      2.7759981E-09
   3.720000      2.3150553E-09
   3.780000      1.8404596E-09
   3.840000      1.3737159E-09
   3.900000      9.3122071E-10
   3.960000      5.2279109E-10
   4.020000      1.5157631E-10
   4.080000     -1.8480625E-10
   4.140000     -4.9243304E-10
   4.200000     -7.7918427E-10
   4.260000     -1.0533303E-09
   4.320000     -1.3228176E-09
   4.380000     -1.5951467E-09
   4.440000     -1.8775219E-09
   4.500000     -2.1769273E-09
   4.560000     -2.4999083E-09
   4.620000     -2.8520351E-09
   4.680000     -3.2371825E-09
   4.740000     -3.6568337E-09
   4.800000     -4.1096118E-09
   4.860000     -4.5911968E-09
   4.920000     -5.0947073E-09
   4.980000     -5.6115512E-09
   5.040000     -6.1326295E-09
   5.100000     -6.6496715E-09
   5.160000     -7.1563879E-09
   5.220000     -7.6491613E-09
   5.280000     -8.1271097E-09
   5.340000     -8.5915843E-09
   5.400000     -9.0453351E-09
   5.460000     -9.4916297E-09
   5.520000     -9.9335438E-09
   5.580000     -1.0373438E-08
   5.640000     -1.0812538E-08
   5.700000     -1.1250553E-08
   5.760000     -1.1685412E-08
   5.820000     -1.2113376E-08
   5.880000     -1.2529795E-08
   5.940000     -1.2930515E-08
   6.000000     -1.3313567E-08
   6.060000     -1.3680405E-08
   6.120000     -1.4035912E-08
   6.180000     -1.4386782E-08
   6.240000     -1.4738561E-08
   6.300000     -1.5092333E-08
   6.360000     -1.5442385E-08
   6.420000     -1.5776031E-08
   6.480000     -1.6075958E-08
   6.540000     -1.6324632E-08
   6.600000     -1.6509373E-08
   6.660000     -1.6626478E-08
   6.720000     -1.6682966E-08
   6.780000     -1.6695363E-08
   6.840000     -1.6685819E-08
   6.900000     -1.6676809E-08
   6.960000     -1.6686020E-08
   7.020000     -1.6722987E-08
   7.080000     -1.6788441E-08
   7.140000     -1.6876427E-08
   7.200000     -1.6978326E-08
   7.260000     -1.7087215E-08
   7.320000     -1.7200918E-08
   7.380000     -1.7322552E-08
   7.440000     -1.7458317E-08
   7.500000     -1.7613402E-08
   7.560000     -1.7787565E-08
   7.620000     -1.7972296E-08
   7.680000     -1.8150779E-08
   7.740000     -1.8300996E-08
   7.800000     -1.8401067E-08
   7.860000     -1.8435163E-08
   7.920000     -1.8398099E-08
   7.980000     -1.8297115E-08
   8.040000     -1.8150358E-08
   8.100000     -1.7982533E-08
   8.160000     -1.7819074E-08
   8.220000     -1.7680513E-08
   8.280000     -1.7578547E-08
   8.340000     -1.7514736E-08
   8.400000     -1.7481950E-08
   8.460000     -1.7467855E-08
   8.520000     -1.7459330E-08
   8.580000     -1.7446423E-08
   8.640000     -1.7424860E-08
   8.700000     -1.7396527E-08
   8.760000     -1.7368105E-08
   8.820000     -1.7348480E-08
   8.880000     -1.7345933E-08
   8.940000     -1.7365984E-08
   9.000000     -1.7410487E-08
   9.060000     -1.7478092E-08
   9.120000     -1.7565689E-08
   9.180000     -1.7670251E-08
   9.240000     -1.7790294E-08
   9.300000     -1.7926544E-08
   9.360000     -1.8081574E-08
   9.420000     -1.8258600E-08
   9.480000     -1.8459920E-08
   9.540000     -1.8685444E-08
   9.600000     -1.8931846E-08
   9.660000     -1.9192520E-08
   9.720000     -1.9458401E-08
   9.780000     -1.9719380E-08
   9.840000     -1.9965951E-08
   9.900000     -2.0190628E-08
   9.960000     -2.0388706E-08
   10.02000     -2.0558078E-08
   10.08000     -2.0698138E-08
   10.14000     -2.0808120E-08
   10.20000     -2.0885539E-08
   10.26000     -2.0925381E-08
   10.32000     -2.0920609E-08
   10.38000     -2.0863940E-08
   10.44000     -2.0750312E-08
   10.50000     -2.0579044E-08
   10.56000     -2.0354708E-08
   10.62000     -2.0086116E-08
   10.68000     -1.9783652E-08
   10.74000     -1.9455804E-08
   10.80000     -1.9106183E-08
   10.86000     -1.8732095E-08
   10.92000     -1.8325231E-08
   10.98000     -1.7874191E-08
   11.04000     -1.7368013E-08
   11.10000     -1.6799591E-08
   11.16000     -1.6168004E-08
   11.22000     -1.5479117E-08
   11.28000     -1.4744344E-08
   11.34000     -1.3977915E-08
   11.40000     -1.3193322E-08
   11.46000     -1.2399891E-08
   11.52000     -1.1600426E-08
   11.58000     -1.0790710E-08
   11.64000     -9.9611537E-09
   11.70000     -9.1002939E-09
   11.76000     -8.1991356E-09
   11.82000     -7.2550681E-09
   11.88000     -6.2740582E-09
   11.94000     -5.2703704E-09
   12.00000     -4.2638431E-09
   12.06000     -3.2755039E-09
   12.12000     -2.3228153E-09
   12.18000     -1.4159454E-09
   12.24000     -5.5614163E-10
   12.30000      2.6331856E-10
   12.36000      1.0538580E-09
   12.42000      1.8269538E-09
   12.48000      2.5895155E-09
   12.54000      3.3407552E-09
   12.60000      4.0716155E-09
   12.66000      4.7670077E-09
   12.72000      5.4101101E-09
   12.78000      5.9872023E-09
   12.84000      6.4912884E-09
   12.90000      6.9232651E-09
   12.96000      7.2904176E-09
   13.02000      7.6031430E-09
   13.08000      7.8714573E-09
   13.14000      8.1027549E-09
   13.20000      8.3015061E-09
   13.26000      8.4705745E-09
   13.32000      8.6130658E-09
   13.38000      8.7335668E-09
   13.44000      8.8381142E-09
   13.50000      8.9330863E-09
   13.56000      9.0238181E-09
   13.62000      9.1138208E-09
   13.68000      9.2051406E-09
   13.74000      9.2997157E-09
   13.80000      9.4010941E-09
   13.86000      9.5157286E-09
   13.92000      9.6532595E-09
   13.98000      9.8256319E-09
   14.04000      1.0045262E-08
   14.10000      1.0322727E-08
   14.16000      1.0664522E-08
   14.22000      1.1071449E-08
   14.28000      1.1538074E-08
   14.34000      1.2053561E-08
   14.40000      1.2603824E-08
   14.46000      1.3174574E-08
   14.52000      1.3754372E-08
   14.58000      1.4336673E-08
   14.64000      1.4920086E-08
   14.70000      1.5506652E-08
   14.76000      1.6098703E-08
   14.82000      1.6695493E-08
   14.88000      1.7290889E-08
   14.94000      1.7873015E-08
   15.00000      1.8426016E-08
   15.06000      1.8933287E-08
   15.12000      1.9380975E-08
   15.18000      1.9760666E-08
   15.24000      2.0070484E-08
   15.30000      2.0314546E-08
   15.36000      2.0501240E-08
   15.42000      2.0641080E-08
   15.48000      2.0744764E-08
   15.54000      2.0821725E-08
   15.60000      2.0879199E-08
   15.66000      2.0921576E-08
   15.72000      2.0949949E-08
   15.78000      2.0961961E-08
   15.84000      2.0952212E-08
   15.90000      2.0913486E-08
   15.96000      2.0838700E-08
   16.02000      2.0723103E-08
   16.08000      2.0565844E-08
   16.14000      2.0370150E-08
   16.20000      2.0141778E-08
   16.26000      1.9886144E-08
   16.32000      1.9605231E-08
   16.38000      1.9295538E-08
   16.44000      1.8947938E-08
   16.50000      1.8549548E-08
   16.56000      1.8086736E-08
   16.62000      1.7548116E-08
   16.68000      1.6926352E-08
   16.74000      1.6218443E-08
   16.80000      1.5424900E-08
   16.86000      1.4548599E-08
   16.92000      1.3594072E-08
   16.98000      1.2567356E-08
   17.04000      1.1476001E-08
   17.10000      1.0328535E-08
   17.16000      9.1330801E-09
   17.22000      7.8953617E-09
   17.28000      6.6169896E-09
   17.34000      5.2949178E-09
   17.40000      3.9225809E-09
   17.46000      2.4923912E-09
   17.52000      9.9863606E-10
   17.58000     -5.6037480E-10
   17.64000     -2.1816751E-09
   17.70000     -3.8585704E-09
   17.76000     -5.5825211E-09
   17.82000     -7.3450885E-09
   17.88000     -9.1392298E-09
   17.94000     -1.0959640E-08
   18.00000     -1.2802311E-08
   18.06000     -1.4663641E-08
   18.12000     -1.6539431E-08
   18.18000     -1.8423904E-08
   18.24000     -2.0308793E-08
   18.30000     -2.2182567E-08
   18.36000     -2.4029934E-08
   18.42000     -2.5831884E-08
   18.48000     -2.7566472E-08
   18.54000     -2.9210376E-08
   18.60000     -3.0740967E-08
   18.66000     -3.2138495E-08
   18.72000     -3.3387856E-08
   18.78000     -3.4479616E-08
   18.84000     -3.5410089E-08
   18.90000     -3.6180644E-08
   18.96000     -3.6796614E-08
   19.02000     -3.7266101E-08
   19.08000     -3.7599118E-08
   19.14000     -3.7807059E-08
   19.20000     -3.7902399E-08
   19.26000     -3.7898360E-08
   19.32000     -3.7808324E-08
   19.38000     -3.7644920E-08
   19.44000     -3.7419085E-08
   19.50000     -3.7139372E-08
   19.56000     -3.6811773E-08
   19.62000     -3.6440106E-08
   19.68000     -3.6026595E-08
   19.74000     -3.5572359E-08
   19.80000     -3.5077520E-08
   19.86000     -3.4541003E-08
   19.92000     -3.3960461E-08
   19.98000     -3.3332594E-08
   20.04000     -3.2654093E-08
   20.10000     -3.1922859E-08
   20.16000     -3.1139031E-08
   20.22000     -3.0305326E-08
   20.28000     -2.9426577E-08
   20.34000     -2.8508779E-08
   20.40000     -2.7558144E-08
   20.46000     -2.6580560E-08
   20.52000     -2.5581500E-08
   20.58000     -2.4566114E-08
   20.64000     -2.3539144E-08
   20.70000     -2.2504528E-08
   20.76000     -2.1464933E-08
   20.82000     -2.0421613E-08
   20.88000     -1.9374925E-08
   20.94000     -1.8325409E-08
   21.00000     -1.7274980E-08
   21.06000     -1.6227634E-08
   21.12000     -1.5189187E-08
   21.18000     -1.4166050E-08
   21.24000     -1.3163372E-08
   21.30000     -1.2183137E-08
   21.36000     -1.1222781E-08
   21.42000     -1.0274713E-08
   21.48000     -9.3269978E-09
   21.54000     -8.3652578E-09
   21.60000     -7.3756383E-09
   21.66000     -6.3483290E-09
   21.72000     -5.2807705E-09
   21.78000     -4.1794759E-09
   21.84000     -3.0596083E-09
   21.90000     -1.9421307E-09
   21.96000     -8.4922891E-10
   22.02000      2.0052837E-10
   22.08000      1.1956641E-09
   22.14000      2.1327484E-09
   22.20000      3.0146348E-09
   22.26000      3.8467367E-09
   22.32000      4.6326898E-09
   22.38000      5.3707709E-09
   22.44000      6.0520198E-09
   22.50000      6.6604211E-09
   22.56000      7.1749393E-09
   22.62000      7.5728304E-09
   22.68000      7.8333935E-09
   22.74000      7.9412219E-09
   22.80000      7.8880724E-09
   22.86000      7.6728295E-09
   22.92000      7.2996338E-09
   22.98000      6.7748998E-09
   23.04000      6.1044045E-09
   23.10000      5.2915676E-09
   23.16000      4.3374686E-09
   23.22000      3.2423408E-09
   23.28000      2.0076500E-09
   23.34000      6.3774747E-10
   23.40000     -8.5951551E-10
   23.46000     -2.4731852E-09
   23.52000     -4.1901056E-09
   23.58000     -5.9957390E-09
   23.64000     -7.8746174E-09
   23.70000     -9.8105168E-09
   23.76000     -1.1786642E-08
   23.82000     -1.3785984E-08
   23.88000     -1.5791761E-08
   23.94000     -1.7787663E-08
   24.00000     -1.9757673E-08
   24.06000     -2.1685548E-08
   24.12000     -2.3554234E-08
   24.18000     -2.5345607E-08
   24.24000     -2.7040667E-08
   24.30000     -2.8620086E-08
   24.36000     -3.0064772E-08
   24.42000     -3.1356198E-08
   24.48000     -3.2476450E-08
   24.54000     -3.3408217E-08
   24.60000     -3.4134850E-08
   24.66000     -3.4640699E-08
   24.72000     -3.4911576E-08
   24.78000     -3.4935287E-08
   24.84000     -3.4702161E-08
   24.90000     -3.4205570E-08
   24.96000     -3.3442596E-08
   25.02000     -3.2414729E-08
   25.08000     -3.1128373E-08
   25.14000     -2.9594750E-08
   25.20000     -2.7828953E-08
   25.26000     -2.5848193E-08
   25.32000     -2.3669644E-08
   25.38000     -2.1308514E-08
   25.44000     -1.8776921E-08
   25.50000     -1.6083893E-08
   25.56000     -1.3236451E-08
   25.62000     -1.0241512E-08
   25.68000     -7.1081052E-09
   25.74000     -3.8494203E-09
   25.80000     -4.8411014E-10
   25.86000      2.9635432E-09
   25.92000      6.4648180E-09
   25.98000      9.9888897E-09
   26.04000      1.3505723E-08
   26.10000      1.6988652E-08
   26.16000      2.0415902E-08
   26.22000      2.3770671E-08
   26.28000      2.7039963E-08
   26.34000      3.0212746E-08
   26.40000      3.3278056E-08
   26.46000      3.6223526E-08
   26.52000      3.9034347E-08
   26.58000      4.1692697E-08
   26.64000      4.4177614E-08
   26.70000      4.6465424E-08
   26.76000      4.8530925E-08
   26.82000      5.0349275E-08
   26.88000      5.1898041E-08
   26.94000      5.3158868E-08
   27.00000      5.4118129E-08
   27.06000      5.4766623E-08
   27.12000      5.5098798E-08
   27.18000      5.5112331E-08
   27.24000      5.4808609E-08
   27.30000      5.4193983E-08
   27.36000      5.3281038E-08
   27.42000      5.2088957E-08
   27.48000      5.0642338E-08
   27.54000      4.8968609E-08
   27.60000      4.7094733E-08
   27.66000      4.5044121E-08
   27.72000      4.2834390E-08
   27.78000      4.0476117E-08
   27.84000      3.7972352E-08
   27.90000      3.5318870E-08
   27.96000      3.2505024E-08
   28.02000      2.9515652E-08
   28.08000      2.6333931E-08
   28.14000      2.2945050E-08
   28.20000      1.9339883E-08
   28.26000      1.5517900E-08
   28.32000      1.1488757E-08
   28.38000      7.2725248E-09
   28.44000      2.8989604E-09
   28.50000     -1.5937454E-09
   28.56000     -6.1605028E-09
   28.62000     -1.0751265E-08
   28.68000     -1.5313594E-08
   28.74000     -1.9795841E-08
   28.80000     -2.4150532E-08
   28.86000     -2.8337274E-08
   28.92000     -3.2324539E-08
   28.98000     -3.6090086E-08
   29.04000     -3.9620229E-08
   29.10000     -4.2908511E-08
   29.16000     -4.5954163E-08
   29.22000     -4.8760597E-08
   29.28000     -5.1333885E-08
   29.34000     -5.3681035E-08
   29.40000     -5.5808332E-08
   29.46000     -5.7719934E-08
   29.52000     -5.9417182E-08
   29.58000     -6.0898813E-08
   29.64000     -6.2161838E-08
   29.70000     -6.3202677E-08
   29.76000     -6.4018053E-08
   29.82000     -6.4605523E-08
   29.88000     -6.4963615E-08
   29.94000     -6.5091925E-08
   30.00000     -6.4991383E-08
   30.06000     -6.4664555E-08
   30.12000     -6.4115731E-08
   30.18000     -6.3350683E-08
   30.24000     -6.2375953E-08
   30.30000     -6.1198200E-08
   30.36000     -5.9823833E-08
   30.42000     -5.8259388E-08
   30.48000     -5.6512686E-08
   30.54000     -5.4594185E-08
   30.60000     -5.2518065E-08
   30.66000     -5.0302443E-08
   30.72000     -4.7968459E-08
   30.78000     -4.5538435E-08
   30.84000     -4.3033751E-08
   30.90000     -4.0473012E-08
   30.96000     -3.7871324E-08
   31.02000     -3.5240809E-08
   31.08000     -3.2592393E-08
   31.14000     -2.9938164E-08
   31.20000     -2.7293524E-08
   31.26000     -2.4678327E-08
   31.32000     -2.2116561E-08
   31.38000     -1.9634637E-08
   31.44000     -1.7258872E-08
   31.50000     -1.5012954E-08
   31.56000     -1.2916053E-08
   31.62000     -1.0981846E-08
   31.68000     -9.2182972E-09
   31.74000     -7.6278441E-09
   31.80000     -6.2076806E-09
   31.86000     -4.9501505E-09
   31.92000     -3.8434753E-09
   31.98000     -2.8730216E-09
   32.04000     -2.0230657E-09
   32.10000     -1.2786274E-09
   32.16000     -6.2678063E-10
   32.22000     -5.7027178E-11
   32.28000      4.3918924E-10
   32.34000      8.6924740E-10
   32.40000      1.2395979E-09
   32.46000      1.5549657E-09
   32.52000      1.8166052E-09
   32.58000      2.0203499E-09
   32.64000      2.1555129E-09
   32.70000      2.2054438E-09
   32.76000      2.1498734E-09
   32.82000      1.9684232E-09
   32.88000      1.6441830E-09
   32.94000      1.1663018E-09
   33.00000      5.3102245E-10
   33.06000     -2.5878505E-10
   33.12000     -1.1950674E-09
   33.18000     -2.2663580E-09
   33.24000     -3.4593974E-09
   33.30000     -4.7604019E-09
   33.36000     -6.1559744E-09
   33.42000     -7.6336644E-09
   33.48000     -9.1821040E-09
   33.54000     -1.0790616E-08
   33.60000     -1.2448286E-08
   33.66000     -1.4142729E-08
   33.72000     -1.5858985E-08
   33.78000     -1.7579085E-08
   33.84000     -1.9282581E-08
   33.90000     -2.0948153E-08
   33.96000     -2.2555872E-08
   34.02000     -2.4089552E-08
   34.08000     -2.5538508E-08
   34.14000     -2.6898183E-08
   34.20000     -2.8169401E-08
   34.26000     -2.9356388E-08
   34.32000     -3.0464054E-08
   34.38000     -3.1495272E-08
   34.44000     -3.2448948E-08
   34.50000     -3.3319402E-08
   34.56000     -3.4097162E-08
   34.62000     -3.4770711E-08
   34.68000     -3.5328405E-08
   34.74000     -3.5759719E-08
   34.80000     -3.6055450E-08
   34.86000     -3.6207119E-08
   34.92000     -3.6206227E-08
   34.98000     -3.6044213E-08
   35.04000     -3.5713523E-08
   35.10000     -3.5209489E-08
   35.16000     -3.4532263E-08
   35.22000     -3.3687794E-08
   35.28000     -3.2687424E-08
   35.34000     -3.1546197E-08
   35.40000     -3.0280752E-08
   35.46000     -2.8907625E-08
   35.52000     -2.7442519E-08
   35.58000     -2.5900460E-08
   35.64000     -2.4296140E-08
   35.70000     -2.2643855E-08
   35.76000     -2.0956721E-08
   35.82000     -1.9245405E-08
   35.88000     -1.7517008E-08
   35.94000     -1.5774658E-08
   36.00000     -1.4018006E-08
   36.06000     -1.2244329E-08
   36.12000     -1.0449725E-08
   36.18000     -8.6300016E-09
   36.24000     -6.7811934E-09
   36.30000     -4.8999480E-09
   36.36000     -2.9840894E-09
   36.42000     -1.0334099E-09
   36.48000      9.4957886E-10
   36.54000      2.9594052E-09
   36.60000      4.9882458E-09
   36.66000      7.0273556E-09
   36.72000      9.0688781E-09
   36.78000      1.1107414E-08
   36.84000      1.3140857E-08
   36.90000      1.5170412E-08
   36.96000      1.7200081E-08
   37.02000      1.9236149E-08
   37.08000      2.1287015E-08
   37.14000      2.3363450E-08
   37.20000      2.5478947E-08
   37.26000      2.7649603E-08
   37.32000      2.9893126E-08
   37.38000      3.2226740E-08
   37.44000      3.4664243E-08
   37.50000      3.7212850E-08
   37.56000      3.9870514E-08
   37.62000      4.2624585E-08
   37.68000      4.5452190E-08
   37.74000      4.8322580E-08
   37.80000      5.1200825E-08
   37.86000      5.4052141E-08
   37.92000      5.6845760E-08
   37.98000      5.9557305E-08
   38.04000      6.2169192E-08
   38.10000      6.4669138E-08
   38.16000      6.7047232E-08
   38.22000      6.9292852E-08
   38.28000      7.1392257E-08
   38.34000      7.3327641E-08
   38.40000      7.5078013E-08
   38.46000      7.6621561E-08
   38.52000      7.7939035E-08
   38.58000      7.9017170E-08
   38.64000      7.9851205E-08
   38.70000      8.0445773E-08
   38.76000      8.0813393E-08
   38.82000      8.0970814E-08
   38.88000      8.0933830E-08
   38.94000      8.0712141E-08
   39.00000      8.0305924E-08
   39.06000      7.9705700E-08
   39.12000      7.8895845E-08
   39.18000      7.7861024E-08
   39.24000      7.6593381E-08
   39.30000      7.5098015E-08
   39.36000      7.3394624E-08
   39.42000      7.1514577E-08
   39.48000      6.9494206E-08
   39.54000      6.7366550E-08
   39.60000      6.5154303E-08
   39.66000      6.2866100E-08
   39.72000      6.0497499E-08
   39.78000      5.8035980E-08
   39.84000      5.5468522E-08
   39.90000      5.2789073E-08
   39.96000      5.0003568E-08
   40.02000      4.7130772E-08
   40.08000      4.4198629E-08
   40.14000      4.1237254E-08
   40.20000      3.8271054E-08
   40.26000      3.5312802E-08
   40.32000      3.2362035E-08
   40.38000      2.9408493E-08
   40.44000      2.6439650E-08
   40.50000      2.3449550E-08
   40.56000      2.0445841E-08
   40.62000      1.7452404E-08
   40.68000      1.4506615E-08
   40.74000      1.1652180E-08
   40.80000      8.9299173E-09
   40.86000      6.3694188E-09
   40.92000      3.9840695E-09
   40.98000      1.7708606E-09
   41.04000     -2.8505470E-10
   41.10000     -2.2023965E-09
   41.16000     -3.9947663E-09
   41.22000     -5.6634502E-09
   41.28000     -7.1945285E-09
   41.34000     -8.5616367E-09
   41.40000     -9.7338839E-09
   41.46000     -1.0686458E-08
   41.52000     -1.1410181E-08
   41.58000     -1.1916317E-08
   41.64000     -1.2234552E-08
   41.70000     -1.2404662E-08
   41.76000     -1.2464854E-08
   41.82000     -1.2441071E-08
   41.88000     -1.2341081E-08
   41.94000     -1.2155201E-08
   42.00000     -1.1862996E-08
   42.06000     -1.1443264E-08
   42.12000     -1.0883823E-08
   42.18000     -1.0188074E-08
   42.24000     -9.3766159E-09
   42.30000     -8.4836955E-09
   42.36000     -7.5496134E-09
   42.42000     -6.6112138E-09
   42.48000     -5.6931206E-09
   42.54000     -4.8024300E-09
   42.60000     -3.9288146E-09
   42.66000     -3.0504257E-09
   42.72000     -2.1439306E-09
   42.78000     -1.1952479E-09
   42.84000     -2.0691460E-10
   42.90000      8.0093904E-10
   42.96000      1.7966085E-09
   43.02000      2.7475977E-09
   43.08000      3.6319852E-09
   43.14000      4.4459840E-09
   43.20000      5.2049018E-09
   43.26000      5.9373115E-09
   43.32000      6.6747026E-09
   43.38000      7.4402386E-09
   43.44000      8.2402138E-09
   43.50000      9.0606234E-09
   43.56000      9.8695994E-09
   43.62000      1.0624829E-08
   43.68000      1.1283839E-08
   43.74000      1.1814309E-08
   43.80000      1.2201544E-08
   43.86000      1.2450885E-08
   43.92000      1.2584285E-08
   43.98000      1.2632104E-08
   44.04000      1.2622846E-08
   44.10000      1.2574310E-08
   44.16000      1.2489149E-08
   44.22000      1.2356124E-08
   44.28000      1.2156233E-08
   44.34000      1.1871154E-08
   44.40000      1.1490835E-08
   44.46000      1.1017702E-08
   44.52000      1.0466309E-08
   44.58000      9.8588835E-09
   44.64000      9.2184056E-09
   44.70000      8.5614431E-09
   44.76000      7.8929574E-09
   44.82000      7.2048350E-09
   44.88000      6.4789121E-09
   44.94000      5.6940634E-09
   45.00000      4.8354498E-09
   45.06000      3.9029815E-09
   45.12000      2.9158034E-09
   45.18000      1.9106203E-09
   45.24000      9.3371544E-10
   45.30000      2.8903208E-11
   45.36000     -7.7463896E-10
   45.42000     -1.4704576E-09
   45.48000     -2.0760043E-09
   45.54000     -2.6265510E-09
   45.60000     -3.1639893E-09
   45.66000     -3.7242736E-09
   45.72000     -4.3274193E-09
   45.78000     -4.9728417E-09
   45.84000     -5.6409188E-09
   45.90000     -6.2997816E-09
   45.96000     -6.9149659E-09
   46.02000     -7.4590112E-09
   46.08000     -7.9183122E-09
   46.14000     -8.2954461E-09
   46.20000     -8.6065075E-09
   46.26000     -8.8744336E-09
   46.32000     -9.1205408E-09
   46.38000     -9.3570467E-09
   46.44000     -9.5830828E-09
   46.50000     -9.7855049E-09
   46.56000     -9.9441451E-09
   46.62000     -1.0039590E-08
   46.68000     -1.0060649E-08
   46.74000     -1.0008889E-08
   46.80000     -9.8986543E-09
   46.86000     -9.7526325E-09
   46.92000     -9.5945465E-09
   46.98000     -9.4414112E-09
   47.04000     -9.2978487E-09
   47.10000     -9.1542143E-09
   47.16000     -8.9890415E-09
   47.22000     -8.7750660E-09
   47.28000     -8.4870768E-09
   47.34000     -8.1093194E-09
   47.40000     -7.6403328E-09
   47.46000     -7.0937691E-09
   47.52000     -6.4948935E-09
   47.58000     -5.8737366E-09
   47.64000     -5.2569749E-09
   47.70000     -4.6610689E-09
   47.76000     -4.0888741E-09
   47.82000     -3.5307841E-09
   47.88000     -2.9698999E-09
   47.94000     -2.3892699E-09
   48.00000     -1.7785163E-09
   48.06000     -1.1374309E-09
   48.12000     -4.7532717E-10
   48.18000      1.9344580E-10
   48.24000      8.5601204E-10
   48.30000      1.5070313E-09
   48.36000      2.1521156E-09
   48.42000      2.8074449E-09
   48.48000      3.4957668E-09
   48.54000      4.2401451E-09
   48.60000      5.0575033E-09
   48.66000      5.9540195E-09
   48.72000      6.9238344E-09
   48.78000      7.9514937E-09
   48.84000      9.0173096E-09
   48.90000      1.0103814E-08
   48.96000      1.1200958E-08
   49.02000      1.2308130E-08
   49.08000      1.3432133E-08
   49.14000      1.4581965E-08
   49.20000      1.5762497E-08
   49.26000      1.6969691E-08
   49.32000      1.8189386E-08
   49.38000      1.9400064E-08
   49.44000      2.0578476E-08
   49.50000      2.1705759E-08
   49.56000      2.2771777E-08
   49.62000      2.3776236E-08
   49.68000      2.4726516E-08
   49.74000      2.5633215E-08
   49.80000      2.6504983E-08
   49.86000      2.7344059E-08
   49.92000      2.8143610E-08
   49.98000      2.8887408E-08
   50.04000      2.9551979E-08
   50.10000      3.0110801E-08
   50.16000      3.0539592E-08
   50.22000      3.0821187E-08
   50.28000      3.0948499E-08
   50.34000      3.0924571E-08
   50.40000      3.0759733E-08
   50.46000      3.0467184E-08
   50.52000      3.0058761E-08
   50.58000      2.9542518E-08
   50.64000      2.8922740E-08
   50.70000      2.8201908E-08
   50.76000      2.7383351E-08
   50.82000      2.6473362E-08
   50.88000      2.5482141E-08
   50.94000      2.4423523E-08
   51.00000      2.3313891E-08
   51.06000      2.2170608E-08
   51.12000      2.1010131E-08
   51.18000      1.9846064E-08
   51.24000      1.8687599E-08
   51.30000      1.7538955E-08
   51.36000      1.6400405E-08
   51.42000      1.5270684E-08
   51.48000      1.4149930E-08
   51.54000      1.3041797E-08
   51.60000      1.1953751E-08
   51.66000      1.0895469E-08
   51.72000      9.8763042E-09
   51.78000      8.9032293E-09
   51.84000      7.9801774E-09
   51.90000      7.1086945E-09
   51.96000      6.2888756E-09
   52.02000      5.5193650E-09
   52.08000      4.7958859E-09
   52.14000      4.1088133E-09
   52.20000      3.4410379E-09
   52.26000      2.7673217E-09
   52.32000      2.0554958E-09
   52.38000      1.2689263E-09
   52.44000      3.6911582E-10
   52.50000     -6.8248829E-10
   52.56000     -1.9237409E-09
   52.62000     -3.3917353E-09
   52.68000     -5.1228626E-09
   52.74000     -7.1526696E-09
   52.80000     -9.5156283E-09
   52.86000     -1.2245129E-08
   52.92000     -1.5373917E-08
   52.98000     -1.8934806E-08
   53.04000     -2.2961324E-08
   53.10000     -2.7487866E-08
   53.16000     -3.2549249E-08
   53.22000     -3.8179625E-08
   53.28000     -4.4411017E-08
   53.34000     -5.1271559E-08
   53.40000     -5.8783602E-08
   53.46000     -6.6962031E-08
   53.52000     -7.5813169E-08
   53.58000     -8.5334626E-08
   53.64000     -9.5516228E-08
   53.70000     -1.0634122E-07
   53.76000     -1.1778736E-07
   53.82000     -1.2982673E-07
   53.88000     -1.4242450E-07
   53.94000     -1.5553682E-07
   54.00000     -1.6910957E-07
   54.06000     -1.8307787E-07
   54.12000     -1.9736757E-07
   54.18000     -2.1189703E-07
   54.24000     -2.2657913E-07
   54.30000     -2.4132225E-07
   54.36000     -2.5603069E-07
   54.42000     -2.7060474E-07
   54.48000     -2.8494179E-07
   54.54000     -2.9893818E-07
   54.60000     -3.1249138E-07
   54.66000     -3.2550176E-07
   54.72000     -3.3787325E-07
   54.78000     -3.4951208E-07
   54.84000     -3.6032498E-07
   54.90000     -3.7021749E-07
   54.96000     -3.7909334E-07
   55.02000     -3.8685596E-07
   55.08000     -3.9341197E-07
   55.14000     -3.9867570E-07
   55.20000     -4.0257405E-07
   55.26000     -4.0505003E-07
   55.32000     -4.0606403E-07
   55.38000     -4.0559249E-07
   55.44000     -4.0362355E-07
   55.50000     -4.0015206E-07
   55.56000     -3.9517420E-07