 -0.750000000       0.00000000    
 -0.689999998       0.00000000    
 -0.629999995       0.00000000    
 -0.569999993       0.00000000    
 -0.509999990       0.00000000    
 -0.449999988      -1.43997120E-20
 -0.389999986      -9.54514017E-20
 -0.330000013      -2.72402466E-19
 -0.270000011      -2.92489410E-19
 -0.209999993       6.57993433E-19
 -0.150000006       3.54504836E-18
  -9.00000036E-02   7.69629273E-18
  -2.99999993E-02   8.47396989E-18
   2.99999993E-02  -2.08797799E-18
   9.00000036E-02  -2.74814810E-17
  0.150000006      -5.29488170E-17
  0.209999993      -3.84704266E-17
  0.270000011       6.00386284E-17
  0.330000013       2.29725870E-16
  0.389999986       3.25813685E-16
  0.449999988       5.79654226E-17
  0.509999990      -8.69759053E-16
  0.569999993      -2.43889500E-15
  0.629999995      -3.94561076E-15
  0.689999998      -3.87746357E-15
  0.750000000      -3.74518450E-16
  0.810000002       7.61115770E-15
  0.870000005       1.88164439E-14
  0.930000007       2.86888738E-14
  0.990000010       2.99538158E-14
   1.04999995       1.52824344E-14
   1.11000001      -1.84613643E-14
   1.16999996      -6.61396800E-14
   1.23000002      -1.12804290E-13
   1.28999996      -1.36534311E-13
   1.35000002      -1.15720313E-13
   1.40999997      -3.86179532E-14
   1.47000003       8.85923415E-14
   1.52999997       2.38966372E-13
   1.59000003       3.69098551E-13
   1.64999998       4.29749118E-13
   1.71000004       3.79683698E-13
   1.76999998       1.98829085E-13
   1.83000004      -1.02337098E-13
   1.88999999      -4.78764164E-13
   1.95000005      -8.52856034E-13
   2.00999999      -1.12340931E-12
   2.06999993      -1.18284234E-12
   2.13000011      -9.43363118E-13
   2.19000006      -3.69475365E-13
   2.25000000       4.91070617E-13
   2.30999994       1.49056581E-12
   2.36999989       2.39220753E-12
   2.43000007       2.91583034E-12
   2.49000001       2.81354410E-12
   2.54999995       1.95609848E-12
   2.60999990       4.01060505E-13
   2.67000008      -1.58568829E-12
   2.73000002      -3.57122968E-12
   2.78999996      -5.05497293E-12
   2.84999990      -5.60004300E-12
   2.91000009      -4.95743854E-12
   2.97000003      -3.14445497E-12
   3.02999997      -4.53454602E-13
   3.08999991       2.61027419E-12
   3.15000010       5.44122126E-12
   3.21000004       7.46404587E-12
   3.26999998       8.24895447E-12
   3.32999992       7.58982634E-12
   3.39000010       5.53709639E-12
   3.45000005       2.38822395E-12
   3.50999999      -1.35763492E-12
   3.56999993      -5.07581217E-12
   3.63000011      -8.11961696E-12
   3.69000006      -9.94299348E-12
   3.75000000      -1.02224618E-11
   3.80999994      -8.94505737E-12
   3.86999989      -6.42414724E-12
   3.93000007      -3.21786434E-12
   3.99000001       4.32495700E-14
   4.05000019       2.87160768E-12
   4.11000013       5.10121329E-12
   4.17000008       6.94593645E-12
   4.23000002       8.88730929E-12
   4.28999996       1.14051000E-11
   4.34999990       1.46344100E-11
   4.40999985       1.80802283E-11
   4.46999979       2.05208177E-11
   4.53000021       2.01780086E-11
   4.59000015       1.51412858E-11
   4.65000010       3.93553766E-12
   4.71000004      -1.39431904E-11
   4.76999998      -3.77059946E-11
   4.82999992      -6.52854715E-11
   4.88999987      -9.36994232E-11
   4.94999981      -1.19657367E-10
   5.01000023      -1.40217754E-10
   5.07000017      -1.53287771E-10
   5.13000011      -1.57823019E-10
   5.19000006      -1.53708324E-10
   5.25000000      -1.41434281E-10
   5.30999994      -1.21768609E-10
   5.36999989      -9.56123444E-11
   5.42999983      -6.41285428E-11
   5.48999977      -2.90758719E-11
   5.55000019       6.85431616E-12
   5.61000013       3.99433542E-11
   5.67000008       6.57633323E-11
   5.73000002       7.99107447E-11
   5.78999996       7.89735569E-11
   5.84999990       6.14333584E-11
   5.90999985       2.82107445E-11
   5.96999979      -1.73148284E-11
   6.03000021      -6.97988750E-11
   6.09000015      -1.22775207E-10
   6.15000010      -1.69618916E-10
   6.21000004      -2.04430112E-10
   6.26999998      -2.22725879E-10
   6.32999992      -2.21908811E-10
   6.38999987      -2.01510503E-10
   6.44999981      -1.63193084E-10
   6.51000023      -1.10466913E-10
   6.57000017      -4.81010856E-11
   6.63000011       1.87169880E-11
   6.69000006       8.53008914E-11
   6.75000000       1.48204241E-10
   6.80999994       2.05527553E-10
   6.86999989       2.56666355E-10
   6.92999983       3.01582731E-10
   6.98999977       3.39886175E-10
   7.05000019       3.70113440E-10
   7.11000013       3.89542953E-10
   7.17000008       3.94674543E-10
   7.23000002       3.82237797E-10
   7.28999996       3.50366680E-10
   7.34999990       2.99498676E-10
   7.40999985       2.32654035E-10
   7.46999979       1.54981333E-10
   7.53000021       7.27235286E-11
   7.59000015      -8.04568131E-12
   7.65000010      -8.25103180E-11
   7.71000004      -1.47714466E-10
   7.76999998      -2.02554098E-10
   7.82999992      -2.47235316E-10
   7.88999987      -2.82424889E-10
   7.94999981      -3.08376852E-10
   8.01000023      -3.24298893E-10
   8.06999969      -3.28134714E-10
   8.13000011      -3.16823567E-10
   8.18999958      -2.86965701E-10
   8.25000000      -2.35704289E-10
   8.31000042      -1.61562055E-10
   8.36999989      -6.49773846E-11
   8.43000031       5.16140498E-11
   8.48999977       1.84137275E-10
   8.55000019       3.27500832E-10
   8.60999966       4.76236828E-10
   8.67000008       6.24975904E-10
   8.72999954       7.68741237E-10
   8.78999996       9.03197961E-10
   8.85000038       1.02503106E-09
   8.90999985       1.13247356E-09
   8.97000027       1.22575949E-09
   9.02999973       1.30709632E-09
   9.09000015       1.37980460E-09
   9.14999962       1.44662382E-09
   9.21000004       1.50768142E-09
   9.27000046       1.55901725E-09
   9.32999992       1.59255387E-09
   9.39000034       1.59793634E-09
   9.44999981       1.56587121E-09
   9.51000023       1.49184265E-09
   9.56999969       1.37876455E-09
   9.63000011       1.23742749E-09
   9.68999958       1.08443077E-09
   9.75000000       9.38272238E-10
   9.81000042       8.14974310E-10
   9.86999989       7.24730054E-10
   9.93000031       6.70562605E-10
   9.98999977       6.49150123E-10
   10.0500002       6.53187504E-10
   10.1099997       6.74237499E-10
   10.1700001       7.05088210E-10
   10.2299995       7.41049055E-10
   10.2900000       7.80124354E-10
   10.3500004       8.22375834E-10
   10.4099998       8.68901118E-10
   10.4700003       9.20772791E-10
   10.5299997       9.78122028E-10
   10.5900002       1.03944719E-09
   10.6499996       1.10122012E-09
   10.7100000       1.15790266E-09
   10.7700005       1.20249233E-09
   10.8299999       1.22761545E-09
   10.8900003       1.22699040E-09
   10.9499998       1.19688148E-09
   11.0100002       1.13705945E-09
   11.0699997       1.05087716E-09
   11.1300001       9.44341605E-10
   11.1899996       8.24433632E-10
   11.2500000       6.97231994E-10
   11.3100004       5.66505398E-10
   11.3699999       4.33269642E-10
   11.4300003       2.96437874E-10
   11.4899998       1.54259994E-10
   11.5500002       5.94765426E-12
   11.6099997      -1.47167403E-10
   11.6700001      -3.01367625E-10
   11.7299995      -4.51214316E-10
   11.7900000      -5.90803129E-10
   11.8500004      -7.15063397E-10
   11.9099998      -8.20587764E-10
   11.9700003      -9.05726549E-10
   12.0299997      -9.70008629E-10
   12.0900002      -1.01323672E-09
   12.1499996      -1.03472331E-09
   12.2100000      -1.03306130E-09
   12.2700005      -1.00659148E-09
   12.3299999      -9.54429202E-10
   12.3900003      -8.77648898E-10
   12.4499998      -7.80101317E-10
   12.5100002      -6.68416766E-10
   12.5699997      -5.51013402E-10
   12.6300001      -4.36311737E-10
   12.6899996      -3.30707378E-10
   12.7500000      -2.37029063E-10
   12.8100004      -1.54101717E-10
   12.8699999      -7.76600659E-11
   12.9300003      -2.34163080E-12
   12.9899998       7.59619173E-11
   13.0500002       1.58305549E-10
   13.1099997       2.42182607E-10
   13.1700001       3.22560034E-10
   13.2299995       3.94088318E-10
   13.2900000       4.53606819E-10
   13.3500004       5.01876873E-10
   13.4099998       5.43707801E-10
   13.4700003       5.86235893E-10
   13.5299997       6.35865749E-10
   13.5900002       6.94999225E-10
   13.6499996       7.59897201E-10
   13.7100000       8.20702450E-10
   13.7700005       8.63869531E-10
   13.8299999       8.76281769E-10
   13.8900003       8.49575521E-10
   13.9499998       7.82998166E-10
   14.0100002       6.83625767E-10
   14.0699997       5.63802893E-10
   14.1300001       4.36804648E-10
   14.1899996       3.12463777E-10
   14.2500000       1.94507174E-10
   14.3100004       8.05931363E-11
   14.3699999      -3.51322998E-11
   14.4300003      -1.58208460E-10
   14.4899998      -2.90500568E-10
   14.5500002      -4.28762637E-10
   14.6099997      -5.65680669E-10
   14.6700001      -6.92862656E-10
   14.7299995      -8.04432576E-10
   14.7900000      -8.99683494E-10
   14.8500004      -9.83687132E-10
   14.9099998      -1.06562292E-09
   14.9700003      -1.15551213E-09
   15.0299997      -1.26064570E-09
   15.0900002      -1.38307843E-09
   15.1499996      -1.51911028E-09
   15.2100000      -1.66088510E-09
   15.2700005      -1.79942394E-09
   15.3299999      -1.92787675E-09
   15.3900003      -2.04374606E-09
   15.4499998      -2.14928320E-09
   15.5100002      -2.25001751E-09
   15.5699997      -2.35210273E-09
   15.6300001      -2.45958964E-09
   15.6899996      -2.57267807E-09
   15.7500000      -2.68753775E-09
   15.8100004      -2.79763701E-09
   15.8699999      -2.89596080E-09
   15.9300003      -2.97722647E-09
   15.9899998      -3.03930592E-09
   16.0499992      -3.08339643E-09
   16.1100006      -3.11296389E-09
   16.1700001      -3.13189674E-09
   16.2299995      -3.14257576E-09
   16.2900009      -3.14459858E-09
   16.3500004      -3.13468762E-09
   16.4099998      -3.10787196E-09
   16.4699993      -3.05951864E-09
   16.5300007      -2.98737990E-09
   16.5900002      -2.89273561E-09
   16.6499996      -2.78005641E-09
   16.7099991      -2.65526112E-09
   16.7700005      -2.52333954E-09
   16.8299999      -2.38643993E-09
   16.8899994      -2.24333019E-09
   16.9500008      -2.09044337E-09
   17.0100002      -1.92393124E-09
   17.0699997      -1.74164949E-09
   17.1299992      -1.54411917E-09
   17.1900005      -1.33412525E-09
   17.2500000      -1.11538723E-09
   17.3099995      -8.91198892E-10
   17.3700008      -6.63832211E-10
   17.4300003      -4.34934422E-10
   17.4899998      -2.06484801E-10
   17.5499992       1.84599072E-11
   17.6100006       2.35832437E-10
   17.6700001       4.41491094E-10
   17.7299995       6.32522923E-10
   17.7900009       8.08181189E-10
   17.8500004       9.69937353E-10
   17.9099998       1.12062049E-09
   17.9699993       1.26307731E-09
   18.0300007       1.39895917E-09
   18.0900002       1.52808377E-09
   18.1499996       1.64847780E-09
   18.2099991       1.75691361E-09
   18.2700005       1.84964666E-09
   18.3299999       1.92313743E-09
   18.3899994       1.97466821E-09
   18.4500008       2.00284056E-09
   18.5100002       2.00791783E-09
   18.5699997       1.99193906E-09
   18.6299992       1.95853334E-09
   18.6900005       1.91247462E-09
   18.7500000       1.85911841E-09
   18.8099995       1.80390880E-09
   18.8700008       1.75204817E-09
   18.9300003       1.70826508E-09
   18.9899998       1.67649172E-09
   19.0499992       1.65929659E-09
   19.1100006       1.65711700E-09
   19.1700001       1.66758873E-09
   19.2299995       1.68542302E-09
   19.2900009       1.70318304E-09
   19.3500004       1.71297154E-09
   19.4099998       1.70859027E-09
   19.4699993       1.68739722E-09
   19.5300007       1.65106639E-09
   19.5900002       1.60480540E-09
   19.6499996       1.55520385E-09
   19.7099991       1.50749313E-09
   19.7700005       1.46333057E-09
   19.8299999       1.42006940E-09
   19.8899994       1.37188449E-09
   19.9500008       1.31233202E-09
   20.0100002       1.23727339E-09
   20.0699997       1.14691112E-09
   20.1299992       1.04605169E-09
   20.1900005       9.42475764E-10
   20.2500000       8.44097292E-10
   20.3099995       7.56075036E-10
   20.3700008       6.78999801E-10
   20.4300003       6.08771922E-10
   20.4899998       5.38085965E-10
   20.5499992       4.58856064E-10
   20.6100006       3.64678204E-10
   20.6700001       2.52552507E-10
   20.7299995       1.23461408E-10
   20.7900009      -1.81841851E-11
   20.8500004      -1.65891301E-10
   20.9099998      -3.12725706E-10
   20.9699993      -4.52750781E-10
   21.0300007      -5.81906023E-10
   21.0900002      -6.98207214E-10
   21.1499996      -8.01415323E-10
   21.2099991      -8.92515395E-10
   21.2700005      -9.73367498E-10
   21.3299999      -1.04670206E-09
   21.3899994      -1.11632126E-09
   21.4500008      -1.18712662E-09
   21.5100002      -1.26459110E-09
   21.5699997      -1.35359113E-09
   21.6299992      -1.45694834E-09
   21.6900005      -1.57433111E-09
   21.7500000      -1.70212033E-09
   21.8099995      -1.83441706E-09
   21.8700008      -1.96480587E-09
   21.9300003      -2.08811901E-09
   21.9899998      -2.20149099E-09
   22.0499992      -2.30442465E-09
   22.1100006      -2.39813303E-09
   22.1700001      -2.48473087E-09
   22.2299995      -2.56676302E-09
   22.2900009      -2.64717026E-09
   22.3500004      -2.72940093E-09
   22.4099998      -2.81725954E-09
   22.4699993      -2.91427993E-09
   22.5300007      -3.02279779E-09
   22.5900002      -3.14315418E-09
   22.6499996      -3.27343663E-09
   22.7099991      -3.40989192E-09
   22.7700005      -3.54782248E-09
   22.8299999      -3.68260000E-09
   22.8899994      -3.81049015E-09
   22.9500008      -3.92915522E-09
   23.0100002      -4.03781808E-09
   23.0699997      -4.13710932E-09
   23.1299992      -4.22855795E-09
   23.1900005      -4.31372760E-09
   23.2500000      -4.39317915E-09
   23.3099995      -4.46563986E-09
   23.3700008      -4.52786209E-09
   23.4300003      -4.57542892E-09
   23.4899998      -4.60434357E-09
   23.5499992      -4.61278082E-09
   23.6100006      -4.60221639E-09
   23.6700001      -4.57736204E-09
   23.7299995      -4.54487381E-09
   23.7900009      -4.51134552E-09
   23.8500004      -4.48139348E-09
   23.9099998      -4.45652537E-09
   23.9699993      -4.43513670E-09
   24.0300007      -4.41350734E-09
   24.0900002      -4.38737136E-09
   24.1499996      -4.35349667E-09
   24.2099991      -4.31078062E-09
   24.2700005      -4.26051416E-09
   24.3299999      -4.20572999E-09
   24.3899994      -4.14987866E-09
   24.4500008      -4.09534939E-09
   24.5100002      -4.04252232E-09
   24.5699997      -3.98983202E-09
   24.6299992      -3.93487287E-09
   24.6900005      -3.87597376E-09
   24.7500000      -3.81336607E-09
   24.8099995      -3.74921161E-09
   24.8700008      -3.68639230E-09
   24.9300003      -3.62670005E-09
   24.9899998      -3.56945784E-09
   25.0499992      -3.51136542E-09
   25.1100006      -3.44765105E-09
   25.1700001      -3.37384676E-09
   25.2299995      -3.28721228E-09
   25.2900009      -3.18716897E-09
   25.3500004      -3.07481440E-09
   25.4099998      -2.95216718E-09
   25.4699993      -2.82180146E-09
   25.5300007      -2.68704103E-09
   25.5900002      -2.55224286E-09
   25.6499996      -2.42247911E-09
   25.7099991      -2.30230679E-09
   25.7700005      -2.19406027E-09
   25.8299999      -2.09665041E-09
   25.8899994      -2.00576022E-09
   25.9500008      -1.91557348E-09
   26.0100002      -1.82123716E-09
   26.0699997      -1.72075187E-09
   26.1299992      -1.61528990E-09
   26.1900005      -1.50784107E-09
   26.2500000      -1.40104151E-09
   26.3099995      -1.29543520E-09
   26.3700008      -1.18905452E-09
   26.4300003      -1.07837617E-09
   26.4899998      -9.59957225E-10
   26.5499992      -8.31840485E-10
   26.6100006      -6.94155344E-10
   26.6700001      -5.48920465E-10
   26.7299995      -3.99448224E-10
   26.7900009      -2.49752941E-10
   26.8500004      -1.04097786E-10
   26.9099998       3.34433696E-11
   26.9699993       1.59542282E-10
   27.0300007       2.72224576E-10
   27.0900002       3.71263881E-10
   27.1499996       4.58098420E-10
   27.2099991       5.35240352E-10
   27.2700005       6.05430872E-10
   27.3299999       6.70912215E-10
   27.3899994       7.33066663E-10
   27.4500008       7.92427790E-10
   27.5100002       8.48893844E-10
   27.5699997       9.01987096E-10
   27.6299992       9.51125290E-10
   27.6900005       9.95938332E-10
   27.7500000       1.03658715E-09
   27.8099995       1.07389253E-09
   27.8700008       1.10905296E-09
   27.9300003       1.14294840E-09
   27.9899998       1.17537213E-09
   28.0499992       1.20475163E-09
   28.1100006       1.22873411E-09
   28.1700001       1.24547794E-09
   28.2299995       1.25492494E-09
   28.2900009       1.25917454E-09
   28.3500004       1.26154032E-09
   28.4099998       1.26470978E-09
   28.4699993       1.26909450E-09
   28.5300007       1.27245159E-09
   28.5900002       1.27110800E-09
   28.6499996       1.26209065E-09
   28.7099991       1.24483457E-09
   28.7700005       1.22138344E-09
   28.8299999       1.19495835E-09
   28.8899994       1.16784105E-09
   28.9500008       1.13994669E-09
   29.0100002       1.10898357E-09
   29.0699997       1.07201625E-09
   29.1299992       1.02733499E-09
   29.1900005       9.75381997E-10
   29.2500000       9.18183196E-10
   29.3099995       8.57774851E-10
   29.3700008       7.94758925E-10
   29.4300003       7.27962246E-10
   29.4899998       6.55356547E-10
   29.5499992       5.75533621E-10
   29.6100006       4.88707852E-10
   29.6700001       3.96630923E-10
   29.7299995       3.01595193E-10
   29.7900009       2.05292533E-10
   29.8500004       1.08292826E-10
   29.9099998       1.03687354E-11
   29.9699993      -8.87369275E-11
   30.0300007      -1.88762811E-10
   30.0900002      -2.89001018E-10
   30.1499996      -3.88856447E-10
   30.2099991      -4.88378504E-10
   30.2700005      -5.88295412E-10
   30.3299999      -6.89477475E-10
   30.3899994      -7.92174326E-10
   30.4500008      -8.95494734E-10
   30.5100002      -9.97372740E-10
   30.5699997      -1.09490328E-09
   30.6299992      -1.18474597E-09
   30.6900005      -1.26339750E-09
   30.7500000      -1.32741262E-09
   30.8099995      -1.37379963E-09
   30.8700008      -1.40070477E-09
   30.9300003      -1.40817036E-09
   30.9899998      -1.39851941E-09
   31.0499992      -1.37598599E-09
   31.1100006      -1.34561029E-09
   31.1700001      -1.31185507E-09
   31.2299995      -1.27757938E-09
   31.2900009      -1.24377064E-09
   31.3500004      -1.20996335E-09
   31.4099998      -1.17489274E-09
   31.4699993      -1.13692078E-09
   31.5300007      -1.09410458E-09
   31.5900002      -1.04417552E-09
   31.6499996      -9.84828663E-10
   31.7099991      -9.14466780E-10
   31.7700005      -8.33093317E-10
   31.8299999      -7.42764128E-10
   31.8899994      -6.47132403E-10
   31.9500008      -5.50124168E-10
   32.0099983      -4.54330379E-10
   32.0699997      -3.59934693E-10
   32.1300011      -2.64744060E-10
   32.1899986      -1.65314651E-10
   32.2500000      -5.86183671E-11
   32.3100014       5.65161945E-11
   32.3699989       1.78760853E-10
   32.4300003       3.04593434E-10
   32.4900017       4.29321301E-10
   32.5499992       5.48418810E-10
   32.6100006       6.58797739E-10
   32.6699982       7.59717511E-10
   32.7299995       8.53109694E-10
   32.7900009       9.43154443E-10
   32.8499985       1.03509257E-09
   32.9099998       1.13352017E-09
   32.9700012       1.24070043E-09
   33.0299988       1.35553557E-09
   33.0900002       1.47365076E-09
   33.1500015       1.58859026E-09
   33.2099991       1.69364434E-09
   33.2700005       1.78359427E-09
   33.3300018       1.85579230E-09
   33.3899994       1.91037053E-09
   33.4500008       1.94975924E-09
   33.5099983       1.97784433E-09
   33.5699997       1.99900985E-09
   33.6300011       2.01715755E-09
   33.6899986       2.03476080E-09
   33.7500000       2.05216177E-09
   33.8100014       2.06745732E-09
   33.8699989       2.07726947E-09
   33.9300003       2.07828821E-09
   33.9900017       2.06896722E-09
   34.0499992       2.05045270E-09
   34.1100006       2.02606598E-09
   34.1699982       1.99941552E-09
   34.2299995       1.97207140E-09
   34.2900009       1.94216709E-09
   34.3499985       1.90493776E-09
   34.4099998       1.85519566E-09
   34.4700012       1.79061144E-09
   34.5299988       1.71409809E-09
   34.5900002       1.63394009E-09
   34.6500015       1.56141489E-09
   34.7099991       1.50690171E-09
   34.7700005       1.47619306E-09
   34.8300018       1.46855406E-09
   34.8899994       1.47716595E-09
   34.9500008       1.49149559E-09
   35.0099983       1.50042201E-09
   35.0699997       1.49490709E-09
   35.1300011       1.46949886E-09
   35.1899986       1.42259871E-09
   35.2500000       1.35585365E-09
   35.3100014       1.27311028E-09
   35.3699989       1.17921628E-09
   35.4300003       1.07882103E-09
   35.4900017       9.75323378E-10
   35.5499992       8.70207462E-10
   35.6100006       7.63004382E-10
   35.6699982       6.51932619E-10
   35.7299995       5.34938371E-10
   35.7900009       4.10603829E-10
   35.8499985       2.78422951E-10
   35.9099998       1.38292156E-10
   35.9700012      -1.04468482E-11
   36.0299988      -1.69755446E-10
   36.0900002      -3.42840561E-10
   36.1500015      -5.33127098E-10
   36.2099991      -7.42650219E-10
   36.2700005      -9.70603931E-10
   36.3300018      -1.21272303E-09
   36.3899994      -1.46176338E-09
   36.4500008      -1.70883463E-09
   36.5099983      -1.94502570E-09
   36.5699997      -2.16277773E-09
   36.6300011      -2.35672815E-09
   36.6899986      -2.52404475E-09
   36.7500000      -2.66439892E-09
   36.8100014      -2.77966405E-09
   36.8699989      -2.87329893E-09
   36.9300003      -2.94936475E-09
   36.9900017      -3.01129766E-09
   37.0499992      -3.06080450E-09
   37.1100006      -3.09737658E-09
   37.1699982      -3.11874837E-09
   37.2299995      -3.12221116E-09
   37.2900009      -3.10625548E-09
   37.3499985      -3.07179460E-09
   37.4099998      -3.02239633E-09
   37.4700012      -2.96342750E-09
   37.5299988      -2.90051316E-09
   37.5900002      -2.83799495E-09
   37.6500015      -2.77797740E-09
   37.7099991      -2.72019851E-09
   37.7700005      -2.66258238E-09
   37.8300018      -2.60211852E-09
   37.8899994      -2.53573873E-09
   37.9500008      -2.46102627E-09
   38.0099983      -2.37672881E-09
   38.0699997      -2.28308594E-09
   38.1300011      -2.18191309E-09
   38.1899986      -2.07637041E-09
   38.2500000      -1.97038363E-09
   38.3100014      -1.86782945E-09
   38.3699989      -1.77168569E-09
   38.4300003      -1.68336511E-09
   38.4900017      -1.60234415E-09
   38.5499992      -1.52610569E-09
   38.6100006      -1.45038248E-09
   38.6699982      -1.36974476E-09
   38.7299995      -1.27859956E-09
   38.7900009      -1.17255994E-09
   38.8499985      -1.04988229E-09
   38.9099998      -9.12425413E-10
   38.9700012      -7.65555785E-10
   39.0299988      -6.16768414E-10
   39.0900002      -4.73381334E-10
   39.1500015      -3.40208056E-10
   39.2099991      -2.18244228E-10
   39.2700005      -1.04995942E-10
   39.3300018       3.71002448E-12
   39.3899994       1.11324332E-10
   39.4500008       2.18743898E-10
   39.5099983       3.23872651E-10
   39.5699997       4.22656299E-10
   39.6300011       5.10965159E-10
   39.6899986       5.86396154E-10
   39.7500000       6.49261478E-10
   39.8100014       7.02529757E-10
   39.8699989       7.50951634E-10
   39.9300003       7.99804001E-10
   39.9900017       8.53625948E-10
   40.0499992       9.15178267E-10
   40.1100006       9.84789916E-10
   40.1699982       1.06028386E-09
   40.2299995       1.13765297E-09
   40.2900009       1.21245680E-09
   40.3499985       1.28153377E-09
   40.4099998       1.34432143E-09
   40.4700012       1.40307621E-09
   40.5299988       1.46172896E-09
   40.5900002       1.52380197E-09
   40.6500015       1.59035285E-09
   40.7099991       1.65896197E-09
   40.7700005       1.72426451E-09
   40.8300018       1.77973225E-09
   40.8899994       1.81979798E-09
   40.9500008       1.84133830E-09
   41.0099983       1.84399007E-09
   41.0699997       1.82945081E-09
   41.1300011       1.80037896E-09
   41.1899986       1.75951598E-09
   41.2500000       1.70928149E-09
   41.3100014       1.65168546E-09
   41.3699989       1.58824398E-09
   41.4300003       1.51976975E-09
   41.4900017       1.44622103E-09
   41.5499992       1.36694212E-09
   41.6100006       1.28141520E-09
   41.6699982       1.19023225E-09
   41.7299995       1.09566523E-09
   41.7900009       1.00128639E-09
   41.8499985       9.10589881E-10
   41.9099998       8.25212121E-10
   41.9700012       7.43733519E-10
   42.0299988       6.61869171E-10
   42.0900002       5.74170711E-10
   42.1500015       4.76541862E-10
   42.2099991       3.68380632E-10
   42.2700005       2.53291887E-10
   42.3300018       1.38000236E-10
   42.3899994       2.99578626E-11
   42.4500008      -6.52745843E-11
   42.5099983      -1.45777501E-10
   42.5699997      -2.13550580E-10
   42.6300011      -2.73427586E-10
   42.6899986      -3.31274563E-10
   42.7500000      -3.92256089E-10
   42.8100014      -4.59709187E-10
   42.8699989      -5.34749300E-10
   42.9300003      -6.16409923E-10
   42.9900017      -7.02026659E-10
   43.0499992      -7.87686250E-10
   43.1100006      -8.68723038E-10
   43.1699982      -9.40306610E-10
   43.2299995      -9.98093941E-10
   43.2900009      -1.03879139E-09
   43.3499985      -1.06042197E-09
   43.4099998      -1.06220122E-09
   43.4700012      -1.04413644E-09
   43.5299988      -1.00664321E-09
   43.5900002      -9.50479251E-10
   43.6500015      -8.77092121E-10
   43.7099991      -7.89174781E-10
   43.7700005      -6.91011359E-10
   43.8300018      -5.88219029E-10
   43.8899994      -4.86767349E-10
   43.9500008      -3.91539079E-10
   44.0099983      -3.04973546E-10
   44.0699997      -2.26352576E-10
   44.1300011      -1.52048596E-10
   44.1899986      -7.66831806E-11
   44.2500000       5.17538443E-12
   44.3100014       9.72957201E-11
   44.3699989       2.00536338E-10
   44.4300003       3.12408488E-10
   44.4900017       4.27596875E-10
   44.5499992       5.39366163E-10
   44.6100006       6.41535047E-10
   44.6699982       7.30453975E-10
   44.7299995       8.06285372E-10
   44.7900009       8.72994566E-10
   44.8499985       9.36875133E-10
   44.9099998       1.00403807E-09
   44.9700012       1.07781661E-09
   45.0299988       1.15717025E-09
   45.0900002       1.23678989E-09
   45.1500015       1.30885947E-09
   45.2099991       1.36569567E-09
   45.2700005       1.40216017E-09
   45.3300018       1.41696055E-09
   45.3899994       1.41257273E-09
   45.4500008       1.39413259E-09
   45.5099983       1.36793354E-09
   45.5699997       1.34004019E-09
   45.6300011       1.31519218E-09
   45.6899986       1.29594468E-09
   45.7500000       1.28203714E-09
   45.8100014       1.27021593E-09
   45.8699989       1.25485944E-09
   45.9300003       1.22955346E-09
   45.9900017       1.18925159E-09
   46.0499992       1.13216381E-09
   46.1100006       1.06041431E-09
   46.1699982       9.78982340E-10
   46.2299995       8.93284224E-10
   46.2900009       8.06500644E-10
   46.3499985       7.17938597E-10
   46.4099998       6.23229024E-10
   46.4700012       5.16243825E-10
   46.5299988       3.91799676E-10
   46.5900002       2.47918325E-10
   46.6500015       8.67288949E-11
   46.7099991      -8.62139110E-11
   46.7700005      -2.63770950E-10
   46.8300018      -4.39465603E-10
   46.8899994      -6.09413853E-10
   46.9500008      -7.73450637E-10
   47.0099983      -9.35215239E-10
   47.0699997      -1.10116205E-09
   47.1300011      -1.27866506E-09
   47.1899986      -1.47364942E-09
   47.2500000      -1.68844183E-09
   47.3100014      -1.92061966E-09
   47.3699989      -2.16339302E-09
   47.4300003      -2.40749842E-09
   47.4900017      -2.64394706E-09
   47.5499992      -2.86658941E-09
   47.6100006      -3.07355519E-09
   47.6699982      -3.26715788E-09
   47.7299995      -3.45250895E-09
   47.7900009      -3.63554498E-09
   47.8499985      -3.82121712E-09
   47.9099998      -4.01231581E-09
   47.9700012      -4.20902913E-09
   48.0299988      -4.40911174E-09
   48.0900002      -4.60850558E-09
   48.1500015      -4.80229811E-09
   48.2099991      -4.98589170E-09
   48.2700005      -5.15611065E-09
   48.3300018      -5.31185051E-09
   48.3899994      -5.45391421E-09
   48.4500008      -5.58398661E-09
   48.5099983      -5.70312375E-09
   48.5699997      -5.81045256E-09
   48.6300011      -5.90273519E-09
   48.6899986      -5.97507643E-09
   48.7500000      -6.02249584E-09
   48.8100014      -6.04168049E-09
   48.8699989      -6.03218009E-09
   48.9300003      -5.99659566E-09
   48.9900017      -5.93976468E-09
   49.0499992      -5.86732884E-09
   49.1100006      -5.78421000E-09
   49.1699982      -5.69346392E-09
   49.2299995      -5.59578961E-09
   49.2900009      -5.48977885E-09
   49.3499985      -5.37280664E-09
   49.4099998      -5.24230126E-09
   49.4700012      -5.09698994E-09
   49.5299988      -4.93766361E-09
   49.5900002      -4.76712536E-09
   49.6500015      -4.58927074E-09
   49.7099991      -4.40764047E-09
   49.7700005      -4.22406421E-09
   49.8300018      -4.03799394E-09
   49.8899994      -3.84685928E-09
   49.9500008      -3.64727470E-09
   50.0099983      -3.43658013E-09
   50.0699997      -3.21402571E-09
   50.1300011      -2.98113156E-09
   50.1899986      -2.74110934E-09
   50.2500000      -2.49763166E-09
   50.3100014      -2.25347163E-09
   50.3699989      -2.00955408E-09
   50.4300003      -1.76480874E-09
   50.4900017      -1.51693236E-09
   50.5499992      -1.26385813E-09
   50.6100006      -1.00542874E-09