  -2.400000      0.0000000E+00
  -2.340000      0.0000000E+00
  -2.280000      0.0000000E+00
  -2.220000      0.0000000E+00
  -2.160000      0.0000000E+00
  -2.100000     -4.0606239E-19
  -2.040000     -3.0441613E-18
  -1.980000     -1.1066384E-17
  -1.920000     -2.4056230E-17
  -1.860000     -2.7283879E-17
  -1.800000      1.5959082E-17
  -1.740000      1.4933854E-16
  -1.680000      3.7127979E-16
  -1.620000      5.6440304E-16
  -1.560000      4.7322169E-16
  -1.500000     -1.8753512E-16
  -1.440000     -1.4777455E-15
  -1.380000     -2.9570829E-15
  -1.320000     -3.6435220E-15
  -1.260000     -2.4217483E-15
  -1.200000      1.1531159E-15
  -1.140000      6.1003559E-15
  -1.080000      9.9616546E-15
  -1.020000      9.8538790E-15
 -0.9600000      4.3104867E-15
 -0.9000000     -5.1755856E-15
 -0.8400000     -1.4188553E-14
 -0.7800000     -1.7519399E-14
 -0.7200000     -1.2455203E-14
 -0.6600000     -1.1083874E-15
 -0.6000000      1.0229088E-14
 -0.5400000      1.5015346E-14
 -0.4800000      1.1536952E-14
 -0.4200000      5.4940882E-15
 -0.3600000      7.2748094E-15
 -0.3000000      2.4250897E-14
 -0.2400000      5.2201783E-14
 -0.1800000      7.1862702E-14
 -0.1200000      5.4899675E-14
 -5.9999999E-02 -2.1278271E-14
  0.0000000E+00 -1.5606907E-13
  5.9999999E-02 -3.1488424E-13
  0.1200000     -4.3279115E-13
  0.1800000     -4.3451850E-13
  0.2400000     -2.6509231E-13
  0.3000000      8.0619790E-14
  0.3600000      5.4265999E-13
  0.4200000      1.0041247E-12
  0.4800000      1.3231179E-12
  0.5400000      1.3785753E-12
  0.6000000      1.1121914E-12
  0.6600000      5.4771563E-13
  0.7200000     -2.2271461E-13
  0.7800000     -1.0794468E-12
  0.8400000     -1.9207754E-12
  0.9000000     -2.6830324E-12
  0.9600000     -3.3157077E-12
   1.020000     -3.7195616E-12
   1.080000     -3.6880069E-12
   1.140000     -2.9085939E-12
   1.200000     -1.0650199E-12
   1.260000      1.9704327E-12
   1.320000      5.9277123E-12
   1.380000      1.0027379E-11
   1.440000      1.3066867E-11
   1.500000      1.3730098E-11
   1.560000      1.1039064E-11
   1.620000      4.7805444E-12
   1.680000     -4.2729010E-12
   1.740000     -1.4454555E-11
   1.800000     -2.3583713E-11
   1.860000     -2.9487780E-11
   1.920000     -3.0470616E-11
   1.980000     -2.5582729E-11
   2.040000     -1.4671446E-11
   2.100000      1.6878269E-12
   2.160000      2.2227822E-11
   2.220000      4.4896076E-11
   2.280000      6.6665194E-11
   2.340000      8.3408606E-11
   2.400000      9.0050710E-11
   2.460000      8.1125169E-11
   2.520000      5.1705116E-11
   2.580000     -1.5139311E-12
   2.640000     -7.9301114E-11
   2.700000     -1.7943566E-10
   2.760000     -2.9684000E-10
   2.820000     -4.2421827E-10
   2.880000     -5.5295346E-10
   2.940000     -6.7397299E-10
   3.000000     -7.7838275E-10
   3.060000     -8.5783497E-10
   3.120000     -9.0475194E-10
   3.180000     -9.1258429E-10
   3.240000     -8.7621965E-10
   3.300000     -7.9251328E-10
   3.360000     -6.6076822E-10
   3.420000     -4.8294058E-10
   3.480000     -2.6341587E-10
   3.540000     -8.3638383E-12
   3.600000      2.7515054E-10
   3.660000      5.8003580E-10
   3.720000      8.9980018E-10
   3.780000      1.2288510E-09
   3.840000      1.5625400E-09
   3.900000      1.8971102E-09
   3.960000      2.2296731E-09
   4.020000      2.5582283E-09
   4.080000      2.8816445E-09
   4.140000      3.1994867E-09
   4.200000      3.5116698E-09
   4.260000      3.8180681E-09
   4.320000      4.1182897E-09
   4.380000      4.4118154E-09
   4.440000      4.6984976E-09
   4.500000      4.9792099E-09
   4.560000      5.2562799E-09
   4.620000      5.5333818E-09
   4.680000      5.8147660E-09
   4.740000      6.1040546E-09
   4.800000      6.4030150E-09
   4.860000      6.7108084E-09
   4.920000      7.0239672E-09
   4.980000      7.3370816E-09
   5.040000      7.6438553E-09
   5.100000      7.9381319E-09
   5.160000      8.2145810E-09
   5.220000      8.4689944E-09
   5.280000      8.6983478E-09
   5.340000      8.9008640E-09
   5.400000      9.0761816E-09
   5.460000      9.2255554E-09
   5.520000      9.3518695E-09
   5.580000      9.4592840E-09
   5.640000      9.5525472E-09
   5.700000      9.6362118E-09
   5.760000      9.7141619E-09
   5.820000      9.7897255E-09
   5.880000      9.8663344E-09
   5.940000      9.9483390E-09
   6.000000      1.0041402E-08
   6.060000      1.0151986E-08
   6.120000      1.0285832E-08
   6.180000      1.0445849E-08
   6.240000      1.0630169E-08
   6.300000      1.0831173E-08
   6.360000      1.1035949E-08
   6.420000      1.1228114E-08
   6.480000      1.1390447E-08
   6.540000      1.1507498E-08
   6.600000      1.1567463E-08
   6.660000      1.1562957E-08
   6.720000      1.1490711E-08
   6.780000      1.1350565E-08
   6.840000      1.1144159E-08
   6.900000      1.0873699E-08
   6.960000      1.0541012E-08
   7.020000      1.0147001E-08
   7.080000      9.6916519E-09
   7.140000      9.1746317E-09
   7.200000      8.5965022E-09
   7.260000      7.9602565E-09
   7.320000      7.2726758E-09
   7.380000      6.5448291E-09
   7.440000      5.7912040E-09
   7.500000      5.0274145E-09
   7.560000      4.2670947E-09
   7.620000      3.5190661E-09
   7.680000      2.7859588E-09
   7.740000      2.0649766E-09
   7.800000      1.3505934E-09
   7.860000      6.3805999E-10
   7.920000     -7.3853521E-11
   7.980000     -7.8217316E-10
   8.040000     -1.4814349E-09
   8.100000     -2.1669422E-09
   8.160000     -2.8378826E-09
   8.220000     -3.4985888E-09
   8.280000     -4.1571049E-09
   8.340000     -4.8215170E-09
   8.400000     -5.4956688E-09
   8.460000     -6.1762151E-09
   8.520000     -6.8523640E-09
   8.580000     -7.5083992E-09
   8.640000     -8.1278060E-09
   8.700000     -8.6972198E-09
   8.760000     -9.2086623E-09
   8.820000     -9.6595434E-09
   8.880000     -1.0050957E-08
   8.940000     -1.0385489E-08
   9.000000     -1.0665667E-08
   9.060000     -1.0893583E-08
   9.120000     -1.1071453E-08
   9.180000     -1.1202453E-08
   9.240000     -1.1291181E-08
   9.300000     -1.1343508E-08
   9.360000     -1.1365960E-08
   9.420000     -1.1365004E-08
   9.480000     -1.1346504E-08
   9.540000     -1.1315357E-08
   9.600000     -1.1275242E-08
   9.660000     -1.1228401E-08
   9.720000     -1.1175563E-08
   9.780000     -1.1116229E-08
   9.840000     -1.1049472E-08
   9.900000     -1.0975139E-08
   9.960000     -1.0895059E-08
   10.02000     -1.0813765E-08
   10.08000     -1.0738308E-08
   10.14000     -1.0677087E-08
   10.20000     -1.0637939E-08
   10.26000     -1.0626002E-08
   10.32000     -1.0641939E-08
   10.38000     -1.0681024E-08
   10.44000     -1.0733483E-08
   10.50000     -1.0786151E-08
   10.56000     -1.0825266E-08
   10.62000     -1.0839800E-08
   10.68000     -1.0824461E-08
   10.74000     -1.0781426E-08
   10.80000     -1.0720146E-08
   10.86000     -1.0655153E-08
   10.92000     -1.0602489E-08
   10.98000     -1.0575820E-08
   11.04000     -1.0583386E-08
   11.10000     -1.0626511E-08
   11.16000     -1.0699837E-08
   11.22000     -1.0792889E-08
   11.28000     -1.0892371E-08
   11.34000     -1.0984624E-08
   11.40000     -1.1057864E-08
   11.46000     -1.1103949E-08
   11.52000     -1.1119414E-08
   11.58000     -1.1105522E-08
   11.64000     -1.1067200E-08
   11.70000     -1.1011029E-08
   11.76000     -1.0942848E-08
   11.82000     -1.0865731E-08
   11.88000     -1.0779001E-08
   11.94000     -1.0678497E-08
   12.00000     -1.0557818E-08
   12.06000     -1.0409855E-08
   12.12000     -1.0228035E-08
   12.18000     -1.0006976E-08
   12.24000     -9.7427142E-09
   12.30000     -9.4328403E-09
   12.36000     -9.0768522E-09
   12.42000     -8.6766967E-09
   12.48000     -8.2372544E-09
   12.54000     -7.7664133E-09
   12.60000     -7.2745285E-09
   12.66000     -6.7733672E-09
   12.72000     -6.2747669E-09
   12.78000     -5.7893379E-09
   12.84000     -5.3254552E-09
   12.90000     -4.8886988E-09
   12.96000     -4.4818598E-09
   13.02000     -4.1055497E-09
   13.08000     -3.7593528E-09
   13.14000     -3.4432119E-09
   13.20000     -3.1585634E-09
   13.26000     -2.9086917E-09
   13.32000     -2.6980433E-09
   13.38000     -2.5307005E-09
   13.44000     -2.4086722E-09
   13.50000     -2.3308269E-09
   13.56000     -2.2930224E-09
   13.62000     -2.2894235E-09
   13.68000     -2.3144209E-09
   13.74000     -2.3642812E-09
   13.80000     -2.4378244E-09
   13.86000     -2.5358855E-09
   13.92000     -2.6598530E-09
   13.98000     -2.8098599E-09
   14.04000     -2.9832383E-09
   14.10000     -3.1736327E-09
   14.16000     -3.3709391E-09
   14.22000     -3.5620531E-09
   14.28000     -3.7322803E-09
   14.34000     -3.8671306E-09
   14.40000     -3.9540398E-09
   14.46000     -3.9834971E-09
   14.52000     -3.9491503E-09
   14.58000     -3.8468690E-09
   14.64000     -3.6732362E-09
   14.70000     -3.4242840E-09
   14.76000     -3.0952407E-09
   14.82000     -2.6815417E-09
   14.88000     -2.1806494E-09
   14.94000     -1.5937269E-09
   15.00000     -9.2622282E-10
   15.06000     -1.8697736E-10
   15.12000      6.1375216E-10
   15.18000      1.4663961E-09
   15.24000      2.3633424E-09
   15.30000      3.2989176E-09
   15.36000      4.2683341E-09
   15.42000      5.2663416E-09
   15.48000      6.2863181E-09
   15.54000      7.3201321E-09
   15.60000      8.3585956E-09
   15.66000      9.3920791E-09
   15.72000      1.0410952E-08
   15.78000      1.1405819E-08
   15.84000      1.2367808E-08
   15.90000      1.3289077E-08
   15.96000      1.4163487E-08
   16.02000      1.4987021E-08
   16.08000      1.5757536E-08
   16.14000      1.6473733E-08
   16.20000      1.7133727E-08
   16.26000      1.7733917E-08
   16.32000      1.8268844E-08
   16.38000      1.8732216E-08
   16.44000      1.9118620E-08
   16.50000      1.9425139E-08
   16.56000      1.9652070E-08
   16.62000      1.9802574E-08
   16.68000      1.9881675E-08
   16.74000      1.9895339E-08
   16.80000      1.9850230E-08
   16.86000      1.9754149E-08
   16.92000      1.9616584E-08
   16.98000      1.9448606E-08
   17.04000      1.9261728E-08
   17.10000      1.9065970E-08
   17.16000      1.8867960E-08
   17.22000      1.8670091E-08
   17.28000      1.8471232E-08
   17.34000      1.8268670E-08
   17.40000      1.8060421E-08
   17.46000      1.7846707E-08
   17.52000      1.7630040E-08
   17.58000      1.7413987E-08
   17.64000      1.7201407E-08
   17.70000      1.6993145E-08
   17.76000      1.6787773E-08
   17.82000      1.6582330E-08
   17.88000      1.6373509E-08
   17.94000      1.6158593E-08
   18.00000      1.5935715E-08
   18.06000      1.5703558E-08
   18.12000      1.5460877E-08
   18.18000      1.5206261E-08
   18.24000      1.4938275E-08
   18.30000      1.4655781E-08
   18.36000      1.4358140E-08
   18.42000      1.4045082E-08
   18.48000      1.3716341E-08
   18.54000      1.3371322E-08
   18.60000      1.3009076E-08
   18.66000      1.2628619E-08
   18.72000      1.2229354E-08
   18.78000      1.1811325E-08
   18.84000      1.1375120E-08
   18.90000      1.0921529E-08
   18.96000      1.0451318E-08
   19.02000      9.9653921E-09
   19.08000      9.4653556E-09
   19.14000      8.9541583E-09
   19.20000      8.4362783E-09
   19.26000      7.9170697E-09
   19.32000      7.4012685E-09
   19.38000      6.8911490E-09
   19.44000      6.3851102E-09
   19.50000      5.8773906E-09
   19.56000      5.3591944E-09
   19.62000      4.8209521E-09
   19.68000      4.2549773E-09
   19.74000      3.6576222E-09
   19.80000      3.0302352E-09
   19.86000      2.3786659E-09
   19.92000      1.7115642E-09
   19.98000      1.0380876E-09
   20.04000      3.6576667E-10
   20.10000     -3.0083350E-10
   20.16000     -9.6030384E-10
   20.22000     -1.6134468E-09
   20.28000     -2.2615310E-09
   20.34000     -2.9043215E-09
   20.40000     -3.5385281E-09
   20.46000     -4.1572252E-09
   20.52000     -4.7504849E-09
   20.58000     -5.3070686E-09
   20.64000     -5.8165983E-09
   20.70000     -6.2713941E-09
   20.76000     -6.6672339E-09
   20.82000     -7.0027486E-09
   20.88000     -7.2777819E-09
   20.94000     -7.4915860E-09
   21.00000     -7.6418827E-09
   21.06000     -7.7253786E-09
   21.12000     -7.7395637E-09
   21.18000     -7.6848110E-09
   21.24000     -7.5654949E-09
   21.30000     -7.3892661E-09
   21.36000     -7.1645583E-09
   21.42000     -6.8974253E-09
   21.48000     -6.5892825E-09
   21.54000     -6.2367396E-09
   21.60000     -5.8336629E-09
   21.66000     -5.3744436E-09
   21.72000     -4.8568478E-09
   21.78000     -4.2831161E-09
   21.84000     -3.6590002E-09
   21.90000     -2.9915259E-09
   21.96000     -2.2868749E-09
   22.02000     -1.5495112E-09
   22.08000     -7.8282830E-10
   22.14000      9.3239158E-12
   22.20000      8.2128149E-10
   22.26000      1.6451464E-09
   22.32000      2.4713811E-09
   22.38000      3.2898735E-09
   22.44000      4.0907655E-09
   22.50000      4.8646793E-09
   22.56000      5.6024758E-09
   22.62000      6.2950045E-09
   22.68000      6.9331962E-09
   22.74000      7.5085049E-09
   22.80000      8.0133784E-09
   22.86000      8.4414120E-09
   22.92000      8.7870919E-09
   22.98000      9.0453991E-09
   23.04000      9.2116395E-09
   23.10000      9.2816768E-09
   23.16000      9.2524166E-09
   23.22000      9.1221883E-09
   23.28000      8.8907397E-09
   23.34000      8.5589305E-09
   23.40000      8.1284934E-09
   23.46000      7.6022069E-09
   23.52000      6.9845245E-09
   23.58000      6.2822010E-09
   23.64000      5.5042810E-09
   23.70000      4.6610427E-09
   23.76000      3.7620764E-09
   23.82000      2.8142830E-09
   23.88000      1.8207712E-09
   23.94000      7.8130180E-10
   24.00000     -3.0580646E-10
   24.06000     -1.4410853E-09
   24.12000     -2.6217084E-09
   24.18000     -3.8404986E-09
   24.24000     -5.0863669E-09
   24.30000     -6.3457763E-09
   24.36000     -7.6044939E-09
   24.42000     -8.8489713E-09
   24.48000     -1.0067049E-08
   24.54000     -1.1248098E-08
   24.60000     -1.2382945E-08
   24.66000     -1.3463910E-08
   24.72000     -1.4485051E-08
   24.78000     -1.5442469E-08
   24.84000     -1.6334312E-08
   24.90000     -1.7160232E-08
   24.96000     -1.7920261E-08
   25.02000     -1.8613395E-08
   25.08000     -1.9236511E-08
   25.14000     -1.9784075E-08
   25.20000     -2.0248873E-08
   25.26000     -2.0623443E-08
   25.32000     -2.0901460E-08
   25.38000     -2.1078440E-08
   25.44000     -2.1151418E-08
   25.50000     -2.1118014E-08
   25.56000     -2.0975671E-08
   25.62000     -2.0721830E-08
   25.68000     -2.0355133E-08
   25.74000     -1.9876977E-08
   25.80000     -1.9292258E-08
   25.86000     -1.8608564E-08
   25.92000     -1.7833880E-08
   25.98000     -1.6973997E-08
   26.04000     -1.6031162E-08
   26.10000     -1.5004966E-08
   26.16000     -1.3895177E-08
   26.22000     -1.2705045E-08
   26.28000     -1.1443181E-08
   26.34000     -1.0122889E-08
   26.40000     -8.7592937E-09
   26.46000     -7.3658630E-09
   26.52000     -5.9522858E-09
   26.58000     -4.5247877E-09
   26.64000     -3.0884608E-09
   26.70000     -1.6500079E-09
   26.76000     -2.1911065E-10
   26.82000      1.1924178E-09
   26.88000      2.5731239E-09
   26.94000      3.9144634E-09
   27.00000      5.2118283E-09
   27.06000      6.4634609E-09
   27.12000      7.6679632E-09
   27.18000      8.8219743E-09
   27.24000      9.9194732E-09
   27.30000      1.0953213E-08
   27.36000      1.1917576E-08
   27.42000      1.2811334E-08
   27.48000      1.3638773E-08
   27.54000      1.4408448E-08
   27.60000      1.5129917E-08
   27.66000      1.5809722E-08
   27.72000      1.6448249E-08
   27.78000      1.7038703E-08
   27.84000      1.7568530E-08
   27.90000      1.8022588E-08
   27.96000      1.8386565E-08
   28.02000      1.8649059E-08
   28.08000      1.8801373E-08
   28.14000      1.8835268E-08
   28.20000      1.8740050E-08
   28.26000      1.8500954E-08
   28.32000      1.8100232E-08
   28.38000      1.7521163E-08
   28.44000      1.6753535E-08
   28.50000      1.5798372E-08
   28.56000      1.4669837E-08
   28.62000      1.3393588E-08
   28.68000      1.2002512E-08
   28.74000      1.0531823E-08
   28.80000      9.0155332E-09
   28.86000      7.4851467E-09
   28.92000      5.9700658E-09
   28.98000      4.4983284E-09
   29.04000      3.0963825E-09
   29.10000      1.7874994E-09
   29.16000      5.8943567E-10
   29.22000     -4.8759163E-10
   29.28000     -1.4418216E-09
   29.34000     -2.2796529E-09
   29.40000     -3.0145650E-09
   29.46000     -3.6657086E-09
   29.52000     -4.2562203E-09
   29.58000     -4.8109756E-09
   29.64000     -5.3535993E-09
   29.70000     -5.9031477E-09
   29.76000     -6.4714727E-09
   29.82000     -7.0623805E-09
   29.88000     -7.6729858E-09
   29.94000     -8.2965279E-09
   30.00000     -8.9250340E-09
   30.06000     -9.5502388E-09
   30.12000     -1.0162222E-08
   30.18000     -1.0746636E-08
   30.24000     -1.1282483E-08
   30.30000     -1.1742242E-08
   30.36000     -1.2095031E-08
   30.42000     -1.2311864E-08
   30.48000     -1.2370991E-08
   30.54000     -1.2261320E-08
   30.60000     -1.1982952E-08
   30.66000     -1.1545241E-08
   30.72000     -1.0963824E-08
   30.78000     -1.0258100E-08
   30.84000     -9.4500461E-09
   30.90000     -8.5641281E-09
   30.96000     -7.6275146E-09
   31.02000     -6.6696417E-09
   31.08000     -5.7206897E-09
   31.14000     -4.8091837E-09
   31.20000     -3.9594439E-09
   31.26000     -3.1897105E-09
   31.32000     -2.5115139E-09
   31.38000     -1.9304025E-09
   31.44000     -1.4476441E-09
   31.50000     -1.0622146E-09
   31.56000     -7.7233930E-10
   31.62000     -5.7609639E-10
   31.68000     -4.7105037E-10
   31.74000     -4.5335533E-10
   31.80000     -5.1703197E-10
   31.86000     -6.5400541E-10
   31.92000     -8.5503449E-10
   31.98000     -1.1110962E-09
   32.04000     -1.4144580E-09
   32.10000     -1.7587958E-09
   32.16000     -2.1382673E-09
   32.22000     -2.5460849E-09
   32.28000     -2.9734861E-09
   32.34000     -3.4098209E-09
   32.40000     -3.8438577E-09
   32.46000     -4.2657518E-09
   32.52000     -4.6687560E-09
   32.58000     -5.0499511E-09
   32.64000     -5.4097846E-09
   32.70000     -5.7507914E-09
   32.76000     -6.0761254E-09
   32.82000     -6.3884547E-09
   32.88000     -6.6894383E-09
   32.94000     -6.9797497E-09
   33.00000     -7.2594677E-09
   33.06000     -7.5287057E-09
   33.12000     -7.7883229E-09
   33.18000     -8.0405060E-09
   33.24000     -8.2889020E-09
   33.30000     -8.5380085E-09
   33.36000     -8.7918366E-09
   33.42000     -9.0522727E-09
   33.48000     -9.3178558E-09
   33.54000     -9.5836112E-09
   33.60000     -9.8420863E-09
   33.66000     -1.0085103E-08
   33.72000     -1.0305377E-08
   33.78000     -1.0497246E-08
   33.84000     -1.0656345E-08
   33.90000     -1.0778666E-08
   33.96000     -1.0859740E-08
   34.02000     -1.0894498E-08
   34.08000     -1.0877860E-08
   34.14000     -1.0805657E-08
   34.20000     -1.0675437E-08
   34.26000     -1.0486954E-08
   34.32000     -1.0242475E-08
   34.38000     -9.9470725E-09
   34.44000     -9.6088124E-09
   34.50000     -9.2383967E-09
   34.56000     -8.8477883E-09
   34.62000     -8.4478176E-09
   34.68000     -8.0455305E-09
   34.74000     -7.6425266E-09
   34.80000     -7.2353097E-09
   34.86000     -6.8177761E-09
   34.92000     -6.3847585E-09
   34.98000     -5.9349059E-09
   35.04000     -5.4714882E-09
   35.10000     -5.0008579E-09
   35.16000     -4.5296260E-09
   35.22000     -4.0622754E-09
   35.28000     -3.6005428E-09
   35.34000     -3.1447380E-09
   35.40000     -2.6959988E-09
   35.46000     -2.2580171E-09
   35.52000     -1.8372767E-09
   35.58000     -1.4418707E-09
   35.64000     -1.0798363E-09
   35.70000     -7.5805345E-10
   35.76000     -4.8216697E-10
   35.82000     -2.5715541E-10
   35.88000     -8.7739059E-11
   35.94000      2.1954534E-11
   36.00000      6.9383471E-11
   36.06000      5.4600852E-11
   36.12000     -1.9398191E-11
   36.18000     -1.4718095E-10
   36.24000     -3.2181596E-10
   36.30000     -5.3558080E-10
   36.36000     -7.8006712E-10
   36.42000     -1.0458949E-09
   36.48000     -1.3226376E-09
   36.54000     -1.5994288E-09
   36.60000     -1.8661539E-09
   36.66000     -2.1145758E-09
   36.72000     -2.3386650E-09
   36.78000     -2.5339191E-09
   36.84000     -2.6962115E-09
   36.90000     -2.8211486E-09
   36.96000     -2.9046510E-09
   37.02000     -2.9446277E-09
   37.08000     -2.9427338E-09
   37.14000     -2.9049052E-09
   37.20000     -2.8399163E-09
   37.26000     -2.7563138E-09
   37.32000     -2.6590659E-09
   37.38000     -2.5475477E-09
   37.44000     -2.4158613E-09
   37.50000     -2.2553457E-09
   37.56000     -2.0580946E-09
   37.62000     -1.8199131E-09
   37.68000     -1.5415220E-09
   37.74000     -1.2277109E-09
   37.80000     -8.8502927E-10
   37.86000     -5.1913723E-10
   37.92000     -1.3294571E-10
   37.98000      2.7373823E-10
   38.04000      7.0297557E-10
   38.10000      1.1564169E-09
   38.16000      1.6329758E-09
   38.22000      2.1275621E-09
   38.28000      2.6316329E-09
   38.34000      3.1355960E-09
   38.40000      3.6322054E-09
   38.46000      4.1195007E-09
   38.52000      4.6018762E-09
   38.58000      5.0886348E-09
   38.64000      5.5905489E-09
   38.70000      6.1159002E-09
   38.76000      6.6676984E-09
   38.82000      7.2431119E-09
   38.88000      7.8350224E-09
   38.94000      8.4346441E-09
   39.00000      9.0338679E-09
   39.06000      9.6265458E-09
   39.12000      1.0208730E-08
   39.18000      1.0778471E-08
   39.24000      1.1335756E-08
   39.30000      1.1882617E-08
   39.36000      1.2422887E-08
   39.42000      1.2961119E-08
   39.48000      1.3500655E-08
   39.54000      1.4041634E-08
   39.60000      1.4580115E-08
   39.66000      1.5109084E-08
   39.72000      1.5621179E-08
   39.78000      1.6111942E-08
   39.84000      1.6582010E-08
   39.90000      1.7037134E-08
   39.96000      1.7486006E-08
   40.02000      1.7936918E-08
   40.08000      1.8394754E-08
   40.14000      1.8859446E-08
   40.20000      1.9326217E-08
   40.26000      1.9787123E-08
   40.32000      2.0232994E-08
   40.38000      2.0655040E-08
   40.44000      2.1045746E-08
   40.50000      2.1399028E-08
   40.56000      2.1709811E-08
   40.62000      2.1973243E-08
   40.68000      2.2183830E-08
   40.74000      2.2334850E-08
   40.80000      2.2418531E-08
   40.86000      2.2427248E-08
   40.92000      2.2355616E-08
   40.98000      2.2202759E-08
   41.04000      2.1973838E-08
   41.10000      2.1679936E-08
   41.16000      2.1336124E-08
   41.22000      2.0958167E-08
   41.28000      2.0558909E-08
   41.34000      2.0145412E-08
   41.40000      1.9717648E-08
   41.46000      1.9268958E-08
   41.52000      1.8788105E-08
   41.58000      1.8262469E-08
   41.64000      1.7681737E-08
   41.70000      1.7041287E-08
   41.76000      1.6344302E-08
   41.82000      1.5601797E-08
   41.88000      1.4830195E-08
   41.94000      1.4046959E-08
   42.00000      1.3265664E-08
   42.06000      1.2492390E-08
   42.12000      1.1724937E-08
   42.18000      1.0955261E-08
   42.24000      1.0174157E-08
   42.30000      9.3762411E-09
   42.36000      8.5631617E-09
   42.42000      7.7438367E-09
   42.48000      6.9318311E-09
   42.54000      6.1411463E-09
   42.60000      5.3821858E-09
   42.66000      4.6593462E-09
   42.72000      3.9709227E-09
   42.78000      3.3111025E-09
   42.84000      2.6732383E-09
   42.90000      2.0533191E-09
   42.96000      1.4525930E-09
   43.02000      8.7852842E-10
   43.08000      3.4365372E-10
   43.14000     -1.3762240E-10
   43.20000     -5.5343502E-10
   43.26000     -8.9874025E-10
   43.32000     -1.1778251E-09
   43.38000     -1.4038282E-09
   43.44000     -1.5950672E-09
   43.50000     -1.7692482E-09
   43.56000     -1.9376152E-09
   43.62000     -2.1012678E-09
   43.68000     -2.2511075E-09
   43.74000     -2.3714311E-09
   43.80000     -2.4457443E-09
   43.86000     -2.4625137E-09
   43.92000     -2.4187086E-09
   43.98000     -2.3199764E-09
   44.04000     -2.1776869E-09
   44.10000     -2.0042388E-09
   44.16000     -1.8085168E-09
   44.22000     -1.5930888E-09
   44.28000     -1.3538797E-09
   44.34000     -1.0821017E-09
   44.40000     -7.6752549E-10
   44.46000     -4.0195075E-10
   44.52000      1.8074977E-11
   44.58000      4.8984544E-10
   44.64000      1.0045517E-09
   44.70000      1.5486739E-09
   44.76000      2.1063706E-09
   44.82000      2.6623399E-09
   44.88000      3.2044554E-09
   44.94000      3.7254009E-09
   45.00000      4.2226982E-09
   45.06000      4.6970032E-09
   45.12000      5.1491988E-09
   45.18000      5.5774301E-09
   45.24000      5.9753753E-09
   45.30000      6.3327028E-09
   45.36000      6.6377610E-09
   45.42000      6.8816024E-09
   45.48000      7.0618031E-09
   45.54000      7.1845276E-09
   45.60000      7.2639401E-09
   45.66000      7.3190405E-09
   45.72000      7.3689237E-09
   45.78000      7.4279494E-09
   45.84000      7.5022797E-09
   45.90000      7.5887474E-09
   45.96000      7.6763138E-09
   46.02000      7.7496569E-09
   46.08000      7.7938394E-09
   46.14000      7.7987243E-09
   46.20000      7.7617814E-09
   46.26000      7.6883735E-09
   46.32000      7.5893585E-09
   46.38000      7.4767401E-09
   46.44000      7.3588522E-09
   46.50000      7.2367659E-09
   46.56000      7.1031905E-09
   46.62000      6.9441888E-09
   46.68000      6.7429764E-09
   46.74000      6.4843508E-09
   46.80000      6.1582495E-09
   46.86000      5.7614482E-09
   46.92000      5.2972537E-09
   46.98000      4.7737299E-09
   47.04000      4.2013339E-09
   47.10000      3.5907208E-09
   47.16000      2.9511824E-09
   47.22000      2.2898881E-09
   47.28000      1.6119345E-09
   47.34000      9.2113528E-10
   47.40000      2.2134469E-10
   47.46000     -4.8208076E-10
   47.52000     -1.1812896E-09
   47.58000     -1.8660076E-09
   47.64000     -2.5249320E-09
   47.70000     -3.1481047E-09
   47.76000     -3.7293080E-09
   47.82000     -4.2673074E-09
   47.88000     -4.7650928E-09
   47.94000     -5.2271005E-09
   48.00000     -5.6553904E-09
   48.06000     -6.0463390E-09
   48.12000     -6.3893562E-09
   48.18000     -6.6683636E-09
   48.24000     -6.8656454E-09
   48.30000     -6.9667094E-09
   48.36000     -6.9644011E-09
   48.42000     -6.8608363E-09
   48.48000     -6.6665913E-09
   48.54000     -6.3975985E-09
   48.60000     -6.0709255E-09
   48.66000     -5.7008522E-09
   48.72000     -5.2963784E-09
   48.78000     -4.8606918E-09
   48.84000     -4.3924566E-09
   48.90000     -3.8882817E-09
   48.96000     -3.3454581E-09
   49.02000     -2.7641043E-09
   49.08000     -2.1480966E-09
   49.14000     -1.5045809E-09
   49.20000     -8.4230417E-10
   49.26000     -1.6938780E-10
   49.32000      5.0867349E-10
   49.38000      1.1900825E-09
   49.44000      1.8765338E-09
   49.50000      2.5718587E-09
   49.56000      3.2800822E-09
   49.62000      4.0036521E-09
   49.68000      4.7424864E-09
   49.74000      5.4941136E-09
   49.80000      6.2546794E-09
   49.86000      7.0202635E-09
   49.92000      7.7878282E-09
   49.98000      8.5553555E-09
   50.04000      9.3211030E-09
   50.10000      1.0082329E-08
   50.16000      1.0834006E-08
   50.22000      1.1567971E-08
   50.28000      1.2272731E-08
   50.34000      1.2933788E-08
   50.40000      1.3534255E-08
   50.46000      1.4055498E-08
   50.52000      1.4477719E-08
   50.58000      1.4780476E-08
   50.64000      1.4943161E-08
   50.70000      1.4945323E-08
   50.76000      1.4766625E-08
   50.82000      1.4386306E-08
   50.88000      1.3782148E-08
   50.94000      1.2929190E-08
   51.00000      1.1798533E-08
   51.06000      1.0356414E-08
   51.12000      8.5635552E-09
   51.18000      6.3746168E-09
   51.24000      3.7376853E-09
   51.30000      5.9398070E-10
   51.36000     -3.1218275E-09
   51.42000     -7.4803914E-09
   51.48000     -1.2555637E-08
   51.54000     -1.8422487E-08
   51.60000     -2.5155158E-08
   51.66000     -3.2826524E-08
   51.72000     -4.1508390E-08
   51.78000     -5.1271904E-08
   51.84000     -6.2187091E-08
   51.90000     -7.4321086E-08
   51.96000     -8.7735145E-08
   52.02000     -1.0248151E-07
   52.08000     -1.1860075E-07
   52.14000     -1.3612009E-07
   52.20000     -1.5505236E-07
   52.26000     -1.7539510E-07
   52.32000     -1.9712940E-07
   52.38000     -2.2021848E-07
   52.44000     -2.4460650E-07
   52.50000     -2.7021738E-07
   52.56000     -2.9695408E-07
   52.62000     -3.2469725E-07
   52.68000     -3.5330373E-07
   52.74000     -3.8260433E-07
   52.80000     -4.1240290E-07
   52.86000     -4.4247642E-07
   52.92000     -4.7257632E-07
   52.98000     -5.0243113E-07
   53.04000     -5.3174824E-07
   53.10000     -5.6021474E-07
   53.16000     -5.8749799E-07
   53.22000     -6.1324567E-07
   53.28000     -6.3708768E-07
   53.34000     -6.5863907E-07
   53.40000     -6.7750386E-07
   53.46000     -6.9327888E-07
   53.52000     -7.0555643E-07
   53.58000     -7.1392685E-07
   53.64000     -7.1798121E-07
   53.70000     -7.1731608E-07
   53.76000     -7.1153931E-07
   53.82000     -7.0027716E-07
   53.88000     -6.8318087E-07
   53.94000     -6.5993225E-07
   54.00000     -6.3024765E-07
   54.06000     -5.9388105E-07
   54.12000     -5.5062543E-07
   54.18000     -5.0031440E-07
   54.24000     -4.4282254E-07
   54.30000     -3.7806754E-07
   54.36000     -3.0601333E-07
   54.42000     -2.2667524E-07
   54.48000     -1.4012566E-07
   54.54000     -4.6498144E-08
   54.60000      5.4012986E-08
   54.66000      1.6115759E-07
   54.72000      2.7463773E-07
   54.78000      3.9411543E-07
   54.84000      5.1921671E-07
   54.90000      6.4953099E-07
   54.96000      7.8460857E-07
   55.02000      9.2395913E-07
   55.08000      1.0670543E-06
   55.14000      1.2133341E-06
   55.20000      1.3622159E-06
   55.26000      1.5131016E-06
   55.32000      1.6653819E-06
   55.38000      1.8184411E-06
   55.44000      1.9716615E-06
   55.50000      2.1244316E-06
   55.56000      2.2761553E-06