 -0.750000000       0.00000000    
 -0.689999998       0.00000000    
 -0.629999995       0.00000000    
 -0.569999993       0.00000000    
 -0.509999990       0.00000000    
 -0.449999988      -3.90951510E-19
 -0.389999986      -2.91611958E-18
 -0.330000013      -1.05497879E-17
 -0.270000011      -2.28414412E-17
 -0.209999993      -2.58649848E-17
 -0.150000006       1.48494802E-17
  -9.00000036E-02   1.40451430E-16
  -2.99999993E-02   3.50894092E-16
   2.99999993E-02   5.39902030E-16
   9.00000036E-02   4.72263484E-16
  0.150000006      -1.22445640E-16
  0.209999993      -1.32220467E-15
  0.270000011      -2.75830392E-15
  0.330000013      -3.55493756E-15
  0.389999986      -2.66091716E-15
  0.449999988       4.52043114E-16
  0.509999990       5.08521185E-15
  0.569999993       9.16583161E-15
  0.629999995       1.00435136E-14
  0.689999998       6.03801888E-15
  0.750000000      -2.11733461E-15
  0.810000002      -1.10270815E-14
  0.870000005      -1.61304279E-14
  0.930000007      -1.43518146E-14
  0.990000010      -6.28299182E-15
   1.04999995       3.80601083E-15
   1.11000001       1.06320152E-14
   1.16999996       1.18438948E-14
   1.23000002       1.05028079E-14
   1.28999996       1.36973613E-14
   1.35000002       2.70927046E-14
   1.40999997       4.81419239E-14
   1.47000003       6.25015922E-14
   1.52999997       4.74606316E-14
   1.59000003      -1.71256204E-14
   1.64999998      -1.34291612E-13
   1.71000004      -2.78863982E-13
   1.76999998      -3.96942136E-13
   1.83000004      -4.19594426E-13
   1.88999999      -2.88460987E-13
   1.95000005       1.51849748E-14
   2.00999999       4.50050858E-13
   2.06999993       9.14305740E-13
   2.13000011       1.26973681E-12
   2.19000006       1.38497558E-12
   2.25000000       1.18176638E-12
   2.30999994       6.63492752E-13
   2.36999989      -8.92776589E-14
   2.43000007      -9.55547273E-13
   2.49000001      -1.82265791E-12
   2.54999995      -2.61520319E-12
   2.60999990      -3.27918812E-12
   2.67000008      -3.72357570E-12
   2.73000002      -3.75646216E-12
   2.78999996      -3.07450701E-12
   2.84999990      -1.35213954E-12
   2.91000009       1.57197985E-12
   2.97000003       5.47975901E-12
   3.02999997       9.64423680E-12
   3.08999991       1.28923096E-11
   3.15000010       1.38946710E-11
   3.21000004       1.16105936E-11
   3.26999998       5.72506495E-12
   3.32999992      -3.10489091E-12
   3.39000010      -1.33096312E-11
   3.45000005      -2.27582744E-11
   3.50999999      -2.92638587E-11
   3.56999993      -3.10501035E-11
   3.63000011      -2.70335889E-11
   3.69000006      -1.68944546E-11
   3.75000000      -1.03138104E-12
   3.80999994       1.94506512E-11
   3.86999989       4.26233007E-11
   3.93000007       6.55206098E-11
   3.99000001       8.39901829E-11
   4.05000019       9.28217711E-11
   4.11000013       8.62940483E-11
   4.17000008       5.91111604E-11
   4.23000002       7.51591324E-12
   4.28999996      -6.97421079E-11
   4.34999990      -1.70878978E-10
   4.40999985      -2.91133145E-10
   4.46999979      -4.23342528E-10
   4.53000021      -5.58812718E-10
   4.59000015      -6.88194390E-10
   4.65000010      -8.02161726E-10
   4.71000004      -8.91840490E-10
   4.76999998      -9.49076817E-10
   4.82999992      -9.66708935E-10
   4.88999987      -9.38953693E-10
   4.94999981      -8.61904104E-10
   5.01000023      -7.34003469E-10
   5.07000017      -5.56308777E-10
   5.13000011      -3.32398831E-10
   5.19000006      -6.79092130E-11
   5.25000000       2.30191977E-10
   5.30999994       5.54392143E-10
   5.36999989       8.97311558E-10
   5.42999983       1.25218014E-09
   5.48999977       1.61313107E-09
   5.55000019       1.97537209E-09
   5.61000013       2.33527886E-09
   5.67000008       2.69038614E-09
   5.73000002       3.03921111E-09
   5.78999996       3.38088668E-09
   5.84999990       3.71467523E-09
   5.90999985       4.03956735E-09
   5.96999979       4.35419878E-09
   6.03000021       4.65722083E-09
   6.09000015       4.94804464E-09
   6.15000010       5.22763299E-09
   6.21000004       5.49892576E-09
   6.26999998       5.76656634E-09
   6.32999992       6.03588557E-09
   6.38999987       6.31144248E-09
   6.44999981       6.59565824E-09
   6.51000023       6.88805102E-09
   6.57000017       7.18534432E-09
   6.63000011       7.48232498E-09
   6.69000006       7.77306219E-09
   6.75000000       8.05199374E-09
   6.80999994       8.31456060E-09
   6.86999989       8.55736992E-09
   6.92999983       8.77811246E-09
   6.98999977       8.97551633E-09
   7.05000019       9.14949272E-09
   7.11000013       9.30138810E-09
   7.17000008       9.43408285E-09
   7.23000002       9.55171586E-09
   7.28999996       9.65903180E-09
   7.34999990       9.76058523E-09
   7.40999985       9.86020954E-09
   7.46999979       9.96104088E-09
   7.53000021       1.00660831E-08
   7.59000015       1.01789368E-08
   7.65000010       1.03041478E-08
   7.71000004       1.04467119E-08
   7.76999998       1.06106821E-08
   7.82999992       1.07972626E-08
   7.88999987       1.10031158E-08
   7.94999981       1.12196092E-08
   8.01000023       1.14333929E-08
   8.06999969       1.16282015E-08
   8.13000011       1.17873356E-08
   8.18999958       1.18960894E-08
   8.25000000       1.19434773E-08
   8.31000042       1.19229551E-08
   8.36999989       1.18321317E-08
   8.43000031       1.16717871E-08
   8.48999977       1.14445307E-08
   8.55000019       1.11534266E-08
   8.60999966       1.08008704E-08
   8.67000008       1.03879190E-08
   8.72999954       9.91427829E-09
   8.78999996       9.37905309E-09
   8.85000038       8.78220163E-09
   8.90999985       8.12631029E-09
   8.97000027       7.41809014E-09
   9.02999973       6.66889877E-09
   9.09000015       5.89379567E-09
   9.14999962       5.10916243E-09
   9.21000004       4.32952385E-09
   9.27000046       3.56465102E-09
   9.32999992       2.81807022E-09
   9.39000034       2.08762407E-09
   9.44999981       1.36790157E-09
   9.51000023       6.53527621E-10
   9.56999969      -5.81370091E-11
   9.63000011      -7.66091190E-10
   9.68999958      -1.46696966E-09
   9.75000000      -2.15779949E-09
   9.81000042      -2.83875323E-09
   9.86999989      -3.51433016E-09
   9.93000031      -4.19211199E-09
   9.98999977      -4.87943552E-09
   10.0500002      -5.57938895E-09
   10.1099997      -6.28797370E-09
   10.1700001      -6.99376779E-09
   10.2299995      -7.68031239E-09
   10.2900000      -8.33019964E-09
   10.3500004      -8.92915519E-09
   10.4099998      -9.46853351E-09
   10.4700003      -9.94553151E-09
   10.5299997      -1.03614797E-08
   10.5900002      -1.07193570E-08
   10.6499996      -1.10217711E-08
   10.7100000      -1.12701262E-08
   10.7700005      -1.14650192E-08
   10.8299999      -1.16073000E-08
   10.8900003      -1.16991163E-08
   10.9499998      -1.17445049E-08
   11.0100002      -1.17493899E-08
   11.0699997      -1.17211503E-08
   11.1300001      -1.16678862E-08
   11.1899996      -1.15975016E-08
   11.2500000      -1.15166801E-08
   11.3100004      -1.14299441E-08
   11.3699999      -1.13391225E-08
   11.4300003      -1.12435945E-08
   11.4899998      -1.11414291E-08
   11.5500002      -1.10311822E-08
   11.6099997      -1.09137108E-08
   11.6700001      -1.07932774E-08
   11.7299995      -1.06773781E-08
   11.7900000      -1.05752491E-08
   11.8500004      -1.04955156E-08
   11.9099998      -1.04437143E-08
   11.9700003      -1.04204894E-08
   12.0299997      -1.04209876E-08
   12.0900002      -1.04356177E-08
   12.1499996      -1.04520064E-08
   12.2100000      -1.04577218E-08
   12.2700005      -1.04431468E-08
   12.3299999      -1.04038280E-08
   12.3900003      -1.03416875E-08
   12.4499998      -1.02647242E-08
   12.5100002      -1.01852384E-08
   12.5699997      -1.01170210E-08
   12.6300001      -1.00722826E-08
   12.6899996      -1.00591189E-08
   12.7500000      -1.00800719E-08
   12.8100004      -1.01319477E-08
   12.8699999      -1.02067332E-08
   12.9300003      -1.02932622E-08
   12.9899998      -1.03792752E-08
   13.0500002      -1.04535616E-08
   13.1099997      -1.05078843E-08
   13.1700001      -1.05383196E-08
   13.2299995      -1.05455928E-08
   13.2900000      -1.05342046E-08
   13.3500004      -1.05104521E-08
   13.4099998      -1.04799112E-08
   13.4700003      -1.04452065E-08
   13.5299997      -1.04048343E-08
   13.5900002      -1.03533662E-08
   13.6499996      -1.02828244E-08
   13.7100000      -1.01845385E-08
   13.7700005      -1.00507815E-08
   13.8299999      -9.87570559E-09
   13.8900003      -9.65554658E-09
   13.9499998      -9.38839673E-09
   14.0100002      -9.07395759E-09
   14.0699997      -8.71350014E-09
   14.1300001      -8.31006730E-09
   14.1899996      -7.86877496E-09
   14.2500000      -7.39698169E-09
   14.3100004      -6.90418789E-09
   14.3699999      -6.40155173E-09
   14.4300003      -5.90100768E-09
   14.4899998      -5.41406475E-09
   14.5500002      -4.95052177E-09
   14.6099997      -4.51745663E-09
   14.6700001      -4.11889367E-09
   14.7299995      -3.75635523E-09
   14.7900000      -3.43013262E-09
   14.8500004      -3.14073256E-09
   14.9099998      -2.88979618E-09
   14.9700003      -2.68000355E-09
   15.0299997      -2.51399634E-09
   15.0900002      -2.39289899E-09
   15.1499996      -2.31527575E-09
   15.2100000      -2.27715802E-09
   15.2700005      -2.27320851E-09
   15.3299999      -2.29848940E-09
   15.3900003      -2.34997755E-09
   15.4499998      -2.42710763E-09
   15.5100002      -2.53110555E-09
   15.5699997      -2.66340860E-09
   15.6300001      -2.82380541E-09
   15.6899996      -3.00893910E-09
   15.7500000      -3.21159499E-09
   15.8100004      -3.42090467E-09
   15.8699999      -3.62336805E-09
   15.9300003      -3.80442877E-09
   15.9899998      -3.95023125E-09
   16.0499992      -4.04908240E-09
   16.1100006      -4.09217282E-09
   16.1700001      -4.07328660E-09
   16.2299995      -3.98765465E-09
   16.2900009      -3.83052789E-09
   16.3500004      -3.59627195E-09
   16.4099998      -3.27859806E-09
   16.4699993      -2.87197133E-09
   16.5300007      -2.37357467E-09
   16.5900002      -1.78483728E-09
   16.6499996      -1.11169596E-09
   16.7099991      -3.63400282E-10
   16.7700005       4.49571602E-10
   16.8299999       1.31749789E-09
   16.8899994       2.23243690E-09
   16.9500008       3.18802518E-09
   17.0100002       4.17844914E-09
   17.0699997       5.19733057E-09
   17.1299992       6.23713348E-09
   17.1900005       7.28923899E-09
   17.2500000       8.34438385E-09
   17.3099995       9.39307565E-09
   17.3700008       1.04257785E-08
   17.4300003       1.14330527E-08
   17.4899998       1.24059438E-08
   17.5499992       1.33367424E-08
   17.6100006       1.42198555E-08
   17.6700001       1.50522474E-08
   17.7299995       1.58329510E-08
   17.7900009       1.65616783E-08
   17.8500004       1.72370882E-08
   17.9099998       1.78555606E-08
   17.9699993       1.84111695E-08
   18.0300007       1.88969320E-08
   18.0900002       1.93066843E-08
   18.1499996       1.96366816E-08
   18.2099991       1.98862331E-08
   18.2700005       2.00572892E-08
   18.3299999       2.01534931E-08
   18.3899994       2.01795647E-08
   18.4500008       2.01413837E-08
   18.5100002       2.00467216E-08
   18.5699997       1.99058565E-08
   18.6299992       1.97313046E-08
   18.6900005       1.95362908E-08
   18.7500000       1.93323970E-08
   18.8099995       1.91273593E-08
   18.8700008       1.89240339E-08
   18.9300003       1.87211686E-08
   18.9899998       1.85155571E-08
   19.0499992       1.83046591E-08
   19.1100006       1.80884250E-08
   19.1700001       1.78695867E-08
   19.2299995       1.76524093E-08
   19.2900009       1.74407138E-08
   19.3500004       1.72361609E-08
   19.4099998       1.70376193E-08
   19.4699993       1.68417387E-08
   19.5300007       1.66442948E-08
   19.5900002       1.64415148E-08
   19.6499996       1.62308051E-08
   19.7099991       1.60107163E-08
   19.7700005       1.57803992E-08
   19.8299999       1.55390545E-08
   19.8899994       1.52856714E-08
   19.9500008       1.50191042E-08
   20.0100002       1.47383172E-08
   20.0699997       1.44425503E-08
   20.1299992       1.41313139E-08
   20.1900005       1.38043221E-08
   20.2500000       1.34614835E-08
   20.3099995       1.31030209E-08
   20.3700008       1.27295881E-08
   20.4300003       1.23421646E-08
   20.4899998       1.19416557E-08
   20.5499992       1.15283347E-08
   20.6100006       1.11015002E-08
   20.6700001       1.06596998E-08
   20.7299995       1.02016164E-08
   20.7900009       9.72726166E-09
   20.8500004       9.23882748E-09
   20.9099998       8.74057271E-09
   20.9699993       8.23751822E-09
   21.0300007       7.73334641E-09
   21.0900002       7.22835969E-09
   21.1499996       6.71846268E-09
   21.2099991       6.19576479E-09
   21.2700005       5.65070302E-09
   21.3299999       5.07495468E-09
   21.3899994       4.46405846E-09
   21.4500008       3.81881993E-09
   21.5100002       3.14506243E-09
   21.5699997       2.45192355E-09
   21.6299992       1.74939929E-09
   21.6900005       1.04599984E-09
   21.7500000       3.47252227E-10
   21.8099995      -3.44576173E-10
   21.8700008      -1.02956599E-09
   21.9300003      -1.70842107E-09
   21.9899998      -2.38051978E-09
   22.0499992      -3.04238190E-09
   22.1100006      -3.68708708E-09
   22.1700001      -4.30489644E-09
   22.2299995      -4.88492535E-09
   22.2900009      -5.41730838E-09
   22.3500004      -5.89503202E-09
   22.4099998      -6.31469410E-09
   22.4699993      -6.67585098E-09
   22.5300007      -6.97928870E-09
   22.5900002      -7.22508720E-09
   22.6499996      -7.41151940E-09
   22.7099991      -7.53543627E-09
   22.7700005      -7.59399299E-09
   22.8299999      -7.58679697E-09
   22.8899994      -7.51721441E-09
   22.9500008      -7.39192441E-09
   23.0100002      -7.21868787E-09
   23.0699997      -7.00331260E-09
   23.1299992      -6.74728096E-09
   23.1900005      -6.44724851E-09
   23.2500000      -6.09671069E-09
   23.3099995      -5.68903546E-09
   23.3700008      -5.22041210E-09
   23.4300003      -4.69138950E-09
   23.4899998      -4.10650358E-09
   23.5499992      -3.47246876E-09
   23.6100006      -2.79608958E-09
   23.6700001      -2.08298845E-09
   23.7299995      -1.33763622E-09
   23.7900009      -5.64381708E-10
   23.8500004       2.31306085E-10
   23.9099998       1.04213349E-09
   23.9699993       1.85911053E-09
   24.0300007       2.67227973E-09
   24.0900002       3.47154105E-09
   24.1499996       4.24715640E-09
   24.2099991       4.98982322E-09
   24.2700005       5.69050407E-09
   24.3299999       6.34027408E-09
   24.3899994       6.93035229E-09
   24.4500008       7.45230189E-09
   24.5100002       7.89829446E-09
   24.5699997       8.26135338E-09
   24.6299992       8.53556781E-09
   24.6900005       8.71628725E-09
   24.7500000       8.80024054E-09
   24.8099995       8.78549944E-09
   24.8700008       8.67121841E-09
   24.9300003       8.45725712E-09
   24.9899998       8.14394063E-09
   25.0499992       7.73223618E-09
   25.1100006       7.22438687E-09
   25.1700001       6.62473409E-09
   25.2299995       5.94017013E-09
   25.2900009       5.17973975E-09
   25.3500004       4.35327152E-09
   25.4099998       3.46947049E-09
   25.4699993       2.53427279E-09
   25.5300007       1.55025315E-09
   25.5900002       5.17429599E-10
   25.6499996      -5.64817582E-10
   25.7099991      -1.69549419E-09
   25.7700005      -2.87029933E-09
   25.8299999      -4.08107947E-09
   25.8899994      -5.31648592E-09
   25.9500008      -6.56341648E-09
   26.0100002      -7.80859111E-09
   26.0699997      -9.03971831E-09
   26.1299992      -1.02459925E-08
   26.1900005      -1.14180354E-08
   26.2500000      -1.25476030E-08
   26.3099995      -1.36273925E-08
   26.3700008      -1.46511798E-08
   26.4300003      -1.56141606E-08
   26.4899998      -1.65132512E-08
   26.5499992      -1.73469470E-08
   26.6100006      -1.81145410E-08
   26.6700001      -1.88148661E-08
   26.7299995      -1.94450465E-08
   26.7900009      -1.99998471E-08
   26.8500004      -2.04720418E-08
   26.9099998      -2.08536814E-08
   26.9699993      -2.11376712E-08
   27.0300007      -2.13188667E-08
   27.0900002      -2.13941860E-08
   27.1499996      -2.13618634E-08
   27.2099991      -2.12204778E-08
   27.2700005      -2.09685602E-08
   27.3299999      -2.06051158E-08
   27.3899994      -2.01307131E-08
   27.4500008      -1.95482990E-08
   27.5100002      -1.88629681E-08
   27.5699997      -1.80806392E-08
   27.6299992      -1.72063448E-08
   27.6900005      -1.62432734E-08
   27.7500000      -1.51934074E-08
   27.8099995      -1.40594709E-08
   27.8700008      -1.28472024E-08
   27.9300003      -1.15664607E-08
   27.9899998      -1.02304272E-08
   28.0499992      -8.85321061E-09
   28.1100006      -7.44717576E-09
   28.1700001      -6.02149353E-09
   28.2299995      -4.58263516E-09
   28.2900009      -3.13636961E-09
   28.3500004      -1.68990422E-09
   28.4099998      -2.52795257E-10
   28.4699993       1.16392629E-09
   28.5300007       2.54981636E-09
   28.5900002       3.89694677E-09
   28.6499996       5.20050492E-09
   28.7099991       6.45773346E-09
   28.7700005       7.66591857E-09
   28.8299999       8.82072637E-09
   28.8899994       9.91599514E-09
   28.9500008       1.09452287E-08
   29.0100002       1.19040964E-08
   29.0699997       1.27926212E-08
   29.1299992       1.36158267E-08
   29.1900005       1.43823016E-08
   29.2500000       1.51010475E-08
   29.3099995       1.57777702E-08
   29.3700008       1.64120486E-08
   29.4300003       1.69965109E-08
   29.4899998       1.75183406E-08
   29.5499992       1.79624262E-08
   29.6100006       1.83147826E-08
   29.6700001       1.85645845E-08
   29.7299995       1.87039362E-08
   29.7900009       1.87255047E-08
   29.8500004       1.86195006E-08
   29.9099998       1.83719067E-08
   29.9699993       1.79655046E-08
   30.0300007       1.73838171E-08
   30.0900002       1.66166121E-08
   30.1499996       1.56646180E-08
   30.2099991       1.45414258E-08
   30.2700005       1.32718991E-08
   30.3299999       1.18880159E-08
   30.3899994       1.04241584E-08
   30.4500008       8.91376750E-09
   30.5100002       7.38815187E-09
   30.5699997       5.87687943E-09
   30.6299992       4.40839099E-09
   30.6900005       3.00962877E-09
   30.7500000       1.70437175E-09
   30.8099995       5.10902431E-10
   30.8700008      -5.59981117E-10
   30.9300003      -1.50591017E-09
   30.9899998      -2.33279995E-09
   31.0499992      -3.05399572E-09
   31.1100006      -3.68903463E-09
   31.1700001      -4.26194635E-09
   31.2299995      -4.79876583E-09
   31.2900009      -5.32417399E-09
   31.3500004      -5.85785109E-09
   31.4099998      -6.41171649E-09
   31.4699993      -6.98919855E-09
   31.5300007      -7.58684493E-09
   31.5900002      -8.19737433E-09
   31.6499996      -8.81244677E-09
   31.7099991      -9.42355438E-09
   31.7700005      -1.00205630E-08
   31.8299999      -1.05889324E-08
   31.8899994      -1.11075664E-08
   31.9500008      -1.15490630E-08
   32.0099983      -1.18829240E-08
   32.0699997      -1.20807089E-08
   32.1300011      -1.21211858E-08
   32.1899986      -1.19935555E-08
   32.2500000      -1.16979146E-08
   32.3100014      -1.12434062E-08
   32.3699989      -1.06454499E-08
   32.4300003      -9.92340876E-09
   32.4900017      -9.09947850E-09
   32.5499992      -8.19856805E-09
   32.6100006      -7.24843119E-09
   32.6699982      -6.27913721E-09
   32.7299995      -5.32149791E-09
   32.7900009      -4.40459047E-09
   32.8499985      -3.55308716E-09
   32.9099998      -2.78523338E-09
   32.9700012      -2.11213536E-09
   33.0299988      -1.53856572E-09
   33.0900002      -1.06493303E-09
   33.1500015      -6.89619417E-10
   33.2099991      -4.10757400E-10
   33.2700005      -2.26795790E-10
   33.3300018      -1.35813499E-10
   33.3899994      -1.34194031E-10
   33.4500008      -2.15629389E-10
   33.5099983      -3.71232989E-10
   33.5699997      -5.90871518E-10
   33.6300011      -8.65053584E-10
   33.6899986      -1.18629784E-09
   33.7500000      -1.54914848E-09
   33.8100014      -1.94879290E-09
   33.8699989      -2.37910425E-09
   33.9300003      -2.83133006E-09
   33.9900017      -3.29431393E-09
   34.0499992      -3.75627041E-09
   34.1100006      -4.20723190E-09
   34.1699982      -4.64093741E-09
   34.2299995      -5.05527398E-09
   34.2900009      -5.45121193E-09
   34.3499985      -5.83095527E-09
   34.4099998      -6.19629636E-09
   34.4700012      -6.54787513E-09
   34.5299988      -6.88541624E-09
   34.5900002      -7.20850490E-09
   34.6500015      -7.51734586E-09
   34.7099991      -7.81315812E-09
   34.7700005      -8.09817280E-09
   34.8300018      -8.37541236E-09
   34.8899994      -8.64831762E-09
   34.9500008      -8.92022367E-09
   35.0099983      -9.19362364E-09
   35.0699997      -9.46932399E-09
   35.1300011      -9.74577929E-09
   35.1899986      -1.00189483E-08
   35.2500000      -1.02828093E-08
   35.3100014      -1.05303277E-08
   35.3699989      -1.07544542E-08
   35.4300003      -1.09487361E-08
   35.4900017      -1.11074439E-08
   35.5499992      -1.12253957E-08
   35.6100006      -1.12978151E-08
   35.6699982      -1.13204131E-08
   35.7299995      -1.12896137E-08
   35.7900009      -1.12027427E-08
   35.8499985      -1.10581082E-08
   35.9099998      -1.08551550E-08
   35.9700012      -1.05949871E-08
   36.0299988      -1.02812940E-08
   36.0900002      -9.92126203E-09
   36.1500015      -9.52564783E-09
   36.2099991      -9.10737885E-09
   36.2700005      -8.67873418E-09
   36.3300018      -8.24810531E-09
   36.3899994      -7.81787701E-09
   36.4500008      -7.38465422E-09
   36.5099983      -6.94194568E-09
   36.5699997      -6.48408705E-09
   36.6300011      -6.00947869E-09
   36.6899986      -5.52155432E-09
   36.7500000      -5.02717556E-09
   36.8100014      -4.53356286E-09
   36.8699989      -4.04560963E-09
   36.9300003      -3.56504715E-09
   36.9900017      -3.09172776E-09
   37.0499992      -2.62603517E-09
   37.1100006      -2.17089902E-09
   37.1699982      -1.73232440E-09
   37.2299995      -1.31837552E-09
   37.2900009      -9.37458444E-10
   37.3499985      -5.96986682E-10
   37.4099998      -3.03005787E-10
   37.4700012      -6.05845096E-11
   37.5299988       1.25723848E-10
   37.5900002       2.51947879E-10
   37.6500015       3.15375587E-10
   37.7099991       3.15418247E-10
   37.7700005       2.54126026E-10
   37.8300018       1.36117964E-10
   37.8899994      -3.18832565E-11
   37.9500008      -2.41539483E-10
   38.0099983      -4.83210527E-10
   38.0699997      -7.46244011E-10
   38.1300011      -1.01955067E-09
   38.1899986      -1.29257571E-09
   38.2500000      -1.55634161E-09
   38.3100014      -1.80396731E-09
   38.3699989      -2.03024708E-09
   38.4300003      -2.23047536E-09
   38.4900017      -2.39932207E-09
   38.5499992      -2.53071697E-09
   38.6100006      -2.61915978E-09
   38.6699982      -2.66193445E-09
   38.7299995      -2.66094546E-09
   38.7900009      -2.62286748E-09
   38.8499985      -2.55710964E-09
   38.9099998      -2.47229681E-09
   38.9700012      -2.37285591E-09
   39.0299988      -2.25733610E-09
   39.0900002      -2.11924811E-09
   39.1500015      -1.94997329E-09
   39.2099991      -1.74233850E-09
   39.2700005      -1.49327528E-09
   39.3300018      -1.20454047E-09
   39.3899994      -8.81456408E-10
   39.4500008      -5.30449462E-10
   39.5099983      -1.56548108E-10
   39.5699997       2.38141895E-10
   39.6300011       6.54449606E-10
   39.6899986       1.09470055E-09
   39.7500000       1.56042634E-09
   39.8100014       2.05017292E-09
   39.8699989       2.55841082E-09
   39.9300003       3.07623171E-09
   39.9900017       3.59382368E-09
   40.0499992       4.10388301E-09
   40.1100006       4.60452920E-09
   40.1699982       5.10033171E-09
   40.2299995       5.60080515E-09
   40.2900009       6.11687678E-09
   40.3499985       6.65683775E-09
   40.4099998       7.22349380E-09
   40.4700012       7.81358889E-09
   40.5299988       8.41942605E-09
   40.5900002       9.03158881E-09
   40.6500015       9.64141122E-09
   40.7099991       1.02423448E-08
   40.7700005       1.08302336E-08
   40.8300018       1.14031291E-08
   40.8899994       1.19612258E-08
   40.9500008       1.25069350E-08
   41.0099983       1.30445903E-08
   41.0699997       1.35792462E-08
   41.1300011       1.41146215E-08
   41.1899986       1.46510137E-08
   41.2500000       1.51844262E-08
   41.3100014       1.57077036E-08
   41.3699989       1.62134324E-08
   41.4300003       1.66973315E-08
   41.4900017       1.71603958E-08
   41.5499992       1.76086790E-08
   41.6100006       1.80508195E-08
   41.6699982       1.84944700E-08
   41.7299995       1.89433376E-08
   41.7900009       1.93959746E-08
   41.8499985       1.98465226E-08
   41.9099998       2.02866914E-08
   41.9700012       2.07078266E-08
   42.0299988       2.11022773E-08
   42.0900002       2.14637783E-08
   42.1500015       2.17870966E-08
   42.2099991       2.20673240E-08
   42.2700005       2.22991723E-08
   42.3300018       2.24764509E-08
   42.3899994       2.25919266E-08
   42.4500008       2.26378258E-08
   42.5099983       2.26071020E-08
   42.5699997       2.24953443E-08
   42.6300011       2.23027641E-08
   42.6899986       2.20354046E-08
   42.7500000       2.17048601E-08
   42.8100014       2.13263220E-08
   42.8699989       2.09153459E-08
   42.9300003       2.04844035E-08
   42.9900017       2.00402042E-08
   43.0499992       1.95825027E-08
   43.1100006       1.91046290E-08
   43.1699982       1.85955038E-08
   43.2299995       1.80427229E-08
   43.2900009       1.74361308E-08
   43.3499985       1.67711427E-08
   43.4099998       1.60508975E-08
   43.4700012       1.52864335E-08
   43.5299988       1.44943675E-08
   43.5900002       1.36925280E-08
   43.6500015       1.28948940E-08
   43.7099991       1.21077557E-08
   43.7700005       1.13287513E-08
   43.8300018       1.05493214E-08
   43.8899994       9.75963577E-09
   43.9500008       8.95391317E-09
   44.0099983       8.13389089E-09
   44.0699997       7.30906313E-09
   44.1300011       6.49375265E-09
   44.1899986       5.70244874E-09
   44.2500000       4.94540409E-09
   44.3100014       4.22616120E-09
   44.3699989       3.54173690E-09
   44.4300003       2.88511082E-09
   44.4900017       2.24895857E-09
   44.5499992       1.62932590E-09
   44.6100006       1.02811981E-09
   44.6699982       4.53683563E-10
   44.7299995      -8.07997419E-11
   44.7900009      -5.60779756E-10
   44.8499985      -9.74808123E-10
   44.9099998      -1.31863098E-09
   44.9700012      -1.59739366E-09
   45.0299988      -1.82486459E-09
   45.0900002      -2.01957961E-09
   45.1500015      -2.19902296E-09
   45.2099991      -2.37389419E-09
   45.2700005      -2.54463894E-09
   45.3300018      -2.70162381E-09
   45.3899994      -2.82889756E-09
   45.4500008      -2.91004465E-09
   45.5099983      -2.93383806E-09
   45.5699997      -2.89758861E-09
   45.6300011      -2.80713719E-09
   45.6899986      -2.67380917E-09
   45.7500000      -2.50977683E-09
   45.8100014      -2.32367103E-09
   45.8699989      -2.11793094E-09
   45.9300003      -1.88853577E-09
   45.9900017      -1.62685698E-09
   46.0499992      -1.32276279E-09
   46.1100006      -9.67941727E-10
   46.1699982      -5.58583124E-10
   46.2299995      -9.68876229E-11
   46.2900009       4.08807738E-10
   46.3499985       9.45257983E-10
   46.4099998       1.49663948E-09
   46.4700012       2.04748196E-09
   46.5299988       2.58546251E-09
   46.5900002       3.10320947E-09
   46.6500015       3.59843866E-09
   46.7099991       4.07224565E-09
   46.7700005       4.52609550E-09
   46.8300018       4.95867614E-09
   46.8899994       5.36400036E-09
   46.9500008       5.73174752E-09
   47.0099983       6.04998318E-09
   47.0699997       6.30934371E-09
   47.1300011       6.50710108E-09
   47.1899986       6.64942856E-09
   47.2500000       6.75084522E-09
   47.3100014       6.83087320E-09
   47.3699989       6.90895918E-09
   47.4300003       6.99933889E-09
   47.4900017       7.10746706E-09
   47.5499992       7.22909066E-09
   47.6100006       7.35211492E-09
   47.6699982       7.46060369E-09
   47.7299995       7.53962581E-09
   47.7900009       7.57947927E-09
   47.8499985       7.57805729E-09
   47.9099998       7.54067297E-09
   47.9700012       7.47745066E-09
   48.0299988       7.39916128E-09
   48.0900002       7.31288141E-09
   48.1500015       7.21893167E-09
   48.2099991       7.11007209E-09
   48.2700005       6.97314784E-09
   48.3300018       6.79248213E-09
   48.3899994       6.55381971E-09
   48.4500008       6.24752738E-09
   48.5099983       5.87023985E-09
   48.5699997       5.42476419E-09
   48.6300011       4.91863084E-09
   48.6899986       4.36196679E-09
   48.7500000       3.76534537E-09
   48.8100014       3.13810311E-09
   48.8699989       2.48742649E-09
   48.9300003       1.81834492E-09
   48.9900017       1.13459719E-09
   49.0499992       4.40109477E-10
   49.1100006      -2.59462035E-10
   49.1699982      -9.55814428E-10
   49.2299995      -1.63827873E-09
   49.2900009      -2.29541519E-09
   49.3499985      -2.91741609E-09
   49.4099998      -3.49830898E-09
   49.4700012      -4.03688638E-09
   49.5299988      -4.53572824E-09
   49.5900002      -4.99849584E-09
   49.6500015      -5.42646550E-09
   49.7099991      -5.81568438E-09
   49.7700005      -6.15596685E-09
   49.8300018      -6.43228004E-09
   49.8899994      -6.62815891E-09
   49.9500008      -6.73003742E-09
   50.0099983      -6.73102551E-09
   50.0699997      -6.63286048E-09
   50.1300011      -6.44540687E-09
   50.1899986      -6.18391871E-09
   50.2500000      -5.86504267E-09
   50.3100014      -5.50291146E-09
   50.3699989      -5.10656095E-09
   50.4300003      -4.67933736E-09
   50.4900017      -4.22019575E-09
   50.5499992      -3.72616737E-09
   50.6100006      -3.19497429E-09