 -0.750000000       0.00000000    
 -0.689999998       0.00000000    
 -0.629999995       0.00000000    
 -0.569999993       0.00000000    
 -0.509999990       0.00000000    
 -0.449999988       3.57388392E-20
 -0.389999986       3.13654429E-19
 -0.330000013       1.42215271E-18
 -0.270000011       4.33180921E-18
 -0.209999993       9.52456620E-18
 -0.150000006       1.44467756E-17
  -9.00000036E-02   9.31528537E-18
  -2.99999993E-02  -2.60372121E-17
   2.99999993E-02  -1.17553747E-16
   9.00000036E-02  -2.75911003E-16
  0.150000006      -4.56606980E-16
  0.209999993      -5.17030499E-16
  0.270000011      -2.10797768E-16
  0.330000013       7.28929185E-16
  0.389999986       2.39119032E-15
  0.449999988       4.42068528E-15
  0.509999990       5.82497824E-15
  0.569999993       5.05729407E-15
  0.629999995       5.34517918E-16
  0.689999998      -8.42493444E-15
  0.750000000      -2.05269744E-14
  0.810000002      -3.18249353E-14
  0.870000005      -3.60579554E-14
  0.930000007      -2.64194997E-14
  0.990000010       1.35424221E-15
   1.04999995       4.54305749E-14
   1.11000001       9.54157543E-14
   1.16999996       1.32801024E-13
   1.23000002       1.35586014E-13
   1.28999996       8.68161473E-14
   1.35000002      -1.54047087E-14
   1.40999997      -1.50771607E-13
   1.47000003      -2.77255026E-13
   1.52999997      -3.41924893E-13
   1.59000003      -3.00557485E-13
   1.64999998      -1.39483639E-13
   1.71000004       1.09945012E-13
   1.76999998       3.72822216E-13
   1.83000004       5.50953055E-13
   1.88999999       5.56608958E-13
   1.95000005       3.47713286E-13
   2.00999999      -4.92478576E-14
   2.06999993      -5.37701773E-13
   2.13000011      -9.71461410E-13
   2.19000006      -1.18996067E-12
   2.25000000      -1.05780781E-12
   2.30999994      -5.00383589E-13
   2.36999989       4.68189994E-13
   2.43000007       1.72584028E-12
   2.49000001       3.03518061E-12
   2.54999995       4.05575573E-12
   2.60999990       4.38591307E-12
   2.67000008       3.63949582E-12
   2.73000002       1.55049292E-12
   2.78999996      -1.91516291E-12
   2.84999990      -6.46962432E-12
   2.91000009      -1.14618393E-11
   2.97000003      -1.59016827E-11
   3.02999997      -1.85555703E-11
   3.08999991      -1.81146730E-11
   3.15000010      -1.34360552E-11
   3.21000004      -3.85080422E-12
   3.26999998       1.04902744E-11
   3.32999992       2.83040223E-11
   3.39000010       4.70087198E-11
   3.45000005       6.28316288E-11
   3.50999999       7.12764292E-11
   3.56999993       6.79369824E-11
   3.63000011       4.95168212E-11
   3.69000006       1.48153295E-11
   3.75000000      -3.45756791E-11
   3.80999994      -9.40381870E-11
   3.86999989      -1.56178986E-10
   3.93000007      -2.11438395E-10
   3.99000001      -2.48856075E-10
   4.05000019      -2.56829086E-10
   4.11000013      -2.23816438E-10
   4.17000008      -1.39070713E-10
   4.23000002       6.47220905E-12
   4.28999996       2.19082433E-10
   4.34999990       5.00998742E-10
   4.40999985       8.49326998E-10
   4.46999979       1.25541255E-09
   4.53000021       1.70495440E-09
   4.59000015       2.17893192E-09
   4.65000010       2.65516920E-09
   4.71000004       3.11018478E-09
   4.76999998       3.52094642E-09
   4.82999992       3.86627219E-09
   4.88999987       4.12784074E-09
   4.94999981       4.29096003E-09
   5.01000023       4.34531522E-09
   5.07000017       4.28583879E-09
   5.13000011       4.11362278E-09
   5.19000006       3.83657817E-09
   5.25000000       3.46943030E-09
   5.30999994       3.03271808E-09
   5.36999989       2.55071630E-09
   5.42999983       2.04856754E-09
   5.48999977       1.54920610E-09
   5.55000019       1.07078113E-09
   5.61000013       6.25153485E-10
   5.67000008       2.17709725E-10
   5.73000002      -1.51677837E-10
   5.78999996      -4.87030805E-10
   5.84999990      -7.94582677E-10
   5.90999985      -1.08150788E-09
   5.96999979      -1.35525924E-09
   6.03000021      -1.62341185E-09
   6.09000015      -1.89372651E-09
   6.15000010      -2.17412155E-09
   6.21000004      -2.47235787E-09
   6.26999998      -2.79541457E-09
   6.32999992      -3.14868775E-09
   6.38999987      -3.53521501E-09
   6.44999981      -3.95513533E-09
   6.51000023      -4.40554304E-09
   6.57000017      -4.88081664E-09
   6.63000011      -5.37341194E-09
   6.69000006      -5.87500182E-09
   6.75000000      -6.37773923E-09
   6.80999994      -6.87537005E-09
   6.86999989      -7.36394723E-09
   6.92999983      -7.84201326E-09
   6.98999977      -8.31028313E-09
   7.05000019      -8.77100348E-09
   7.11000013      -9.22719590E-09
   7.17000008      -9.68193614E-09
   7.23000002      -1.01376996E-08
   7.28999996      -1.05957554E-08
   7.34999990      -1.10556160E-08
   7.40999985      -1.15147021E-08
   7.46999979      -1.19684511E-08
   7.53000021      -1.24111121E-08
   7.59000015      -1.28371802E-08
   7.65000010      -1.32430991E-08
   7.71000004      -1.36285481E-08
   7.76999998      -1.39966092E-08
   7.82999992      -1.43524508E-08
   7.88999987      -1.47007482E-08
   7.94999981      -1.50426924E-08
   8.01000023      -1.53738267E-08
   8.06999969      -1.56836997E-08
   8.13000011      -1.59578573E-08
   8.18999958      -1.61817049E-08
   8.25000000      -1.63450853E-08
   8.31000042      -1.64460268E-08
   8.36999989      -1.64923257E-08
   8.43000031      -1.65003442E-08
   8.48999977      -1.64913185E-08
   8.55000019      -1.64863589E-08
   8.60999966      -1.65016818E-08
   8.67000008      -1.65456093E-08
   8.72999954      -1.66181753E-08
   8.78999996      -1.67132796E-08
   8.85000038      -1.68225238E-08
   8.90999985      -1.69392198E-08
   8.97000027      -1.70611223E-08
   9.02999973      -1.71908585E-08
   9.09000015      -1.73339743E-08
   9.14999962      -1.74953154E-08
   9.21000004      -1.76751627E-08
   9.27000046      -1.78666255E-08
   9.32999992      -1.80553812E-08
   9.39000034      -1.82220372E-08
   9.44999981      -1.83465350E-08
   9.51000023      -1.84132212E-08
   9.56999969      -1.84150331E-08
   9.63000011      -1.83555038E-08
   9.68999958      -1.82479329E-08
   9.75000000      -1.81120434E-08
   9.81000042      -1.79691035E-08
   9.86999989      -1.78370421E-08
   9.93000031      -1.77269044E-08
   9.98999977      -1.76415664E-08
   10.0500002      -1.75768715E-08
   10.1099997      -1.75245507E-08
   10.1700001      -1.74758945E-08
   10.2299995      -1.74249521E-08
   10.2900000      -1.73703505E-08
   10.3500004      -1.73153865E-08
   10.4099998      -1.72665899E-08
   10.4700003      -1.72313968E-08
   10.5299997      -1.72158181E-08
   10.5900002      -1.72228614E-08
   10.6499996      -1.72521428E-08
   10.7100000      -1.73007635E-08
   10.7700005      -1.73650054E-08
   10.8299999      -1.74422414E-08
   10.8900003      -1.75323116E-08
   10.9499998      -1.76378414E-08
   11.0100002      -1.77633854E-08
   11.0699997      -1.79136563E-08
   11.1300001      -1.80914750E-08
   11.1899996      -1.82961823E-08
   11.2500000      -1.85230391E-08
   11.3100004      -1.87638172E-08
   11.3699999      -1.90083789E-08
   11.4300003      -1.92466505E-08
   11.4899998      -1.94703755E-08
   11.5500002      -1.96741023E-08
   11.6099997      -1.98551238E-08
   11.6700001      -2.00124326E-08
   11.7299995      -2.01450785E-08
   11.7900000      -2.02504786E-08
   11.8500004      -2.03233554E-08
   11.9099998      -2.03558219E-08
   11.9700003      -2.03387387E-08
   12.0299997      -2.02641033E-08
   12.0900002      -2.01276791E-08
   12.1499996      -1.99308818E-08
   12.2100000      -1.96811101E-08
   12.2700005      -1.93901180E-08
   12.3299999      -1.90708267E-08
   12.3900003      -1.87335409E-08
   12.4499998      -1.83828526E-08
   12.5100002      -1.80162694E-08
   12.5699997      -1.76250357E-08
   12.6300001      -1.71968146E-08
   12.6899996      -1.67193495E-08
   12.7500000      -1.61839626E-08
   12.8100004      -1.55878919E-08
   12.8699999      -1.49349297E-08
   12.9300003      -1.42342413E-08
   12.9899998      -1.34978162E-08
   13.0500002      -1.27372255E-08
   13.1099997      -1.19605499E-08
   13.1700001      -1.11703118E-08
   13.2299995      -1.03630349E-08
   13.2900000      -9.53066426E-09
   13.3500004      -8.66358452E-09
   13.4099998      -7.75445219E-09
   13.4700003      -6.80176937E-09
   13.5299997      -5.81206860E-09
   13.5900002      -4.79994222E-09
   13.6499996      -3.78573128E-09
   13.7100000      -2.79138690E-09
   13.7700005      -1.83561555E-09
   13.8299999      -9.29708810E-10
   13.8900003      -7.53704529E-11
   13.9499998       7.34658445E-10
   14.0100002       1.51320589E-09
   14.0699997       2.27346231E-09
   14.1300001       3.02362757E-09
   14.1899996       3.76326836E-09
   14.2500000       4.48274173E-09
   14.3100004       5.16596366E-09
   14.3699999       5.79551429E-09
   14.4300003       6.35812691E-09
   14.4899998       6.84846535E-09
   14.5500002       7.26982474E-09
   14.6099997       7.63174768E-09
   14.6700001       7.94583777E-09
   14.7299995       8.22173529E-09
   14.7900000       8.46489989E-09
   14.8500004       8.67687877E-09
   14.9099998       8.85744100E-09
   14.9700003       9.00721098E-09
   15.0299997       9.12936393E-09
   15.0900002       9.22966503E-09
   15.1499996       9.31508470E-09
   15.2100000       9.39194322E-09
   15.2700005       9.46464063E-09
   15.3299999       9.53565760E-09
   15.3900003       9.60675095E-09
   15.4499998       9.68075220E-09
   15.5100002       9.76312986E-09
   15.5699997       9.86263338E-09
   15.6300001       9.99074512E-09
   15.6899996       1.01600381E-08
   15.7500000       1.03818678E-08
   15.8100004       1.06639648E-08
   15.8699999       1.10085692E-08
   15.9300003       1.14116530E-08
   15.9899998       1.18635883E-08
   16.0499992       1.23512187E-08
   16.1100006       1.28608457E-08
   16.1700001       1.33812463E-08
   16.2299995       1.39056988E-08
   16.2900009       1.44322989E-08
   16.3500004       1.49623993E-08
   16.4099998       1.54977631E-08
   16.4699993       1.60374984E-08
   16.5300007       1.65759548E-08
   16.5900002       1.71023871E-08
   16.6499996       1.76025132E-08
   16.7099991       1.80613977E-08
   16.7700005       1.84665954E-08
   16.8299999       1.88105691E-08
   16.8899994       1.90916847E-08
   16.9500008       1.93137240E-08
   17.0100002       1.94843164E-08
   17.0699997       1.96130436E-08
   17.1299992       1.97097769E-08
   17.1900005       1.97835792E-08
   17.2500000       1.98420249E-08
   17.3099995       1.98906633E-08
   17.3700008       1.99323846E-08
   17.4300003       1.99667980E-08
   17.4899998       1.99900221E-08
   17.5499992       1.99953547E-08
   17.6100006       1.99749994E-08
   17.6700001       1.99224282E-08
   17.7299995       1.98344861E-08
   17.7900009       1.97121626E-08
   17.8500004       1.95594652E-08
   17.9099998       1.93806358E-08
   17.9699993       1.91768539E-08
   18.0300007       1.89438794E-08
   18.0900002       1.86717877E-08
   18.1499996       1.83469258E-08
   18.2099991       1.79552249E-08
   18.2700005       1.74854247E-08
   18.3299999       1.69308869E-08
   18.3899994       1.62895724E-08
   18.4500008       1.55626996E-08
   18.5100002       1.47531267E-08
   18.5699997       1.38644261E-08
   18.6299992       1.29009168E-08
   18.6900005       1.18681296E-08
   18.7500000       1.07728617E-08
   18.8099995       9.62225766E-09
   18.8700008       8.42204795E-09
   18.9300003       7.17476345E-09
   18.9899998       5.87894711E-09
   19.0499992       4.52992355E-09
   19.1100006       3.12194337E-09
   19.1700001       1.65078706E-09
   19.2299995       1.15722751E-10
   19.2900009      -1.47994128E-09
   19.3500004      -3.12975890E-09
   19.4099998      -4.82591256E-09
   19.4699993      -6.56099486E-09
   19.5300007      -8.32911606E-09
   19.5900002      -1.01260982E-08
   19.6499996      -1.19489156E-08
   19.7099991      -1.37947351E-08
   19.7700005      -1.56598858E-08
   19.8299999      -1.75388557E-08
   19.8899994      -1.94234122E-08
   19.9500008      -2.13018243E-08
   20.0100002      -2.31584050E-08
   20.0699997      -2.49735592E-08
   20.1299992      -2.67246030E-08
   20.1900005      -2.83873831E-08
   20.2500000      -2.99385121E-08
   20.3099995      -3.13577573E-08
   20.3700008      -3.26300906E-08
   20.4300003      -3.37468578E-08
   20.4899998      -3.47058347E-08
   20.5499992      -3.55102472E-08
   20.6100006      -3.61670907E-08
   20.6700001      -3.66854671E-08
   20.7299995      -3.70752780E-08
   20.7900009      -3.73467195E-08
   20.8500004      -3.75103077E-08
   20.9099998      -3.75771521E-08
   20.9699993      -3.75589018E-08
   21.0300007      -3.74672275E-08
   21.0900002      -3.73129083E-08
   21.1499996      -3.71049254E-08
   21.2099991      -3.68500253E-08
   21.2700005      -3.65528123E-08
   21.3299999      -3.62162247E-08
   21.3899994      -3.58419818E-08
   21.4500008      -3.54306700E-08
   21.5100002      -3.49814613E-08
   21.5699997      -3.44918618E-08
   21.6299992      -3.39578747E-08
   21.6900005      -3.33748709E-08
   21.7500000      -3.27389067E-08
   21.8099995      -3.20480567E-08
   21.8700008      -3.13031379E-08
   21.9300003      -3.05076817E-08
   21.9899998      -2.96672695E-08
   22.0499992      -2.87886088E-08
   22.1100006      -2.78788193E-08
   22.1700001      -2.69449405E-08
   22.2299995      -2.59935309E-08
   22.2900009      -2.50301682E-08
   22.3500004      -2.40588758E-08
   22.4099998      -2.30817179E-08
   22.4699993      -2.20989680E-08
   22.5300007      -2.11099778E-08
   22.5900002      -2.01145642E-08
   22.6499996      -1.91142941E-08
   22.7099991      -1.81130542E-08
   22.7700005      -1.71165997E-08
   22.8299999      -1.61311497E-08
   22.8899994      -1.51615129E-08
   22.9500008      -1.42093395E-08
   23.0100002      -1.32719533E-08
   23.0699997      -1.23420199E-08
   23.1299992      -1.14082077E-08
   23.1900005      -1.04568869E-08
   23.2500000      -9.47478274E-09
   23.3099995      -8.45222381E-09
   23.3700008      -7.38620853E-09
   23.4300003      -6.28229024E-09
   23.4899998      -5.15438447E-09
   23.5499992      -4.02222788E-09
   23.6100006      -2.90711388E-09
   23.6700001      -1.82726434E-09
   23.7299995      -7.94429911E-10
   23.7900009       1.87144758E-10
   23.8500004       1.11915877E-09
   23.9099998       2.00580041E-09
   23.9699993       2.84967561E-09
   24.0300007       3.64842556E-09
   24.0900002       4.39295489E-09
   24.1499996       5.06762099E-09
   24.2099991       5.65220226E-09
   24.2700005       6.12506934E-09
   24.3299999       6.46672937E-09
   24.3899994       6.66279298E-09
   24.4500008       6.70551259E-09
   24.5100002       6.59345467E-09
   24.5699997       6.32948716E-09
   24.6299992       5.91792659E-09
   24.6900005       5.36204370E-09
   24.7500000       4.66293448E-09
   24.8099995       3.82009713E-09
   24.8700008       2.83324297E-09
   24.9300003       1.70433267E-09
   24.9899998       4.38858200E-10
   25.0499992      -9.54069157E-10
   25.1100006      -2.46259746E-09
   25.1700001      -4.07332656E-09
   25.2299995      -5.77220405E-09
   25.2900009      -7.54488827E-09
   25.3500004      -9.37675182E-09
   25.4099998      -1.12528316E-08
   25.4699993      -1.31578917E-08
   25.5300007      -1.50765249E-08
   25.5900002      -1.69930559E-08
   25.6499996      -1.88912086E-08
   25.7099991      -2.07536957E-08
   25.7700005      -2.25620482E-08
   25.8299999      -2.42969254E-08
   25.8899994      -2.59388013E-08
   25.9500008      -2.74686851E-08
   26.0100002      -2.88684934E-08
   26.0699997      -3.01209688E-08
   26.1299992      -3.12093462E-08
   26.1900005      -3.21171427E-08
   26.2500000      -3.28283356E-08
   26.3099995      -3.33278436E-08
   26.3700008      -3.36020491E-08
   26.4300003      -3.36391288E-08
   26.4899998      -3.34291492E-08
   26.5499992      -3.29642944E-08
   26.6100006      -3.22395799E-08
   26.6700001      -3.12539754E-08
   26.7299995      -3.00116128E-08
   26.7900009      -2.85223027E-08
   26.8500004      -2.68008140E-08
   26.9099998      -2.48648764E-08
   26.9699993      -2.27325057E-08
   27.0300007      -2.04195523E-08
   27.0900002      -1.79383601E-08
   27.1499996      -1.52978590E-08
   27.2099991      -1.25049198E-08
   27.2700005      -9.56642854E-09
   27.3299999      -6.49143850E-09
   27.3899994      -3.29293548E-09
   27.4500008       1.11054412E-11
   27.5100002       3.39759398E-09
   27.5699997       6.83922696E-09
   27.6299992       1.03063478E-08
   27.6900005       1.37694265E-08
   27.7500000       1.72015024E-08
   27.8099995       2.05799200E-08
   27.8700008       2.38868392E-08
   27.9300003       2.71085039E-08
   27.9899998       3.02336183E-08
   28.0499992       3.32514638E-08
   28.1100006       3.61502082E-08
   28.1700001       3.89157009E-08
   28.2299995       4.15307717E-08
   28.2900009       4.39750600E-08
   28.3500004       4.62255159E-08
   28.4099998       4.82575331E-08
   28.4699993       5.00467330E-08
   28.5300007       5.15709324E-08
   28.5900002       5.28116963E-08
   28.6499996       5.37550378E-08
   28.7099991       5.43911902E-08
   28.7700005       5.47140075E-08
   28.8299999       5.47206653E-08
   28.8899994       5.44122294E-08
   28.9500008       5.37949383E-08
   29.0100002       5.28814397E-08
   29.0699997       5.16910852E-08
   29.1299992       5.02486941E-08
   29.1900005       4.85818141E-08
   29.2500000       4.67173287E-08
   29.3099995       4.46782593E-08
   29.3700008       4.24815347E-08
   29.4300003       4.01368787E-08
   29.4899998       3.76466360E-08
   29.5499992       3.50062379E-08
   29.6100006       3.22053282E-08
   29.6700001       2.92295983E-08
   29.7299995       2.60634323E-08
   29.7900009       2.26931682E-08
   29.8500004       1.91103879E-08
   29.9099998       1.53145763E-08
   29.9699993       1.13147172E-08
   30.0300007       7.12977144E-09
   30.0900002       2.78830026E-09
   30.1499996      -1.67246794E-09
   30.2099991      -6.20804030E-09
   30.2700005      -1.07686793E-08
   30.3299999      -1.53021720E-08
   30.3899994      -1.97572181E-08
   30.4500008      -2.40868641E-08
   30.5100002      -2.82512786E-08
   30.5699997      -3.22192868E-08
   30.6299992      -3.59685224E-08
   30.6900005      -3.94846147E-08
   30.7500000      -4.27599325E-08
   30.8099995      -4.57923264E-08
   30.8700008      -4.85839635E-08
   30.9300003      -5.11400522E-08
   30.9899998      -5.34673497E-08
   31.0499992      -5.55724995E-08
   31.1100006      -5.74606496E-08
   31.1700001      -5.91346350E-08
   31.2299995      -6.05950277E-08
   31.2900009      -6.18407014E-08
   31.3500004      -6.28695389E-08
   31.4099998      -6.36790034E-08
   31.4699993      -6.42662314E-08
   31.5300007      -6.46283382E-08
   31.5900002      -6.47627942E-08
   31.6499996      -6.46683489E-08
   31.7099991      -6.43459046E-08
   31.7700005      -6.37990496E-08
   31.8299999      -6.30338164E-08
   31.8899994      -6.20576301E-08
   31.9500008      -6.08780866E-08
   32.0099983      -5.95021952E-08
   32.0699997      -5.79365889E-08
   32.1300011      -5.61887852E-08
   32.1899986      -5.42689200E-08
   32.2500000      -5.21911403E-08
   32.3100014      -4.99739201E-08
   32.3699989      -4.76390625E-08
   32.4300003      -4.52095961E-08
   32.4900017      -4.27073559E-08
   32.5499992      -4.01510398E-08
   32.6100006      -3.75555018E-08
   32.6699982      -3.49324694E-08
   32.7299995      -3.22925011E-08
   32.7900009      -2.96475129E-08
   32.8499985      -2.70129217E-08
   32.9099998      -2.44087293E-08
   32.9700012      -2.18590568E-08
   33.0299988      -1.93903489E-08
   33.0900002      -1.70288157E-08
   33.1500015      -1.47979300E-08
   33.2099991      -1.27166198E-08
   33.2700005      -1.07983702E-08
   33.3300018      -9.05111008E-09
   33.3899994      -7.47744178E-09
   33.4500008      -6.07496897E-09
   33.5099983      -4.83669238E-09
   33.5699997      -3.75169273E-09
   33.6300011      -2.80629586E-09
   33.6899986      -1.98567296E-09
   33.7500000      -1.27544164E-09
   33.8100014      -6.62732480E-10
   33.8699989      -1.36371012E-10
   33.9300003       3.13656823E-10
   33.9900017       6.96814384E-10
   34.0499992       1.02189601E-09
   34.1100006       1.29572408E-09
   34.1699982       1.52090862E-09
   34.2299995       1.69358927E-09
   34.2900009       1.80233417E-09
   34.3499985       1.82901494E-09
   34.4099998       1.75167503E-09
   34.4700012       1.54855828E-09
   34.5299988       1.20200649E-09
   34.5900002       7.01072644E-10
   34.6500015       4.23269544E-11
   34.7099991      -7.70923936E-10
   34.7700005      -1.73028747E-09
   34.8300018      -2.82404322E-09
   34.8899994      -4.03857303E-09
   34.9500008      -5.35941780E-09
   35.0099983      -6.77215040E-09
   35.0699997      -8.26317148E-09
   35.1300011      -9.82030013E-09
   35.1899986      -1.14328653E-08
   35.2500000      -1.30910358E-08
   35.3100014      -1.47844617E-08
   35.3699989      -1.65006853E-08
   35.4300003      -1.82239877E-08
   35.4900017      -1.99353281E-08
   35.5499992      -2.16135785E-08
   35.6100006      -2.32378454E-08
   35.6699982      -2.47901930E-08
   35.7299995      -2.62578812E-08
   35.7900009      -2.76344885E-08
   35.8499985      -2.89194766E-08
   35.9099998      -3.01163645E-08
   35.9700012      -3.12300159E-08
   36.0299988      -3.22638627E-08
   36.0900002      -3.32178374E-08
   36.1500015      -3.40876021E-08
   36.2099991      -3.48650637E-08
   36.2700005      -3.55398520E-08
   36.3300018      -3.61009533E-08
   36.3899994      -3.65377808E-08
   36.4500008      -3.68404187E-08
   36.5099983      -3.69991966E-08
   36.5699997      -3.70043480E-08
   36.6300011      -3.68463695E-08
   36.6899986      -3.65174238E-08
   36.7500000      -3.60133363E-08
   36.8100014      -3.53354253E-08
   36.8699989      -3.44911939E-08
   36.9300003      -3.34935102E-08
   36.9900017      -3.23586136E-08
   37.0499992      -3.11037596E-08
   37.1100006      -2.97455358E-08
   37.1699982      -2.82992545E-08
   37.2299995      -2.67792633E-08
   37.2900009      -2.51994692E-08
   37.3499985      -2.35733317E-08
   37.4099998      -2.19130492E-08
   37.4700012      -2.02282422E-08
   37.5299988      -1.85248474E-08
   37.5900002      -1.68048011E-08
   37.6500015      -1.50667141E-08
   37.7099991      -1.33071598E-08
   37.7700005      -1.15219700E-08
   37.8300018      -9.70709824E-09
   37.8899994      -7.85896415E-09
   37.9500008      -5.97463012E-09
   38.0099983      -4.05216616E-09
   38.0699997      -2.09136752E-09
   38.1300011      -9.45335893E-11
   38.1899986       1.93319494E-09
   38.2500000       3.98436173E-09
   38.3100014       6.05060535E-09
   38.3699989       8.12450995E-09
   38.4300003       1.02012034E-08
   38.4900017       1.22791475E-08
   38.5499992       1.43599781E-08
   38.6100006       1.64477569E-08
   38.6699982       1.85482190E-08
   38.7299995       2.06685353E-08
   38.7900009       2.28177246E-08
   38.8499985       2.50073349E-08
   38.9099998       2.72518061E-08
   38.9700012       2.95678202E-08
   39.0299988       3.19724123E-08
   39.0900002       3.44800064E-08
   39.1500015       3.70989639E-08
   39.2099991       3.98286275E-08
   39.2700005       4.26576108E-08
   39.3300018       4.55639899E-08
   39.3899994       4.85173786E-08
   39.4500008       5.14826048E-08
   39.5099983       5.44240031E-08
   39.5699997       5.73094070E-08
   39.6300011       6.01128107E-08
   39.6899986       6.28151398E-08
   39.7500000       6.54030501E-08
   39.8100014       6.78662602E-08
   39.8699989       7.01943748E-08
   39.9300003       7.23741991E-08
   39.9900017       7.43884527E-08
   40.0499992       7.62163026E-08
   40.1100006       7.78357077E-08
   40.1699982       7.92268580E-08
   40.2299995       8.03758553E-08
   40.2900009       8.12774417E-08
   40.3499985       8.19358661E-08
   40.4099998       8.23634352E-08
   40.4700012       8.25766406E-08
   40.5299988       8.25910078E-08
   40.5900002       8.24159443E-08
   40.6500015       8.20514572E-08
   40.7099991       8.14880252E-08
   40.7700005       8.07101372E-08
   40.8300018       7.97025876E-08
   40.8899994       7.84575818E-08
   40.9500008       7.69802924E-08
   41.0099983       7.52905223E-08
   41.0699997       7.34198835E-08
   41.1300011       7.14050827E-08
   41.1899986       6.92794160E-08
   41.2500000       6.70654146E-08
   41.3100014       6.47710223E-08
   41.3699989       6.23905052E-08
   41.4300003       5.99099153E-08
   41.4900017       5.73150309E-08
   41.5499992       5.45993011E-08
   41.6100006       5.17690033E-08
   41.6699982       4.88439476E-08
   41.7299995       4.58534579E-08
   41.7900009       4.28289901E-08
   41.8499985       3.97959923E-08
   41.9099998       3.67679078E-08
   41.9700012       3.37446089E-08
   42.0299988       3.07159560E-08
   42.0900002       2.76693353E-08
   42.1500015       2.45985738E-08
   42.2099991       2.15110063E-08
   42.2700005       1.84301978E-08
   42.3300018       1.53933311E-08
   42.3899994       1.24441355E-08
   42.4500008       9.62367164E-09
   42.5099983       6.96196345E-09
   42.5699997       4.47298021E-09
   42.6300011       2.15447926E-09
   42.6899986      -7.35593097E-12
   42.7500000      -2.02990091E-09
   42.8100014      -3.92518862E-09
   42.8699989      -5.69299186E-09
   42.9300003      -7.31833660E-09
   42.9900017      -8.77462192E-09
   43.0499992      -1.00316599E-08
   43.1100006      -1.10660805E-08
   43.1699982      -1.18703873E-08
   43.2299995      -1.24571722E-08
   43.2900009      -1.28566313E-08
   43.3499985      -1.31080471E-08
   43.4099998      -1.32482718E-08
   43.4700012      -1.33013778E-08
   43.5299988      -1.32731666E-08
   43.5900002      -1.31522420E-08
   43.6500015      -1.29169218E-08
   43.7099991      -1.25453106E-08
   43.7700005      -1.20250823E-08
   43.8300018      -1.13599912E-08
   43.8899994      -1.05713855E-08
   43.9500008      -9.69450298E-09
   44.0099983      -8.77066686E-09
   44.0699997      -7.83753773E-09
   44.1300011      -6.92015911E-09
   44.1899986      -6.02557426E-09
   44.2500000      -5.14300869E-09
   44.3100014      -4.25000923E-09
   44.3699989      -3.32278693E-09
   44.4300003      -2.34721176E-09
   44.4900017      -1.32628297E-09
   44.5499992      -2.81008716E-10
   44.6100006       7.55848772E-10
   44.6699982       1.75080461E-09
   44.7299995       2.68113887E-09
   44.7900009       3.54238261E-09
   44.8499985       4.34906511E-09
   44.9099998       5.12867215E-09
   44.9700012       5.91124882E-09
   45.0299988       6.71834854E-09
   45.0900002       7.55485452E-09
   45.1500015       8.40592307E-09
   45.2099991       9.23960730E-09
   45.2700005       1.00141868E-08
   45.3300018       1.06881197E-08
   45.3899994       1.12299494E-08
   45.4500008       1.16254508E-08
   45.5099983       1.18799237E-08
   45.5699997       1.20148416E-08
   45.6300011       1.20598358E-08
   45.6899986       1.20426478E-08
   45.7500000       1.19804948E-08
   45.8100014       1.18758159E-08
   45.8699989       1.17177050E-08
   45.9300003       1.14881322E-08
   45.9900017       1.11703651E-08
   46.0499992       1.07563496E-08
   46.1100006       1.02505409E-08
   46.1699982       9.66913127E-09
   46.2299995       9.03529163E-09
   46.2900009       8.37215453E-09
   46.3499985       7.69582087E-09
   46.4099998       7.01048641E-09
   46.4700012       6.30731556E-09
   46.5299988       5.56771962E-09
   46.5900002       4.77053552E-09
   46.6500015       3.90124510E-09
   46.7099991       2.96032088E-09
   46.7700005       1.96756789E-09
   46.8300018       9.60322266E-10
   46.8899994      -1.46003019E-11
   46.9500008      -9.12938836E-10
   47.0099983      -1.70504344E-09
   47.0699997      -2.38380604E-09
   47.1300011      -2.96574654E-09
   47.1899986      -3.48500584E-09
   47.2500000      -3.98242994E-09
   47.3100014      -4.49340876E-09
   47.3699989      -5.03818898E-09
   47.4300003      -5.61723379E-09
   47.4900017      -6.21246210E-09
   47.5499992      -6.79347734E-09
   47.6100006      -7.32670546E-09
   47.6699982      -7.78475773E-09
   47.7299995      -8.15344592E-09
   47.7900009      -8.43453130E-09
   47.8499985      -8.64350458E-09
   47.9099998      -8.80319284E-09
   47.9700012      -8.93533159E-09
   48.0299988      -9.05300190E-09
   48.0900002      -9.15657061E-09
   48.1500015      -9.23448429E-09
   48.2099991      -9.26849708E-09
   48.2700005      -9.24125132E-09
   48.3300018      -9.14338827E-09
   48.3899994      -8.97764352E-09
   48.4500008      -8.75864270E-09
   48.5099983      -8.50863824E-09
   48.5699997      -8.25072632E-09
   48.6300011      -8.00172728E-09
   48.6899986      -7.76686093E-09
   48.7500000      -7.53774820E-09
   48.8100014      -7.29434912E-09
   48.8699989      -7.01043135E-09
   48.9300003      -6.66115252E-09
   48.9900017      -6.23066931E-09
   49.0499992      -5.71746517E-09
   49.1100006      -5.13560705E-09
   49.1699982      -4.51133264E-09
   49.2299995      -3.87590759E-09
   49.2900009      -3.25704019E-09
   49.3499985      -2.67169953E-09
   49.4099998      -2.12270779E-09
   49.4700012      -1.60009705E-09
   49.5299988      -1.08647946E-09
   49.5900002      -5.64293945E-10
   49.6500015      -2.22547189E-11
   49.7099991       5.41190870E-10
   49.7700005       1.11838239E-09
   49.8300018       1.69649406E-09
   49.8899994       2.26350272E-09
   49.9500008       2.81394441E-09
   50.0099983       3.35248607E-09
   50.0699997       3.89410859E-09
   50.1300011       4.46077308E-09
   50.1899986       5.07558484E-09
   50.2500000       5.75630832E-09
   50.3100014       6.51039622E-09
   50.3699989       7.33328065E-09
   50.4300003       8.21060286E-09
   50.4900017       9.12363607E-09
   50.5499992       1.00559152E-08
   50.6100006       1.09985523E-08