  -2.400000      0.0000000E+00
  -2.340000      0.0000000E+00
  -2.280000      0.0000000E+00
  -2.220000      0.0000000E+00
  -2.160000      0.0000000E+00
  -2.100000     -3.3638208E-21
  -2.040000      1.2517093E-21
  -1.980000      1.6119514E-19
  -1.920000      9.8945825E-19
  -1.860000      3.3055897E-18
  -1.800000      7.0202082E-18
  -1.740000      8.3618059E-18
  -1.680000     -2.4681783E-18
  -1.620000     -3.7882682E-17
  -1.560000     -9.8317344E-17
  -1.500000     -1.4942793E-16
  -1.440000     -1.1064879E-16
  -1.380000      1.1256912E-16
  -1.320000      5.3296748E-16
  -1.260000      9.5371378E-16
  -1.200000      9.1320210E-16
  -1.140000     -1.5687316E-16
  -1.080000     -2.4925113E-15
  -1.020000     -5.4160036E-15
 -0.9600000     -7.0047533E-15
 -0.9000000     -4.5116579E-15
 -0.8400000      4.1976704E-15
 -0.7800000      1.8542286E-14
 -0.7200000      3.3551683E-14
 -0.6600000      4.0082815E-14
 -0.6000000      2.7911509E-14
 -0.5400000     -8.7249611E-15
 -0.4800000     -6.5337669E-14
 -0.4200000     -1.2446759E-13
 -0.3600000     -1.5883611E-13
 -0.3000000     -1.4078320E-13
 -0.2400000     -5.5087601E-14
 -0.1800000      9.0267508E-14
 -0.1200000      2.6092109E-13
 -5.9999999E-02  4.0329589E-13
  0.0000000E+00  4.6033826E-13
  5.9999999E-02  3.9020271E-13
  0.1200000      1.8111000E-13
  0.1800000     -1.4224879E-13
  0.2400000     -5.2142893E-13
  0.3000000     -8.7353540E-13
  0.3600000     -1.1040633E-12
  0.4200000     -1.1222342E-12
  0.4800000     -8.6001480E-13
  0.5400000     -2.9559702E-13
  0.6000000      5.2209230E-13
  0.6600000      1.4573835E-12
  0.7200000      2.2935224E-12
  0.7800000      2.7701090E-12
  0.8400000      2.6515905E-12
  0.9000000      1.8110123E-12
  0.9600000      3.0091831E-13
   1.020000     -1.6192013E-12
   1.080000     -3.5189716E-12
   1.140000     -4.8958810E-12
   1.200000     -5.3124185E-12
   1.260000     -4.5307057E-12
   1.320000     -2.6009115E-12
   1.380000      1.2767367E-13
   1.440000      3.0803392E-12
   1.500000      5.5963489E-12
   1.560000      7.0945918E-12
   1.620000      7.2185409E-12
   1.680000      5.9209495E-12
   1.740000      3.4679575E-12
   1.800000      3.6639604E-13
   1.860000     -2.7612244E-12
   1.920000     -5.3187697E-12
   1.980000     -6.8614220E-12
   2.040000     -7.1792763E-12
   2.100000     -6.3281411E-12
   2.160000     -4.6060859E-12
   2.220000     -2.4799986E-12
   2.280000     -4.7061801E-13
   2.340000      9.8810511E-13
   2.400000      1.6871885E-12
   2.460000      1.7373566E-12
   2.520000      1.5754708E-12
   2.580000      1.8524184E-12
   2.640000      3.2077359E-12
   2.700000      5.9832942E-12
   2.760000      9.9681704E-12
   2.820000      1.4278340E-11
   2.880000      1.7446152E-11
   2.940000      1.7729557E-11
   3.000000      1.3571174E-11
   3.060000      4.0729299E-12
   3.120000     -1.0668457E-11
   3.180000     -2.9483811E-11
   3.240000     -5.0345773E-11
   3.300000     -7.0806160E-11
   3.360000     -8.8505987E-11
   3.420000     -1.0158401E-10
   3.480000     -1.0885777E-10
   3.540000     -1.0975607E-10
   3.600000     -1.0409936E-10
   3.660000     -9.1897899E-11
   3.720000     -7.3327774E-11
   3.780000     -4.8945435E-11
   3.840000     -2.0056842E-11
   3.900000      1.0963061E-11
   3.960000      4.0632005E-11
   4.020000      6.4744002E-11
   4.080000      7.9141020E-11
   4.140000      8.0660957E-11
   4.200000      6.7956286E-11
   4.260000      4.1916731E-11
   4.320000      5.5799354E-12
   4.380000     -3.6398155E-11
   4.440000     -7.8508762E-11
   4.500000     -1.1516533E-10
   4.560000     -1.4134122E-10
   4.620000     -1.5304023E-10
   4.680000     -1.4764798E-10
   4.740000     -1.2420601E-10
   4.800000     -8.3580184E-11
   4.860000     -2.8422698E-11
   4.920000      3.7178000E-11
   4.980000      1.0837449E-10
   5.040000      1.8043145E-10
   5.100000      2.4952893E-10
   5.160000      3.1321046E-10
   5.220000      3.7029821E-10
   5.280000      4.2030768E-10
   5.340000      4.6261317E-10
   5.400000      4.9573823E-10
   5.460000      5.1711430E-10
   5.520000      5.2346205E-10
   5.580000      5.1169258E-10
   5.640000      4.7999682E-10
   5.700000      4.2870441E-10
   5.760000      3.6057027E-10
   5.820000      2.8037125E-10
   5.880000      1.9395384E-10
   5.940000      1.0707348E-10
   6.000000      2.4418211E-11
   6.060000     -5.0891760E-11
   6.120000     -1.1723429E-10
   6.180000     -1.7396169E-10
   6.240000     -2.2067410E-10
   6.300000     -2.5657207E-10
   6.360000     -2.8010266E-10
   6.420000     -2.8899538E-10
   6.480000     -2.8065730E-10
   6.540000     -2.5279506E-10
   6.600000     -2.0406593E-10
   6.660000     -1.3454407E-10
   6.720000     -4.5838392E-11
   6.780000      5.9185434E-11
   6.840000      1.7696862E-10
   6.900000      3.0386887E-10
   6.960000      4.3654988E-10
   7.020000      5.7200839E-10
   7.080000      7.0732459E-10
   7.140000      8.3942442E-10
   7.200000      9.6517938E-10
   7.260000      1.0819671E-09
   7.320000      1.1884597E-09
   7.380000      1.2851054E-09
   7.440000      1.3737558E-09
   7.500000      1.4562526E-09
   7.560000      1.5323942E-09
   7.620000      1.5982338E-09
   7.680000      1.6457563E-09
   7.740000      1.6645200E-09
   7.800000      1.6449633E-09
   7.860000      1.5822159E-09
   7.920000      1.4788575E-09
   7.980000      1.3453948E-09
   8.040000      1.1981465E-09
   8.100000      1.0553025E-09
   8.160000      9.3263153E-10
   8.220000      8.4033813E-10
   8.280000      7.8194207E-10
   8.340000      7.5514717E-10
   8.400000      7.5392675E-10
   8.460000      7.7081524E-10
   8.520000      7.9865692E-10
   8.580000      8.3158008E-10
   8.640000      8.6539542E-10
   8.700000      8.9774005E-10
   8.760000      9.2812380E-10
   8.820000      9.5776076E-10
   8.880000      9.8895203E-10
   8.940000      1.0239128E-09
   9.000000      1.0632683E-09
   9.060000      1.1047484E-09
   9.120000      1.1427093E-09
   9.180000      1.1688656E-09
   9.240000      1.1741639E-09
   9.300000      1.1512228E-09
   9.360000      1.0964749E-09
   9.420000      1.0111972E-09
   9.480000      9.0100705E-10
   9.540000      7.7397394E-10
   9.600000      6.3802802E-10
   9.660000      4.9861676E-10
   9.720000      3.5746237E-10
   9.780000      2.1284706E-10
   9.840000      6.1257562E-11
   9.900000     -1.0030077E-10
   9.960000     -2.7224936E-10
   10.02000     -4.5143911E-10
   10.08000     -6.3155703E-10
   10.14000     -8.0470663E-10
   10.20000     -9.6346786E-10
   10.26000     -1.1025811E-09
   10.32000     -1.2195996E-09
   10.38000     -1.3143231E-09
   10.44000     -1.3873628E-09
   10.50000     -1.4385653E-09
   10.56000     -1.4660869E-09
   10.62000     -1.4666266E-09
   10.68000     -1.4368130E-09
   10.74000     -1.3752093E-09
   10.80000     -1.2840601E-09
   10.86000     -1.1699335E-09
   10.92000     -1.0427941E-09
   10.98000     -9.1367053E-10
   11.04000     -7.9168239E-10
   11.10000     -6.8153033E-10
   11.16000     -5.8245375E-10
   11.22000     -4.8913601E-10
   11.28000     -3.9428216E-10
   11.34000     -2.9190292E-10
   11.40000     -1.8000609E-10
   11.46000     -6.1582996E-11
   11.52000      5.6567449E-11
   11.58000      1.6675276E-10
   11.64000      2.6385336E-10
   11.70000      3.4783959E-10
   11.76000      4.2413134E-10
   11.82000      5.0141868E-10
   11.88000      5.8762889E-10
   11.94000      6.8559702E-10
   12.00000      7.9028672E-10
   12.06000      8.8892749E-10
   12.12000      9.6432018E-10
   12.18000      1.0002396E-09
   12.24000      9.8689712E-10
   12.30000      9.2428365E-10
   12.36000      8.2200163E-10
   12.42000      6.9562717E-10
   12.48000      5.6108879E-10
   12.54000      4.2937262E-10
   12.60000      3.0367431E-10
   12.66000      1.8001253E-10
   12.72000      5.0801623E-11
   12.78000     -9.0352573E-11
   12.84000     -2.4478519E-10
   12.90000     -4.0744719E-10
   12.96000     -5.6854249E-10
   13.02000     -7.1726747E-10
   13.08000     -8.4597757E-10
   13.14000     -9.5305142E-10
   13.20000     -1.0433718E-09
   13.26000     -1.1263558E-09
   13.32000     -1.2124225E-09
   13.38000     -1.3093118E-09
   13.44000     -1.4196327E-09
   13.50000     -1.5404754E-09
   13.56000     -1.6651017E-09
   13.62000     -1.7859516E-09
   13.68000     -1.8977444E-09
   13.74000     -1.9994639E-09
   13.80000     -2.0945099E-09
   13.86000     -2.1890427E-09
   13.92000     -2.2892630E-09
   13.98000     -2.3987585E-09
   14.04000     -2.5169533E-09
   14.10000     -2.6391920E-09
   14.16000     -2.7583125E-09
   14.22000     -2.8669895E-09
   14.28000     -2.9599083E-09
   14.34000     -3.0349836E-09
   14.40000     -3.0932634E-09
   14.46000     -3.1376719E-09
   14.52000     -3.1711380E-09
   14.58000     -3.1948491E-09
   14.64000     -3.2072967E-09
   14.70000     -3.2044989E-09
   14.76000     -3.1813412E-09
   14.82000     -3.1335399E-09
   14.88000     -3.0594196E-09
   14.94000     -2.9607232E-09
   15.00000     -2.8420206E-09
   15.06000     -2.7089109E-09
   15.12000     -2.5657900E-09
   15.18000     -2.4142122E-09
   15.24000     -2.2526219E-09
   15.30000     -2.0775686E-09
   15.36000     -1.8857829E-09
   15.42000     -1.6760744E-09
   15.48000     -1.4501559E-09
   15.54000     -1.2121125E-09
   15.60000     -9.6696728E-10
   15.66000     -7.1922085E-10
   15.72000     -4.7214044E-10
   15.78000     -2.2802647E-10
   15.84000      1.0938899E-11
   15.90000      2.4198446E-10
   15.96000      4.6175516E-10
   16.02000      6.6709904E-10
   16.08000      8.5618229E-10
   16.14000      1.0292555E-09
   16.20000      1.1885822E-09
   16.26000      1.3375034E-09
   16.32000      1.4790509E-09
   16.38000      1.6147144E-09
   16.44000      1.7438337E-09
   16.50000      1.8637627E-09
   16.56000      1.9706288E-09
   16.62000      2.0603410E-09
   16.68000      2.1295135E-09
   16.74000      2.1760973E-09
   16.80000      2.1996438E-09
   16.86000      2.2012276E-09
   16.92000      2.1831272E-09
   16.98000      2.1483959E-09
   17.04000      2.1004958E-09
   17.10000      2.0431263E-09
   17.16000      1.9802706E-09
   17.22000      1.9163326E-09
   17.28000      1.8561080E-09
   17.34000      1.8043410E-09
   17.40000      1.7647934E-09
   17.46000      1.7390427E-09
   17.52000      1.7254804E-09
   17.58000      1.7190649E-09
   17.64000      1.7121856E-09
   17.70000      1.6965842E-09
   17.76000      1.6657935E-09
   17.82000      1.6172303E-09
   17.88000      1.5530898E-09
   17.94000      1.4795675E-09
   18.00000      1.4045843E-09
   18.06000      1.3348207E-09
   18.12000      1.2732135E-09
   18.18000      1.2179427E-09
   18.24000      1.1633468E-09
   18.30000      1.1023993E-09
   18.36000      1.0297175E-09
   18.42000      9.4384167E-10
   18.48000      8.4786733E-10
   18.54000      7.4823042E-10
   18.60000      6.5222583E-10
   18.66000      5.6531446E-10
   18.72000      4.8926529E-10
   18.78000      4.2173881E-10
   18.84000      3.5730388E-10
   18.90000      2.8936673E-10
   18.96000      2.1226813E-10
   19.02000      1.2287811E-10
   19.08000      2.1289115E-11
   19.14000     -8.9467059E-11
   19.20000     -2.0446725E-10
   19.26000     -3.1830441E-10
   19.32000     -4.2637630E-10
   19.38000     -5.2565596E-10
   19.44000     -6.1477590E-10
   19.50000     -6.9357309E-10
   19.56000     -7.6250151E-10
   19.62000     -8.2235546E-10
   19.68000     -8.7451174E-10
   19.74000     -9.2149727E-10
   19.80000     -9.6736952E-10
   19.86000     -1.0173942E-09
   19.92000     -1.0768683E-09
   19.98000     -1.1494741E-09
   20.04000     -1.2359238E-09
   20.10000     -1.3336006E-09
   20.16000     -1.4374207E-09
   20.22000     -1.5415160E-09
   20.28000     -1.6409382E-09
   20.34000     -1.7326698E-09
   20.40000     -1.8157034E-09
   20.46000     -1.8905040E-09
   20.52000     -1.9584345E-09
   20.58000     -2.0215567E-09
   20.64000     -2.0827862E-09
   20.70000     -2.1460156E-09
   20.76000     -2.2157840E-09
   20.82000     -2.2963889E-09
   20.88000     -2.3907556E-09
   20.94000     -2.4995961E-09
   21.00000     -2.6212494E-09
   21.06000     -2.7522356E-09
   21.12000     -2.8881990E-09
   21.18000     -3.0248275E-09
   21.24000     -3.1584879E-09
   21.30000     -3.2865695E-09
   21.36000     -3.4076366E-09
   21.42000     -3.5214327E-09
   21.48000     -3.6286250E-09
   21.54000     -3.7301691E-09
   21.60000     -3.8263734E-09
   21.66000     -3.9160302E-09
   21.72000     -3.9961372E-09
   21.78000     -4.0625538E-09
   21.84000     -4.1114858E-09
   21.90000     -4.1411869E-09
   21.96000     -4.1530686E-09
   22.02000     -4.1516426E-09
   22.08000     -4.1432591E-09
   22.14000     -4.1341486E-09
   22.20000     -4.1285761E-09
   22.26000     -4.1277750E-09
   22.32000     -4.1299724E-09
   22.38000     -4.1313757E-09
   22.44000     -4.1277115E-09
   22.50000     -4.1157961E-09
   22.56000     -4.0946553E-09
   22.62000     -4.0658312E-09
   22.68000     -4.0327466E-09
   22.74000     -3.9993240E-09
   22.80000     -3.9683825E-09
   22.86000     -3.9405528E-09
   22.92000     -3.9142583E-09
   22.98000     -3.8868295E-09
   23.04000     -3.8561891E-09
   23.10000     -3.8221635E-09
   23.16000     -3.7866226E-09
   23.22000     -3.7523225E-09
   23.28000     -3.7210932E-09
   23.34000     -3.6924117E-09
   23.40000     -3.6631898E-09
   23.46000     -3.6288379E-09
   23.52000     -3.5849390E-09
   23.58000     -3.5285839E-09
   23.64000     -3.4587890E-09
   23.70000     -3.3761176E-09
   23.76000     -3.2821434E-09
   23.82000     -3.1793355E-09
   23.88000     -3.0713945E-09
   23.94000     -2.9634715E-09
   24.00000     -2.8615754E-09
   24.06000     -2.7709732E-09
   24.12000     -2.6941924E-09
   24.18000     -2.6297426E-09
   24.24000     -2.5724600E-09
   24.30000     -2.5155082E-09
   24.36000     -2.4530891E-09
   24.42000     -2.3824760E-09
   24.48000     -2.3043703E-09
   24.54000     -2.2215618E-09
   24.60000     -2.1368194E-09
   24.66000     -2.0512376E-09
   24.72000     -1.9638355E-09
   24.78000     -1.8723534E-09
   24.84000     -1.7745430E-09
   24.90000     -1.6691395E-09
   24.96000     -1.5561400E-09
   25.02000     -1.4365511E-09
   25.08000     -1.3120488E-09
   25.14000     -1.1848413E-09
   25.20000     -1.0576737E-09
   25.26000     -9.3368491E-10
   25.32000     -8.1591639E-10
   25.38000     -7.0658651E-10
   25.44000     -6.0650546E-10
   25.50000     -5.1497839E-10
   25.56000     -4.3026138E-10
   25.62000     -3.5030329E-10
   25.68000     -2.7338543E-10
   25.74000     -1.9841680E-10
   25.80000     -1.2490836E-10
   25.86000     -5.2810385E-11
   25.92000      1.7646037E-11
   25.98000      8.6115566E-11
   26.04000      1.5238812E-10
   26.10000      2.1668475E-10
   26.16000      2.7978261E-10
   26.22000      3.4271894E-10
   26.28000      4.0607284E-10
   26.34000      4.6920867E-10
   26.40000      5.3008126E-10
   26.46000      5.8598543E-10
   26.52000      6.3502997E-10
   26.58000      6.7751638E-10
   26.64000      7.1627110E-10
   26.70000      7.5551099E-10
   26.76000      7.9873869E-10
   26.82000      8.4685364E-10
   26.88000      8.9763214E-10
   26.94000      9.4691077E-10
   27.00000      9.9073738E-10
   27.06000      1.0271385E-09
   27.12000      1.0564412E-09
   27.18000      1.0800805E-09
   27.24000      1.0988578E-09
   27.30000      1.1119474E-09
   27.36000      1.1173681E-09
   27.42000      1.1135458E-09
   27.48000      1.1007754E-09
   27.54000      1.0814264E-09
   27.60000      1.0586165E-09
   27.66000      1.0341588E-09
   27.72000      1.0071385E-09
   27.78000      9.7408914E-10
   27.84000      9.3070546E-10
   27.90000      8.7406032E-10
   27.96000      8.0401957E-10
   28.02000      7.2312978E-10
   28.08000      6.3523659E-10
   28.14000      5.4380189E-10
   28.20000      4.5090021E-10
   28.26000      3.5725833E-10
   28.32000      2.6297126E-10
   28.38000      1.6817743E-10
   28.44000      7.3199148E-11
   28.50000     -2.1810630E-11
   28.56000     -1.1726592E-10
   28.62000     -2.1414659E-10
   28.68000     -3.1351330E-10
   28.74000     -4.1583739E-10
   28.80000     -5.2055027E-10
   28.86000     -6.2600353E-10
   28.92000     -7.2970929E-10
   28.98000     -8.2859214E-10
   29.04000     -9.1912750E-10
   29.10000     -9.9750874E-10
   29.16000     -1.0601057E-09
   29.22000     -1.1043020E-09
   29.28000     -1.1294420E-09
   29.34000     -1.1373686E-09
   29.40000     -1.1321412E-09
   29.46000     -1.1189361E-09
   29.52000     -1.1026130E-09
   29.58000     -1.0865976E-09
   29.64000     -1.0724959E-09
   29.70000     -1.0603792E-09
   29.76000     -1.0493054E-09
   29.82000     -1.0376437E-09
   29.88000     -1.0231098E-09
   29.94000     -1.0027869E-09
   30.00000     -9.7352415E-10
   30.06000     -9.3282260E-10
   30.12000     -8.7986518E-10
   30.18000     -8.1607954E-10
   30.24000     -7.4476486E-10
   30.30000     -6.6982542E-10
   30.36000     -5.9418914E-10
   30.42000     -5.1870758E-10
   30.48000     -4.4207848E-10
   30.54000     -3.6178102E-10
   30.60000     -2.7550157E-10
   30.66000     -1.8235535E-10
   30.72000     -8.3409356E-11
   30.78000      1.8594825E-11
   30.84000      1.2009070E-10
   30.90000      2.1776017E-10
   30.96000      3.0953151E-10
   31.02000      3.9528872E-10
   31.08000      4.7711746E-10
   31.14000      5.5893545E-10
   31.20000      6.4546379E-10
   31.26000      7.4073198E-10
   31.32000      8.4658236E-10
   31.38000      9.6175523E-10
   31.44000      1.0819701E-09
   31.50000      1.2010073E-09
   31.56000      1.3123619E-09
   31.62000      1.4108288E-09
   31.68000      1.4935040E-09
   31.74000      1.5600256E-09
   31.80000      1.6122057E-09
   31.86000      1.6533259E-09
   31.92000      1.6872801E-09
   31.98000      1.7176330E-09
   32.04000      1.7466713E-09
   32.10000      1.7746937E-09
   32.16000      1.7999212E-09
   32.22000      1.8192998E-09
   32.28000      1.8300454E-09
   32.34000      1.8312569E-09
   32.40000      1.8246661E-09
   32.46000      1.8139030E-09
   32.52000      1.8024413E-09
   32.58000      1.7912511E-09
   32.64000      1.7775605E-09
   32.70000      1.7556883E-09
   32.76000      1.7198329E-09
   32.82000      1.6675569E-09
   32.88000      1.6021717E-09
   32.94000      1.5326634E-09
   33.00000      1.4709793E-09
   33.06000      1.4278123E-09
   33.12000      1.4087262E-09
   33.18000      1.4122455E-09
   33.24000      1.4305412E-09
   33.30000      1.4521658E-09
   33.36000      1.4655326E-09
   33.42000      1.4617945E-09
   33.48000      1.4363322E-09
   33.54000      1.3887881E-09
   33.60000      1.3220894E-09
   33.66000      1.2410306E-09
   33.72000      1.1508247E-09
   33.78000      1.0558526E-09
   33.84000      9.5875807E-10
   33.90000      8.6005580E-10
   33.96000      7.5839701E-10
   34.02000      6.5144168E-10
   34.08000      5.3700494E-10
   34.14000      4.1393874E-10
   34.20000      2.8228217E-10
   34.26000      1.4258225E-10
   34.32000     -5.2265566E-12
   34.38000     -1.6268656E-10
   34.44000     -3.3280678E-10
   34.50000     -5.1901372E-10
   34.56000     -7.2346773E-10
   34.62000     -9.4551289E-10
   34.68000     -1.1809788E-09
   34.74000     -1.4226350E-09
   34.80000     -1.6615640E-09
   34.86000     -1.8888677E-09
   34.92000     -2.0971076E-09
   34.98000     -2.2811388E-09
   35.04000     -2.4383311E-09
   35.10000     -2.5683502E-09
   35.16000     -2.6726834E-09
   35.22000     -2.7539717E-09
   35.28000     -2.8151772E-09
   35.34000     -2.8586842E-09
   35.40000     -2.8855818E-09
   35.46000     -2.8954426E-09
   35.52000     -2.8867819E-09
   35.58000     -2.8580853E-09
   35.64000     -2.8089921E-09
   35.70000     -2.7410989E-09
   35.76000     -2.6580167E-09
   35.82000     -2.5646569E-09
   35.88000     -2.4660729E-09
   35.94000     -2.3663316E-09
   36.00000     -2.2677940E-09
   36.06000     -2.1709405E-09
   36.12000     -2.0746438E-09
   36.18000     -1.9767008E-09
   36.24000     -1.8744750E-09
   36.30000     -1.7655752E-09
   36.36000     -1.6485248E-09
   36.42000     -1.5233187E-09
   36.48000     -1.3917159E-09
   36.54000     -1.2571315E-09
   36.60000     -1.1241065E-09
   36.66000     -9.9747610E-10
   36.72000     -8.8143448E-10
   36.78000     -7.7866458E-10
   36.84000     -6.8963529E-10
   36.90000     -6.1214728E-10
   36.96000     -5.4127863E-10
   37.02000     -4.6995985E-10
   37.08000     -3.9034886E-10
   37.14000     -2.9588396E-10
   37.20000     -1.8346129E-10
   37.26000     -5.4866202E-11
   37.32000      8.3338995E-11
   37.38000      2.2170989E-10
   37.44000      3.5101189E-10
   37.50000      4.6526652E-10
   37.56000      5.6342608E-10
   37.62000      6.4894962E-10
   37.68000      7.2754358E-10
   37.74000      8.0419632E-10
   37.80000      8.8090213E-10
   37.86000      9.5602537E-10
   37.92000      1.0253876E-09
   37.98000      1.0843583E-09
   38.04000      1.1299072E-09
   38.10000      1.1618001E-09
   38.16000      1.1826644E-09
   38.22000      1.1971473E-09
   38.28000      1.2106155E-09
   38.34000      1.2277993E-09
   38.40000      1.2516551E-09
   38.46000      1.2826530E-09
   38.52000      1.3187063E-09
   38.58000      1.3559027E-09
   38.64000      1.3899571E-09
   38.70000      1.4179360E-09
   38.76000      1.4395168E-09
   38.82000      1.4571100E-09
   38.88000      1.4746356E-09
   38.94000      1.4954327E-09
   39.00000      1.5202746E-09
   39.06000      1.5464712E-09
   39.12000      1.5685009E-09
   39.18000      1.5798467E-09
   39.24000      1.5751299E-09
   39.30000      1.5515840E-09
   39.36000      1.5093522E-09
   39.42000      1.4507400E-09
   39.48000      1.3790141E-09
   39.54000      1.2973734E-09
   39.60000      1.2084064E-09
   39.66000      1.1139665E-09
   39.72000      1.0152135E-09
   39.78000      9.1265767E-10
   39.84000      8.0626988E-10
   39.90000      6.9582434E-10
   39.96000      5.8151844E-10
   40.02000      4.6462656E-10
   40.08000      3.4774481E-10
   40.14000      2.3426769E-10
   40.20000      1.2713655E-10
   40.26000      2.7388022E-11
   40.32000     -6.6704996E-11
   40.38000     -1.5927903E-10
   40.44000     -2.5526398E-10
   40.50000     -3.5813308E-10
   40.56000     -4.6805315E-10
   40.62000     -5.8135557E-10
   40.68000     -6.9165529E-10
   40.74000     -7.9216445E-10
   40.80000     -8.7818591E-10
   40.86000     -9.4870933E-10
   40.92000     -1.0064944E-09
   40.98000     -1.0567457E-09
   41.04000     -1.1050953E-09
   41.10000     -1.1558137E-09
   41.16000     -1.2108957E-09
   41.22000     -1.2701369E-09
   41.28000     -1.3318205E-09
   41.34000     -1.3934573E-09
   41.40000     -1.4521976E-09
   41.46000     -1.5049009E-09
   41.52000     -1.5481328E-09
   41.58000     -1.5783749E-09
   41.64000     -1.5925068E-09
   41.70000     -1.5883311E-09
   41.76000     -1.5648157E-09
   41.82000     -1.5218903E-09
   41.88000     -1.4599707E-09
   41.94000     -1.3796201E-09
   42.00000     -1.2817014E-09
   42.06000     -1.1680280E-09
   42.12000     -1.0420945E-09
   42.18000     -9.0927288E-10
   42.24000     -7.7605589E-10
   42.30000     -6.4844319E-10
   42.36000     -5.3009480E-10
   42.42000     -4.2109968E-10
   42.48000     -3.1797834E-10
   42.54000     -2.1499294E-10
   42.60000     -1.0626362E-10
   42.66000      1.2110615E-11
   42.72000      1.4066136E-10
   42.78000      2.7628927E-10
   42.84000      4.1313108E-10
   42.90000      5.4425253E-10
   42.96000      6.6369116E-10
   43.02000      7.6829393E-10
   43.08000      8.5878543E-10
   43.14000      9.3962249E-10
   43.20000      1.0175071E-09
   43.26000      1.0989205E-09
   43.32000      1.1875219E-09
   43.38000      1.2824468E-09
   43.44000      1.3782652E-09
   43.50000      1.4666698E-09
   43.56000      1.5392044E-09
   43.62000      1.5899069E-09
   43.68000      1.6168717E-09
   43.74000      1.6223382E-09
   43.80000      1.6115873E-09
   43.86000      1.5913301E-09
   43.92000      1.5681793E-09
   43.98000      1.5474542E-09
   44.04000      1.5322555E-09
   44.10000      1.5227519E-09
   44.16000      1.5158681E-09
   44.22000      1.5057704E-09
   44.28000      1.4853972E-09
   44.34000      1.4487714E-09
   44.40000      1.3932292E-09
   44.46000      1.3204795E-09
   44.52000      1.2358068E-09
   44.58000      1.1456206E-09
   44.64000      1.0544456E-09
   44.70000      9.6279196E-10
   44.76000      8.6692731E-10
   44.82000      7.6061629E-10
   44.88000      6.3793404E-10
   44.94000      4.9582705E-10
   45.00000      3.3534506E-10
   45.06000      1.6119073E-10
   45.12000     -2.0024638E-11
   45.18000     -2.0201898E-10
   45.24000     -3.8078463E-10
   45.30000     -5.5572447E-10
   45.36000     -7.2976664E-10
   45.42000     -9.0846397E-10
   45.48000     -1.0982585E-09
   45.54000     -1.3042981E-09
   45.60000     -1.5284196E-09
   45.66000     -1.7680168E-09
   45.72000     -2.0163275E-09
   45.78000     -2.2641806E-09
   45.84000     -2.5026372E-09
   45.90000     -2.7255451E-09
   45.96000     -2.9310701E-09
   46.02000     -3.1217187E-09
   46.08000     -3.3030245E-09
   46.14000     -3.4815444E-09
   46.20000     -3.6629193E-09
   46.26000     -3.8505283E-09
   46.32000     -4.0449017E-09
   46.38000     -4.2438151E-09
   46.44000     -4.4429154E-09
   46.50000     -4.6367532E-09
   46.56000     -4.8200599E-09
   46.62000     -4.9889954E-09
   46.68000     -5.1419629E-09
   46.74000     -5.2796225E-09
   46.80000     -5.4040097E-09
   46.86000     -5.5170797E-09
   46.92000     -5.6192961E-09
   46.98000     -5.7089076E-09
   47.04000     -5.7822445E-09
   47.10000     -5.8348841E-09
   47.16000     -5.8631624E-09
   47.22000     -5.8654135E-09
   47.28000     -5.8425007E-09
   47.34000     -5.7975407E-09
   47.40000     -5.7350009E-09
   47.46000     -5.6594969E-09
   47.52000     -5.5746412E-09
   47.58000     -5.4822276E-09
   47.64000     -5.3819922E-09
   47.70000     -5.2720477E-09
   47.76000     -5.1499112E-09
   47.82000     -5.0137863E-09
   47.88000     -4.8635953E-09
   47.94000     -4.7012794E-09
   48.00000     -4.5301802E-09
   48.06000     -4.3537414E-09
   48.12000     -4.1741322E-09
   48.18000     -3.9914418E-09
   48.24000     -3.8038293E-09
   48.30000     -3.6085364E-09
   48.36000     -3.4032750E-09
   48.42000     -3.1873417E-09
   48.48000     -2.9620040E-09
   48.54000     -2.7300455E-09
   48.60000     -2.4947118E-09
   48.66000     -2.2584996E-09
   48.72000     -2.0222539E-09
   48.78000     -1.7849325E-09
   48.84000     -1.5441923E-09
   48.90000     -1.2977012E-09
   48.96000     -1.0447807E-09
   49.02000     -7.8773926E-10
   49.08000     -5.3221966E-10
   49.14000     -2.8616209E-10
   49.20000     -5.7569203E-11
   49.26000      1.4810801E-10
   49.32000      3.2980849E-10
   49.38000      4.9099996E-10
   49.44000      6.3795164E-10
   49.50000      7.7689305E-10
   49.56000      9.1138075E-10
   49.62000      1.0410781E-09
   49.68000      1.1623924E-09
   49.74000      1.2704563E-09
   49.80000      1.3613288E-09
   49.86000      1.4333461E-09
   49.92000      1.4871797E-09
   49.98000      1.5249189E-09
   50.04000      1.5489080E-09
   50.10000      1.5609631E-09
   50.16000      1.5621276E-09
   50.22000      1.5527096E-09
   50.28000      1.5322744E-09
   50.34000      1.4995277E-09
   50.40000      1.4523545E-09
   50.46000      1.3883380E-09
   50.52000      1.3057928E-09
   50.58000      1.2048919E-09
   50.64000      1.0882131E-09
   50.70000      9.6022112E-10
   50.76000      8.2574270E-10
   50.82000      6.8809214E-10
   50.88000      5.4775756E-10
   50.94000      4.0231926E-10
   51.00000      2.4767804E-10
   51.06000      8.0062429E-11
   51.12000     -1.0202820E-10
   51.18000     -2.9669561E-10
   51.24000     -4.9869037E-10
   51.30000     -7.0052630E-10
   51.36000     -8.9418756E-10
   51.42000     -1.0727819E-09
   51.48000     -1.2315285E-09
   51.54000     -1.3677104E-09
   51.60000     -1.4796173E-09
   51.66000     -1.5649562E-09
   51.72000     -1.6195131E-09
   51.78000     -1.6368107E-09
   51.84000     -1.6090368E-09
   51.90000     -1.5288261E-09
   51.96000     -1.3909278E-09
   52.02000     -1.1927570E-09
   52.08000     -9.3338326E-10
   52.14000     -6.1140687E-10
   52.20000     -2.2282259E-10
   52.26000      2.3998700E-10
   52.32000      7.8762524E-10
   52.38000      1.4318381E-09
   52.44000      2.1834841E-09
   52.50000      3.0513398E-09
   52.56000      4.0421417E-09
   52.62000      5.1615046E-09
   52.68000      6.4149979E-09
   52.74000      7.8087652E-09
   52.80000      9.3495309E-09
   52.86000      1.1044276E-08
   52.92000      1.2899875E-08
   52.98000      1.4922826E-08
   53.04000      1.7118873E-08
   53.10000      1.9492379E-08
   53.16000      2.2045519E-08
   53.22000      2.4777671E-08
   53.28000      2.7685305E-08
   53.34000      3.0762411E-08
   53.40000      3.4001062E-08
   53.46000      3.7391580E-08
   53.52000      4.0922156E-08
   53.58000      4.4578226E-08
   53.64000      4.8342198E-08
   53.70000      5.2193908E-08
   53.76000      5.6111592E-08
   53.82000      6.0072665E-08
   53.88000      6.4053502E-08
   53.94000      6.8028271E-08
   54.00000      7.1967399E-08
   54.06000      7.5836979E-08
   54.12000      7.9599545E-08
   54.18000      8.3216044E-08
   54.24000      8.6647631E-08
   54.30000      8.9856123E-08
   54.36000      9.2802736E-08
   54.42000      9.5445934E-08
   54.48000      9.7739999E-08
   54.54000      9.9635344E-08
   54.60000      1.0108065E-07
   54.66000      1.0202545E-07
   54.72000      1.0242188E-07
   54.78000      1.0222489E-07
   54.84000      1.0139147E-07
   54.90000      9.9880076E-08
   54.96000      9.7650997E-08
   55.02000      9.4667527E-08
   55.08000      9.0896684E-08
   55.14000      8.6308511E-08
   55.20000      8.0874173E-08
   55.26000      7.4564127E-08
   55.32000      6.7348203E-08
   55.38000      5.9198349E-08
   55.44000      5.0093046E-08
   55.50000      4.0021249E-08
   55.56000      2.8983672E-08