 -0.750000000       0.00000000    
 -0.689999998       0.00000000    
 -0.629999995       0.00000000    
 -0.569999993       0.00000000    
 -0.509999990       0.00000000    
 -0.449999988       1.71825301E-20
 -0.389999986       1.31274959E-19
 -0.330000013       5.06848458E-19
 -0.270000011       1.27882485E-18
 -0.209999993       2.23171075E-18
 -0.150000006       2.38522327E-18
  -9.00000036E-02  -1.91274970E-19
  -2.99999993E-02  -7.94156502E-18
   2.99999993E-02  -2.25096441E-17
   9.00000036E-02  -4.26006387E-17
  0.150000006      -6.14709478E-17
  0.209999993      -6.50492187E-17
  0.270000011      -3.23987753E-17
  0.330000013       5.91820398E-17
  0.389999986       2.22431275E-16
  0.449999988       4.41972792E-16
  0.509999990       6.54543704E-16
  0.569999993       7.38498592E-16
  0.629999995       5.28223775E-16
  0.689999998      -1.32147635E-16
  0.750000000      -1.29326102E-15
  0.810000002      -2.78497149E-15
  0.870000005      -4.13284697E-15
  0.930000007      -4.58027772E-15
  0.990000010      -3.28036358E-15
   1.04999995       3.34681087E-16
   1.11000001       6.09713543E-15
   1.16999996       1.27536658E-14
   1.23000002       1.79602461E-14
   1.28999996       1.87926016E-14
   1.35000002       1.27512264E-14
   1.40999997      -1.01210326E-15
   1.47000003      -2.07124797E-14
   1.52999997      -4.16770974E-14
   1.59000003      -5.70974068E-14
   1.64999998      -5.97190008E-14
   1.71000004      -4.40600789E-14
   1.76999998      -8.56611535E-15
   1.83000004       4.28715731E-14
   1.88999999       1.00458534E-13
   1.95000005       1.49379004E-13
   2.00999999       1.72198478E-13
   2.06999993       1.52828786E-13
   2.13000011       8.17333194E-14
   2.19000006      -3.86235132E-14
   2.25000000      -1.89874795E-13
   2.30999994      -3.37627170E-13
   2.36999989      -4.36879157E-13
   2.43000007      -4.43136630E-13
   2.49000001      -3.26996134E-13
   2.54999995      -8.77698386E-14
   2.60999990       2.39123852E-13
   2.67000008       5.85036522E-13
   2.73000002       8.62088179E-13
   2.78999996       9.85159545E-13
   2.84999990       8.95585960E-13
   2.91000009       5.79301852E-13
   2.97000003       7.38877343E-14
   3.02999997      -5.37343770E-13
   3.08999991      -1.14193670E-12
   3.15000010      -1.62028984E-12
   3.21000004      -1.86705686E-12
   3.26999998      -1.80749480E-12
   3.32999992      -1.40725268E-12
   3.39000010      -6.76964019E-13
   3.45000005       3.25576290E-13
   3.50999999       1.49364982E-12
   3.56999993       2.67093552E-12
   3.63000011       3.65586164E-12
   3.69000006       4.21691328E-12
   3.75000000       4.12387745E-12
   3.80999994       3.19557011E-12
   3.86999989       1.35772350E-12
   3.93000007      -1.30205200E-12
   3.99000001      -4.49898972E-12
   4.05000019      -7.75077572E-12
   4.11000013      -1.04203556E-11
   4.17000008      -1.18001321E-11
   4.23000002      -1.12259429E-11
   4.28999996      -8.20277787E-12
   4.34999990      -2.52256159E-12
   4.40999985       5.64356764E-12
   4.46999979       1.56924959E-11
   4.53000021       2.65872272E-11
   4.59000015       3.69155193E-11
   4.65000010       4.50160881E-11
   4.71000004       4.91726347E-11
   4.76999998       4.78630330E-11
   4.82999992       4.00331331E-11
   4.88999987       2.53472850E-11
   4.94999981       4.35825768E-12
   5.01000023      -2.14545152E-11
   5.07000017      -4.98065374E-11
   5.13000011      -7.78816872E-11
   5.19000006      -1.02711742E-10
   5.25000000      -1.21590724E-10
   5.30999994      -1.32448288E-10
   5.36999989      -1.34125627E-10
   5.42999983      -1.26530703E-10
   5.48999977      -1.10682158E-10
   5.55000019      -8.86688153E-11
   5.61000013      -6.35450581E-11
   5.67000008      -3.91611951E-11
   5.73000002      -1.99036985E-11
   5.78999996      -1.03156277E-11
   5.84999990      -1.45916022E-11
   5.90999985      -3.59917166E-11
   5.96999979      -7.62756247E-11
   6.03000021      -1.35294151E-10
   6.09000015      -2.10867643E-10
   6.15000010      -2.99024194E-10
   6.21000004      -3.94574540E-10
   6.26999998      -4.91903407E-10
   6.32999992      -5.85786919E-10
   6.38999987      -6.72036149E-10
   6.44999981      -7.47819640E-10
   6.51000023      -8.11621770E-10
   6.57000017      -8.62906691E-10
   6.63000011      -9.01646480E-10
   6.69000006      -9.27901533E-10
   6.75000000      -9.41602685E-10
   6.80999994      -9.42596334E-10
   6.86999989      -9.30906685E-10
   6.92999983      -9.07085185E-10
   6.98999977      -8.72491357E-10
   7.05000019      -8.29381008E-10
   7.11000013      -7.80757348E-10
   7.17000008      -7.30025873E-10
   7.23000002      -6.80558776E-10
   7.28999996      -6.35287101E-10
   7.34999990      -5.96410976E-10
   7.40999985      -5.65265501E-10
   7.46999979      -5.42327461E-10
   7.53000021      -5.27319910E-10
   7.59000015      -5.19366938E-10
   7.65000010      -5.17160426E-10
   7.71000004      -5.19113974E-10
   7.76999998      -5.23483645E-10
   7.82999992      -5.28437905E-10
   7.88999987      -5.32065891E-10
   7.94999981      -5.32327460E-10
   8.01000023      -5.26976962E-10
   8.06999969      -5.13511400E-10
   8.13000011      -4.89202179E-10
   8.18999958      -4.51253285E-10
   8.25000000      -3.97092581E-10
   8.31000042      -3.24753530E-10
   8.36999989      -2.33263187E-10
   8.43000031      -1.22924990E-10
   8.48999977       4.61088416E-12
   8.55000019       1.46554324E-10
   8.60999966       2.99448771E-10
   8.67000008       4.59803778E-10
   8.72999954       6.24693797E-10
   8.78999996       7.92093946E-10
   8.85000038       9.60771573E-10
   8.90999985       1.12968912E-09
   8.97000027       1.29706579E-09
   9.02999973       1.45941736E-09
   9.09000015       1.61097691E-09
   9.14999962       1.74382764E-09
   9.21000004       1.84887639E-09
   9.27000046       1.91750904E-09
   9.32999992       1.94352179E-09
   9.39000034       1.92479388E-09
   9.44999981       1.86420790E-09
   9.51000023       1.76952941E-09
   9.56999969       1.65222191E-09
   9.63000011       1.52545354E-09
   9.68999958       1.40172707E-09
   9.75000000       1.29063882E-09
   9.81000042       1.19721932E-09
   9.86999989       1.12117771E-09
   9.93000031       1.05717834E-09
   9.98999977       9.96085880E-10
   10.0500002       9.26926147E-10
   10.1099997       8.39184222E-10
   10.1700001       7.25002003E-10
   10.2299995       5.80865578E-10
   10.2900000       4.08474893E-10
   10.3500004       2.14648077E-10
   10.4099998       1.02887343E-11
   10.4700003      -1.91385061E-10
   10.5299997      -3.77015613E-10
   10.5900002      -5.35268441E-10
   10.6499996      -6.58559429E-10
   10.7100000      -7.43999973E-10
   10.7700005      -7.93378141E-10
   10.8299999      -8.12218126E-10
   10.8900003      -8.08185685E-10
   10.9499998      -7.89271426E-10
   11.0100002      -7.62219565E-10
   11.0699997      -7.31569527E-10
   11.1300001      -6.99466762E-10
   11.1899996      -6.66161182E-10
   11.2500000      -6.30919261E-10
   11.3100004      -5.92995208E-10
   11.3699999      -5.52349055E-10
   11.4300003      -5.09939535E-10
   11.4899998      -4.67597183E-10
   11.5500002      -4.27647501E-10
   11.6099997      -3.92542887E-10
   11.6700001      -3.64746705E-10
   11.7299995      -3.46986440E-10
   11.7900000      -3.42785578E-10
   11.8500004      -3.56971924E-10
   11.9099998      -3.95745409E-10
   11.9700003      -4.65955496E-10
   12.0299997      -5.73516790E-10
   12.0900002      -7.21292914E-10
   12.1499996      -9.07142583E-10
   12.2100000      -1.12294996E-09
   12.2700005      -1.35524114E-09
   12.3299999      -1.58745406E-09
   12.3900003      -1.80328819E-09
   12.4499998      -1.99008454E-09
   12.5100002      -2.14111306E-09
   12.5699997      -2.25602648E-09
   12.6300001      -2.33942821E-09
   12.6899996      -2.39818276E-09
   12.7500000      -2.43850340E-09
   12.8100004      -2.46380383E-09
   12.8699999      -2.47388066E-09
   12.9300003      -2.46541720E-09
   12.9899998      -2.43333753E-09
   13.0500002      -2.37237696E-09
   13.1099997      -2.27835972E-09
   13.1700001      -2.14897722E-09
   13.2299995      -1.98413308E-09
   13.2900000      -1.78603810E-09
   13.3500004      -1.55919677E-09
   13.4099998      -1.31028366E-09
   13.4700003      -1.04780284E-09
   13.5299997      -7.81414600E-10
   13.5900002      -5.20911481E-10
   13.6499996      -2.74963607E-10
   13.7100000      -4.98686578E-11
   13.7700005       1.51421306E-10
   13.8299999       3.29755112E-10
   13.8900003       4.89566221E-10
   13.9499998       6.37942699E-10
   14.0100002       7.83072995E-10
   14.0699997       9.32308120E-10
   14.1300001       1.09022258E-09
   14.1899996       1.25714350E-09
   14.2500000       1.42859213E-09
   14.3100004       1.59589109E-09
   14.3699999       1.74787096E-09
   14.4300003       1.87325067E-09
   14.4899998       1.96300864E-09
   14.5500002       2.01202699E-09
   14.6099997       2.01952877E-09
   14.6700001       1.98825001E-09
   14.7299995       1.92275351E-09
   14.7900000       1.82758775E-09
   14.8500004       1.70602066E-09
   14.9099998       1.55979440E-09
   14.9700003       1.38990142E-09
   15.0299997       1.19793842E-09
   15.0900002       9.87366744E-10
   15.1499996       7.64056429E-10
   15.2100000       5.35820055E-10
   15.2700005       3.11068504E-10
   15.3299999       9.70772768E-11
   15.3900003      -1.01516275E-10
   15.4499998      -2.83490731E-10
   15.5100002      -4.50904120E-10
   15.5699997      -6.08188389E-10
   15.6300001      -7.60835783E-10
   15.6899996      -9.14071929E-10
   15.7500000      -1.07178988E-09
   15.8100004      -1.23585098E-09
   15.8699999      -1.40573897E-09
   15.9300003      -1.57853575E-09
   15.9899998      -1.74923198E-09
   16.0499992      -1.91141858E-09
   16.1100006      -2.05834794E-09
   16.1700001      -2.18421703E-09
   16.2299995      -2.28536279E-09
   16.2900009      -2.36101427E-09
   16.3500004      -2.41332820E-09
   16.4099998      -2.44669818E-09
   16.4699993      -2.46657872E-09
   16.5300007      -2.47825849E-09
   16.5900002      -2.48596943E-09
   16.6499996      -2.49254062E-09
   16.7099991      -2.49952836E-09
   16.7700005      -2.50758503E-09
   16.8299999      -2.51681476E-09
   16.8899994      -2.52700816E-09
   16.9500008      -2.53783150E-09
   17.0100002      -2.54912735E-09
   17.0699997      -2.56141863E-09
   17.1299992      -2.57651722E-09
   17.1900005      -2.59795652E-09
   17.2500000      -2.63093147E-09
   17.3099995      -2.68157541E-09
   17.3700008      -2.75567524E-09
   17.4300003      -2.85717960E-09
   17.4899998      -2.98696290E-09
   17.5499992      -3.14220938E-09
   17.6100006      -3.31655214E-09
   17.6700001      -3.50083917E-09
   17.7299995      -3.68427244E-09
   17.7900009      -3.85564070E-09
   17.8500004      -4.00448386E-09
   17.9099998      -4.12211909E-09
   17.9699993      -4.20250146E-09
   18.0300007      -4.24285806E-09
   18.0900002      -4.24397895E-09
   18.1499996      -4.21002833E-09
   18.2099991      -4.14782564E-09
   18.2700005      -4.06566603E-09
   18.3299999      -3.97189126E-09
   18.3899994      -3.87350285E-09
   18.4500008      -3.77508735E-09
   18.5100002      -3.67825725E-09
   18.5699997      -3.58169028E-09
   18.6299992      -3.48174223E-09
   18.6900005      -3.37352968E-09
   18.7500000      -3.25228222E-09
   18.8099995      -3.11470250E-09
   18.8700008      -2.96002822E-09
   18.9300003      -2.79050627E-09
   18.9899998      -2.61109467E-09
   19.0499992      -2.42839526E-09
   19.1100006      -2.24903296E-09
   19.1700001      -2.07789097E-09
   19.2299995      -1.91670146E-09
   19.2900009      -1.76343606E-09
   19.3500004      -1.61276159E-09
   19.4099998      -1.45753931E-09
   19.4699993      -1.29102762E-09
   19.5300007      -1.10920217E-09
   19.5900002      -9.12496578E-10
   19.6499996      -7.06378622E-10
   19.7099991      -5.00490371E-10
   19.7700005      -3.06530495E-10
   19.8299999      -1.35478448E-10
   19.8899994       4.99806186E-12
   19.9500008       1.12167407E-10
   20.0100002       1.88438362E-10
   20.0699997       2.40178655E-10
   20.1299992       2.75620693E-10
   20.1900005       3.02554454E-10
   20.2500000       3.26468602E-10
   20.3099995       3.49558882E-10
   20.3700008       3.70716319E-10
   20.4300003       3.86358834E-10
   20.4899998       3.91828930E-10
   20.5499992       3.83022114E-10
   20.6100006       3.57885221E-10
   20.6700001       3.17421728E-10
   20.7299995       2.65896638E-10
   20.7900009       2.10102505E-10
   20.8500004       1.57829430E-10
   20.9099998       1.15986179E-10
   20.9699993       8.90018406E-11
   21.0300007       7.80734921E-11
   21.0900002       8.15076409E-11
   21.1499996       9.59611071E-11
   21.2099991       1.18026922E-10
   21.2700005       1.45506121E-10
   21.3299999       1.77898321E-10
   21.3899994       2.16023643E-10
   21.4500008       2.61060812E-10
   21.5100002       3.13487208E-10
   21.5699997       3.72372688E-10
   21.6299992       4.35278119E-10
   21.6900005       4.98756980E-10
   21.7500000       5.59264468E-10
   21.8099995       6.14183093E-10
   21.8700008       6.62667532E-10
   21.9300003       7.06064707E-10
   21.9899998       7.47764128E-10
   22.0499992       7.92480526E-10
   22.1100006       8.45136849E-10
   22.1700001       9.09659292E-10
   22.2299995       9.88039095E-10
   22.2900009       1.07992637E-09
   22.3500004       1.18282562E-09
   22.4099998       1.29275657E-09
   22.4699993       1.40512291E-09
   22.5300007       1.51554547E-09
   22.5900002       1.62051994E-09
   22.6499996       1.71786008E-09
   22.7099991       1.80692139E-09
   22.7700005       1.88856331E-09
   22.8299999       1.96478811E-09
   22.8899994       2.03805373E-09
   22.9500008       2.11041029E-09
   23.0100002       2.18276397E-09
   23.0699997       2.25458852E-09
   23.1299992       2.32422703E-09
   23.1900005       2.38962761E-09
   23.2500000       2.44909781E-09
   23.3099995       2.50163801E-09
   23.3700008       2.54664956E-09
   23.4300003       2.58319344E-09
   23.4899998       2.60927546E-09
   23.5499992       2.62163202E-09
   23.6100006       2.61622035E-09
   23.6700001       2.58920063E-09
   23.7299995       2.53791366E-09
   23.7900009       2.46139531E-09
   23.8500004       2.36025355E-09
   23.9099998       2.23612306E-09
   23.9699993       2.09112905E-09
   24.0300007       1.92771665E-09
   24.0900002       1.74890513E-09
   24.1499996       1.55869262E-09
   24.2099991       1.36220069E-09
   24.2700005       1.16526877E-09
   24.3299999       9.73516268E-10
   24.3899994       7.91198052E-10
   24.4500008       6.20308638E-10
   24.5100002       4.60302907E-10
   24.5699997       3.08538139E-10
   24.6299992       1.61259658E-10
   24.6900005       1.47619798E-11
   24.7500000      -1.33680192E-10
   24.8099995      -2.85406421E-10
   24.8700008      -4.40575076E-10
   24.9300003      -5.98832983E-10
   24.9899998      -7.60121299E-10
   25.0499992      -9.25237331E-10
   25.1100006      -1.09587783E-09
   25.1700001      -1.27414090E-09
   25.2299995      -1.46173995E-09
   25.2900009      -1.65934777E-09
   25.3500004      -1.86642768E-09
   25.4099998      -2.08163931E-09
   25.4699993      -2.30356445E-09
   25.5300007      -2.53130472E-09
   25.5900002      -2.76456902E-09
   25.6499996      -3.00319125E-09
   25.7099991      -3.24638494E-09
   25.7700005      -3.49222651E-09
   25.8299999      -3.73773679E-09
   25.8899994      -3.97956113E-09
   25.9500008      -4.21489199E-09
   26.0100002      -4.44212622E-09
   26.0699997      -4.66093697E-09
   26.1299992      -4.87180918E-09
   26.1900005      -5.07540809E-09
   26.2500000      -5.27217914E-09
   26.3099995      -5.46238077E-09
   26.3700008      -5.64637270E-09
   26.4300003      -5.82479087E-09
   26.4899998      -5.99829963E-09
   26.5499992      -6.16693452E-09
   26.6100006      -6.32935482E-09
   26.6700001      -6.48250387E-09
   26.7299995      -6.62198474E-09
   26.7900009      -6.74312606E-09
   26.8500004      -6.84235113E-09
   26.9099998      -6.91829793E-09
   26.9699993      -6.97224900E-09
   27.0300007      -7.00772285E-09
   27.0900002      -7.02939307E-09
   27.1499996      -7.04171566E-09
   27.2099991      -7.04769931E-09
   27.2700005      -7.04816516E-09
   27.3299999      -7.04167169E-09
   27.3899994      -7.02508585E-09
   27.4500008      -6.99460356E-09
   27.5100002      -6.94688840E-09
   27.5699997      -6.87998192E-09
   27.6299992      -6.79372691E-09
   27.6900005      -6.68963374E-09
   27.7500000      -6.57033095E-09
   27.8099995      -6.43886588E-09
   27.8700008      -6.29809715E-09
   27.9300003      -6.15030427E-09
   27.9899998      -5.99698868E-09
   28.0499992      -5.83877791E-09
   28.1100006      -5.67540903E-09
   28.1700001      -5.50582868E-09
   28.2299995      -5.32850164E-09
   28.2900009      -5.14191356E-09
   28.3500004      -4.94511943E-09
   28.4099998      -4.73807926E-09
   28.4699993      -4.52160220E-09
   28.5300007      -4.29692104E-09
   28.5900002      -4.06516865E-09
   28.6499996      -3.82710486E-09
   28.7099991      -3.58330299E-09
   28.7700005      -3.33468231E-09
   28.8299999      -3.08300052E-09
   28.8899994      -2.83087376E-09
   28.9500008      -2.58112420E-09
   29.0100002      -2.33567832E-09
   29.0699997      -2.09455120E-09
   29.1299992      -1.85551829E-09
   29.1900005      -1.61478786E-09
   29.2500000      -1.36852885E-09
   29.3099995      -1.11469600E-09
   29.3700008      -8.54433913E-10
   29.4300003      -5.92490612E-10
   29.4899998      -3.36447231E-10
   29.5499992      -9.49938600E-11
   29.6100006       1.24196528E-10
   29.6700001       3.16326576E-10
   29.7299995       4.80488371E-10
   29.7900009       6.19530538E-10
   29.8500004       7.38844597E-10
   29.9099998       8.44496362E-10
   29.9699993       9.41353551E-10
   30.0300007       1.03185105E-09
   30.0900002       1.11577358E-09
   30.1499996       1.19101518E-09
   30.2099991       1.25488642E-09
   30.2700005       1.30535349E-09
   30.3299999       1.34170830E-09
   30.3899994       1.36449751E-09
   30.4500008       1.37490119E-09
   30.5100002       1.37395595E-09
   30.5699997       1.36199796E-09
   30.6299992       1.33849731E-09
   30.6900005       1.30224587E-09
   30.7500000       1.25174071E-09
   30.8099995       1.18562082E-09
   30.8700008       1.10307430E-09
   30.9300003       1.00417019E-09
   30.9899998       8.90037988E-10
   31.0499992       7.62794161E-10
   31.1100006       6.25156982E-10
   31.1700001       4.79834839E-10
   31.2299995       3.28929384E-10
   31.2900009       1.73650552E-10
   31.3500004       1.45203615E-11
   31.4099998      -1.48011436E-10
   31.4699993      -3.12851717E-10
   31.5300007      -4.77831830E-10
   31.5900002      -6.39793774E-10
   31.6499996      -7.95154165E-10
   31.7099991      -9.40667655E-10
   31.7700005      -1.07404285E-09
   31.8299999      -1.19418375E-09
   31.8899994      -1.30102795E-09
   31.9500008      -1.39510936E-09
   32.0099983      -1.47701695E-09
   32.0699997      -1.54687396E-09
   32.1300011      -1.60392333E-09
   32.1899986      -1.64630187E-09
   32.2500000      -1.67110603E-09
   32.3100014      -1.67481884E-09
   32.3699989      -1.65404734E-09
   32.4300003      -1.60635616E-09
   32.4900017      -1.53088942E-09
   32.5499992      -1.42854328E-09
   32.6100006      -1.30165168E-09
   32.6699982      -1.15338361E-09
   32.7299995      -9.87142701E-10
   32.7900009      -8.06178513E-10
   32.8499985      -6.13409101E-10
   32.9099998      -4.11309903E-10
   32.9700012      -2.01726746E-10
   33.0299988       1.43659251E-11
   33.0900002       2.36975273E-10
   33.1500015       4.66869599E-10
   33.2099991       7.04999892E-10
   33.2700005       9.51787982E-10
   33.3300018       1.20663712E-09
   33.3899994       1.46791312E-09
   33.4500008       1.73335246E-09
   33.5099983       2.00058814E-09
   33.5699997       2.26742469E-09
   33.6300011       2.53171772E-09
   33.6899986       2.79103096E-09
   33.7500000       3.04244541E-09
   33.8100014       3.28279892E-09
   33.8699989       3.50931595E-09
   33.9300003       3.72026521E-09
   33.9900017       3.91520860E-09
   34.0499992       4.09462553E-09
   34.1100006       4.25909530E-09
   34.1699982       4.40849135E-09
   34.2299995       4.54160842E-09
   34.2900009       4.65636774E-09
   34.3499985       4.75036055E-09
   34.4099998       4.82137530E-09
   34.4700012       4.86764762E-09
   34.5299988       4.88786478E-09
   34.5900002       4.88116569E-09
   34.6500015       4.84731322E-09
   34.7099991       4.78700413E-09
   34.7700005       4.70202766E-09
   34.8300018       4.59499416E-09
   34.8899994       4.46859882E-09
   34.9500008       4.32473879E-09
   35.0099983       4.16398516E-09
   35.0699997       3.98575795E-09
   35.1300011       3.78915299E-09
   35.1899986       3.57397623E-09
   35.2500000       3.34139338E-09
   35.3100014       3.09385206E-09
   35.3699989       2.83435431E-09
   35.4300003       2.56552135E-09
   35.4900017       2.28896302E-09
   35.5499992       2.00521511E-09
   35.6100006       1.71415560E-09
   35.6699982       1.41555789E-09
   35.7299995       1.10946774E-09
   35.7900009       7.96292310E-10
   35.8499985       4.76727824E-10
   35.9099998       1.51729143E-10
   35.9700012      -1.77375781E-10
   36.0299988      -5.08701858E-10
   36.0900002      -8.39735448E-10
   36.1500015      -1.16750731E-09
   36.2099991      -1.48898627E-09
   36.2700005      -1.80152415E-09
   36.3300018      -2.10315254E-09
   36.3899994      -2.39262210E-09
   36.4500008      -2.66922684E-09
   36.5099983      -2.93254243E-09
   36.5699997      -3.18221871E-09
   36.6300011      -3.41789086E-09
   36.6899986      -3.63920338E-09
   36.7500000      -3.84589693E-09
   36.8100014      -4.03791445E-09
   36.8699989      -4.21548663E-09
   36.9300003      -4.37915704E-09
   36.9900017      -4.52969795E-09
   37.0499992      -4.66788874E-09
   37.1100006      -4.79419926E-09
   37.1699982      -4.90847274E-09
   37.2299995      -5.00976638E-09
   37.2900009      -5.09644638E-09
   37.3499985      -5.16654186E-09
   37.4099998      -5.21826893E-09
   37.4700012      -5.25055199E-09
   37.5299988      -5.26340083E-09
   37.5900002      -5.25805000E-09
   37.6500015      -5.23682520E-09
   37.7099991      -5.20276178E-09
   37.7700005      -5.15903897E-09
   37.8300018      -5.10833909E-09
   37.8899994      -5.05232212E-09
   37.9500008      -4.99138508E-09
   38.0099983      -4.92480812E-09
   38.0699997      -4.85124563E-09
   38.1300011      -4.76934403E-09
   38.1899986      -4.67822092E-09
   38.2500000      -4.57765559E-09
   38.3100014      -4.46800419E-09
   38.3699989      -4.35004344E-09
   38.4300003      -4.22492263E-09
   38.4900017      -4.09426093E-09
   38.5499992      -3.96020372E-09
   38.6100006      -3.82520771E-09
   38.6699982      -3.69146136E-09
   38.7299995      -3.56013152E-09
   38.7900009      -3.43086315E-09
   38.8499985      -3.30188810E-09
   38.9099998      -3.17079185E-09
   38.9700012      -3.03556913E-09
   39.0299988      -2.89539859E-09
   39.0900002      -2.75070877E-09
   39.1500015      -2.60256661E-09
   39.2099991      -2.45184917E-09
   39.2700005      -2.29881802E-09
   39.3300018      -2.14342100E-09
   39.3899994      -1.98614170E-09
   39.4500008      -1.82880422E-09
   39.5099983      -1.67471359E-09
   39.5699997      -1.52789570E-09
   39.6300011      -1.39173950E-09
   39.6899986      -1.26768684E-09
   39.7500000      -1.15456478E-09
   39.8100014      -1.04878162E-09
   39.8699989      -9.45178824E-10
   39.9300003      -8.38117742E-10
   39.9900017      -7.22467475E-10
   40.0499992      -5.94394811E-10
   40.1100006      -4.52009291E-10
   40.1699982      -2.95866581E-10
   40.2299995      -1.29154701E-10
   40.2900009       4.26992955E-11
   40.3499985       2.13113957E-10
   40.4099998       3.75890902E-10
   40.4700012       5.26648558E-10
   40.5299988       6.63556710E-10
   40.5900002       7.87090337E-10
   40.6500015       8.99009034E-10
   40.7099991       1.00113828E-09
   40.7700005       1.09454623E-09
   40.8300018       1.17939658E-09
   40.8899994       1.25534405E-09
   40.9500008       1.32209466E-09
   41.0099983       1.37980494E-09
   41.0699997       1.42923229E-09
   41.1300011       1.47174906E-09
   41.1899986       1.50934165E-09
   41.2500000       1.54455759E-09
   41.3100014       1.58023961E-09
   41.3699989       1.61893965E-09
   41.4300003       1.66216096E-09
   41.4900017       1.70981440E-09
   41.5499992       1.76027914E-09
   41.6100006       1.81115611E-09
   41.6699982       1.86035543E-09
   41.7299995       1.90689464E-09
   41.7900009       1.95090810E-09
   41.8499985       1.99285211E-09
   41.9099998       2.03241401E-09
   41.9700012       2.06785988E-09
   42.0299988       2.09629136E-09
   42.0900002       2.11472484E-09
   42.1500015       2.12139928E-09
   42.2099991       2.11659756E-09
   42.2700005       2.10259898E-09
   42.3300018       2.08290363E-09
   42.3899994       2.06123874E-09
   42.4500008       2.04084616E-09
   42.5099983       2.02422257E-09
   42.5699997       2.01312012E-09
   42.6300011       2.00849182E-09
   42.6899986       2.01024442E-09
   42.7500000       2.01696904E-09
   42.8100014       2.02597272E-09
   42.8699989       2.03379869E-09
   42.9300003       2.03710759E-09
   42.9900017       2.03350492E-09
   43.0499992       2.02192174E-09
   43.1100006       2.00242067E-09
   43.1699982       1.97565408E-09
   43.2299995       1.94236383E-09
   43.2900009       1.90318694E-09
   43.3499985       1.85874183E-09
   43.4099998       1.80975146E-09
   43.4700012       1.75698578E-09
   43.5299988       1.70104042E-09
   43.5900002       1.64218084E-09
   43.6500015       1.58048052E-09
   43.7099991       1.51623347E-09
   43.7700005       1.45032375E-09
   43.8300018       1.38416056E-09
   43.8899994       1.31904510E-09
   43.9500008       1.25528110E-09
   44.0099983       1.19164889E-09
   44.0699997       1.12576160E-09
   44.1300011       1.05531484E-09
   44.1899986       9.79642811E-10
   44.2500000       9.00704511E-10
   44.3100014       8.22872825E-10
   44.3699989       7.51556484E-10
   44.4300003       6.91350033E-10
   44.4900017       6.44650611E-10
   44.5499992       6.11371842E-10
   44.6100006       5.89727323E-10
   44.6699982       5.77483339E-10
   44.7299995       5.72933423E-10
   44.7900009       5.75168746E-10
   44.8499985       5.83735948E-10
   44.9099998       5.98128436E-10
   44.9700012       6.17535578E-10
   45.0299988       6.40962505E-10
   45.0900002       6.67496669E-10
   45.1500015       6.96407432E-10
   45.2099991       7.26952054E-10
   45.2700005       7.58056118E-10
   45.3300018       7.88185184E-10
   45.3899994       8.15607470E-10
   45.4500008       8.38948744E-10
   45.5099983       8.57705185E-10
   45.5699997       8.72385053E-10
   45.6300011       8.84192664E-10
   45.6899986       8.94479324E-10
   45.7500000       9.04321396E-10
   45.8100014       9.14461118E-10
   45.8699989       9.25556465E-10
   45.9300003       9.38450762E-10
   45.9900017       9.54165524E-10
   46.0499992       9.73528258E-10
   46.1100006       9.96629668E-10
   46.1699982       1.02243880E-09
   46.2299995       1.04882469E-09
   46.2900009       1.07299114E-09
   46.3499985       1.09212395E-09
   46.4099998       1.10397835E-09
   46.4700012       1.10724507E-09
   46.5299988       1.10168719E-09
   46.5900002       1.08812481E-09
   46.6500015       1.06830766E-09
   46.7099991       1.04463882E-09
   46.7700005       1.01968811E-09
   46.8300018       9.95519001E-10
   46.8899994       9.72994685E-10
   46.9500008       9.51313583E-10
   47.0099983       9.27967092E-10
   47.0699997       8.99140762E-10
   47.1300011       8.60406968E-10
   47.1899986       8.07478362E-10
   47.2500000       7.36853967E-10
   47.3100014       6.46302178E-10
   47.3699989       5.35186229E-10
   47.4300003       4.04601574E-10
   47.4900017       2.57218968E-10
   47.5499992       9.67271194E-11
   47.6100006      -7.30841360E-11
   47.6699982      -2.49329335E-10
   47.7299995      -4.30692676E-10
   47.7900009      -6.17393636E-10
   47.8499985      -8.10403855E-10
   47.9099998      -1.01026609E-09
   47.9700012      -1.21611643E-09
   48.0299988      -1.42543721E-09
   48.0900002      -1.63470137E-09
   48.1500015      -1.84059901E-09
   48.2099991      -2.04123896E-09
   48.2700005      -2.23674279E-09
   48.3300018      -2.42895837E-09
   48.3899994      -2.62042876E-09
   48.4500008      -2.81304313E-09
   48.5099983      -3.00686009E-09
   48.5699997      -3.19945648E-09
   48.6300011      -3.38596862E-09
   48.6899986      -3.55980001E-09
   48.7500000      -3.71386211E-09
   48.8100014      -3.84209287E-09
   48.8699989      -3.94089072E-09
   48.9300003      -4.01001810E-09
   48.9900017      -4.05260181E-09
   49.0499992      -4.07409928E-09
   49.1100006      -4.08049994E-09
   49.1699982      -4.07636058E-09
   49.2299995      -4.06342249E-09
   49.2900009      -4.04034539E-09
   49.3499985      -4.00365252E-09
   49.4099998      -3.94949584E-09
   49.4700012      -3.87555943E-09
   49.5299988      -3.78239173E-09
   49.5900002      -3.67373443E-09
   49.6500015      -3.55577723E-09
   49.7099991      -3.43562068E-09
   49.7700005      -3.31943584E-09
   49.8300018      -3.21088667E-09
   49.8899994      -3.11030446E-09
   49.9500008      -3.01490677E-09
   50.0099983      -2.92004687E-09
   50.0699997      -2.82110069E-09
   50.1300011      -2.71532774E-09
   50.1899986      -2.60297162E-09
   50.2500000      -2.48712917E-09
   50.3100014      -2.37242737E-09
   50.3699989      -2.26307528E-09
   50.4300003      -2.16115148E-09
   50.4900017      -2.06585837E-09
   50.5499992      -1.97401073E-09
   50.6100006      -1.88144633E-09