  -2.400000      0.0000000E+00
  -2.340000      0.0000000E+00
  -2.280000      0.0000000E+00
  -2.220000      0.0000000E+00
  -2.160000      0.0000000E+00
  -2.100000     -1.0579964E-19
  -2.040000     -7.9123894E-19
  -1.980000     -2.9209288E-18
  -1.920000     -6.7333970E-18
  -1.860000     -9.5565276E-18
  -1.800000     -3.8923794E-18
  -1.740000      2.0675020E-17
  -1.680000      6.9074895E-17
  -1.620000      1.2804335E-16
  -1.560000      1.5819639E-16
  -1.500000      1.0306950E-16
  -1.440000     -7.9219273E-17
  -1.380000     -3.7233580E-16
  -1.320000     -6.7393981E-16
  -1.260000     -8.1497947E-16
  -1.200000     -6.3695506E-16
  -1.140000     -9.9161274E-17
  -1.080000      6.4670034E-16
  -1.020000      1.2789565E-15
 -0.9600000      1.4454614E-15
 -0.9000000      9.6707414E-16
 -0.8400000     -5.4191236E-18
 -0.7800000     -9.8875712E-16
 -0.7200000     -1.3532383E-15
 -0.6600000     -6.2538565E-16
 -0.6000000      1.2362399E-15
 -0.5400000      3.7238889E-15
 -0.4800000      5.8692111E-15
 -0.4200000      6.4929611E-15
 -0.3600000      4.5411761E-15
 -0.3000000     -5.2942799E-16
 -0.2400000     -8.3255538E-15
 -0.1800000     -1.7135598E-14
 -0.1200000     -2.3860237E-14
 -5.9999999E-02 -2.4660615E-14
  0.0000000E+00 -1.6575505E-14
  5.9999999E-02  2.1690633E-16
  0.1200000      2.0623343E-14
  0.1800000      3.4970284E-14
  0.2400000      3.2628766E-14
  0.3000000      8.4920830E-15
  0.3600000     -3.0374205E-14
  0.4200000     -6.2183670E-14
  0.4800000     -5.5798688E-14
  0.5400000      1.5265533E-14
  0.6000000      1.5433099E-13
  0.6600000      3.2694935E-13
  0.7200000      4.5965000E-13
  0.7800000      4.5777759E-13
  0.8400000      2.4044083E-13
  0.9000000     -2.1803108E-13
  0.9600000     -8.5623484E-13
   1.020000     -1.5189076E-12
   1.080000     -1.9835190E-12
   1.140000     -2.0173717E-12
   1.200000     -1.4513231E-12
   1.260000     -2.4927784E-13
   1.320000      1.4482169E-12
   1.380000      3.3227297E-12
   1.440000      4.9258206E-12
   1.500000      5.7707034E-12
   1.560000      5.4500271E-12
   1.620000      3.7521865E-12
   1.680000      7.4442340E-13
   1.740000     -3.2039310E-12
   1.800000     -7.4691902E-12
   1.860000     -1.1280324E-11
   1.920000     -1.3851920E-11
   1.980000     -1.4500330E-11
   2.040000     -1.2710797E-11
   2.100000     -8.1528517E-12
   2.160000     -6.7711185E-13
   2.220000      9.6510543E-12
   2.280000      2.2434020E-11
   2.340000      3.6736874E-11
   2.400000      5.0854147E-11
   2.460000      6.2159916E-11
   2.520000      6.7162879E-11
   2.580000      6.1839783E-11
   2.640000      4.2225397E-11
   2.700000      5.1317457E-12
   2.760000     -5.1197623E-11
   2.820000     -1.2668686E-10
   2.880000     -2.1938548E-10
   2.940000     -3.2576081E-10
   3.000000     -4.4118323E-10
   3.060000     -5.6040944E-10
   3.120000     -6.7790235E-10
   3.180000     -7.8793805E-10
   3.240000     -8.8457786E-10
   3.300000     -9.6167541E-10
   3.360000     -1.0130876E-09
   3.420000     -1.0331729E-09
   3.480000     -1.0175136E-09
   3.540000     -9.6367114E-10
   3.600000     -8.7172081E-10
   3.660000     -7.4435502E-10
   3.720000     -5.8647714E-10
   3.780000     -4.0437037E-10
   3.840000     -2.0466573E-10
   3.900000      6.6160640E-12
   3.960000      2.2472338E-10
   4.020000      4.4643286E-10
   4.080000      6.6996231E-10
   4.140000      8.9470553E-10
   4.200000      1.1209945E-09
   4.260000      1.3500376E-09
   4.320000      1.5840601E-09
   4.380000      1.8265337E-09
   4.440000      2.0822779E-09
   4.500000      2.3572071E-09
   4.560000      2.6575822E-09
   4.620000      2.9887959E-09
   4.680000      3.3539129E-09
   4.740000      3.7523424E-09
   4.800000      4.1790482E-09
   4.860000      4.6246100E-09
   4.920000      5.0762101E-09
   4.980000      5.5193508E-09
   5.040000      5.9398575E-09
   5.100000      6.3256493E-09
   5.160000      6.6678312E-09
   5.220000      6.9609341E-09
   5.280000      7.2024320E-09
   5.340000      7.3919302E-09
   5.400000      7.5304820E-09
   5.460000      7.6203772E-09
   5.520000      7.6654398E-09
   5.580000      7.6715931E-09
   5.640000      7.6472251E-09
   5.700000      7.6029547E-09
   5.760000      7.5506277E-09
   5.820000      7.5017255E-09
   5.880000      7.4656832E-09
   5.940000      7.4487070E-09
   6.000000      7.4535356E-09
   6.060000      7.4802209E-09
   6.120000      7.5275963E-09
   6.180000      7.5948172E-09
   6.240000      7.6823499E-09
   6.300000      7.7920079E-09
   6.360000      7.9260785E-09
   6.420000      8.0859728E-09
   6.480000      8.2710114E-09
   6.540000      8.4779224E-09
   6.600000      8.7012246E-09
   6.660000      8.9343182E-09
   6.720000      9.1707104E-09
   6.780000      9.4047845E-09
   6.840000      9.6317159E-09
   6.900000      9.8465476E-09
   6.960000      1.0042864E-08
   7.020000      1.0211727E-08
   7.080000      1.0341445E-08
   7.140000      1.0418492E-08
   7.200000      1.0429385E-08
   7.260000      1.0362987E-08
   7.320000      1.0212552E-08
   7.380000      9.9769126E-09
   7.440000      9.6605550E-09
   7.500000      9.2726351E-09
   7.560000      8.8253547E-09
   7.620000      8.3321741E-09
   7.680000      7.8063200E-09
   7.740000      7.2598345E-09
   7.800000      6.7032269E-09
   7.860000      6.1455521E-09
   7.920000      5.5946914E-09
   7.980000      5.0575659E-09
   8.040000      4.5401394E-09
   8.100000      4.0471981E-09
   8.160000      3.5820451E-09
   8.220000      3.1463232E-09
   8.280000      2.7401483E-09
   8.340000      2.3625972E-09
   8.400000      2.0124065E-09
   8.460000      1.6885796E-09
   8.520000      1.3905850E-09
   8.580000      1.1179565E-09
   8.640000      8.6937840E-10
   8.700000      6.4158567E-10
   8.760000      4.2855397E-10
   8.820000      2.2139784E-10
   8.880000      9.1599098E-12
   8.940000     -2.1963541E-10
   9.000000     -4.7505777E-10
   9.060000     -7.6398737E-10
   9.120000     -1.0889344E-09
   9.180000     -1.4477438E-09
   9.240000     -1.8342310E-09
   9.300000     -2.2395634E-09
   9.360000     -2.6540365E-09
   9.420000     -3.0687937E-09
   9.480000     -3.4770651E-09
   9.540000     -3.8746246E-09
   9.600000     -4.2594088E-09
   9.660000     -4.6305213E-09
   9.720000     -4.9870614E-09
   9.780000     -5.3272671E-09
   9.840000     -5.6482952E-09
   9.900000     -5.9466578E-09
   9.960000     -6.2190084E-09
   10.02000     -6.4628209E-09
   10.08000     -6.6766059E-09
   10.14000     -6.8595929E-09
   10.20000     -7.0111401E-09
   10.26000     -7.1303092E-09
   10.32000     -7.2159585E-09
   10.38000     -7.2674240E-09
   10.44000     -7.2855233E-09
   10.50000     -7.2734019E-09
   10.56000     -7.2368005E-09
   10.62000     -7.1835671E-09
   10.68000     -7.1225559E-09
   10.74000     -7.0622752E-09
   10.80000     -7.0096822E-09
   10.86000     -6.9693673E-09
   10.92000     -6.9431745E-09
   10.98000     -6.9301556E-09
   11.04000     -6.9266974E-09
   11.10000     -6.9267725E-09
   11.16000     -6.9223507E-09
   11.22000     -6.9040720E-09
   11.28000     -6.8622765E-09
   11.34000     -6.7883512E-09
   11.40000     -6.6762138E-09
   11.46000     -6.5236199E-09
   11.52000     -6.3329497E-09
   11.58000     -6.1111844E-09
   11.64000     -5.8690115E-09
   11.70000     -5.6192206E-09
   11.76000     -5.3747886E-09
   11.82000     -5.1471418E-09
   11.88000     -4.9450084E-09
   11.94000     -4.7740398E-09
   12.00000     -4.6371289E-09
   12.06000     -4.5351420E-09
   12.12000     -4.4677724E-09
   12.18000     -4.4343080E-09
   12.24000     -4.4342685E-09
   12.30000     -4.4679176E-09
   12.36000     -4.5366213E-09
   12.42000     -4.6428976E-09
   12.48000     -4.7899489E-09
   12.54000     -4.9806030E-09
   12.60000     -5.2158398E-09
   12.66000     -5.4933782E-09
   12.72000     -5.8069074E-09
   12.78000     -6.1463736E-09
   12.84000     -6.4993153E-09
   12.90000     -6.8528010E-09
   12.96000     -7.1952622E-09
   13.02000     -7.5176194E-09
   13.08000     -7.8134859E-09
   13.14000     -8.0786613E-09
   13.20000     -8.3104181E-09
   13.26000     -8.5070146E-09
   13.32000     -8.6675671E-09
   13.38000     -8.7921181E-09
   13.44000     -8.8815693E-09
   13.50000     -8.9372820E-09
   13.56000     -8.9604475E-09
   13.62000     -8.9515622E-09
   13.68000     -8.9103915E-09
   13.74000     -8.8365466E-09
   13.80000     -8.7304644E-09
   13.86000     -8.5942649E-09
   13.92000     -8.4319973E-09
   13.98000     -8.2490379E-09
   14.04000     -8.0507849E-09
   14.10000     -7.8411846E-09
   14.16000     -7.6216455E-09
   14.22000     -7.3907303E-09
   14.28000     -7.1446444E-09
   14.34000     -6.8782149E-09
   14.40000     -6.5859078E-09
   14.46000     -6.2625509E-09
   14.52000     -5.9036820E-09
   14.58000     -5.5057106E-09
   14.64000     -5.0661564E-09
   14.70000     -4.5841602E-09
   14.76000     -4.0611789E-09
   14.82000     -3.5015610E-09
   14.88000     -2.9126050E-09
   14.94000     -2.3038711E-09
   15.00000     -1.6858018E-09
   15.06000     -1.0680654E-09
   15.12000     -4.5820095E-10
   15.18000      1.3893359E-10
   15.24000      7.2071249E-10
   15.30000      1.2854866E-09
   15.36000      1.8310268E-09
   15.42000      2.3532589E-09
   15.48000      2.8457439E-09
   15.54000      3.3000618E-09
   15.60000      3.7069507E-09
   15.66000      4.0578443E-09
   15.72000      4.3463837E-09
   15.78000      4.5695425E-09
   15.84000      4.7281317E-09
   15.90000      4.8266102E-09
   15.96000      4.8722923E-09
   16.02000      4.8741793E-09
   16.08000      4.8417426E-09
   16.14000      4.7839857E-09
   16.20000      4.7089967E-09
   16.26000      4.6240354E-09
   16.32000      4.5359645E-09
   16.38000      4.4517279E-09
   16.44000      4.3785877E-09
   16.50000      4.3239798E-09
   16.56000      4.2950301E-09
   16.62000      4.2979380E-09
   16.68000      4.3374437E-09
   16.74000      4.4165258E-09
   16.80000      4.5363464E-09
   16.86000      4.6963522E-09
   16.92000      4.8944107E-09
   16.98000      5.1269007E-09
   17.04000      5.3887317E-09
   17.10000      5.6733280E-09
   17.16000      5.9726726E-09
   17.22000      6.2775012E-09
   17.28000      6.5777326E-09
   17.34000      6.8631629E-09
   17.40000      7.1243318E-09
   17.46000      7.3533570E-09
   17.52000      7.5444566E-09
   17.58000      7.6939308E-09
   17.64000      7.7995628E-09
   17.70000      7.8596658E-09
   17.76000      7.8721598E-09
   17.82000      7.8341262E-09
   17.88000      7.7420230E-09
   17.94000      7.5924929E-09
   18.00000      7.3833855E-09
   18.06000      7.1145716E-09
   18.12000      6.7882571E-09
   18.18000      6.4087597E-09
   18.24000      5.9819425E-09
   18.30000      5.5145306E-09
   18.36000      5.0135065E-09
   18.42000      4.4856190E-09
   18.48000      3.9370027E-09
   18.54000      3.3729515E-09
   18.60000      2.7979192E-09
   18.66000      2.2158320E-09
   18.72000      1.6306582E-09
   18.78000      1.0470000E-09
   18.84000      4.7040238E-10
   18.90000     -9.2831944E-11
   18.96000     -6.3625200E-10
   19.02000     -1.1539660E-09
   19.08000     -1.6410349E-09
   19.14000     -2.0933346E-09
   19.20000     -2.5070344E-09
   19.26000     -2.8781439E-09
   19.32000     -3.2026015E-09
   19.38000     -3.4770817E-09
   19.44000     -3.7002148E-09
   19.50000     -3.8735681E-09
   19.56000     -4.0017372E-09
   19.62000     -4.0913051E-09
   19.68000     -4.1490047E-09
   19.74000     -4.1798991E-09
   19.80000     -4.1864494E-09
   19.86000     -4.1689812E-09
   19.92000     -4.1274020E-09
   19.98000     -4.0634260E-09
   20.04000     -3.9822905E-09
   20.10000     -3.8931267E-09
   20.16000     -3.8077115E-09
   20.22000     -3.7380046E-09
   20.28000     -3.6934016E-09
   20.34000     -3.6787799E-09
   20.40000     -3.6941001E-09
   20.46000     -3.7356882E-09
   20.52000     -3.7986032E-09
   20.58000     -3.8790247E-09
   20.64000     -3.9755816E-09
   20.70000     -4.0890433E-09
   20.76000     -4.2205990E-09
   20.82000     -4.3696691E-09
   20.88000     -4.5324895E-09
   20.94000     -4.7023678E-09
   21.00000     -4.8717061E-09
   21.06000     -5.0349613E-09
   21.12000     -5.1911733E-09
   21.18000     -5.3448286E-09
   21.24000     -5.5045475E-09
   21.30000     -5.6801150E-09
   21.36000     -5.8791176E-09
   21.42000     -6.1046368E-09
   21.48000     -6.3549170E-09
   21.54000     -6.6250321E-09
   21.60000     -6.9096671E-09
   21.66000     -7.2057307E-09
   21.72000     -7.5136413E-09
   21.78000     -7.8367890E-09
   21.84000     -8.1795068E-09
   21.90000     -8.5444913E-09
   21.96000     -8.9308196E-09
   22.02000     -9.3333963E-09
   22.08000     -9.7440438E-09
   22.14000     -1.0153747E-08
   22.20000     -1.0555086E-08
   22.26000     -1.0943834E-08
   22.32000     -1.1319074E-08
   22.38000     -1.1681829E-08
   22.44000     -1.2032901E-08
   22.50000     -1.2370869E-08
   22.56000     -1.2691197E-08
   22.62000     -1.2986841E-08
   22.68000     -1.3250069E-08
   22.74000     -1.3474696E-08
   22.80000     -1.3657775E-08
   22.86000     -1.3800030E-08
   22.92000     -1.3904923E-08
   22.98000     -1.3976755E-08
   23.04000     -1.4018603E-08
   23.10000     -1.4030875E-08
   23.16000     -1.4011006E-08
   23.22000     -1.3954350E-08
   23.28000     -1.3855939E-08
   23.34000     -1.3712420E-08
   23.40000     -1.3523475E-08
   23.46000     -1.3292159E-08
   23.52000     -1.3023956E-08
   23.58000     -1.2724884E-08
   23.64000     -1.2399352E-08
   23.70000     -1.2048710E-08
   23.76000     -1.1671200E-08
   23.82000     -1.1263491E-08
   23.88000     -1.0823273E-08
   23.94000     -1.0351813E-08
   24.00000     -9.8552997E-09
   24.06000     -9.3442178E-09
   24.12000     -8.8308374E-09
   24.18000     -8.3257641E-09
   24.24000     -7.8349700E-09
   24.30000     -7.3585698E-09
   24.36000     -6.8918942E-09
   24.42000     -6.4284160E-09
   24.48000     -5.9632681E-09
   24.54000     -5.4958513E-09
   24.60000     -5.0304418E-09
   24.66000     -4.5746193E-09
   24.72000     -4.1363406E-09
   24.78000     -3.7210823E-09
   24.84000     -3.3304437E-09
   24.90000     -2.9628575E-09
   24.96000     -2.6160183E-09
   25.02000     -2.2897375E-09
   25.08000     -1.9876734E-09
   25.14000     -1.7168995E-09
   25.20000     -1.4853533E-09
   25.26000     -1.2983039E-09
   25.32000     -1.1555344E-09
   25.38000     -1.0506358E-09
   25.44000     -9.7278918E-10
   25.50000     -9.1019586E-10
   25.56000     -8.5353058E-10
   25.62000     -7.9785967E-10
   25.68000     -7.4231549E-10
   25.74000     -6.8799710E-10
   25.80000     -6.3542932E-10
   25.86000     -5.8303912E-10
   25.92000     -5.2748178E-10
   25.98000     -4.6564541E-10
   26.04000     -3.9733586E-10
   26.10000     -3.2735087E-10
   26.16000     -2.6599967E-10
   26.22000     -2.2780784E-10
   26.28000     -2.2883818E-10
   26.34000     -2.8345651E-10
   26.40000     -4.0143361E-10
   26.46000     -5.8606714E-10
   26.52000     -8.3368784E-10
   26.58000     -1.1345825E-09
   26.64000     -1.4750358E-09
   26.70000     -1.8399330E-09
   26.76000     -2.2152202E-09
   26.82000     -2.5895932E-09
   26.88000     -2.9551102E-09
   26.94000     -3.3068788E-09
   27.00000     -3.6423542E-09
   27.06000     -3.9608681E-09
   27.12000     -4.2637578E-09
   27.18000     -4.5549799E-09
   27.24000     -4.8416791E-09
   27.30000     -5.1340665E-09
   27.36000     -5.4442277E-09
   27.42000     -5.7839800E-09
   27.48000     -6.1623457E-09
   27.54000     -6.5833987E-09
   27.60000     -7.0450934E-09
   27.66000     -7.5393158E-09
   27.72000     -8.0530231E-09
   27.78000     -8.5700664E-09
   27.84000     -9.0732311E-09
   27.90000     -9.5460759E-09
   27.96000     -9.9743040E-09
   28.02000     -1.0346561E-08
   28.08000     -1.0654744E-08
   28.14000     -1.0894060E-08
   28.20000     -1.1063130E-08
   28.26000     -1.1164293E-08
   28.32000     -1.1204072E-08
   28.38000     -1.1193398E-08
   28.44000     -1.1147157E-08
   28.50000     -1.1082730E-08
   28.56000     -1.1017648E-08
   28.62000     -1.0966900E-08
   28.68000     -1.0940663E-08
   28.74000     -1.0943053E-08
   28.80000     -1.0972027E-08
   28.86000     -1.1020124E-08
   28.92000     -1.1075482E-08
   28.98000     -1.1122745E-08
   29.04000     -1.1143844E-08
   29.10000     -1.1118927E-08
   29.16000     -1.1027709E-08
   29.22000     -1.0851255E-08
   29.28000     -1.0573794E-08
   29.34000     -1.0184041E-08
   29.40000     -9.6756603E-09
   29.46000     -9.0469667E-09
   29.52000     -8.3002831E-09
   29.58000     -7.4414821E-09
   29.64000     -6.4798753E-09
   29.70000     -5.4282374E-09
   29.76000     -4.3024535E-09
   29.82000     -3.1204614E-09
   29.88000     -1.9005946E-09
   29.94000     -6.5990963E-10
   30.00000      5.8681193E-10
   30.06000      1.8270141E-09
   30.12000      3.0494973E-09
   30.18000      4.2434403E-09
   30.24000      5.3980647E-09
   30.30000      6.5032628E-09
   30.36000      7.5508373E-09
   30.42000      8.5355554E-09
   30.48000      9.4552259E-09
   30.54000      1.0309564E-08
   30.60000      1.1098291E-08
   30.66000      1.1819423E-08
   30.72000      1.2468599E-08
   30.78000      1.3039806E-08
   30.84000      1.3527044E-08
   30.90000      1.3925998E-08
   30.96000      1.4234805E-08
   31.02000      1.4453508E-08
   31.08000      1.4582573E-08
   31.14000      1.4621417E-08
   31.20000      1.4567910E-08
   31.26000      1.4419354E-08
   31.32000      1.4174617E-08
   31.38000      1.3836392E-08
   31.44000      1.3412389E-08
   31.50000      1.2914675E-08
   31.56000      1.2357251E-08
   31.62000      1.1752857E-08
   31.68000      1.1110336E-08
   31.74000      1.0433711E-08
   31.80000      9.7232524E-09
   31.86000      8.9778434E-09
   31.92000      8.1973601E-09
   31.98000      7.3838353E-09
   32.04000      6.5409163E-09
   32.10000      5.6720419E-09
   32.16000      4.7784869E-09
   32.22000      3.8584589E-09
   32.28000      2.9078548E-09
   32.34000      1.9224362E-09
   32.40000      9.0048419E-10
   32.46000     -1.5514125E-10
   32.52000     -1.2362260E-09
   32.58000     -2.3297473E-09
   32.64000     -3.4192624E-09
   32.70000     -4.4865329E-09
   32.76000     -5.5129932E-09
   32.82000     -6.4810401E-09
   32.88000     -7.3752870E-09
   32.94000     -8.1838563E-09
   33.00000     -8.8994883E-09
   33.06000     -9.5200861E-09
   33.12000     -1.0048296E-08
   33.18000     -1.0490132E-08
   33.24000     -1.0853011E-08
   33.30000     -1.1143902E-08
   33.36000     -1.1368196E-08
   33.42000     -1.1529588E-08
   33.48000     -1.1630756E-08
   33.54000     -1.1674313E-08
   33.60000     -1.1663392E-08
   33.66000     -1.1601514E-08
   33.72000     -1.1491749E-08
   33.78000     -1.1335583E-08
   33.84000     -1.1132091E-08
   33.90000     -1.0877934E-08
   33.96000     -1.0568419E-08
   34.02000     -1.0199344E-08
   34.08000     -9.7690052E-09
   34.14000     -9.2794998E-09
   34.20000     -8.7366692E-09
   34.26000     -8.1485201E-09
   34.32000     -7.5226678E-09
   34.38000     -6.8639001E-09
   34.44000     -6.1730447E-09
   34.50000     -5.4478573E-09
   34.56000     -4.6857234E-09
   34.62000     -3.8871022E-09
   34.68000     -3.0581533E-09
   34.74000     -2.2112985E-09
   34.80000     -1.3633675E-09
   34.86000     -5.3207261E-10
   34.92000      2.6769992E-10
   34.98000      1.0262841E-09
   35.04000      1.7395008E-09
   35.10000      2.4070144E-09
   35.16000      3.0298295E-09
   35.22000      3.6082302E-09
   35.28000      4.1410768E-09
   35.34000      4.6266098E-09
   35.40000      5.0641709E-09
   35.46000      5.4558789E-09
   35.52000      5.8073928E-09
   35.58000      6.1273226E-09
   35.64000      6.4254273E-09
   35.70000      6.7101653E-09
   35.76000      6.9864106E-09
   35.82000      7.2540720E-09
   35.88000      7.5080946E-09
   35.94000      7.7398417E-09
   36.00000      7.9394118E-09
   36.06000      8.0980538E-09
   36.12000      8.2098239E-09
   36.18000      8.2719600E-09
   36.24000      8.2839806E-09
   36.30000      8.2461602E-09
   36.36000      8.1582368E-09
   36.42000      8.0190645E-09
   36.48000      7.8273530E-09
   36.54000      7.5830160E-09
   36.60000      7.2883859E-09
   36.66000      6.9486337E-09
   36.72000      6.5712826E-09
   36.78000      6.1651688E-09
   36.84000      5.7394187E-09
   36.90000      5.3028284E-09
   36.96000      4.8636322E-09
   37.02000      4.4293391E-09
   37.08000      4.0063663E-09
   37.14000      3.5994963E-09
   37.20000      3.2115124E-09
   37.26000      2.8434333E-09
   37.32000      2.4954221E-09
   37.38000      2.1679756E-09
   37.44000      1.8626787E-09
   37.50000      1.5819579E-09
   37.56000      1.3278362E-09
   37.62000      1.1003348E-09
   37.68000      8.9648894E-10
   37.74000      7.1068235E-10
   37.80000      5.3632032E-10
   37.86000      3.6814254E-10
   37.92000      2.0415106E-10
   37.98000      4.6370262E-11
   38.04000     -9.9727560E-11
   38.10000     -2.2669017E-10
   38.16000     -3.2675274E-10
   38.22000     -3.9317299E-10
   38.28000     -4.2107806E-10
   38.34000     -4.0794187E-10
   38.40000     -3.5382244E-10
   38.46000     -2.6130795E-10
   38.52000     -1.3498319E-10
   38.58000      1.9664090E-11
   38.64000      1.9765112E-10
   38.70000      3.9565795E-10
   38.76000      6.1233874E-10
   38.82000      8.4754109E-10
   38.88000      1.1007621E-09
   38.94000      1.3696154E-09
   39.00000      1.6491221E-09
   39.06000      1.9322168E-09
   39.12000      2.2112203E-09
   39.18000      2.4795441E-09
   39.24000      2.7328184E-09
   39.30000      2.9689973E-09
   39.36000      3.1875422E-09
   39.42000      3.3882079E-09
   39.48000      3.5700727E-09
   39.54000      3.7312344E-09
   39.60000      3.8692445E-09
   39.66000      3.9820276E-09
   39.72000      4.0689159E-09
   39.78000      4.1314019E-09
   39.84000      4.1733550E-09
   39.90000      4.2005723E-09
   39.96000      4.2197317E-09
   40.02000      4.2369943E-09
   40.08000      4.2566803E-09
   40.14000      4.2804635E-09
   40.20000      4.3073776E-09
   40.26000      4.3345936E-09
   40.32000      4.3586081E-09
   40.38000      4.3762949E-09
   40.44000      4.3854160E-09
   40.50000      4.3845292E-09
   40.56000      4.3726116E-09
   40.62000      4.3488955E-09
   40.68000      4.3132302E-09
   40.74000      4.2669313E-09
   40.80000      4.2136712E-09
   40.86000      4.1598418E-09
   40.92000      4.1139963E-09
   40.98000      4.0854102E-09
   41.04000      4.0821981E-09
   41.10000      4.1096047E-09
   41.16000      4.1689971E-09
   41.22000      4.2577879E-09
   41.28000      4.3701434E-09
   41.34000      4.4981667E-09
   41.40000      4.6331374E-09
   41.46000      4.7665085E-09
   41.52000      4.8904854E-09
   41.58000      4.9981965E-09
   41.64000      5.0835705E-09
   41.70000      5.1411395E-09
   41.76000      5.1659796E-09
   41.82000      5.1539168E-09
   41.88000      5.1019478E-09
   41.94000      5.0086792E-09
   42.00000      4.8745092E-09
   42.06000      4.7013806E-09
   42.12000      4.4921578E-09
   42.18000      4.2498649E-09
   42.24000      3.9771066E-09
   42.30000      3.6758581E-09
   42.36000      3.3475929E-09
   42.42000      2.9935385E-09
   42.48000      2.6148395E-09
   42.54000      2.2125863E-09
   42.60000      1.7878441E-09
   42.66000      1.3418676E-09
   42.72000      8.7652607E-10
   42.78000      3.9468451E-10
   42.84000     -9.9863673E-11
   42.90000     -6.0319172E-10
   42.96000     -1.1126244E-09
   43.02000     -1.6281005E-09
   43.08000     -2.1526829E-09
   43.14000     -2.6916236E-09
   43.20000     -3.2500433E-09
   43.26000     -3.8300172E-09
   43.32000     -4.4282733E-09
   43.38000     -5.0355728E-09
   43.44000     -5.6381482E-09
   43.50000     -6.2207004E-09
   43.56000     -6.7697981E-09
   43.62000     -7.2764132E-09
   43.68000     -7.7367615E-09
   43.74000     -8.1513853E-09
   43.80000     -8.5231404E-09
   43.86000     -8.8550891E-09
   43.92000     -9.1492032E-09
   43.98000     -9.4063095E-09
   44.04000     -9.6270893E-09
   44.10000     -9.8135153E-09
   44.16000     -9.9698862E-09
   44.22000     -1.0102878E-08
   44.28000     -1.0220406E-08
   44.34000     -1.0329660E-08
   44.40000     -1.0434998E-08
   44.46000     -1.0536509E-08
   44.52000     -1.0629718E-08
   44.58000     -1.0706504E-08
   44.64000     -1.0756778E-08
   44.70000     -1.0770262E-08
   44.76000     -1.0737870E-08
   44.82000     -1.0652469E-08
   44.88000     -1.0509252E-08
   44.94000     -1.0306048E-08
   45.00000     -1.0043725E-08
   45.06000     -9.7264978E-09
   45.12000     -9.3616812E-09
   45.18000     -8.9585397E-09
   45.24000     -8.5262855E-09
   45.30000     -8.0718650E-09
   45.36000     -7.5984916E-09
   45.42000     -7.1057227E-09
   45.48000     -6.5912653E-09
   45.54000     -6.0538463E-09
   45.60000     -5.4959495E-09
   45.66000     -4.9252105E-09
   45.72000     -4.3538160E-09
   45.78000     -3.7961270E-09
   45.84000     -3.2654852E-09
   45.90000     -2.7714513E-09
   45.96000     -2.3184936E-09
   46.02000     -1.9065236E-09
   46.08000     -1.5329600E-09
   46.14000     -1.1954782E-09
   46.20000     -8.9437258E-10
   46.26000     -6.3361683E-10
   46.32000     -4.2013584E-10
   46.38000     -2.6142791E-10
   46.44000     -1.6229823E-10
   46.50000     -1.2189182E-10
   46.56000     -1.3223857E-10
   46.62000     -1.7905369E-10
   46.68000     -2.4470523E-10
   46.74000     -3.1237926E-10
   46.80000     -3.6995490E-10
   46.86000     -4.1221102E-10
   46.92000     -4.4070045E-10
   46.98000     -4.6160101E-10
   47.04000     -4.8261262E-10
   47.10000     -5.1017640E-10
   47.16000     -5.4790628E-10
   47.22000     -5.9643884E-10
   47.28000     -6.5431904E-10
   47.34000     -7.1931433E-10
   47.40000     -7.8968049E-10
   47.46000     -8.6515456E-10
   47.52000     -9.4758601E-10
   47.58000     -1.0410670E-09
   47.64000     -1.1513333E-09
   47.70000     -1.2843080E-09
   47.76000     -1.4440252E-09
   47.82000     -1.6306489E-09
   47.88000     -1.8395482E-09
   47.94000     -2.0621493E-09
   48.00000     -2.2885585E-09
   48.06000     -2.5110916E-09
   48.12000     -2.7272931E-09
   48.18000     -2.9411586E-09
   48.24000     -3.1619944E-09
   48.30000     -3.4013559E-09
   48.36000     -3.6692627E-09
   48.42000     -3.9710812E-09
   48.48000     -4.3060924E-09
   48.54000     -4.6680340E-09
   48.60000     -5.0472369E-09
   48.66000     -5.4335154E-09
   48.72000     -5.8188516E-09
   48.78000     -6.1990444E-09
   48.84000     -6.5737962E-09
   48.90000     -6.9451769E-09
   48.96000     -7.3149615E-09
   49.02000     -7.6818143E-09
   49.08000     -8.0395273E-09
   49.14000     -8.3772047E-09
   49.20000     -8.6815684E-09
   49.26000     -8.9405923E-09
   49.32000     -9.1470556E-09
   49.38000     -9.3005674E-09
   49.44000     -9.4073478E-09
   49.50000     -9.4780370E-09
   49.56000     -9.5246531E-09
   49.62000     -9.5580042E-09
   49.68000     -9.5863788E-09
   49.74000     -9.6155448E-09
   49.80000     -9.6494501E-09
   49.86000     -9.6908721E-09
   49.92000     -9.7415755E-09
   49.98000     -9.8020116E-09
   50.04000     -9.8708837E-09
   50.10000     -9.9449009E-09
   50.16000     -1.0018834E-08
   50.22000     -1.0085801E-08
   50.28000     -1.0137727E-08
   50.34000     -1.0165990E-08
   50.40000     -1.0162288E-08
   50.46000     -1.0119676E-08
   50.52000     -1.0033444E-08
   50.58000     -9.9014912E-09
   50.64000     -9.7240171E-09
   50.70000     -9.5027879E-09
   50.76000     -9.2404946E-09
   50.82000     -8.9407326E-09
   50.88000     -8.6086089E-09
   50.94000     -8.2515079E-09
   51.00000     -7.8792519E-09
   51.06000     -7.5032203E-09
   51.12000     -7.1346831E-09
   51.18000     -6.7831554E-09
   51.24000     -6.4556760E-09
   51.30000     -6.1572578E-09
   51.36000     -5.8919607E-09
   51.42000     -5.6635350E-09
   51.48000     -5.4748646E-09
   51.54000     -5.3263358E-09
   51.60000     -5.2141869E-09
   51.66000     -5.1301412E-09
   51.72000     -5.0630375E-09
   51.78000     -5.0019637E-09
   51.84000     -4.9394298E-09
   51.90000     -4.8729816E-09
   51.96000     -4.8044164E-09
   52.02000     -4.7370166E-09
   52.08000     -4.6721604E-09
   52.14000     -4.6067901E-09
   52.20000     -4.5325739E-09
   52.26000     -4.4366453E-09
   52.32000     -4.3031294E-09
   52.38000     -4.1146100E-09
   52.44000     -3.8530641E-09
   52.50000     -3.5002898E-09
   52.56000     -3.0380787E-09
   52.62000     -2.4483138E-09
   52.68000     -1.7129811E-09
   52.74000     -8.1395213E-10
   52.80000      2.6753585E-10
   52.86000      1.5516387E-09
   52.92000      3.0607368E-09
   52.98000      4.8201745E-09
   53.04000      6.8587811E-09
   53.10000      9.2090566E-09
   53.16000      1.1906891E-08
   53.22000      1.4990778E-08
   53.28000      1.8500799E-08
   53.34000      2.2477925E-08
   53.40000      2.6964408E-08
   53.46000      3.2005698E-08
   53.52000      3.7653596E-08
   53.58000      4.3969486E-08
   53.64000      5.1026181E-08
   53.70000      5.8907219E-08
   53.76000      6.7703589E-08
   53.82000      7.7509171E-08
   53.88000      8.8416598E-08
   53.94000      1.0051512E-07
   54.00000      1.1389086E-07
   54.06000      1.2862850E-07
   54.12000      1.4481292E-07
   54.18000      1.6252916E-07
   54.24000      1.8186054E-07
   54.30000      2.0288452E-07
   54.36000      2.2566805E-07
   54.42000      2.5026304E-07
   54.48000      2.7670282E-07
   54.54000      3.0499947E-07
   54.60000      3.3514237E-07
   54.66000      3.6709699E-07
   54.72000      4.0080315E-07
   54.78000      4.3617243E-07
   54.84000      4.7308362E-07
   54.90000      5.1137658E-07
   54.96000      5.5084530E-07
   55.02000      5.9123141E-07
   55.08000      6.3221893E-07
   55.14000      6.7343194E-07
   55.20000      7.1443259E-07
   55.26000      7.5472138E-07
   55.32000      7.9373541E-07
   55.38000      8.3084626E-07
   55.44000      8.6535715E-07
   55.50000      8.9649978E-07
   55.56000      9.2343333E-07