 -0.750000000       0.00000000    
 -0.689999998       0.00000000    
 -0.629999995       0.00000000    
 -0.569999993       0.00000000    
 -0.509999990       0.00000000    
 -0.449999988      -1.04633514E-19
 -0.389999986      -7.81235331E-19
 -0.330000013      -2.87754339E-18
 -0.270000011      -6.61132046E-18
 -0.209999993      -9.32263487E-18
 -0.150000006      -3.62669233E-18
  -9.00000036E-02   2.06297521E-17
  -2.99999993E-02   6.80358436E-17
   2.99999993E-02   1.25183343E-16
   9.00000036E-02   1.53152993E-16
  0.150000006       9.68471068E-17
  0.209999993      -8.35290291E-17
  0.270000011      -3.69678080E-16
  0.330000013      -6.58716930E-16
  0.389999986      -7.83632637E-16
  0.449999988      -5.90929148E-16
  0.509999990      -4.71689223E-17
  0.569999993       6.88045657E-16
  0.629999995       1.28672574E-15
  0.689999998       1.39460925E-15
  0.750000000       8.37557560E-16
  0.810000002      -2.18858266E-16
  0.870000005      -1.26594664E-15
  0.930000007      -1.64100828E-15
  0.990000010      -8.38159377E-16
   1.04999995       1.20420578E-15
   1.11000001       3.97556354E-15
   1.16999996       6.47677136E-15
   1.23000002       7.47135152E-15
   1.28999996       5.82562918E-15
   1.35000002       8.94500144E-16
   1.40999997      -7.05575142E-15
   1.47000003      -1.64593714E-14
   1.52999997      -2.43435287E-14
   1.59000003      -2.68905432E-14
   1.64999998      -2.09345057E-14
   1.71000004      -6.12354549E-15
   1.76999998       1.32968240E-14
   1.83000004       2.86281246E-14
   1.88999999       2.99627300E-14
   1.95000005       1.21894800E-14
   2.00999999      -1.87198245E-14
   2.06999993      -4.31848533E-14
   2.13000011      -3.29153344E-14
   2.19000006       3.60198525E-14
   2.25000000       1.65818924E-13
   2.30999994       3.23235389E-13
   2.36999989       4.38509743E-13
   2.43000007       4.22385542E-13
   2.49000001       1.99306270E-13
   2.54999995      -2.53302045E-13
   2.60999990      -8.74924482E-13
   2.67000008      -1.51561131E-12
   2.73000002      -1.96117254E-12
   2.78999996      -1.98721942E-12
   2.84999990      -1.42914760E-12
   2.91000009      -2.48747176E-13
   2.97000003       1.42273834E-12
   3.02999997       3.28081724E-12
   3.08999991       4.89050857E-12
   3.15000010       5.77208593E-12
   3.21000004       5.51453327E-12
   3.26999998       3.89112093E-12
   3.32999992       9.46027111E-13
   3.39000010      -2.97573576E-12
   3.45000005      -7.26862190E-12
   3.50999999      -1.11680639E-11
   3.56999993      -1.38816016E-11
   3.63000011      -1.47068920E-11
   3.69000006      -1.31028790E-11
   3.75000000      -8.70923646E-12
   3.80999994      -1.34565482E-12
   3.86999989       8.95363644E-12
   3.93000007       2.18216452E-11
   3.99000001       3.63507731E-11
   4.05000019       5.08529642E-11
   4.11000013       6.26993873E-11
   4.17000008       6.83633844E-11
   4.23000002       6.37434966E-11
   4.28999996       4.47486978E-11
   4.34999990       8.02138998E-12
   4.40999985      -4.83954647E-11
   4.46999979      -1.24637162E-10
   4.53000021      -2.18950247E-10
   4.59000015      -3.27959715E-10
   4.65000010      -4.47132026E-10
   4.71000004      -5.71239556E-10
   4.76999998      -6.94666880E-10
   4.82999992      -8.11506862E-10
   4.88999987      -9.15526488E-10
   4.94999981      -1.00017161E-09
   5.01000023      -1.05878406E-09
   5.07000017      -1.08511622E-09
   5.13000011      -1.07408349E-09
   5.19000006      -1.02256148E-09
   5.25000000      -9.29973210E-10
   5.30999994      -7.98450639E-10
   5.36999989      -6.32481456E-10
   5.42999983      -4.38123510E-10
   5.48999977      -2.22000154E-10
   5.55000019       9.65153565E-12
   5.61000013       2.51653781E-10
   5.67000008       5.00180120E-10
   5.73000002       7.52710450E-10
   5.78999996       1.00780873E-09
   5.84999990       1.26492072E-09
   5.90999985       1.52433877E-09
   5.96999979       1.78736637E-09
   6.03000021       2.05657491E-09
   6.09000015       2.33595143E-09
   6.15000010       2.63070499E-09
   6.21000004       2.94658564E-09
   6.26999998       3.28872241E-09
   6.32999992       3.66018726E-09
   6.38999987       4.06064604E-09
   6.44999981       4.48551907E-09
   6.51000023       4.92597074E-09
   6.57000017       5.36984190E-09
   6.63000011       5.80333692E-09
   6.69000006       6.21302565E-09
   6.75000000       6.58762289E-09
   6.80999994       6.91908397E-09
   6.86999989       7.20282012E-09
   6.92999983       7.43717532E-09
   6.98999977       7.62255414E-09
   7.05000019       7.76069609E-09
   7.11000013       7.85443088E-09
   7.17000008       7.90796317E-09
   7.23000002       7.92740806E-09
   7.28999996       7.92110999E-09
   7.34999990       7.89933985E-09
   7.40999985       7.87320698E-09
   7.46999979       7.85300713E-09
   7.53000021       7.84655096E-09
   7.59000015       7.85806442E-09
   7.65000010       7.88812038E-09
   7.71000004       7.93463961E-09
   7.76999998       7.99458988E-09
   7.82999992       8.06572142E-09
   7.88999987       8.14767542E-09
   7.94999981       8.24205504E-09
   8.01000023       8.35149816E-09
   8.06999969       8.47821369E-09
   8.13000011       8.62264127E-09
   8.18999958       8.78280648E-09
   8.25000000       8.95462460E-09
   8.31000042       9.13292553E-09
   8.36999989       9.31267330E-09
   8.43000031       9.48972723E-09
   8.48999977       9.66073355E-09
   8.55000019       9.82214665E-09
   8.60999966       9.96881333E-09
   8.67000008       1.00927746E-08
   8.72999954       1.01829460E-08
   8.78999996       1.02259534E-08
   8.85000038       1.02080246E-08
   8.90999985       1.01173807E-08
   8.97000027       9.94643212E-09
   9.02999973       9.69316627E-09
   9.09000015       9.36138811E-09
   9.14999962       8.95988084E-09
   9.21000004       8.50082049E-09
   9.27000046       7.99795696E-09
   9.32999992       7.46500906E-09
   9.39000034       6.91457291E-09
   9.44999981       6.35761710E-09
   9.51000023       5.80345949E-09
   9.56999969       5.25999999E-09
   9.63000011       4.73398254E-09
   9.68999958       4.23113233E-09
   9.75000000       3.75612519E-09
   9.81000042       3.31246341E-09
   9.86999989       2.90240876E-09
   9.93000031       2.52706589E-09
   9.98999977       2.18665797E-09
   10.0500002       1.88086346E-09
   10.1099997       1.60901881E-09
   10.1700001       1.36999867E-09
   10.2299995       1.16170629E-09
   10.2900000       9.80305059E-10
   10.3500004       8.19498247E-10
   10.4099998       6.70218714E-10
   10.4700003       5.21009291E-10
   10.5299997       3.59157454E-10
   10.5900002       1.72391948E-10
   10.6499996      -4.92482444E-11
   10.7100000      -3.11837001E-10
   10.7700005      -6.16676266E-10
   10.8299999      -9.60319602E-10
   10.8900003      -1.33549183E-09
   10.9499998      -1.73266868E-09
   11.0100002      -2.14191420E-09
   11.0699997      -2.55451105E-09
   11.1300001      -2.96398350E-09
   11.1899996      -3.36630213E-09
   11.2500000      -3.75932308E-09
   11.3100004      -4.14178070E-09
   11.3699999      -4.51227988E-09
   11.4300003      -4.86870011E-09
   11.4899998      -5.20818855E-09
   11.5500002      -5.52761659E-09
   11.6099997      -5.82417004E-09
   11.6700001      -6.09568263E-09
   11.7299995      -6.34053166E-09
   11.7900000      -6.55719257E-09
   11.8500004      -6.74378997E-09
   11.9099998      -6.89802526E-09
   11.9700003      -7.01767400E-09
   12.0299997      -7.10154424E-09
   12.0900002      -7.15051174E-09
   12.1499996      -7.16818427E-09
   12.2100000      -7.16086834E-09
   12.2700005      -7.13681247E-09
   12.3299999      -7.10495796E-09
   12.3900003      -7.07356795E-09
   12.4499998      -7.04906578E-09
   12.5100002      -7.03528347E-09
   12.5699997      -7.03311764E-09
   12.6300001      -7.04052949E-09
   12.6899996      -7.05278236E-09
   12.7500000      -7.06288406E-09
   12.8100004      -7.06223036E-09
   12.8699999      -7.04147585E-09
   12.9300003      -6.99162372E-09
   12.9899998      -6.90526125E-09
   13.0500002      -6.77779122E-09
   13.1099997      -6.60845201E-09
   13.1700001      -6.40086961E-09
   13.2299995      -6.16294171E-09
   13.2900000      -5.90594773E-09
   13.3500004      -5.64300739E-09
   13.4099998      -5.38719069E-09
   13.4700003      -5.14977216E-09
   13.5299997      -4.93904606E-09
   13.5900002      -4.75999062E-09
   13.6499996      -4.61472949E-09
   13.7100000      -4.50351934E-09
   13.7700005      -4.42585790E-09
   13.8299999      -4.38140324E-09
   13.8900003      -4.37055458E-09
   13.9499998      -4.39472192E-09
   14.0100002      -4.45634729E-09
   14.0699997      -4.55867388E-09
   14.1300001      -4.70517492E-09
   14.1899996      -4.89857355E-09
   14.2500000      -5.13955634E-09
   14.3100004      -5.42551382E-09
   14.3699999      -5.74979930E-09
   14.4300003      -6.10191053E-09
   14.4899998      -6.46868115E-09
   14.5500002      -6.83615031E-09
   14.6099997      -7.19148918E-09
   14.6700001      -7.52436069E-09
   14.7299995      -7.82738940E-09
   14.7900000      -8.09583600E-09
   14.8500004      -8.32690183E-09
   14.9099998      -8.51911430E-09
   14.9700003      -8.67204886E-09
   15.0299997      -8.78627660E-09
   15.0900002      -8.86327634E-09
   15.1499996      -8.90505447E-09
   15.2100000      -8.91350638E-09
   15.2700005      -8.88977958E-09
   15.3299999      -8.83406770E-09
   15.3900003      -8.74601458E-09
   15.4499998      -8.62561578E-09
   15.5100002      -8.47418136E-09
   15.5699997      -8.29482705E-09
   15.6300001      -8.09217315E-09
   15.6899996      -7.87133470E-09
   15.7500000      -7.63662822E-09
   15.8100004      -7.39053752E-09
   15.8699999      -7.13333659E-09
   15.9300003      -6.86338009E-09
   15.9899998      -6.57777788E-09
   16.0499992      -6.27305807E-09
   16.1100006      -5.94552496E-09
   16.1700001      -5.59136648E-09
   16.2299995      -5.20675103E-09
   16.2900009      -4.78822626E-09
   16.3500004      -4.33352731E-09
   16.4099998      -3.84258314E-09
   16.4699993      -3.31829897E-09
   16.5300007      -2.76666356E-09
   16.5900002      -2.19600715E-09
   16.6499996      -1.61559199E-09
   16.7099991      -1.03405262E-09
   16.7700005      -4.58265093E-10
   16.8299999       1.06946903E-10
   16.8899994       6.58234800E-10
   16.9500008       1.19258614E-09
   17.0100002       1.70613079E-09
   17.0699997       2.19335372E-09
   17.1299992       2.64698041E-09
   17.1900005       3.05853232E-09
   17.2500000       3.41936501E-09
   17.3099995       3.72191278E-09
   17.3700008       3.96086852E-09
   17.4300003       4.13408596E-09
   17.4899998       4.24304192E-09
   17.5499992       4.29275904E-09
   17.6100006       4.29119584E-09
   17.6700001       4.24821334E-09
   17.7299995       4.17437462E-09
   17.7900009       4.07988354E-09
   17.8500004       3.97391853E-09
   17.9099998       3.86447452E-09
   17.9699993       3.75861697E-09
   18.0300007       3.66291042E-09
   18.0900002       3.58375396E-09
   18.1499996       3.52745011E-09
   18.2099991       3.49998297E-09
   18.2700005       3.50662255E-09
   18.3299999       3.55151442E-09
   18.3899994       3.63738417E-09
   18.4500008       3.76538534E-09
   18.5100002       3.93505628E-09
   18.5699997       4.14430179E-09
   18.6299992       4.38936043E-09
   18.6900005       4.66477079E-09
   18.7500000       4.96339814E-09
   18.8099995       5.27662269E-09
   18.8700008       5.59476510E-09
   18.9300003       5.90775251E-09
   18.9899998       6.20593132E-09
   19.0499992       6.48084386E-09
   19.1100006       6.72573819E-09
   19.1700001       6.93564983E-09
   19.2299995       7.10701986E-09
   19.2900009       7.23701943E-09
   19.3500004       7.32285432E-09
   19.4099998       7.36134487E-09
   19.4699993       7.34893923E-09
   19.5300007       7.28209981E-09
   19.5900002       7.15786319E-09
   19.6499996       6.97434466E-09
   19.7099991       6.73104905E-09
   19.7700005       6.42903464E-09
   19.8299999       6.07100503E-09
   19.8899994       5.66139535E-09
   19.9500008       5.20633225E-09
   20.0100002       4.71330486E-09
   20.0699997       4.19041513E-09
   20.1299992       3.64534203E-09
   20.1900005       3.08437476E-09
   20.2500000       2.51199395E-09
   20.3099995       1.93126937E-09
   20.3700008       1.34495415E-09
   20.4300003       7.56760432E-10
   20.4899998       1.72152792E-10
   20.5499992      -4.01763817E-10
   20.6100006      -9.57199986E-10
   20.6700001      -1.48695289E-09
   20.7299995      -1.98529726E-09
   20.7900009      -2.44805487E-09
   20.8500004      -2.87191293E-09
   20.9099998      -3.25354321E-09
   20.9699993      -3.58920049E-09
   21.0300007      -3.87520194E-09
   21.0900002      -4.10913215E-09
   21.1499996      -4.29114522E-09
   21.2099991      -4.42459536E-09
   21.2700005      -4.51553683E-09
   21.3299999      -4.57119986E-09
   21.3899994      -4.59810723E-09
   21.4500008      -4.60069183E-09
   21.5100002      -4.58108751E-09
   21.5699997      -4.54021043E-09
   21.6299992      -4.47964776E-09
   21.6900005      -4.40347181E-09
   21.7500000      -4.31909308E-09
   21.8099995      -4.23665680E-09
   21.8700008      -4.16710355E-09
   21.9300003      -4.11961176E-09
   21.9899998      -4.09944878E-09
   22.0499992      -4.10713374E-09
   22.1100006      -4.13927337E-09
   22.1700001      -4.19071444E-09
   22.2299995      -4.25703961E-09
   22.2900009      -4.33626646E-09
   22.3500004      -4.42897941E-09
   22.4099998      -4.53688287E-09
   22.4699993      -4.66057370E-09
   22.5300007      -4.79777817E-09
   22.5900002      -4.94310415E-09
   22.6499996      -5.08964026E-09
   22.7099991      -5.23177146E-09
   22.7700005      -5.36793232E-09
   22.8299999      -5.50194335E-09
   22.8899994      -5.64220892E-09
   22.9500008      -5.79903192E-09
   23.0100002      -5.98116623E-09
   23.0699997      -6.19308382E-09
   23.1299992      -6.43408793E-09
   23.1900005      -6.69956446E-09
   23.2500000      -6.98369940E-09
   23.3099995      -7.28238980E-09
   23.3700008      -7.59503305E-09
   23.4300003      -7.92443888E-09
   23.4899998      -8.27498603E-09
   23.5499992      -8.64988525E-09
   23.6100006      -9.04884345E-09
   23.6700001      -9.46715950E-09
   23.7299995      -9.89664883E-09
   23.7900009      -1.03279731E-08
   23.8500004      -1.07533236E-08
   23.9099998      -1.11682548E-08
   23.9699993      -1.15719176E-08
   24.0300007      -1.19656347E-08
   24.0900002      -1.23505384E-08
   24.1499996      -1.27253923E-08
   24.2099991      -1.30855504E-08
   24.2700005      -1.34234934E-08
   24.3299999      -1.37306246E-08
   24.3899994      -1.39995153E-08
   24.4500008      -1.42256660E-08
   24.5100002      -1.44081245E-08
   24.5699997      -1.45488359E-08
   24.6299992      -1.46510857E-08
   24.6900005      -1.47176715E-08
   24.7500000      -1.47494736E-08
   24.8099995      -1.47448755E-08
   24.8700008      -1.47001993E-08
   24.9300003      -1.46109969E-08
   24.9899998      -1.44737768E-08
   25.0499992      -1.42875480E-08
   25.1100006      -1.40545691E-08
   25.1700001      -1.37799221E-08
   25.2299995      -1.34699309E-08
   25.2900009      -1.31300082E-08
   25.3500004      -1.27628397E-08
   25.4099998      -1.23677948E-08
   25.4699993      -1.19420198E-08
   25.5300007      -1.14828902E-08
   25.5900002      -1.09907985E-08
   25.6499996      -1.04709947E-08
   25.7099991      -9.93346827E-09
   25.7700005      -9.39073175E-09
   25.8299999      -8.85430307E-09
   25.8899994      -8.33134095E-09
   25.9500008      -7.82289078E-09
   26.0100002      -7.32454231E-09
   26.0699997      -6.82926560E-09
   26.1299992      -6.33122443E-09
   26.1900005      -5.82891646E-09
   26.2500000      -5.32631228E-09
   26.3099995      -4.83154183E-09
   26.3700008      -4.35381642E-09
   26.4300003      -3.90007981E-09
   26.4899998      -3.47300766E-09
   26.5499992      -3.07131587E-09
   26.6100006      -2.69218270E-09
   26.6700001      -2.33450681E-09
   26.7299995      -2.00124051E-09
   26.7900009      -1.69944225E-09
   26.8500004      -1.43783530E-09
   26.9099998      -1.22294630E-09
   26.9699993      -1.05568720E-09
   27.0300007      -9.30097332E-10
   27.0900002      -8.34911584E-10
   27.1499996      -7.57223007E-10
   27.2099991      -6.86489032E-10
   27.2700005      -6.17025875E-10
   27.3299999      -5.47986323E-10
   27.3899994      -4.81145845E-10
   27.4500008      -4.17916229E-10
   27.5100002      -3.57309932E-10
   27.5699997      -2.95973773E-10
   27.6299992      -2.30276992E-10
   27.6900005      -1.59391000E-10
   27.7500000      -8.78474724E-11
   27.8099995      -2.63427041E-11
   27.8700008       9.63169561E-12
   27.9300003       2.88087739E-12
   27.9899998      -6.17148624E-11
   28.0499992      -1.93889904E-10
   28.1100006      -3.96028765E-10
   28.1700001      -6.62941924E-10
   28.2299995      -9.83274906E-10
   28.2900009      -1.34203404E-09
   28.3500004      -1.72346615E-09
   28.4099998      -2.11350537E-09
   28.4699993      -2.50121790E-09
   28.5300007      -2.87908453E-09
   28.5900002      -3.24244009E-09
   28.6499996      -3.58869556E-09
   28.7099991      -3.91696187E-09
   28.7700005      -4.22834390E-09
   28.8299999      -4.52667503E-09
   28.8899994      -4.81907358E-09
   28.9500008      -5.11569143E-09
   29.0100002      -5.42836043E-09
   29.0699997      -5.76837156E-09
   29.1299992      -6.14404749E-09
   29.1900005      -6.55884502E-09
   29.2500000      -7.01049263E-09
   29.3099995      -7.49123430E-09
   29.3700008      -7.98891531E-09
   29.4300003      -8.48848991E-09
   29.4899998      -8.97360408E-09
   29.5499992      -9.42804679E-09
   29.6100006      -9.83698900E-09
   29.6700001      -1.01880122E-08
   29.7299995      -1.04718687E-08
   29.7900009      -1.06830296E-08
   29.8500004      -1.08200577E-08
   29.9099998      -1.08858487E-08
   29.9699993      -1.08877423E-08
   30.0300007      -1.08373417E-08
   30.0900002      -1.07498153E-08
   30.1499996      -1.06425206E-08
   30.2099991      -1.05330100E-08
   30.2700005      -1.04367688E-08
   30.3299999      -1.03651878E-08
   30.3899994      -1.03242019E-08
   30.4500008      -1.03137454E-08
   30.5100002      -1.03279048E-08
   30.5699997      -1.03554800E-08
   30.6299992      -1.03807727E-08
   30.6900005      -1.03846363E-08
   30.7500000      -1.03459010E-08
   30.8099995      -1.02432374E-08
   30.8700008      -1.00572137E-08
   30.9300003      -9.77206582E-09
   30.9899998      -9.37669675E-09
   31.0499992      -8.86474538E-09
   31.1100006      -8.23401969E-09
   31.1700001      -7.48586437E-09
   31.2299995      -6.62497879E-09
   31.2900009      -5.65975089E-09
   31.3500004      -4.60266714E-09
   31.4099998      -3.47013573E-09
   31.4699993      -2.28131247E-09
   31.5300007      -1.05607878E-09
   31.5900002       1.87095187E-10
   31.6499996       1.43252854E-09
   31.7099991       2.66744760E-09
   31.7700005       3.88102839E-09
   31.8299999       5.06313658E-09
   31.8899994       6.20365670E-09
   31.9500008       7.29286143E-09
   32.0099983       8.32256930E-09
   32.0699997       9.28729982E-09
   32.1300011       1.01845909E-08
   32.1899986       1.10141212E-08
   32.2500000       1.17759882E-08
   32.3100014       1.24690027E-08
   32.3699989       1.30898572E-08
   32.4300003       1.36335334E-08
   32.4900017       1.40946561E-08
   32.5499992       1.44689745E-08
   32.6100006       1.47541526E-08
   32.6699982       1.49494852E-08
   32.7299995       1.50548214E-08
   32.7900009       1.50694479E-08
   32.8499985       1.49917270E-08
   32.9099998       1.48199213E-08
   32.9700012       1.45538888E-08
   33.0299988       1.41968872E-08
   33.0900002       1.37564662E-08
   33.1500015       1.32438505E-08
   33.2099991       1.26718787E-08
   33.2700005       1.20522774E-08
   33.3300018       1.13934213E-08
   33.3899994       1.06995071E-08
   33.4500008       9.97143079E-09
   33.5099983       9.20881948E-09
   33.5699997       8.41212611E-09
   33.6300011       7.58371410E-09
   33.6899986       6.72741152E-09
   33.7500000       5.84685900E-09
   33.8100014       4.94364194E-09
   33.8699989       4.01630817E-09
   33.9300003       3.06095371E-09
   33.9900017       2.07323181E-09
   34.0499992       1.05098630E-09
   34.1100006      -3.57002232E-12
   34.1699982      -1.08289022E-09
   34.2299995      -2.17450880E-09
   34.2900009      -3.26241878E-09
   34.3499985      -4.32876845E-09
   34.4099998      -5.35538991E-09
   34.4700012      -6.32503827E-09
   34.5299988      -7.22249771E-09
   34.5900002      -8.03572586E-09
   34.6500015      -8.75695516E-09
   34.7099991      -9.38340872E-09
   34.7700005      -9.91719595E-09
   34.8300018      -1.03641780E-08
   34.8899994      -1.07320588E-08
   34.9500008      -1.10282850E-08
   35.0099983      -1.12585337E-08
   35.0699997      -1.14262528E-08
   35.1300011      -1.15332854E-08
   35.1899986      -1.15810614E-08
   35.2500000      -1.15716698E-08
   35.3100014      -1.15081527E-08
   35.3699989      -1.13938654E-08
   35.4300003      -1.12311787E-08
   35.4900017      -1.10202523E-08
   35.5499992      -1.07585905E-08
   35.6100006      -1.04418243E-08
   35.6699982      -1.00655875E-08
   35.7299995      -9.62779190E-09
   35.7900009      -9.13029741E-09
   35.8499985      -8.57911164E-09
   35.9099998      -7.98287036E-09
   35.9700012      -7.35009742E-09
   36.0299988      -6.68644695E-09
   36.0900002      -5.99326944E-09
   36.1500015      -5.26832622E-09
   36.2099991      -4.50853355E-09
   36.2700005      -3.71361053E-09
   36.3300018      -2.88900415E-09
   36.3899994      -2.04670347E-09
   36.4500008      -1.20349541E-09
   36.5099983      -3.77368414E-10
   36.5699997       4.16407797E-10
   36.6300011       1.16793175E-09
   36.6899986       1.87312899E-09
   36.7500000       2.53215693E-09
   36.8100014       3.14678772E-09
   36.8699989       3.71812070E-09
   36.9300003       4.24562385E-09
   36.9900017       4.72774442E-09
   37.0499992       5.16354781E-09
   37.1100006       5.55446089E-09
   37.1699982       5.90519100E-09
   37.2299995       6.22338092E-09
   37.2900009       6.51802612E-09
   37.3499985       6.79718726E-09
   37.4099998       7.06574710E-09
   37.4700012       7.32394989E-09
   37.5299988       7.56724017E-09
   37.5900002       7.78748444E-09
   37.6500015       7.97519295E-09
   37.7099991       8.12195200E-09
   37.7700005       8.22217228E-09
   37.8300018       8.27352586E-09
   37.8899994       8.27602076E-09
   37.9500008       8.23029822E-09
   38.0099983       8.13611933E-09
   38.0699997       7.99185784E-09
   38.1300011       7.79527642E-09
   38.1899986       7.54514939E-09
   38.2500000       7.24285876E-09
   38.3100014       6.89315227E-09
   38.3699989       6.50377041E-09
   38.4300003       6.08423845E-09
   38.4900017       5.64450531E-09
   38.5499992       5.19399590E-09
   38.6100006       4.74123008E-09
   38.6699982       4.29376135E-09
   38.7299995       3.85804544E-09
   38.7900009       3.43910211E-09
   38.8499985       3.04017966E-09
   38.9099998       2.66280331E-09
   38.9700012       2.30740516E-09
   39.0299988       1.97430539E-09
   39.0900002       1.66447156E-09
   39.1500015       1.37950140E-09
   39.2099991       1.12072884E-09
   39.2700005       8.87925788E-10
   39.3300018       6.78424927E-10
   39.3899994       4.87331620E-10
   39.4500008       3.08909148E-10
   39.5099983       1.38568115E-10
   39.5699997      -2.54289628E-11
   39.6300011      -1.81260548E-10
   39.6899986      -3.24003741E-10
   39.7500000      -4.46882115E-10
   39.8100014      -5.42711376E-10
   39.8699989      -6.05103245E-10
   39.9300003      -6.29321040E-10
   39.9900017      -6.12889406E-10
   40.0499992      -5.56012014E-10
   40.1100006      -4.61641808E-10
   40.1699982      -3.34934497E-10
   40.2299995      -1.81998250E-10
   40.2900009      -8.26406912E-12
   40.3499985       1.82832194E-10
   40.4099998       3.90158933E-10
   40.4700012       6.13938900E-10
   40.5299988       8.53973281E-10
   40.5900002       1.10797349E-09
   40.6500015       1.37091982E-09
   40.7099991       1.63581826E-09
   40.7700005       1.89545046E-09
   40.8300018       2.14418217E-09
   40.8899994       2.37890418E-09
   40.9500008       2.59871968E-09
   41.0099983       2.80368972E-09
   41.0699997       2.99342728E-09
   41.1300011       3.16630455E-09
   41.1899986       3.31962613E-09
   41.2500000       3.45057982E-09
   41.3100014       3.55742835E-09
   41.3699989       3.64040220E-09
   41.4300003       3.70198494E-09
   41.4900017       3.74657905E-09
   41.5499992       3.77971920E-09
   41.6100006       3.80706489E-09
   41.6699982       3.83337007E-09
   41.7299995       3.86165366E-09
   41.7900009       3.89275234E-09
   41.8499985       3.92542709E-09
   41.9099998       3.95698452E-09
   41.9700012       3.98418631E-09
   42.0299988       4.00407307E-09
   42.0900002       4.01438038E-09
   42.1500015       4.01350642E-09
   42.2099991       4.00028055E-09
   42.2700005       3.97395805E-09
   42.3300018       3.93470190E-09
   42.3899994       3.88446519E-09
   42.4500008       3.82780563E-09
   42.5099983       3.77204756E-09
   42.5699997       3.72643694E-09
   42.6300011       3.70041842E-09
   42.6899986       3.70160569E-09
   42.7500000       3.73419162E-09
   42.8100014       3.79833098E-09
   42.8699989       3.89058386E-09
   42.9300003       4.00505806E-09
   42.9900017       4.13468060E-09
   43.0499992       4.27213731E-09
   43.1100006       4.41027614E-09
   43.1699982       4.54212223E-09
   43.2299995       4.66078376E-09
   43.2900009       4.75949413E-09
   43.3499985       4.83191176E-09
   43.4099998       4.87259566E-09
   43.4700012       4.87748153E-09
   43.5299988       4.84416907E-09
   43.5900002       4.77190198E-09
   43.6500015       4.66124650E-09
   43.7099991       4.51357174E-09
   43.7700005       4.33053948E-09
   43.8300018       4.11377599E-09
   43.8899994       3.86481602E-09
   43.9500008       3.58525098E-09
   44.0099983       3.27689231E-09
   44.0699997       2.94175218E-09
   44.1300011       2.58178945E-09
   44.1899986       2.19857310E-09
   44.2500000       1.79314474E-09
   44.3100014       1.36630895E-09
   44.3699989       9.19294529E-10
   44.4300003       4.54416560E-10
   44.4900017      -2.47961582E-11
   44.5499992      -5.14353393E-10
   44.6100006      -1.01129627E-09
   44.6699982      -1.51525659E-09
   44.7299995      -2.02914885E-09
   44.7900009      -2.55831645E-09
   44.8499985      -3.10813397E-09
   44.9099998      -3.68088915E-09
   44.9700012      -4.27324842E-09
   45.0299988      -4.87550356E-09
   45.0900002      -5.47307000E-09
   45.1500015      -6.04974426E-09
   45.2099991      -6.59144517E-09
   45.2700005      -7.08901782E-09
   45.3300018      -7.53912932E-09
   45.3899994      -7.94315902E-09
   45.4500008      -8.30485103E-09
   45.5099983      -8.62790905E-09
   45.5699997      -8.91459084E-09
   45.6300011      -9.16577214E-09
   45.6899986      -9.38220790E-09
   45.7500000      -9.56617452E-09
   45.8100014      -9.72252767E-09
   45.8699989      -9.85855131E-09
   45.9300003      -9.98249838E-09
   45.9900017      -1.01013642E-08
   46.0499992      -1.02187343E-08
   46.1100006      -1.03335420E-08
   46.1699982      -1.04401368E-08
   46.2299995      -1.05295133E-08
   46.2900009      -1.05911431E-08
   46.3499985      -1.06146860E-08
   46.4099998      -1.05911244E-08
   46.4700012      -1.05132791E-08
   46.5299988      -1.03760520E-08
   46.5900002      -1.01767847E-08
   46.6500015      -9.91584947E-09
   46.7099991      -9.59720214E-09
   46.7700005      -9.22830168E-09
   46.8300018      -8.81897577E-09
   46.8899994      -8.37927505E-09
   46.9500008      -7.91702615E-09
   47.0099983      -7.43612460E-09
   47.0699997      -6.93647806E-09
   47.1300011      -6.41580611E-09
   47.1899986      -5.87264593E-09
   47.2500000      -5.30927924E-09
   47.3100014      -4.73327422E-09
   47.3699989      -4.15692103E-09
   47.4300003      -3.59476382E-09
   47.4900017      -3.06024006E-09
   47.5499992      -2.56278332E-09
   47.6100006      -2.10649032E-09
   47.6699982      -1.69078185E-09
   47.7299995      -1.31268618E-09
   47.7900009      -9.69786362E-10
   47.8499985      -6.62659094E-10
   47.9099998      -3.95835031E-10
   47.9700012      -1.76840154E-10
   48.0299988      -1.35630101E-11
   48.0900002       8.91710386E-11
   48.1500015       1.32555800E-10
   48.2099991       1.25092631E-10
   48.2700005       8.15472828E-11
   48.3300018       1.97816433E-11
   48.3899994      -4.34850905E-11
   48.4500008      -9.64682986E-11
   48.5099983      -1.34327216E-10
   48.5699997      -1.58816071E-10
   48.6300011      -1.75981077E-10
   48.6899986      -1.93044636E-10
   48.7500000      -2.15762422E-10
   48.8100014      -2.47096538E-10
   48.8699989      -2.87315810E-10
   48.9300003      -3.35033890E-10
   48.9900017      -3.88509308E-10
   49.0499992      -4.46727821E-10
   49.1100006      -5.10121390E-10
   49.1699982      -5.80956894E-10
   49.2299995      -6.63366195E-10
   49.2900009      -7.62834240E-10
   49.3499985      -8.84963214E-10
   49.4099998      -1.03363440E-09
   49.4700012      -1.20915811E-09
   49.5299988      -1.40731637E-09
   49.5900002      -1.62004821E-09
   49.6500015      -1.83787940E-09
   49.7099991      -2.05333306E-09
   49.7700005      -2.26395835E-09
   49.8300018      -2.47364862E-09
   49.8899994      -2.69160183E-09
   49.9500008      -2.92929347E-09
   50.0099983      -3.19664251E-09
   50.0699997      -3.49883411E-09
   50.1300011      -3.83488574E-09
   50.1899986      -4.19829904E-09
   50.2500000      -4.57935156E-09
   50.3100014      -4.96810282E-09
   50.3699989      -5.35703926E-09
   50.4300003      -5.74251402E-09
   50.4900017      -6.12454309E-09
   50.5499992      -6.50506138E-09
   50.6100006      -6.88525059E-09