 -0.750000000       0.00000000    
 -0.689999998       0.00000000    
 -0.629999995       0.00000000    
 -0.569999993       0.00000000    
 -0.509999990       0.00000000    
 -0.449999988      -3.02116507E-20
 -0.389999986      -2.37485157E-19
 -0.330000013      -9.23510551E-19
 -0.270000011      -2.24232038E-18
 -0.209999993      -3.31709683E-18
 -0.150000006      -1.12410309E-18
  -9.00000036E-02   9.53726094E-18
  -2.99999993E-02   3.31568599E-17
   2.99999993E-02   6.69700048E-17
   9.00000036E-02   9.31445868E-17
  0.150000006       7.59468402E-17
  0.209999993      -2.83025835E-17
  0.270000011      -2.44606942E-16
  0.330000013      -5.42335820E-16
  0.389999986      -8.07018370E-16
  0.449999988      -8.47404159E-16
  0.509999990      -4.57873189E-16
  0.569999993       4.67659913E-16
  0.629999995       1.80952961E-15
  0.689999998       3.15307062E-15
  0.750000000       3.84886308E-15
  0.810000002       3.23580943E-15
  0.870000005       9.81743479E-16
  0.930000007      -2.59326167E-15
  0.990000010      -6.39773726E-15
   1.04999995      -8.80727664E-15
   1.11000001      -8.27826560E-15
   1.16999996      -4.15380934E-15
   1.23000002       2.69502887E-15
   1.28999996       9.78560139E-15
   1.35000002       1.37202227E-14
   1.40999997       1.15401700E-14
   1.47000003       2.23856493E-15
   1.52999997      -1.22686260E-14
   1.59000003      -2.72869784E-14
   1.64999998      -3.67193187E-14
   1.71000004      -3.51935617E-14
   1.76999998      -2.00409368E-14
   1.83000004       7.76152976E-15
   1.88999999       4.40655542E-14
   1.95000005       8.30616026E-14
   2.00999999       1.18840376E-13
   2.06999993       1.45964268E-13
   2.13000011       1.58610335E-13
   2.19000006       1.48852596E-13
   2.25000000       1.05530283E-13
   2.30999994       1.53649693E-14
   2.36999989      -1.32703757E-13
   2.43000007      -3.40398120E-13
   2.49000001      -5.92169055E-13
   2.54999995      -8.49399381E-13
   2.60999990      -1.04962707E-12
   2.67000008      -1.11251524E-12
   2.73000002      -9.52467489E-13
   2.78999996      -4.96002653E-13
   2.84999990       2.99025344E-13
   2.91000009       1.42520609E-12
   2.97000003       2.81019825E-12
   3.02999997       4.30496611E-12
   3.08999991       5.67630361E-12
   3.15000010       6.60613057E-12
   3.21000004       6.70363201E-12
   3.26999998       5.54023927E-12
   3.32999992       2.71884295E-12
   3.39000010      -2.01564633E-12
   3.45000005      -8.62913647E-12
   3.50999999      -1.66375733E-11
   3.56999993      -2.49753985E-11
   3.63000011      -3.19497276E-11
   3.69000006      -3.53362929E-11
   3.75000000      -3.26540635E-11
   3.80999994      -2.16191440E-11
   3.86999989      -7.33496814E-13
   3.93000007       3.00773122E-11
   3.99000001       6.88882562E-11
   4.05000019       1.11372855E-10
   4.11000013       1.50664925E-10
   4.17000008       1.77535445E-10
   4.23000002       1.80893051E-10
   4.28999996       1.48578386E-10
   4.34999990       6.83943527E-11
   4.40999985      -7.07062325E-11
   4.46999979      -2.77370626E-10
   4.53000021      -5.56646895E-10
   4.59000015      -9.08967124E-10
   4.65000010      -1.32945310E-09
   4.71000004      -1.80768212E-09
   4.76999998      -2.32801156E-09
   4.82999992      -2.87050339E-09
   4.88999987      -3.41239748E-09
   4.94999981      -3.92999677E-09
   5.01000023      -4.40074732E-09
   5.07000017      -4.80524598E-09
   5.13000011      -5.12892884E-09
   5.19000006      -5.36322364E-09
   5.25000000      -5.50604184E-09
   5.30999994      -5.56158586E-09
   5.36999989      -5.53953461E-09
   5.42999983      -5.45374013E-09
   5.48999977      -5.32061639E-09
   5.55000019      -5.15740162E-09
   5.61000013      -4.98048003E-09
   5.67000008      -4.80391948E-09
   5.73000002      -4.63835903E-09
   5.78999996      -4.49033966E-09
   5.84999990      -4.36213643E-09
   5.90999985      -4.25207869E-09
   5.96999979      -4.15530188E-09
   6.03000021      -4.06478140E-09
   6.09000015      -3.97248678E-09
   6.15000010      -3.87047505E-09
   6.21000004      -3.75177400E-09
   6.26999998      -3.61099395E-09
   6.32999992      -3.44467765E-09
   6.38999987      -3.25146421E-09
   6.44999981      -3.03216852E-09
   6.51000023      -2.78984635E-09
   6.57000017      -2.52984500E-09
   6.63000011      -2.25975860E-09
   6.69000006      -1.98916439E-09
   6.75000000      -1.72900738E-09
   6.80999994      -1.49059176E-09
   6.86999989      -1.28424771E-09
   6.92999983      -1.11787890E-09
   6.98999977      -9.95692639E-10
   7.05000019      -9.17429133E-10
   7.11000013      -8.78329187E-10
   7.17000008      -8.69916639E-10
   7.23000002      -8.81471451E-10
   7.28999996      -9.01881625E-10
   7.34999990      -9.21455523E-10
   7.40999985      -9.33277455E-10
   7.46999979      -9.33807920E-10
   7.53000021      -9.22636079E-10
   7.59000015      -9.01520469E-10
   7.65000010      -8.73047856E-10
   7.71000004      -8.39331549E-10
   7.76999998      -8.01143485E-10
   7.82999992      -7.57724550E-10
   7.88999987      -7.07303993E-10
   7.94999981      -6.48126663E-10
   8.01000023      -5.79625958E-10
   8.06999969      -5.03323994E-10
   8.13000011      -4.23125562E-10
   8.18999958      -3.44866524E-10
   8.25000000      -2.75225398E-10
   8.31000042      -2.20333599E-10
   8.36999989      -1.84531612E-10
   8.43000031      -1.69681880E-10
   8.48999977      -1.75261111E-10
   8.55000019      -1.99176162E-10
   8.60999966      -2.38984499E-10
   8.67000008      -2.93044422E-10
   8.72999954      -3.61140035E-10
   8.78999996      -4.44315112E-10
   8.85000038      -5.43936285E-10
   8.90999985      -6.60287491E-10
   8.97000027      -7.91167576E-10
   9.02999973      -9.30972965E-10
   9.09000015      -1.07060016E-09
   9.14999962      -1.19825982E-09
   9.21000004      -1.30104127E-09
   9.27000046      -1.36687395E-09
   9.32999992      -1.38644296E-09
   9.39000034      -1.35464107E-09
   9.44999981      -1.27126054E-09
   9.51000023      -1.14082188E-09
   9.56999969      -9.71649761E-10
   9.63000011      -7.74504960E-10
   9.68999958      -5.61184599E-10
   9.75000000      -3.43481577E-10
   9.81000042      -1.32719322E-10
   9.86999989       6.01941413E-11
   9.93000031       2.24521207E-10
   9.98999977       3.49730189E-10
   10.0500002       4.26196106E-10
   10.1099997       4.46639808E-10
   10.1700001       4.07951450E-10
   10.2299995       3.12681631E-10
   10.2900000       1.69391848E-10
   10.3500004      -8.67818751E-12
   10.4099998      -2.06600514E-10
   10.4700003      -4.11715911E-10
   10.5299997      -6.17368878E-10
   10.5900002      -8.25155777E-10
   10.6499996      -1.04480258E-09
   10.7100000      -1.29153022E-09
   10.7700005      -1.58160252E-09
   10.8299999      -1.92734007E-09
   10.8900003      -2.33305220E-09
   10.9499998      -2.79299694E-09
   11.0100002      -3.29181127E-09
   11.0699997      -3.80708798E-09
   11.1300001      -4.31320446E-09
   11.1899996      -4.78530282E-09
   11.2500000      -5.20247134E-09
   11.3100004      -5.54960033E-09
   11.3699999      -5.81789461E-09
   11.4300003      -6.00438410E-09
   11.4899998      -6.11097528E-09
   11.5500002      -6.14354301E-09
   11.6099997      -6.11133721E-09
   11.6700001      -6.02674266E-09
   11.7299995      -5.90515592E-09
   11.7900000      -5.76462034E-09
   11.8500004      -5.62487967E-09
   11.9099998      -5.50565460E-09
   11.9700003      -5.42425260E-09
   12.0299997      -5.39294742E-09
   12.0900002      -5.41678435E-09
   12.1499996      -5.49254153E-09
   12.2100000      -5.60932634E-09
   12.2700005      -5.75086379E-09
   12.3299999      -5.89899241E-09
   12.3900003      -6.03746297E-09
   12.4499998      -6.15500051E-09
   12.5100002      -6.24683105E-09
   12.5699997      -6.31436103E-09
   12.6300001      -6.36332853E-09
   12.6899996      -6.40117870E-09
   12.7500000      -6.43457199E-09
   12.8100004      -6.46774900E-09
   12.8699999      -6.50204379E-09
   12.9300003      -6.53642340E-09
   12.9899998      -6.56861809E-09
   13.0500002      -6.59640031E-09
   13.1099997      -6.61867716E-09
   13.1700001      -6.63632305E-09
   13.2299995      -6.65281252E-09
   13.2900000      -6.67473632E-09
   13.3500004      -6.71216416E-09
   13.4099998      -6.77870782E-09
   13.4700003      -6.89103352E-09
   13.5299997      -7.06768333E-09
   13.5900002      -7.32724281E-09
   13.6499996      -7.68611041E-09
   13.7100000      -8.15632273E-09
   13.7700005      -8.74386696E-09
   13.8299999      -9.44785494E-09
   13.8900003      -1.02606785E-08
   13.9499998      -1.11690559E-08
   14.0100002      -1.21556747E-08
   14.0699997      -1.32010554E-08
   14.1300001      -1.42852477E-08
   14.1899996      -1.53890021E-08
   14.2500000      -1.64942833E-08
   14.3100004      -1.75841262E-08
   14.3699999      -1.86420994E-08
   14.4300003      -1.96518037E-08
   14.4899998      -2.05968771E-08
   14.5500002      -2.14618314E-08
   14.6099997      -2.22337100E-08
   14.6700001      -2.29041515E-08
   14.7299995      -2.34711219E-08
   14.7900000      -2.39396183E-08
   14.8500004      -2.43208422E-08
   14.9099998      -2.46300171E-08
   14.9700003      -2.48834784E-08
   15.0299997      -2.50960337E-08
   15.0900002      -2.52794585E-08
   15.1499996      -2.54425405E-08
   15.2100000      -2.55923585E-08
   15.2700005      -2.57360231E-08
   15.3299999      -2.58819810E-08
   15.3900003      -2.60401922E-08
   15.4499998      -2.62211728E-08
   15.5100002      -2.64343694E-08
   15.5699997      -2.66865872E-08
   15.6300001      -2.69811480E-08
   15.6899996      -2.73179452E-08
   15.7500000      -2.76941812E-08
   15.8100004      -2.81052532E-08
   15.8699999      -2.85452604E-08
   15.9300003      -2.90070332E-08
   15.9899998      -2.94818392E-08
   16.0499992      -2.99593417E-08
   16.1100006      -3.04282892E-08
   16.1700001      -3.08781445E-08
   16.2299995      -3.13013508E-08
   16.2900009      -3.16955102E-08
   16.3500004      -3.20645910E-08
   16.4099998      -3.24184093E-08
   16.4699993      -3.27703340E-08
   16.5300007      -3.31336771E-08
   16.5900002      -3.35178676E-08
   16.6499996      -3.39256552E-08
   16.7099991      -3.43523148E-08
   16.7700005      -3.47870071E-08
   16.8299999      -3.52157379E-08
   16.8899994      -3.56248080E-08
   16.9500008      -3.60034100E-08
   17.0100002      -3.63445771E-08
   17.0699997      -3.66444084E-08
   17.1299992      -3.69000581E-08
   17.1900005      -3.71076965E-08
   17.2500000      -3.72612305E-08
   17.3099995      -3.73524500E-08
   17.3700008      -3.73723985E-08
   17.4300003      -3.73134128E-08
   17.4899998      -3.71709596E-08
   17.5499992      -3.69447193E-08
   17.6100006      -3.66385358E-08
   17.6700001      -3.62595074E-08
   17.7299995      -3.58166474E-08
   17.7900009      -3.53196441E-08
   17.8500004      -3.47781040E-08
   17.9099998      -3.42013244E-08
   17.9699993      -3.35984005E-08
   18.0300007      -3.29781606E-08
   18.0900002      -3.23486518E-08
   18.1499996      -3.17160378E-08
   18.2099991      -3.10831538E-08
   18.2700005      -3.04483478E-08
   18.3299999      -2.98052605E-08
   18.3899994      -2.91439353E-08
   18.4500008      -2.84532931E-08
   18.5100002      -2.77242815E-08
   18.5699997      -2.69528293E-08
   18.6299992      -2.61416719E-08
   18.6900005      -2.53004142E-08
   18.7500000      -2.44438709E-08
   18.8099995      -2.35891680E-08
   18.8700008      -2.27524293E-08
   18.9300003      -2.19458673E-08
   18.9899998      -2.11758362E-08
   19.0499992      -2.04421351E-08
   19.1100006      -1.97384615E-08
   19.1700001      -1.90538358E-08
   19.2299995      -1.83746103E-08
   19.2900009      -1.76867019E-08
   19.3500004      -1.69776495E-08
   19.4099998      -1.62381752E-08
   19.4699993      -1.54629891E-08
   19.5300007      -1.46507926E-08
   19.5900002      -1.38036222E-08
   19.6499996      -1.29257076E-08
   19.7099991      -1.20221548E-08
   19.7700005      -1.10976570E-08
   19.8299999      -1.01554329E-08
   19.8899994      -9.19653331E-09
   19.9500008      -8.21967916E-09
   20.0100002      -7.22168014E-09
   20.0699997      -6.19839424E-09
   20.1299992      -5.14596765E-09
   20.1900005      -4.06196676E-09
   20.2500000      -2.94602365E-09
   20.3099995      -1.79977377E-09
   20.3700008      -6.26210750E-10
   20.4300003       5.71172609E-10
   20.4899998       1.78899928E-09
   20.5499992       3.02407743E-09
   20.6100006       4.27294955E-09
   20.6700001       5.53125101E-09
   20.7299995       6.79332013E-09
   20.7900009       8.05237299E-09
   20.8500004       9.30126642E-09
   20.9099998       1.05335607E-08
   20.9699993       1.17444632E-08
   21.0300007       1.29312703E-08
   21.0900002       1.40931506E-08
   21.1499996       1.52303450E-08
   21.2099991       1.63430229E-08
   21.2700005       1.74301498E-08
   21.3299999       1.84886506E-08
   21.3899994       1.95131307E-08
   21.4500008       2.04962767E-08
   21.5100002       2.14299476E-08
   21.5699997       2.23067680E-08
   21.6299992       2.31218777E-08
   21.6900005       2.38743620E-08
   21.7500000       2.45679708E-08
   21.8099995       2.52108130E-08
   21.8700008       2.58141561E-08
   21.9300003       2.63906017E-08
   21.9899998       2.69521774E-08
   22.0499992       2.75088237E-08
   22.1100006       2.80675962E-08
   22.1700001       2.86326269E-08
   22.2299995       2.92056495E-08
   22.2900009       2.97867295E-08
   22.3500004       3.03749239E-08
   22.4099998       3.09686357E-08
   22.4699993       3.15657367E-08
   22.5300007       3.21635980E-08
   22.5900002       3.27593348E-08
   22.6499996       3.33503358E-08
   22.7099991       3.39350841E-08
   22.7700005       3.45139348E-08
   22.8299999       3.50894638E-08
   22.8899994       3.56660195E-08
   22.9500008       3.62484762E-08
   23.0100002       3.68404365E-08
   23.0699997       3.74425397E-08
   23.1299992       3.80514891E-08
   23.1900005       3.86602501E-08
   23.2500000       3.92593122E-08
   23.3099995       3.98387030E-08
   23.3700008       4.03899278E-08
   23.4300003       4.09071959E-08
   23.4899998       4.13875334E-08
   23.5499992       4.18297823E-08
   23.6100006       4.22328235E-08
   23.6700001       4.25936229E-08
   23.7299995       4.29057714E-08
   23.7900009       4.31588631E-08
   23.8500004       4.33390248E-08
   23.9099998       4.34303971E-08
   23.9699993       4.34171490E-08
   24.0300007       4.32853930E-08
   24.0900002       4.30243574E-08
   24.1499996       4.26264108E-08
   24.2099991       4.20859010E-08
   24.2700005       4.13973424E-08
   24.3299999       4.05536831E-08
   24.3899994       3.95455153E-08
   24.4500008       3.83616765E-08
   24.5100002       3.69911604E-08
   24.5699997       3.54257068E-08
   24.6299992       3.36620971E-08
   24.6900005       3.17031876E-08
   24.7500000       2.95572811E-08
   24.8099995       2.72358882E-08
   24.8700008       2.47507437E-08
   24.9300003       2.21111005E-08
   24.9899998       1.93223997E-08
   25.0499992       1.63868563E-08
   25.1100006       1.33058311E-08
   25.1700001       1.00831974E-08
   25.2299995       6.72840450E-09
   25.2900009       3.25800098E-09
   25.3500004      -3.05138803E-10
   25.4099998      -3.93482624E-09
   25.4699993      -7.60586705E-09
   25.5300007      -1.12981642E-08
   25.5900002      -1.49991095E-08
   25.6499996      -1.87032949E-08
   25.7099991      -2.24095515E-08
   25.7700005      -2.61163073E-08
   25.8299999      -2.98168601E-08
   25.8899994      -3.34962600E-08
   25.9500008      -3.71308815E-08
   26.0100002      -4.06908320E-08
   26.0699997      -4.41444215E-08
   26.1299992      -4.74631996E-08
   26.1900005      -5.06258750E-08
   26.2500000      -5.36199707E-08
   26.3099995      -5.64406832E-08
   26.3700008      -5.90875047E-08
   26.4300003      -6.15597315E-08
   26.4899998      -6.38524114E-08
   26.5499992      -6.59540476E-08
   26.6100006      -6.78468410E-08
   26.6700001      -6.95092766E-08
   26.7299995      -7.09203505E-08
   26.7900009      -7.20640045E-08
   26.8500004      -7.29325933E-08
   26.9099998      -7.35282555E-08
   26.9699993      -7.38621750E-08
   27.0300007      -7.39518740E-08
   27.0900002      -7.38175672E-08
   27.1499996      -7.34786809E-08
   27.2099991      -7.29514227E-08
   27.2700005      -7.22479427E-08
   27.3299999      -7.13768955E-08
   27.3899994      -7.03449814E-08
   27.4500008      -6.91583750E-08
   27.5100002      -6.78234500E-08
   27.5699997      -6.63462387E-08
   27.6299992      -6.47309264E-08
   27.6900005      -6.29780672E-08
   27.7500000      -6.10835684E-08
   27.8099995      -5.90392695E-08
   27.8700008      -5.68353471E-08
   27.9300003      -5.44641239E-08
   27.9899998      -5.19241112E-08
   28.0499992      -4.92229937E-08
   28.1100006      -4.63784779E-08
   28.1700001      -4.34166907E-08
   28.2299995      -4.03684730E-08
   28.2900009      -3.72647690E-08
   28.3500004      -3.41323414E-08
   28.4099998      -3.09909467E-08
   28.4699993      -2.78524936E-08
   28.5300007      -2.47219649E-08
   28.5900002      -2.15994813E-08
   28.6499996      -1.84825151E-08
   28.7099991      -1.53675170E-08
   28.7700005      -1.22506894E-08
   28.8299999      -9.12808851E-09
   28.8899994      -5.99567995E-09
   28.9500008      -2.84998691E-09
   29.0100002       3.10273335E-10
   29.0699997       3.48169471E-09
   29.1299992       6.65340982E-09
   29.1900005       9.80491599E-09
   29.2500000       1.29053239E-08
   29.3099995       1.59145070E-08
   29.3700008       1.87861708E-08
   29.4300003       2.14723848E-08
   29.4899998       2.39287949E-08
   29.5499992       2.61196149E-08
   29.6100006       2.80215282E-08
   29.6700001       2.96257721E-08
   29.7299995       3.09380077E-08
   29.7900009       3.19759366E-08
   29.8500004       3.27651293E-08
   29.9099998       3.33338512E-08
   29.9699993       3.37079200E-08
   30.0300007       3.39065558E-08
   30.0900002       3.39397239E-08
   30.1499996       3.38070727E-08
   30.2099991       3.34980932E-08
   30.2700005       3.29929932E-08
   30.3299999       3.22640581E-08
   30.3899994       3.12773665E-08
   30.4500008       2.99952916E-08
   30.5100002       2.83799810E-08
   30.5699997       2.63978972E-08
   30.6299992       2.40249278E-08
   30.6900005       2.12512106E-08
   30.7500000       1.80845028E-08
   30.8099995       1.45511914E-08
   30.8700008       1.06943903E-08
   30.9300003       6.56931620E-09
   30.9899998       2.23680896E-09
   31.0499992      -2.24366126E-09
   31.1100006      -6.81997037E-09
   31.1700001      -1.14510232E-08
   31.2299995      -1.61074780E-08
   31.2900009      -2.07696882E-08
   31.3500004      -2.54237733E-08
   31.4099998      -3.00571976E-08
   31.4699993      -3.46550735E-08
   31.5300007      -3.91980670E-08
   31.5900002      -4.36617746E-08
   31.6499996      -4.80171067E-08
   31.7099991      -5.22307744E-08
   31.7700005      -5.62653284E-08
   31.8299999      -6.00787260E-08
   31.8899994      -6.36238795E-08
   31.9500008      -6.68489193E-08
   32.0099983      -6.96986646E-08
   32.0699997      -7.21175084E-08
   32.1300011      -7.40530481E-08
   32.1899986      -7.54598517E-08
   32.2500000      -7.63024914E-08
   32.3100014      -7.65572636E-08
   32.3699989      -7.62124301E-08
   32.4300003      -7.52671099E-08
   32.4900017      -7.37292041E-08
   32.5499992      -7.16128881E-08
   32.6100006      -6.89359396E-08
   32.6699982      -6.57175789E-08
   32.7299995      -6.19769054E-08
   32.7900009      -5.77322652E-08
   32.8499985      -5.30016031E-08
   32.9099998      -4.78035602E-08
   32.9700012      -4.21590336E-08
   33.0299988      -3.60928425E-08
   33.0900002      -2.96350482E-08
   33.1500015      -2.28218013E-08
   33.2099991      -1.56956066E-08
   33.2700005      -8.30513347E-09
   33.3300018      -7.04733494E-10
   33.3899994       7.04620939E-09
   33.4500008       1.48841268E-08
   33.5099983       2.27424035E-08
   33.5699997       3.05529895E-08
   33.6300011       3.82484870E-08
   33.6899986       4.57645299E-08
   33.7500000       5.30420117E-08
   33.8100014       6.00286612E-08
   33.8699989       6.66794975E-08
   33.9300003       7.29561123E-08
   33.9900017       7.88251810E-08
   34.0499992       8.42567545E-08
   34.1100006       8.92232492E-08
   34.1699982       9.36993487E-08
   34.2299995       9.76628698E-08
   34.2900009       1.01096056E-07
   34.3499985       1.03986409E-07
   34.4099998       1.06326446E-07
   34.4700012       1.08112246E-07
   34.5299988       1.09340988E-07
   34.5900002       1.10008251E-07
   34.6500015       1.10106114E-07
   34.7099991       1.09622476E-07
   34.7700005       1.08542139E-07
   34.8300018       1.06849214E-07
   34.8899994       1.04530379E-07
   34.9500008       1.01578010E-07
   35.0099983       9.79926753E-08
   35.0699997       9.37842302E-08
   35.1300011       8.89714968E-08
   35.1899986       8.35809146E-08
   35.2500000       7.76446143E-08
   35.3100014       7.11988122E-08
   35.3699989       6.42829860E-08
   35.4300003       5.69400953E-08
   35.4900017       4.92174479E-08
   35.5499992       4.11676808E-08
   35.6100006       3.28489662E-08
   35.6699982       2.43239651E-08
   35.7299995       1.56574789E-08
   35.7900009       6.91333213E-09
   35.8499985      -1.84860360E-09
   35.9099998      -1.05742641E-08
   35.9700012      -1.92155163E-08
   36.0299988      -2.77284649E-08
   36.0900002      -3.60705350E-08
   36.1500015      -4.41973285E-08
   36.2099991      -5.20604537E-08
   36.2700005      -5.96071033E-08
   36.3300018      -6.67817091E-08
   36.3899994      -7.35293568E-08
   36.4500008      -7.97999888E-08
   36.5099983      -8.55522515E-08
   36.5699997      -9.07558970E-08
   36.6300011      -9.53921031E-08
   36.6899986      -9.94516896E-08
   36.7500000      -1.02931878E-07
   36.8100014      -1.05832669E-07
   36.8699989      -1.08153934E-07
   36.9300003      -1.09894252E-07
   36.9900017      -1.11051627E-07
   37.0499992      -1.11625830E-07
   37.1100006      -1.11621326E-07
   37.1699982      -1.11049609E-07
   37.2299995      -1.09929914E-07
   37.2900009      -1.08288035E-07
   37.3499985      -1.06153358E-07
   37.4099998      -1.03555422E-07
   37.4700012      -1.00520957E-07
   37.5299988      -9.70726646E-08
   37.5900002      -9.32302697E-08
   37.6500015      -8.90132625E-08
   37.7099991      -8.44446291E-08
   37.7700005      -7.95540416E-08
   37.8300018      -7.43794075E-08
   37.8899994      -6.89661022E-08
   37.9500008      -6.33641335E-08
   38.0099983      -5.76239074E-08
   38.0699997      -5.17920675E-08
   38.1300011      -4.59086138E-08
   38.1899986      -4.00061850E-08
   38.2500000      -3.41116362E-08
   38.3100014      -2.82493620E-08
   38.3699989      -2.24450343E-08
   38.4300003      -1.67285066E-08
   38.4900017      -1.11348486E-08
   38.5499992      -5.70321390E-09
   38.6100006      -4.73994621E-10
   38.6699982       4.51462911E-09
   38.7299995       9.22952115E-09
   38.7900009       1.36438310E-08
   38.8499985       1.77362818E-08
   38.9099998       2.14888498E-08
   38.9700012       2.48837573E-08
   39.0299988       2.79008585E-08
   39.0900002       3.05164924E-08
   39.1500015       3.27043743E-08
   39.2099991       3.44385001E-08
   39.2700005       3.56974361E-08
   39.3300018       3.64688297E-08
   39.3899994       3.67527662E-08
   39.4500008       3.65628985E-08
   39.5099983       3.59248311E-08
   39.5699997       3.48721443E-08
   39.6300011       3.34412178E-08
   39.6899986       3.16664170E-08
   39.7500000       2.95771105E-08
   39.8100014       2.71970624E-08
   39.8699989       2.45461713E-08
   39.9300003       2.16433431E-08
   39.9900017       1.85093327E-08
   40.0499992       1.51684514E-08
   40.1100006       1.16487779E-08
   40.1699982       7.98118283E-09
   40.2299995       4.19790913E-09
   40.2900009       3.31466465E-10
   40.3499985      -3.58576546E-09
   40.4099998      -7.52127693E-09
   40.4700012      -1.14419274E-08
   40.5299988      -1.53137290E-08
   40.5900002      -1.91022771E-08
   40.6500015      -2.27739037E-08
   40.7099991      -2.62973341E-08
   40.7700005      -2.96453830E-08
   40.8300018      -3.27962901E-08
   40.8899994      -3.57343382E-08
   40.9500008      -3.84497199E-08
   41.0099983      -4.09377741E-08
   41.0699997      -4.31979217E-08
   41.1300011      -4.52326567E-08
   41.1899986      -4.70466901E-08
   41.2500000      -4.86462746E-08
   41.3100014      -5.00385227E-08
   41.3699989      -5.12305576E-08
   41.4300003      -5.22285326E-08
   41.4900017      -5.30368105E-08
   41.5499992      -5.36577538E-08
   41.6100006      -5.40924496E-08
   41.6699982      -5.43424541E-08
   41.7299995      -5.44120908E-08
   41.7900009      -5.43106005E-08
   41.8499985      -5.40532952E-08
   41.9099998      -5.36611608E-08
   41.9700012      -5.31588178E-08
   42.0299988      -5.25713588E-08
   42.0900002      -5.19208925E-08
   42.1500015      -5.12238323E-08
   42.2099991      -5.04896498E-08
   42.2700005      -4.97214572E-08
   42.3300018      -4.89181851E-08
   42.3899994      -4.80774780E-08
   42.4500008      -4.71982915E-08
   42.5099983      -4.62820360E-08
   42.5699997      -4.53316744E-08
   42.6300011      -4.43487806E-08
   42.6899986      -4.33295888E-08
   42.7500000      -4.22615400E-08
   42.8100014      -4.11219645E-08
   42.8699989      -3.98799500E-08
   42.9300003      -3.85013621E-08
   42.9900017      -3.69557611E-08
   43.0499992      -3.52230458E-08
   43.1100006      -3.32976100E-08
   43.1699982      -3.11883106E-08
   43.2299995      -2.89141280E-08
   43.2900009      -2.64966893E-08
   43.3499985      -2.39520581E-08
   43.4099998      -2.12844640E-08
   43.4700012      -1.84840747E-08
   43.5299988      -1.55295723E-08
   43.5900002      -1.23946897E-08
   43.6500015      -9.05654662E-09
   43.7099991      -5.50306334E-09
   43.7700005      -1.73701764E-09
   43.8300018       2.22449570E-09
   43.8899994       6.35490727E-09
   43.9500008       1.06255875E-08
   44.0099983       1.50132600E-08
   44.0699997       1.95048671E-08
   44.1300011       2.40982203E-08
   44.1899986       2.87981390E-08
   44.2500000       3.36093358E-08
   44.3100014       3.85283876E-08
   44.3699989       4.35375824E-08
   44.4300003       4.86030025E-08
   44.4900017       5.36777556E-08
   44.5499992       5.87098370E-08
   44.6100006       6.36521946E-08
   44.6699982       6.84716426E-08
   44.7299995       7.31535437E-08
   44.7900009       7.77001787E-08
   44.8499985       8.21230728E-08
   44.9099998       8.64317116E-08
   44.9700012       9.06225139E-08
   45.0299988       9.46721670E-08
   45.0900002       9.85376829E-08
   45.1500015       1.02163611E-07
   45.2099991       1.05493683E-07
   45.2700005       1.08483128E-07
   45.3300018       1.11107276E-07
   45.3899994       1.13363818E-07
   45.4500008       1.15268165E-07
   45.5099983       1.16843857E-07
   45.5699997       1.18111572E-07
   45.6300011       1.19080582E-07
   45.6899986       1.19745266E-07
   45.7500000       1.20087776E-07
   45.8100014       1.20085630E-07
   45.8699989       1.19720994E-07
   45.9300003       1.18988702E-07
   45.9900017       1.17899532E-07
   46.0499992       1.16477757E-07
   46.1100006       1.14753647E-07
   46.1699982       1.12753717E-07
   46.2299995       1.10492259E-07
   46.2900009       1.07967736E-07
   46.3499985       1.05165782E-07
   46.4099998       1.02068320E-07
   46.4700012       9.86659714E-08
   46.5299988       9.49697565E-08
   46.5900002       9.10176823E-08
   46.6500015       8.68737189E-08
   46.7099991       8.26186337E-08
   46.7700005       7.83350913E-08
   46.8300018       7.40912967E-08
   46.8899994       6.99279568E-08
   46.9500008       6.58529515E-08
   47.0099983       6.18452916E-08
   47.0699997       5.78674104E-08
   47.1300011       5.38821006E-08
   47.1899986       4.98686177E-08
   47.2500000       4.58328557E-08
   47.3100014       4.18083417E-08
   47.3699989       3.78478902E-08
   47.4300003       3.40088882E-08
   47.4900017       3.03372758E-08
   47.5499992       2.68556075E-08
   47.6100006       2.35589823E-08
   47.6699982       2.04198987E-08
   47.7299995       1.74000068E-08
   47.7900009       1.44646357E-08
   47.8499985       1.15952368E-08
   47.9099998       8.79580053E-09
   47.9700012       6.09135542E-09
   48.0299988       3.51921625E-09
   48.0900002       1.11587650E-09
   48.1500015      -1.09617571E-09
   48.2099991      -3.11734905E-09
   48.2700005      -4.97241359E-09
   48.3300018      -6.70367628E-09
   48.3899994      -8.35771097E-09
   48.4500008      -9.96977967E-09
   48.5099983      -1.15511432E-08
   48.5699997      -1.30837812E-08
   48.6300011      -1.45247130E-08
   48.6899986      -1.58188769E-08
   48.7500000      -1.69164860E-08
   48.8100014      -1.77891000E-08
   48.8699989      -1.84389872E-08
   48.9300003      -1.88985432E-08
   48.9900017      -1.92199483E-08
   49.0499992      -1.94584544E-08
   49.1100006      -1.96547880E-08
   49.1699982      -1.98224068E-08
   49.2299995      -1.99437071E-08
   49.2900009      -1.99763353E-08
   49.3499985      -1.98676116E-08
   49.4099998      -1.95724184E-08
   49.4700012      -1.90688692E-08
   49.5299988      -1.83667339E-08
   49.5900002      -1.75058457E-08
   49.6500015      -1.65449769E-08
   49.7099991      -1.55447335E-08
   49.7700005      -1.45500518E-08
   49.8300018      -1.35780560E-08
   49.8899994      -1.26152813E-08
   49.9500008      -1.16250787E-08
   50.0099983      -1.05626041E-08
   50.0699997      -9.39218214E-09
   50.1300011      -8.10111001E-09
   50.1899986      -6.70524392E-09
   50.2500000      -5.24462651E-09
   50.3100014      -3.77086318E-09
   50.3699989      -2.33080466E-09
   50.4300003      -9.52311785E-10
   50.4900017       3.62860131E-10
   50.5499992       1.63653124E-09
   50.6100006       2.90275293E-09