  -2.400000      0.0000000E+00
  -2.340000      0.0000000E+00
  -2.280000      0.0000000E+00
  -2.220000      0.0000000E+00
  -2.160000      0.0000000E+00
  -2.100000     -3.2225541E-20
  -2.040000     -2.5081031E-19
  -1.980000     -9.6407249E-19
  -1.920000     -2.3068200E-18
  -1.860000     -3.3308175E-18
  -1.800000     -9.1662603E-19
  -1.740000      1.0132441E-17
  -1.680000      3.4045712E-17
  -1.620000      6.7547377E-17
  -1.560000      9.2406285E-17
  -1.500000      7.3246625E-17
  -1.440000     -3.2076201E-17
  -1.380000     -2.4638201E-16
  -1.320000     -5.3798292E-16
  -1.260000     -7.9470749E-16
  -1.200000     -8.3176666E-16
  -1.140000     -4.5165475E-16
  -1.080000      4.4788270E-16
  -1.020000      1.7541277E-15
 -0.9600000      3.0721294E-15
 -0.9000000      3.7782489E-15
 -0.8400000      3.2283884E-15
 -0.7800000      1.0825907E-15
 -0.7200000     -2.3780501E-15
 -0.6600000     -6.1209980E-15
 -0.6000000     -8.5734651E-15
 -0.5400000     -8.2058553E-15
 -0.4800000     -4.3227950E-15
 -0.4200000      2.2830234E-15
 -0.3600000      9.2112842E-15
 -0.3000000      1.3112616E-14
 -0.2400000      1.1028809E-14
 -0.1800000      1.9288145E-15
 -0.1200000     -1.2274745E-14
 -5.9999999E-02 -2.6840592E-14
  0.0000000E+00 -3.5601750E-14
  5.9999999E-02 -3.3188255E-14
  0.1200000     -1.7128882E-14
  0.1800000      1.1137336E-14
  0.2400000      4.6810453E-14
  0.3000000      8.3497750E-14
  0.3600000      1.1516126E-13
  0.4200000      1.3704612E-13
  0.4800000      1.4494134E-13
  0.5400000      1.3317015E-13
  0.6000000      9.2730314E-14
  0.6600000      1.1427346E-14
  0.7200000     -1.2266150E-13
  0.7800000     -3.1439174E-13
  0.8400000     -5.5308264E-13
  0.9000000     -8.0531502E-13
  0.9600000     -1.0122636E-12
   1.020000     -1.0939843E-12
   1.080000     -9.6130905E-13
   1.140000     -5.3394604E-13
   1.200000      2.3819873E-13
   1.260000      1.3539843E-12
   1.320000      2.7432013E-12
   1.380000      4.2537475E-12
   1.440000      5.6450604E-12
   1.500000      6.5900874E-12
   1.560000      6.6909807E-12
   1.620000      5.5172295E-12
   1.680000      2.6764643E-12
   1.740000     -2.0755329E-12
   1.800000     -8.6902126E-12
   1.860000     -1.6669268E-11
   1.920000     -2.4937125E-11
   1.980000     -3.1798560E-11
   2.040000     -3.5037129E-11
   2.100000     -3.2191388E-11
   2.160000     -2.1009701E-11
   2.220000     -3.9088544E-14
   2.280000      3.0738707E-11
   2.340000      6.9336668E-11
   2.400000      1.1137201E-10
   2.460000      1.4994743E-10
   2.520000      1.7585533E-10
   2.580000      1.7811019E-10
   2.640000      1.4477194E-10
   2.700000      6.3993165E-11
   2.760000     -7.4797765E-11
   2.820000     -2.7967825E-10
   2.880000     -5.5508975E-10
   2.940000     -9.0089541E-10
   3.000000     -1.3117667E-09
   3.060000     -1.7770180E-09
   3.120000     -2.2809830E-09
   3.180000     -2.8039653E-09
   3.240000     -3.3237211E-09
   3.300000     -3.8173384E-09
   3.360000     -4.2632995E-09
   3.420000     -4.6434696E-09
   3.480000     -4.9447433E-09
   3.540000     -5.1601257E-09
   3.600000     -5.2891278E-09
   3.660000     -5.3374367E-09
   3.720000     -5.3159477E-09
   3.780000     -5.2393134E-09
   3.840000     -5.1242246E-09
   3.900000     -4.9876236E-09
   3.960000     -4.8450541E-09
   4.020000     -4.7092938E-09
   4.080000     -4.5893778E-09
   4.140000     -4.4900834E-09
   4.200000     -4.4118935E-09
   4.260000     -4.3514117E-09
   4.320000     -4.3021671E-09
   4.380000     -4.2556731E-09
   4.440000     -4.2026107E-09
   4.500000     -4.1339527E-09
   4.560000     -4.0419090E-09
   4.620000     -3.9206016E-09
   4.680000     -3.7664711E-09
   4.740000     -3.5784573E-09
   4.800000     -3.3580532E-09
   4.860000     -3.1092946E-09
   4.920000     -2.8387128E-09
   4.980000     -2.5551965E-09
   5.040000     -2.2696536E-09
   5.100000     -1.9943618E-09
   5.160000     -1.7419441E-09
   5.220000     -1.5240200E-09
   5.280000     -1.3497103E-09
   5.340000     -1.2242869E-09
   5.400000     -1.1482896E-09
   5.460000     -1.1173817E-09
   5.520000     -1.1230574E-09
   5.580000     -1.1541097E-09
   5.640000     -1.1985593E-09
   5.700000     -1.2456044E-09
   5.760000     -1.2871262E-09
   5.820000     -1.3184033E-09
   5.880000     -1.3379017E-09
   5.940000     -1.3462776E-09
   6.000000     -1.3449594E-09
   6.060000     -1.3347894E-09
   6.120000     -1.3151851E-09
   6.180000     -1.2840857E-09
   6.240000     -1.2386980E-09
   6.300000     -1.1767703E-09
   6.360000     -1.0979462E-09
   6.420000     -1.0047063E-09
   6.480000     -9.0253710E-10
   6.540000     -7.9921675E-10
   6.600000     -7.0340567E-10
   6.660000     -6.2297029E-10
   6.720000     -5.6356053E-10
   6.780000     -5.2788257E-10
   6.840000     -5.1586491E-10
   6.900000     -5.2560462E-10
   6.960000     -5.5470495E-10
   7.020000     -6.0148098E-10
   7.080000     -6.6557243E-10
   7.140000     -7.4772688E-10
   7.200000     -8.4882940E-10
   7.260000     -9.6853325E-10
   7.320000     -1.1039857E-09
   7.380000     -1.2491123E-09
   7.440000     -1.3947361E-09
   7.500000     -1.5295470E-09
   7.560000     -1.6416963E-09
   7.620000     -1.7206347E-09
   7.680000     -1.7587760E-09
   7.740000     -1.7526282E-09
   7.800000     -1.7031794E-09
   7.860000     -1.6154983E-09
   7.920000     -1.4976920E-09
   7.980000     -1.3595222E-09
   8.040000     -1.2110677E-09
   8.100000     -1.0617929E-09
   8.160000     -9.2023295E-10
   8.220000     -7.9424939E-10
   8.280000     -6.9154360E-10
   8.340000     -6.1995509E-10
   8.400000     -5.8711569E-10
   8.460000     -5.9930461E-10
   8.520000     -6.5976630E-10
   8.580000     -7.6712942E-10
   8.640000     -9.1472524E-10
   8.700000     -1.0914173E-09
   8.760000     -1.2840481E-09
   8.820000     -1.4809749E-09
   8.880000     -1.6756370E-09
   8.940000     -1.8689414E-09
   9.000000     -2.0695199E-09
   9.060000     -2.2915831E-09
   9.120000     -2.5508857E-09
   9.180000     -2.8599425E-09
   9.240000     -3.2239038E-09
   9.300000     -3.6382442E-09
   9.360000     -4.0888501E-09
   9.420000     -4.5543307E-09
   9.480000     -5.0097668E-09
   9.540000     -5.4308047E-09
   9.600000     -5.7970753E-09
   9.660000     -6.0942744E-09
   9.720000     -6.3147501E-09
   9.780000     -6.4568972E-09
   9.840000     -6.5239156E-09
   9.900000     -6.5225292E-09
   9.960000     -6.4621095E-09
   10.02000     -6.3543366E-09
   10.08000     -6.2132375E-09
   10.14000     -6.0552097E-09
   10.20000     -5.8985630E-09
   10.26000     -5.7622271E-09
   10.32000     -5.6635816E-09
   10.38000     -5.6157505E-09
   10.44000     -5.6250631E-09
   10.50000     -5.6895302E-09
   10.56000     -5.7990195E-09
   10.62000     -5.9373537E-09
   10.68000     -6.0859184E-09
   10.74000     -6.2277969E-09
   10.80000     -6.3512289E-09
   10.86000     -6.4513723E-09
   10.92000     -6.5299535E-09
   10.98000     -6.5931189E-09
   11.04000     -6.6484205E-09
   11.10000     -6.7020260E-09
   11.16000     -6.7570438E-09
   11.22000     -6.8132757E-09
   11.28000     -6.8681527E-09
   11.34000     -6.9182562E-09
   11.40000     -6.9607919E-09
   11.46000     -6.9946582E-09
   11.52000     -7.0210633E-09
   11.58000     -7.0438748E-09
   11.64000     -7.0698931E-09
   11.70000     -7.1090707E-09
   11.76000     -7.1745192E-09
   11.82000     -7.2820545E-09
   11.88000     -7.4491209E-09
   11.94000     -7.6931439E-09
   12.00000     -8.0295735E-09
   12.06000     -8.4700007E-09
   12.12000     -9.0206953E-09
   12.18000     -9.6817780E-09
   12.24000     -1.0447128E-08
   12.30000     -1.1304950E-08
   12.36000     -1.2238901E-08
   12.42000     -1.3229619E-08
   12.48000     -1.4256404E-08
   12.54000     -1.5298738E-08
   12.60000     -1.6337374E-08
   12.66000     -1.7354763E-08
   12.72000     -1.8334879E-08
   12.78000     -1.9262758E-08
   12.84000     -2.0124268E-08
   12.90000     -2.0906526E-08
   12.96000     -2.1599144E-08
   13.02000     -2.2195962E-08
   13.08000     -2.2696629E-08
   13.14000     -2.3107226E-08
   13.20000     -2.3439473E-08
   13.26000     -2.3708607E-08
   13.32000     -2.3930561E-08
   13.38000     -2.4119460E-08
   13.44000     -2.4286267E-08
   13.50000     -2.4438950E-08
   13.56000     -2.4583866E-08
   13.62000     -2.4727560E-08
   13.68000     -2.4878057E-08
   13.74000     -2.5045038E-08
   13.80000     -2.5238863E-08
   13.86000     -2.5468943E-08
   13.92000     -2.5742157E-08
   13.98000     -2.6062008E-08
   14.04000     -2.6428651E-08
   14.10000     -2.6839574E-08
   14.16000     -2.7290408E-08
   14.22000     -2.7775375E-08
   14.28000     -2.8287205E-08
   14.34000     -2.8816796E-08
   14.40000     -2.9353155E-08
   14.46000     -2.9884173E-08
   14.52000     -3.0398482E-08
   14.58000     -3.0887978E-08
   14.64000     -3.1350346E-08
   14.70000     -3.1790414E-08
   14.76000     -3.2219596E-08
   14.82000     -3.2653254E-08
   14.88000     -3.3106534E-08
   14.94000     -3.3589902E-08
   15.00000     -3.4105877E-08
   15.06000     -3.4648100E-08
   15.12000     -3.5202934E-08
   15.18000     -3.5753068E-08
   15.24000     -3.6281673E-08
   15.30000     -3.6775710E-08
   15.36000     -3.7227267E-08
   15.42000     -3.7632763E-08
   15.48000     -3.7990617E-08
   15.54000     -3.8298598E-08
   15.60000     -3.8551974E-08
   15.66000     -3.8743195E-08
   15.72000     -3.8863075E-08
   15.78000     -3.8902922E-08
   15.84000     -3.8856697E-08
   15.90000     -3.8722487E-08
   15.96000     -3.8502819E-08
   16.02000     -3.8203947E-08
   16.08000     -3.7834504E-08
   16.14000     -3.7404117E-08
   16.20000     -3.6922408E-08
   16.26000     -3.6398536E-08
   16.32000     -3.5841140E-08
   16.38000     -3.5258289E-08
   16.44000     -3.4657081E-08
   16.50000     -3.4042735E-08
   16.56000     -3.3417354E-08
   16.62000     -3.2778878E-08
   16.68000     -3.2120891E-08
   16.74000     -3.1433615E-08
   16.80000     -3.0706175E-08
   16.86000     -2.9929581E-08
   16.92000     -2.9099647E-08
   16.98000     -2.8218912E-08
   17.04000     -2.7296972E-08
   17.10000     -2.6349152E-08
   17.16000     -2.5393842E-08
   17.22000     -2.4449188E-08
   17.28000     -2.3529907E-08
   17.34000     -2.2644855E-08
   17.40000     -2.1795731E-08
   17.46000     -2.0977156E-08
   17.52000     -2.0177964E-08
   17.58000     -1.9383496E-08
   17.64000     -1.8578344E-08
   17.70000     -1.7749025E-08
   17.76000     -1.6885991E-08
   17.82000     -1.5984641E-08
   17.88000     -1.5045210E-08
   17.94000     -1.4071771E-08
   18.00000     -1.3070662E-08
   18.06000     -1.2048791E-08
   18.12000     -1.1012104E-08
   18.18000     -9.9644684E-09
   18.24000     -8.9071222E-09
   18.30000     -7.8387705E-09
   18.36000     -6.7563186E-09
   18.42000     -5.6560809E-09
   18.48000     -4.5351110E-09
   18.54000     -3.3921868E-09
   18.60000     -2.2280957E-09
   18.66000     -1.0451268E-09
   18.72000      1.5393499E-10
   18.78000      1.3667611E-09
   18.84000      2.5918381E-09
   18.90000      3.8279935E-09
   18.96000      5.0733111E-09
   19.02000      6.3240146E-09
   19.08000      7.5739610E-09
   19.14000      8.8151273E-09
   19.20000      1.0039008E-08
   19.26000      1.1238410E-08
   19.32000      1.2408977E-08
   19.38000      1.3549850E-08
   19.44000      1.4663243E-08
   19.50000      1.5753049E-08
   19.56000      1.6822920E-08
   19.62000      1.7874362E-08
   19.68000      1.8905364E-08
   19.74000      1.9909997E-08
   19.80000      2.0879078E-08
   19.86000      2.1801901E-08
   19.92000      2.2668607E-08
   19.98000      2.3472621E-08
   20.04000      2.4212495E-08
   20.10000      2.4892598E-08
   20.16000      2.5522484E-08
   20.22000      2.6115140E-08
   20.28000      2.6684646E-08
   20.34000      2.7243976E-08
   20.40000      2.7803463E-08
   20.46000      2.8370211E-08
   20.52000      2.8948346E-08
   20.58000      2.9539718E-08
   20.64000      3.0144673E-08
   20.70000      3.0762472E-08
   20.76000      3.1391384E-08
   20.82000      3.2028503E-08
   20.88000      3.2669703E-08
   20.94000      3.3309991E-08
   21.00000      3.3944396E-08
   21.06000      3.4569261E-08
   21.12000      3.5183422E-08
   21.18000      3.5788808E-08
   21.24000      3.6389999E-08
   21.30000      3.6992692E-08
   21.36000      3.7601549E-08
   21.42000      3.8218062E-08
   21.48000      3.8839254E-08
   21.54000      3.9457756E-08
   21.60000      4.0063174E-08
   21.66000      4.0644331E-08
   21.72000      4.1191605E-08
   21.78000      4.1698563E-08
   21.84000      4.2162402E-08
   21.90000      4.2583036E-08
   21.96000      4.2961158E-08
   22.02000      4.3295891E-08
   22.08000      4.3582695E-08
   22.14000      4.3812193E-08
   22.20000      4.3970360E-08
   22.26000      4.4040064E-08
   22.32000      4.4003492E-08
   22.38000      4.3844704E-08
   22.44000      4.3551413E-08
   22.50000      4.3115378E-08
   22.56000      4.2531290E-08
   22.62000      4.1794738E-08
   22.68000      4.0900140E-08
   22.74000      3.9839676E-08
   22.80000      3.8603726E-08
   22.86000      3.7182758E-08
   22.92000      3.5569879E-08
   22.98000      3.3763026E-08
   23.04000      3.1765907E-08
   23.10000      2.9587250E-08
   23.16000      2.7238622E-08
   23.22000      2.4731605E-08
   23.28000      2.2075374E-08
   23.34000      1.9275575E-08
   23.40000      1.6334983E-08
   23.46000      1.3255770E-08
   23.52000      1.0042632E-08
   23.58000      6.7056156E-09
   23.64000      3.2615095E-09
   23.70000     -2.6692049E-10
   23.76000     -3.8538177E-09
   23.82000     -7.4743740E-09
   23.88000     -1.1108811E-08
   23.94000     -1.4744703E-08
   24.00000     -1.8376733E-08
   24.06000     -2.2003777E-08
   24.12000     -2.5624361E-08
   24.18000     -2.9232000E-08
   24.24000     -3.2812114E-08
   24.30000     -3.6341593E-08
   24.36000     -3.9791210E-08
   24.42000     -4.3130051E-08
   24.48000     -4.6330520E-08
   24.54000     -4.9372289E-08
   24.60000     -5.2243930E-08
   24.66000     -5.4941804E-08
   24.72000     -5.7466618E-08
   24.78000     -5.9818866E-08
   24.84000     -6.1994747E-08
   24.90000     -6.3983812E-08
   24.96000     -6.5769264E-08
   25.02000     -6.7330575E-08
   25.08000     -6.8647729E-08
   25.14000     -6.9705592E-08
   25.20000     -7.0497215E-08
   25.26000     -7.1025042E-08
   25.32000     -7.1300029E-08
   25.38000     -7.1339045E-08
   25.44000     -7.1161480E-08
   25.50000     -7.0786022E-08
   25.56000     -7.0228523E-08
   25.62000     -6.9501091E-08
   25.68000     -6.8612621E-08
   25.74000     -6.7569992E-08
   25.80000     -6.6379329E-08
   25.86000     -6.5046663E-08
   25.92000     -6.3577488E-08
   25.98000     -6.1975491E-08
   26.04000     -6.0240986E-08
   26.10000     -5.8369920E-08
   26.16000     -5.6354441E-08
   26.22000     -5.4185136E-08
   26.28000     -5.1854613E-08
   26.34000     -4.9361361E-08
   26.40000     -4.6712653E-08
   26.46000     -4.3925393E-08
   26.52000     -4.1024574E-08
   26.58000     -3.8039815E-08
   26.64000     -3.5000927E-08
   26.70000     -3.1933794E-08
   26.76000     -2.8857643E-08
   26.82000     -2.5784036E-08
   26.88000     -2.2717627E-08
   26.94000     -1.9657962E-08
   27.00000     -1.6601577E-08
   27.06000     -1.3543710E-08
   27.12000     -1.0479338E-08
   27.18000     -7.4036244E-09
   27.24000     -4.3122395E-09
   27.30000     -1.2020921E-09
   27.36000      1.9271991E-09
   27.42000      5.0711351E-09
   27.48000      8.2179454E-09
   27.54000      1.1346722E-08
   27.60000      1.4426796E-08
   27.66000      1.7418825E-08
   27.72000      2.0277600E-08
   27.78000      2.2956176E-08
   27.84000      2.5410699E-08
   27.90000      2.7605108E-08
   27.96000      2.9514986E-08
   28.02000      3.1129915E-08
   28.08000      3.2453794E-08
   28.14000      3.3503010E-08
   28.20000      3.4302605E-08
   28.26000      3.4881143E-08
   28.32000      3.5265259E-08
   28.38000      3.5474983E-08
   28.44000      3.5520529E-08
   28.50000      3.5400966E-08
   28.56000      3.5104367E-08
   28.62000      3.4609030E-08
   28.68000      3.3885222E-08
   28.74000      3.2897294E-08
   28.80000      3.1606426E-08
   28.86000      2.9974156E-08
   28.92000      2.7966850E-08
   28.98000      2.5560647E-08
   29.04000      2.2746082E-08
   29.10000      1.9531281E-08
   29.16000      1.5942808E-08
   29.22000      1.2023722E-08
   29.28000      7.8290663E-09
   29.34000      3.4195955E-09
   29.40000     -1.1449703E-09
   29.46000     -5.8117662E-09
   29.52000     -1.0538519E-08
   29.58000     -1.5294553E-08
   29.64000     -2.0059138E-08
   29.70000     -2.4817961E-08
   29.76000     -2.9558894E-08
   29.82000     -3.4268250E-08
   29.88000     -3.8928334E-08
   29.94000     -4.3516344E-08
   30.00000     -4.8004264E-08
   30.06000     -5.2358942E-08
   30.12000     -5.6542028E-08
   30.18000     -6.0509599E-08
   30.24000     -6.4212053E-08
   30.30000     -6.7594911E-08
   30.36000     -7.0600791E-08
   30.42000     -7.3172636E-08
   30.48000     -7.5257482E-08
   30.54000     -7.6810103E-08
   30.60000     -7.7795583E-08
   30.66000     -7.8190652E-08
   30.72000     -7.7983650E-08
   30.78000     -7.7173354E-08
   30.84000     -7.5767069E-08
   30.90000     -7.3778288E-08
   30.96000     -7.1224228E-08
   31.02000     -6.8123640E-08
   31.08000     -6.4495246E-08
   31.14000     -6.0356967E-08
   31.20000     -5.5726268E-08
   31.26000     -5.0621285E-08
   31.32000     -4.5062489E-08
   31.38000     -3.9074369E-08
   31.44000     -3.2686732E-08
   31.50000     -2.5935408E-08
   31.56000     -1.8862439E-08
   31.62000     -1.1515845E-08
   31.68000     -3.9492183E-09
   31.74000      3.7788239E-09
   31.80000      1.1605358E-08
   31.86000      1.9464213E-08
   31.92000      2.7287536E-08
   31.98000      3.5007833E-08
   32.04000      4.2560334E-08
   32.10000      4.9885177E-08
   32.16000      5.6929000E-08
   32.22000      6.3645508E-08
   32.28000      6.9994954E-08
   32.34000      7.5942772E-08
   32.40000      8.1458211E-08
   32.46000      8.6513289E-08
   32.52000      9.1082761E-08
   32.58000      9.5144792E-08
   32.64000      9.8682072E-08
   32.70000      1.0168230E-07
   32.76000      1.0413778E-07
   32.82000      1.0604373E-07
   32.88000      1.0739581E-07
   32.94000      1.0818770E-07
   33.00000      1.0840950E-07
   33.06000      1.0804752E-07
   33.12000      1.0708561E-07
   33.18000      1.0550774E-07
   33.24000      1.0330091E-07
   33.30000      1.0045808E-07
   33.36000      9.6980152E-08
   33.42000      9.2876917E-08
   33.48000      8.8166821E-08
   33.54000      8.2875793E-08
   33.60000      7.7035672E-08
   33.66000      7.0682795E-08
   33.72000      6.3857037E-08
   33.78000      5.6601831E-08
   33.84000      4.8964736E-08
   33.90000      4.0998160E-08
   33.96000      3.2759541E-08
   34.02000      2.4310504E-08
   34.08000      1.5714813E-08
   34.14000      7.0355850E-09
   34.20000     -1.6674497E-09
   34.26000     -1.0339772E-08
   34.32000     -1.8932298E-08
   34.38000     -2.7399935E-08
   34.44000     -3.5698953E-08
   34.50000     -4.3784091E-08
   34.56000     -5.1606516E-08
   34.62000     -5.9113422E-08
   34.68000     -6.6249633E-08
   34.74000     -7.2960901E-08
   34.80000     -7.9197967E-08
   34.86000     -8.4920373E-08
   34.92000     -9.0098752E-08
   34.98000     -9.4715027E-08
   35.04000     -9.8760509E-08
   35.10000     -1.0223253E-07
   35.16000     -1.0513075E-07
   35.22000     -1.0745433E-07
   35.28000     -1.0920100E-07
   35.34000     -1.1036804E-07
   35.40000     -1.1095477E-07
   35.46000     -1.1096552E-07
   35.52000     -1.1041173E-07
   35.58000     -1.0931250E-07
   35.64000     -1.0769308E-07
   35.70000     -1.0558197E-07
   35.76000     -1.0300753E-07
   35.82000     -9.9995347E-08
   35.88000     -9.6567241E-08
   35.94000     -9.2742404E-08
   36.00000     -8.8540148E-08
   36.06000     -8.3983480E-08
   36.12000     -7.9102165E-08
   36.18000     -7.3934224E-08
   36.24000     -6.8525232E-08
   36.30000     -6.2925494E-08
   36.36000     -5.7185936E-08
   36.42000     -5.1353918E-08
   36.48000     -4.5470241E-08
   36.54000     -3.9568320E-08
   36.60000     -3.3675668E-08
   36.66000     -2.7817064E-08
   36.72000     -2.2018295E-08
   36.78000     -1.6309071E-08
   36.84000     -1.0724130E-08
   36.90000     -5.3022111E-09
   36.96000     -8.3360929E-11
   37.02000      4.8944089E-09
   37.08000      9.5978825E-09
   37.14000      1.3999891E-08
   37.20000      1.8078682E-08
   37.26000      2.1815731E-08
   37.32000      2.5192838E-08
   37.38000      2.8189607E-08
   37.44000      3.0782321E-08
   37.50000      3.2944822E-08
   37.56000      3.4651386E-08
   37.62000      3.5880962E-08
   37.68000      3.6621632E-08
   37.74000      3.6873946E-08
   37.80000      3.6652001E-08
   37.86000      3.5981817E-08
   37.92000      3.4897358E-08
   37.98000      3.3435363E-08
   38.04000      3.1630556E-08
   38.10000      2.9512567E-08
   38.16000      2.7105322E-08
   38.22000      2.4428658E-08
   38.28000      2.1501187E-08
   38.34000      1.8343172E-08
   38.40000      1.4978395E-08
   38.46000      1.1434539E-08
   38.52000      7.7423792E-09
   38.58000      3.9344275E-09
   38.64000      4.3725065E-11
   38.70000     -3.8967611E-09
   38.76000     -7.8541245E-09
   38.82000     -1.1795197E-08
   38.88000     -1.5686364E-08
   38.94000     -1.9493857E-08
   39.00000     -2.3184636E-08
   39.06000     -2.6727744E-08
   39.12000     -3.0095809E-08
   39.18000     -3.3266367E-08
   39.24000     -3.6222669E-08
   39.30000     -3.8953861E-08
   39.36000     -4.1454584E-08
   39.42000     -4.3724125E-08
   39.48000     -4.5765390E-08
   39.54000     -4.7583860E-08
   39.60000     -4.9186610E-08
   39.66000     -5.0581320E-08
   39.72000     -5.1775313E-08
   39.78000     -5.2774642E-08
   39.84000     -5.3583499E-08
   39.90000     -5.4204225E-08
   39.96000     -5.4638164E-08
   40.02000     -5.4887330E-08
   40.08000     -5.4956473E-08
   40.14000     -5.4854961E-08
   40.20000     -5.4597738E-08
   40.26000     -5.4204868E-08
   40.32000     -5.3699665E-08
   40.38000     -5.3105786E-08
   40.44000     -5.2444079E-08
   40.50000     -5.1730115E-08
   40.56000     -5.0973103E-08
   40.62000     -5.0176460E-08
   40.68000     -4.9339828E-08
   40.74000     -4.8461761E-08
   40.80000     -4.7542027E-08
   40.86000     -4.6582528E-08
   40.92000     -4.5586287E-08
   40.98000     -4.4554564E-08
   41.04000     -4.3483112E-08
   41.10000     -4.2358955E-08
   41.16000     -4.1159286E-08
   41.22000     -3.9853376E-08
   41.28000     -3.8407524E-08
   41.34000     -3.6791750E-08
   41.40000     -3.4986332E-08
   41.46000     -3.2985938E-08
   41.52000     -3.0799754E-08
   41.58000     -2.8447431E-08
   41.64000     -2.5951762E-08
   41.70000     -2.3330498E-08
   41.76000     -2.0589844E-08
   41.82000     -1.7721815E-08
   41.88000     -1.4706387E-08
   41.94000     -1.1517779E-08
   42.00000     -8.1328055E-09
   42.06000     -4.5385775E-09
   42.12000     -7.3699735E-10
   42.18000      3.2553593E-09
   42.24000      7.4118436E-09
   42.30000      1.1703144E-08
   42.36000      1.6104906E-08
   42.42000      2.0602910E-08
   42.48000      2.5194028E-08
   42.54000      2.9882589E-08
   42.60000      3.4673366E-08
   42.66000      3.9563574E-08
   42.72000      4.4536662E-08
   42.78000      4.9560295E-08
   42.84000      5.4589435E-08
   42.90000      5.9573967E-08
   42.96000      6.4468473E-08
   43.02000      6.9240947E-08
   43.08000      7.3877310E-08
   43.14000      7.8379799E-08
   43.20000      8.2759492E-08
   43.26000      8.7025313E-08
   43.32000      9.1173270E-08
   43.38000      9.5179914E-08
   43.44000      9.9002506E-08
   43.50000      1.0258606E-07
   43.56000      1.0587494E-07
   43.62000      1.0882514E-07
   43.68000      1.1141285E-07
   43.74000      1.1363675E-07
   43.80000      1.1551332E-07
   43.86000      1.1706712E-07
   43.92000      1.1831957E-07
   43.98000      1.1928014E-07
   44.04000      1.1994290E-07
   44.10000      1.2028909E-07
   44.16000      1.2029494E-07
   44.22000      1.1994123E-07
   44.28000      1.1922143E-07
   44.34000      1.1814505E-07
   44.40000      1.1673541E-07
   44.46000      1.1502208E-07
   44.52000      1.1303111E-07
   44.58000      1.1077687E-07
   44.64000      1.0825836E-07
   44.70000      1.0546227E-07
   44.76000      1.0237183E-07
   44.82000      9.8978909E-08
   44.88000      9.5295242E-08
   44.94000      9.1358736E-08
   45.00000      8.7232372E-08
   45.06000      8.2995271E-08
   45.12000      7.8728270E-08
   45.18000      7.4497997E-08
   45.24000      7.0344342E-08
   45.30000      6.6275270E-08
   45.36000      6.2270701E-08
   45.42000      5.8294535E-08
   45.48000      5.4311105E-08
   45.54000      5.0300923E-08
   45.60000      4.6270589E-08
   45.66000      4.2253710E-08
   45.72000      3.8302634E-08
   45.78000      3.4473960E-08
   45.84000      3.0812743E-08
   45.90000      2.7340752E-08
   45.96000      2.4052516E-08
   46.02000      2.0920115E-08
   46.08000      1.7904807E-08
   46.14000      1.4971389E-08
   46.20000      1.2100529E-08
   46.26000      9.2952037E-09
   46.32000      6.5793682E-09
   46.38000      3.9894910E-09
   46.44000      1.5617289E-09
   46.50000     -6.8109807E-10
   46.56000     -2.7384552E-09
   46.62000     -4.6338422E-09
   46.68000     -6.4083805E-09
   46.74000     -8.1079286E-09
   46.80000     -9.7677120E-09
   46.86000     -1.1399564E-08
   46.92000     -1.2986339E-08
   46.98000     -1.4485811E-08
   47.04000     -1.5843179E-08
   47.10000     -1.7008277E-08
   47.16000     -1.7951743E-08
   47.22000     -1.8674706E-08
   47.28000     -1.9208606E-08
   47.34000     -1.9605181E-08
   47.40000     -1.9919868E-08
   47.46000     -2.0194092E-08
   47.52000     -2.0442226E-08
   47.58000     -2.0647420E-08
   47.64000     -2.0767629E-08
   47.70000     -2.0749880E-08
   47.76000     -2.0548235E-08
   47.82000     -2.0139685E-08
   47.88000     -1.9532870E-08
   47.94000     -1.8766741E-08
   48.00000     -1.7899566E-08
   48.06000     -1.6991788E-08
   48.12000     -1.6088370E-08
   48.18000     -1.5206419E-08
   48.24000     -1.4332210E-08
   48.30000     -1.3428464E-08
   48.36000     -1.2449360E-08
   48.42000     -1.1358048E-08
   48.48000     -1.0140684E-08
   48.54000     -8.8122807E-09
   48.60000     -7.4125213E-09
   48.66000     -5.9931917E-09
   48.72000     -4.6017310E-09
   48.78000     -3.2667093E-09
   48.84000     -1.9903443E-09
   48.90000     -7.5071699E-10
   48.96000      4.8702059E-10
   49.02000      1.7543079E-09
   49.08000      3.0634562E-09
   49.14000      4.3981889E-09
   49.20000      5.7140115E-09
   49.26000      6.9485813E-09
   49.32000      8.0387226E-09
   49.38000      8.9383212E-09
   49.44000      9.6309201E-09
   49.50000      1.0132626E-08
   49.56000      1.0484246E-08
   49.62000      1.0735279E-08
   49.68000      1.0925116E-08
   49.74000      1.1067677E-08
   49.80000      1.1144459E-08
   49.86000      1.1108146E-08
   49.92000      1.0895449E-08
   49.98000      1.0444991E-08
   50.04000      9.7145891E-09
   50.10000      8.6926768E-09
   50.16000      7.4006326E-09
   50.22000      5.8857546E-09
   50.28000      4.2075521E-09
   50.34000      2.4220419E-09
   50.40000      5.6915739E-10
   50.46000     -1.3328845E-09
   50.52000     -3.2849361E-09
   50.58000     -5.2975451E-09
   50.64000     -7.3786626E-09
   50.70000     -9.5230508E-09
   50.76000     -1.1707195E-08
   50.82000     -1.3891338E-08
   50.88000     -1.6027697E-08
   50.94000     -1.8071747E-08
   51.00000     -1.9992616E-08
   51.06000     -2.1779055E-08
   51.12000     -2.3439256E-08
   51.18000     -2.4994733E-08
   51.24000     -2.6470504E-08
   51.30000     -2.7884731E-08
   51.36000     -2.9240978E-08
   51.42000     -3.0525264E-08
   51.48000     -3.1708566E-08
   51.54000     -3.2753757E-08
   51.60000     -3.3624808E-08
   51.66000     -3.4295493E-08
   51.72000     -3.4755139E-08
   51.78000     -3.5010114E-08
   51.84000     -3.5080845E-08
   51.90000     -3.4995733E-08
   51.96000     -3.4783927E-08
   52.02000     -3.4469117E-08
   52.08000     -3.4065895E-08
   52.14000     -3.3579202E-08
   52.20000     -3.3006437E-08
   52.26000     -3.2341159E-08
   52.32000     -3.1577045E-08
   52.38000     -3.0711160E-08
   52.44000     -2.9746028E-08
   52.50000     -2.8690376E-08
   52.56000     -2.7558892E-08
   52.62000     -2.6371238E-08
   52.68000     -2.5150609E-08
   52.74000     -2.3922075E-08
   52.80000     -2.2710831E-08
   52.86000     -2.1540579E-08
   52.92000     -2.0432211E-08
   52.98000     -1.9403000E-08
   53.04000     -1.8466388E-08
   53.10000     -1.7632424E-08
   53.16000     -1.6908743E-08
   53.22000     -1.6301831E-08
   53.28000     -1.5818292E-08
   53.34000     -1.5465689E-08
   53.40000     -1.5252738E-08
   53.46000     -1.5188794E-08
   53.52000     -1.5282884E-08
   53.58000     -1.5542710E-08
   53.64000     -1.5974146E-08
   53.70000     -1.6581492E-08
   53.76000     -1.7368475E-08
   53.82000     -1.8339730E-08
   53.88000     -1.9502282E-08
   53.94000     -2.0866738E-08
   54.00000     -2.2447914E-08
   54.06000     -2.4264825E-08
   54.12000     -2.6339938E-08
   54.18000     -2.8697645E-08
   54.24000     -3.1362088E-08
   54.30000     -3.4354674E-08
   54.36000     -3.7692072E-08
   54.42000     -4.1385444E-08
   54.48000     -4.5441364E-08
   54.54000     -4.9864173E-08
   54.60000     -5.4658642E-08
   54.66000     -5.9831464E-08
   54.72000     -6.5390402E-08
   54.78000     -7.1340857E-08
   54.84000     -7.7680781E-08
   54.90000     -8.4395658E-08
   54.96000     -9.1455192E-08
   55.02000     -9.8812762E-08
   55.08000     -1.0640733E-07
   55.14000     -1.1416682E-07
   55.20000     -1.2201117E-07
   55.26000     -1.2985406E-07
   55.32000     -1.3760237E-07
   55.38000     -1.4515388E-07
   55.44000     -1.5239337E-07
   55.50000     -1.5918916E-07
   55.56000     -1.6539049E-07