  -2.400000      0.0000000E+00
  -2.340000      0.0000000E+00
  -2.280000      0.0000000E+00
  -2.220000      0.0000000E+00
  -2.160000      0.0000000E+00
  -2.100000      1.6832928E-20
  -2.040000      1.2864449E-19
  -1.980000      4.9693082E-19
  -1.920000      1.2543529E-18
  -1.860000      2.1886746E-18
  -1.800000      2.3319907E-18
  -1.740000     -2.2404254E-19
  -1.680000     -7.8856087E-18
  -1.620000     -2.2222498E-17
  -1.560000     -4.1803971E-17
  -1.500000     -5.9726159E-17
  -1.440000     -6.1934963E-17
  -1.380000     -2.8086729E-17
  -1.320000      6.2953712E-17
  -1.260000      2.2147630E-16
  -1.200000      4.2992936E-16
  -1.140000      6.2549889E-16
  -1.080000      6.9228839E-16
  -1.020000      4.7672354E-16
 -0.9600000     -1.6178659E-16
 -0.9000000     -1.2635176E-15
 -0.8400000     -2.6640541E-15
 -0.7800000     -3.9193277E-15
 -0.7200000     -4.3259705E-15
 -0.6600000     -3.0956399E-15
 -0.6000000      3.0747780E-16
 -0.5400000      5.7451509E-15
 -0.4800000      1.2073536E-14
 -0.4200000      1.7120596E-14
 -0.3600000      1.8134567E-14
 -0.3000000      1.2695557E-14
 -0.2400000     -1.4557640E-16
 -0.1800000     -1.8916124E-14
 -0.1200000     -3.9398382E-14
 -5.9999999E-02 -5.5208757E-14
  0.0000000E+00 -5.9259787E-14
  5.9999999E-02 -4.5796009E-14
  0.1200000     -1.2525242E-14
  0.1800000      3.7657438E-14
  0.2400000      9.5809096E-14
  0.3000000      1.4736793E-13
  0.3600000      1.7427589E-13
  0.4200000      1.5903157E-13
  0.4800000      9.0401502E-14
  0.5400000     -3.0370942E-14
  0.6000000     -1.8499587E-13
  0.6600000     -3.3781406E-13
  0.7200000     -4.4169079E-13
  0.7800000     -4.5015543E-13
  0.8400000     -3.3309382E-13
  0.9000000     -9.0950989E-14
  0.9600000      2.3828419E-13
   1.020000      5.8333601E-13
   1.080000      8.5542565E-13
   1.140000      9.7150575E-13
   1.200000      8.7777333E-13
   1.260000      5.6588870E-13
   1.320000      7.6907332E-14
   1.380000     -5.0760703E-13
   1.440000     -1.0833918E-12
   1.500000     -1.5438253E-12
   1.560000     -1.7968096E-12
   1.620000     -1.7751587E-12
   1.680000     -1.4414010E-12
   1.740000     -7.9085317E-13
   1.800000      1.4284206E-13
   1.860000      1.2782473E-12
   1.920000      2.4760116E-12
   1.980000      3.5358973E-12
   2.040000      4.2103907E-12
   2.100000      4.2413421E-12
   2.160000      3.4184855E-12
   2.220000      1.6489435E-12
   2.280000     -9.8114279E-13
   2.340000     -4.1738991E-12
   2.400000     -7.4314183E-12
   2.460000     -1.0115416E-11
   2.520000     -1.1544454E-11
   2.580000     -1.1108040E-11
   2.640000     -8.3743273E-12
   2.700000     -3.1737020E-12
   2.760000      4.3494717E-12
   2.820000      1.3716043E-11
   2.880000      2.4118877E-11
   2.940000      3.4458512E-11
   3.000000      4.3416357E-11
   3.060000      4.9577516E-11
   3.120000      5.1608818E-11
   3.180000      4.8479758E-11
   3.240000      3.9690539E-11
   3.300000      2.5453322E-11
   3.360000      6.7698828E-12
   3.420000     -1.4632864E-11
   3.480000     -3.6512425E-11
   3.540000     -5.6428046E-11
   3.600000     -7.2099306E-11
   3.660000     -8.1734106E-11
   3.720000     -8.4273553E-11
   3.780000     -7.9536280E-11
   3.840000     -6.8277335E-11
   3.900000     -5.2190276E-11
   3.960000     -3.3869005E-11
   4.020000     -1.6716356E-11
   4.080000     -4.7578417E-12
   4.140000     -2.3140021E-12
   4.200000     -1.3513145E-11
   4.260000     -4.1684385E-11
   4.320000     -8.8735845E-11
   4.380000     -1.5466614E-10
   4.440000     -2.3735502E-10
   4.500000     -3.3272449E-10
   4.560000     -4.3526915E-10
   4.620000     -5.3885341E-10
   4.680000     -6.3759648E-10
   4.740000     -7.2664191E-10
   4.800000     -8.0264523E-10
   4.860000     -8.6389651E-10
   4.920000     -9.1010433E-10
   4.980000     -9.4195929E-10
   5.040000     -9.6064767E-10
   5.100000     -9.6747488E-10
   5.160000     -9.6369346E-10
   5.220000     -9.5053876E-10
   5.280000     -9.2938457E-10
   5.340000     -9.0189184E-10
   5.400000     -8.7003793E-10
   5.460000     -8.3598034E-10
   5.520000     -8.0179396E-10
   5.580000     -7.6918516E-10
   5.640000     -7.3929757E-10
   5.700000     -7.1268358E-10
   5.760000     -6.8944195E-10
   5.820000     -6.6945305E-10
   5.880000     -6.5260902E-10
   5.940000     -6.3895061E-10
   6.000000     -6.2866856E-10
   6.060000     -6.2198141E-10
   6.120000     -6.1894151E-10
   6.180000     -6.1923022E-10
   6.240000     -6.2198963E-10
   6.300000     -6.2571759E-10
   6.360000     -6.2823852E-10
   6.420000     -6.2675154E-10
   6.480000     -6.1796296E-10
   6.540000     -5.9830801E-10
   6.600000     -5.6426364E-10
   6.660000     -5.1273397E-10
   6.720000     -4.4146820E-10
   6.780000     -3.4943837E-10
   6.840000     -2.3708652E-10
   6.900000     -1.0635116E-10
   6.960000      3.9575031E-11
   7.020000      1.9672626E-10
   7.080000      3.6095704E-10
   7.140000      5.2844784E-10
   7.200000      6.9591660E-10
   7.260000      8.6041729E-10
   7.320000      1.0187696E-09
   7.380000      1.1668438E-09
   7.440000      1.2990415E-09
   7.500000      1.4082980E-09
   7.560000      1.4867779E-09
   7.620000      1.5271959E-09
   7.680000      1.5244572E-09
   7.740000      1.4771705E-09
   7.800000      1.3885955E-09
   7.860000      1.2667233E-09
   7.920000      1.1234045E-09
   7.980000      9.7265962E-10
   8.040000      8.2848067E-10
   8.100000      7.0252981E-10
   8.160000      6.0216970E-10
   8.220000      5.2921295E-10
   8.280000      4.7966753E-10
   8.340000      4.4457676E-10
   8.400000      4.1183321E-10
   8.460000      3.6862755E-10
   8.520000      3.0403821E-10
   8.580000      2.1122497E-10
   8.640000      8.8779060E-11
   8.700000     -5.9024119E-11
   8.760000     -2.2308000E-10
   8.820000     -3.9119946E-10
   8.880000     -5.5036004E-10
   8.940000     -6.8900324E-10
   9.000000     -7.9892953E-10
   9.060000     -8.7643637E-10
   9.120000     -9.2250890E-10
   9.180000     -9.4207475E-10
   9.240000     -9.4254304E-10
   9.300000     -9.3200303E-10
   9.360000     -9.1752184E-10
   9.420000     -9.0392366E-10
   9.480000     -8.9328533E-10
   9.540000     -8.8517688E-10
   9.600000     -8.7748758E-10
   9.660000     -8.6754354E-10
   9.720000     -8.5318230E-10
   9.780000     -8.3350077E-10
   9.840000     -8.0911960E-10
   9.900000     -7.8198392E-10
   9.960000     -7.5489187E-10
   10.02000     -7.3104478E-10
   10.08000     -7.1388451E-10
   10.14000     -7.0730599E-10
   10.20000     -7.1607031E-10
   10.26000     -7.4601436E-10
   10.32000     -8.0361007E-10
   10.38000     -8.9465074E-10
   10.44000     -1.0222760E-09
   10.50000     -1.1849925E-09
   10.56000     -1.3755658E-09
   10.62000     -1.5814715E-09
   10.68000     -1.7870339E-09
   10.74000     -1.9766742E-09
   10.80000     -2.1381812E-09
   10.86000     -2.2648619E-09
   10.92000     -2.3558790E-09
   10.98000     -2.4148168E-09
   11.04000     -2.4472027E-09
   11.10000     -2.4580151E-09
   11.16000     -2.4500497E-09
   11.22000     -2.4234905E-09
   11.28000     -2.3764994E-09
   11.34000     -2.3062852E-09
   11.40000     -2.2101228E-09
   11.46000     -2.0860353E-09
   11.52000     -1.9331412E-09
   11.58000     -1.7518353E-09
   11.64000     -1.5439497E-09
   11.70000     -1.3129055E-09
   11.76000     -1.0637503E-09
   11.82000     -8.0295987E-10
   11.88000     -5.3795635E-10
   11.94000     -2.7640401E-10
   12.00000     -2.5389755E-11
   12.06000      2.0941152E-10
   12.12000      4.2450463E-10
   12.18000      6.1917216E-10
   12.24000      7.9572876E-10
   12.30000      9.5920616E-10
   12.36000      1.1163027E-09
   12.42000      1.2736494E-09
   12.48000      1.4357473E-09
   12.54000      1.6031919E-09
   12.60000      1.7718308E-09
   12.66000      1.9332524E-09
   12.72000      2.0765465E-09
   12.78000      2.1907891E-09
   12.84000      2.2674260E-09
   12.90000      2.3017868E-09
   12.96000      2.2933040E-09
   13.02000      2.2445397E-09
   13.08000      2.1595439E-09
   13.14000      2.0422668E-09
   13.20000      1.8956456E-09
   13.26000      1.7216296E-09
   13.32000      1.5220086E-09
   13.38000      1.2995809E-09
   13.44000      1.0590815E-09
   13.50000      8.0741624E-10
   13.56000      5.5303229E-10
   13.62000      3.0459307E-10
   13.68000      6.9384935E-11
   13.74000     -1.4803411E-10
   13.80000     -3.4653522E-10
   13.86000     -5.2829902E-10
   13.92000     -6.9797079E-10
   13.98000     -8.6137736E-10
   14.04000     -1.0241489E-09
   14.10000     -1.1905262E-09
   14.16000     -1.3625137E-09
   14.22000     -1.5394367E-09
   14.28000     -1.7179196E-09
   14.34000     -1.8922972E-09
   14.40000     -2.0554576E-09
   14.46000     -2.2000386E-09
   14.52000     -2.3197864E-09
   14.58000     -2.4107583E-09
   14.64000     -2.4720412E-09
   14.70000     -2.5057647E-09
   14.76000     -2.5164080E-09
   14.82000     -2.5096556E-09
   14.88000     -2.4911853E-09
   14.94000     -2.4657600E-09
   15.00000     -2.4368227E-09
   15.06000     -2.4065545E-09
   15.12000     -2.3762068E-09
   15.18000     -2.3464646E-09
   15.24000     -2.3177236E-09
   15.30000     -2.2902908E-09
   15.36000     -2.2646287E-09
   15.42000     -2.2417341E-09
   15.48000     -2.2236171E-09
   15.54000     -2.2136890E-09
   15.60000     -2.2168058E-09
   15.66000     -2.2387578E-09
   15.72000     -2.2852107E-09
   15.78000     -2.3603126E-09
   15.84000     -2.4653686E-09
   15.90000     -2.5979889E-09
   15.96000     -2.7519929E-09
   16.02000     -2.9181002E-09
   16.08000     -3.0852132E-09
   16.14000     -3.2419416E-09
   16.20000     -3.3780212E-09
   16.26000     -3.4853787E-09
   16.32000     -3.5587637E-09
   16.38000     -3.5959855E-09
   16.44000     -3.5978542E-09
   16.50000     -3.5678884E-09
   16.56000     -3.5117997E-09
   16.62000     -3.4367214E-09
   16.68000     -3.3501866E-09
   16.74000     -3.2589538E-09
   16.80000     -3.1678897E-09
   16.86000     -3.0791829E-09
   16.92000     -2.9921328E-09
   16.98000     -2.9036180E-09
   17.04000     -2.8091600E-09
   17.10000     -2.7043197E-09
   17.16000     -2.5860587E-09
   17.22000     -2.4537246E-09
   17.28000     -2.3094082E-09
   17.34000     -2.1576019E-09
   17.40000     -2.0042328E-09
   17.46000     -1.8552796E-09
   17.52000     -1.7152704E-09
   17.58000     -1.5860108E-09
   17.64000     -1.4658892E-09
   17.70000     -1.3500372E-09
   17.76000     -1.2314485E-09
   17.82000     -1.1029055E-09
   17.88000     -9.5925601E-10
   17.94000     -7.9938450E-10
   18.00000     -6.2720318E-10
   18.06000     -4.5122883E-10
   18.12000     -2.8275871E-10
   18.18000     -1.3315048E-10
   18.24000     -1.1049500E-11
   18.30000      7.9557798E-11
   18.36000      1.3988147E-10
   18.42000      1.7537806E-10
   18.48000      1.9373701E-10
   18.54000      2.0253144E-10
   18.60000      2.0727250E-10
   18.66000      2.1036345E-10
   18.72000      2.1109538E-10
   18.78000      2.0651487E-10
   18.84000      1.9281385E-10
   18.90000      1.6685059E-10
   18.96000      1.2745183E-10
   19.02000      7.6215381E-11
   19.08000      1.7617203E-11
   19.14000     -4.1648913E-11
   19.20000     -9.3989379E-11
   19.26000     -1.3256617E-10
   19.32000     -1.5281040E-10
   19.38000     -1.5330655E-10
   19.44000     -1.3574236E-10
   19.50000     -1.0394856E-10
   19.56000     -6.2393604E-11
   19.62000     -1.4702680E-11
   19.68000      3.7259008E-11
   19.74000      9.3446535E-11
   19.80000      1.5490299E-10
   19.86000      2.2260845E-10
   19.92000      2.9642525E-10
   19.98000      3.7458744E-10
   20.04000      4.5394621E-10
   20.10000      5.3088511E-10
   20.16000      6.0256322E-10
   20.22000      6.6802130E-10
   20.28000      7.2873435E-10
   20.34000      7.8838741E-10
   20.40000      8.5193003E-10
   20.46000      9.2422248E-10
   20.52000      1.0087238E-09
   20.58000      1.1066349E-09
   20.64000      1.2167165E-09
   20.70000      1.3357413E-09
   20.76000      1.4593360E-09
   20.82000      1.5829006E-09
   20.88000      1.7023735E-09
   20.94000      1.8147532E-09
   21.00000      1.9183957E-09
   21.06000      2.0131188E-09
   21.12000      2.1000923E-09
   21.18000      2.1814501E-09
   21.24000      2.2596278E-09
   21.30000      2.3365641E-09
   21.36000      2.4130542E-09
   21.42000      2.4885525E-09
   21.48000      2.5615372E-09
   21.54000      2.6302616E-09
   21.60000      2.6934683E-09
   21.66000      2.7506266E-09
   21.72000      2.8014988E-09
   21.78000      2.8452469E-09
   21.84000      2.8795828E-09
   21.90000      2.9005076E-09
   21.96000      2.9028897E-09
   22.02000      2.8816820E-09
   22.08000      2.8332441E-09
   22.14000      2.7561855E-09
   22.20000      2.6514244E-09
   22.26000      2.5215836E-09
   22.32000      2.3701656E-09
   22.38000      2.2009750E-09
   22.44000      2.0180222E-09
   22.50000      1.8257722E-09
   22.56000      1.6293633E-09
   22.62000      1.4344202E-09
   22.68000      1.2463371E-09
   22.74000      1.0692278E-09
   22.80000      9.0497387E-10
   22.86000      7.5279821E-10
   22.92000      6.0958572E-10
   22.98000      4.7085930E-10
   23.04000      3.3205619E-10
   23.10000      1.8964109E-10
   23.16000      4.1679962E-11
   23.22000     -1.1227227E-10
   23.28000     -2.7183733E-10
   23.34000     -4.3668724E-10
   23.40000     -6.0721939E-10
   23.46000     -7.8474349E-10
   23.52000     -9.7113495E-10
   23.58000     -1.1681682E-09
   23.64000     -1.3768882E-09
   23.70000     -1.5973278E-09
   23.76000     -1.8286662E-09
   23.82000     -2.0696607E-09
   23.88000     -2.3190367E-09
   23.94000     -2.5755802E-09
   24.00000     -2.8378915E-09
   24.06000     -3.1040184E-09
   24.12000     -3.3712799E-09
   24.18000     -3.6364924E-09
   24.24000     -3.8965466E-09
   24.30000     -4.1490433E-09
   24.36000     -4.3926534E-09
   24.42000     -4.6270214E-09
   24.48000     -4.8523221E-09
   24.54000     -5.0687801E-09
   24.60000     -5.2764495E-09
   24.66000     -5.4753402E-09
   24.72000     -5.6657181E-09
   24.78000     -5.8482366E-09
   24.84000     -6.0236851E-09
   24.90000     -6.1923640E-09
   24.96000     -6.3533925E-09
   25.02000     -6.5043491E-09
   25.08000     -6.6415229E-09
   25.14000     -6.7607617E-09
   25.20000     -6.8586408E-09
   25.26000     -6.9335093E-09
   25.32000     -6.9860495E-09
   25.38000     -7.0191550E-09
   25.44000     -7.0371784E-09
   25.50000     -7.0447674E-09
   25.56000     -7.0456241E-09
   25.62000     -7.0415247E-09
   25.68000     -7.0318795E-09
   25.74000     -7.0139774E-09
   25.80000     -6.9838637E-09
   25.86000     -6.9375825E-09
   25.92000     -6.8723898E-09
   25.98000     -6.7875368E-09
   26.04000     -6.6844010E-09
   26.10000     -6.5659935E-09
   26.16000     -6.4360943E-09
   26.22000     -6.2983467E-09
   26.28000     -6.1555752E-09
   26.34000     -6.0094236E-09
   26.40000     -5.8602843E-09
   26.46000     -5.7074270E-09
   26.52000     -5.5492806E-09
   26.58000     -5.3838440E-09
   26.64000     -5.2091926E-09
   26.70000     -5.0239688E-09
   26.76000     -4.8276823E-09
   26.82000     -4.6207020E-09
   26.88000     -4.4039572E-09
   26.94000     -4.1785393E-09
   27.00000     -3.9454666E-09
   27.06000     -3.7057839E-09
   27.12000     -3.4609176E-09
   27.18000     -3.2130063E-09
   27.24000     -2.9648588E-09
   27.30000     -2.7193705E-09
   27.36000     -2.4785505E-09
   27.42000     -2.2425941E-09
   27.48000     -2.0095194E-09
   27.54000     -1.7756815E-09
   27.60000     -1.5371078E-09
   27.66000     -1.2912177E-09
   27.72000     -1.0382887E-09
   27.78000     -7.8209339E-10
   27.84000     -5.2942373E-10
   27.90000     -2.8861250E-10
   27.96000     -6.7513904E-11
   28.02000      1.2840591E-10
   28.08000      2.9725092E-10
   28.14000      4.4077741E-10
   28.20000      5.6338217E-10
   28.26000      6.7038869E-10
   28.32000      7.6626583E-10
   28.38000      8.5341278E-10
   28.44000      9.3188279E-10
   28.50000      1.0000183E-09
   28.56000      1.0556005E-09
   28.62000      1.0969625E-09
   28.68000      1.1236171E-09
   28.74000      1.1362424E-09
   28.80000      1.1361733E-09
   28.86000      1.1247139E-09
   28.92000      1.1025699E-09
   28.98000      1.0695567E-09
   29.04000      1.0246036E-09
   29.10000      9.6600772E-10
   29.16000      8.9188712E-10
   29.22000      8.0077922E-10
   29.28000      6.9226186E-10
   29.34000      5.6738769E-10
   29.40000      4.2869644E-10
   29.46000      2.7969355E-10
   29.52000      1.2393367E-10
   29.58000     -3.5909178E-11
   29.64000     -1.9853114E-10
   29.70000     -3.6377562E-10
   29.76000     -5.3178667E-10
   29.82000     -7.0196432E-10
   29.88000     -8.7226398E-10
   29.94000     -1.0391972E-09
   30.00000     -1.1985271E-09
   30.06000     -1.3463082E-09
   30.12000     -1.4797913E-09
   30.18000     -1.5978397E-09
   30.24000     -1.7007686E-09
   30.30000     -1.7897679E-09
   30.36000     -1.8661612E-09
   30.42000     -1.9307265E-09
   30.48000     -1.9831978E-09
   30.54000     -2.0220245E-09
   30.60000     -2.0444255E-09
   30.66000     -2.0467839E-09
   30.72000     -2.0253261E-09
   30.78000     -1.9769386E-09
   30.84000     -1.8998654E-09
   30.90000     -1.7940657E-09
   30.96000     -1.6611446E-09
   31.02000     -1.5039506E-09
   31.08000     -1.3260446E-09
   31.14000     -1.1312140E-09
   31.20000     -9.2308977E-10
   31.26000     -7.0481554E-10
   31.32000     -4.7872906E-10
   31.38000     -2.4610747E-10
   31.44000     -7.1322787E-12
   31.50000      2.3880095E-10
   31.56000      4.9246213E-10
   31.62000      7.5409484E-10
   31.68000      1.0229758E-09
   31.74000      1.2974275E-09
   31.80000      1.5752208E-09
   31.86000      1.8540744E-09
   31.92000      2.1319249E-09
   31.98000      2.4068438E-09
   32.04000      2.6767575E-09
   32.10000      2.9392868E-09
   32.16000      3.1919269E-09
   32.22000      3.4325089E-09
   32.28000      3.6596257E-09
   32.34000      3.8726791E-09
   32.40000      4.0714387E-09
   32.46000      4.2553507E-09
   32.52000      4.4230237E-09
   32.58000      4.5722302E-09
   32.64000      4.7004187E-09
   32.70000      4.8054081E-09
   32.76000      4.8858335E-09
   32.82000      4.9411191E-09
   32.88000      4.9711018E-09
   32.94000      4.9756768E-09
   33.00000      4.9547664E-09
   33.06000      4.9086246E-09
   33.12000      4.8381845E-09
   33.18000      4.7450799E-09
   33.24000      4.6311857E-09
   33.30000      4.4979074E-09
   33.36000      4.3456643E-09
   33.42000      4.1739461E-09
   33.48000      3.9819672E-09
   33.54000      3.7695500E-09
   33.60000      3.5377121E-09
   33.66000      3.2886220E-09
   33.72000      3.0249743E-09
   33.78000      2.7491853E-09
   33.84000      2.4628755E-09
   33.90000      2.1668678E-09
   33.96000      1.8615923E-09
   34.02000      1.5475508E-09
   34.08000      1.2255367E-09
   34.14000      8.9654362E-10
   34.20000      5.6153948E-10
   34.26000      2.2137724E-10
   34.32000     -1.2302528E-10
   34.38000     -4.7032700E-10
   34.44000     -8.1847179E-10
   34.50000     -1.1646837E-09
   34.56000     -1.5057936E-09
   34.62000     -1.8387450E-09
   34.68000     -2.1610400E-09
   34.74000     -2.4709470E-09
   34.80000     -2.7674476E-09
   34.86000     -3.0500211E-09
   34.92000     -3.3184040E-09
   34.98000     -3.5724204E-09
   35.04000     -3.8118935E-09
   35.10000     -4.0366182E-09
   35.16000     -4.2463686E-09
   35.22000     -4.4409330E-09
   35.28000     -4.6201771E-09
   35.34000     -4.7841029E-09
   35.40000     -4.9328492E-09
   35.46000     -5.0665996E-09
   35.52000     -5.1854068E-09
   35.58000     -5.2889990E-09
   35.64000     -5.3766711E-09
   35.70000     -5.4473430E-09
   35.76000     -5.4997971E-09
   35.82000     -5.5330576E-09
   35.88000     -5.5468110E-09
   35.94000     -5.5417475E-09
   36.00000     -5.5196918E-09
   36.06000     -5.4834315E-09
   36.12000     -5.4362328E-09
   36.18000     -5.3811231E-09
   36.24000     -5.3201705E-09
   36.30000     -5.2540097E-09
   36.36000     -5.1818150E-09
   36.42000     -5.1017435E-09
   36.48000     -5.0116609E-09
   36.54000     -4.9098623E-09
   36.60000     -4.7955382E-09
   36.66000     -4.6689008E-09
   36.72000     -4.5310813E-09
   36.78000     -4.3839505E-09
   36.84000     -4.2299684E-09
   36.90000     -4.0719943E-09
   36.96000     -3.9129380E-09
   37.02000     -3.7552086E-09
   37.08000     -3.6001102E-09
   37.14000     -3.4475007E-09
   37.20000     -3.2959648E-09
   37.26000     -3.1435128E-09
   37.32000     -2.9884928E-09
   37.38000     -2.8302301E-09
   37.44000     -2.6690643E-09
   37.50000     -2.5058036E-09
   37.56000     -2.3410125E-09
   37.62000     -2.1746487E-09
   37.68000     -2.0063518E-09
   37.74000     -1.8362399E-09
   37.80000     -1.6657028E-09
   37.86000     -1.4976403E-09
   37.92000     -1.3358902E-09
   37.98000     -1.1840403E-09
   38.04000     -1.0441434E-09
   38.10000     -9.1586960E-10
   38.16000     -7.9636941E-10
   38.22000     -6.8079664E-10
   38.28000     -5.6324201E-10
   38.34000     -4.3782808E-10
   38.40000     -2.9981537E-10
   38.46000     -1.4661469E-10
   38.52000      2.1466355E-11
   38.58000      2.0101247E-10
   38.64000      3.8606024E-10
   38.70000      5.6942012E-10
   38.76000      7.4439060E-10
   38.82000      9.0624191E-10
   38.88000      1.0528968E-09
   38.94000      1.1846072E-09
   39.00000      1.3029080E-09
   39.06000      1.4094433E-09
   39.12000      1.5052183E-09
   39.18000      1.5904936E-09
   39.24000      1.6651532E-09
   39.30000      1.7291770E-09
   39.36000      1.7829500E-09
   39.42000      1.8273673E-09
   39.48000      1.8638726E-09
   39.54000      1.8945190E-09
   39.60000      1.9219664E-09
   39.66000      1.9492092E-09
   39.72000      1.9789184E-09
   39.78000      2.0125852E-09
   39.84000      2.0499060E-09
   39.90000      2.0888524E-09
   39.96000      2.1265294E-09
   40.02000      2.1604378E-09
   40.08000      2.1894564E-09
   40.14000      2.2139746E-09
   40.20000      2.2351052E-09
   40.26000      2.2534696E-09
   40.32000      2.2683238E-09
   40.38000      2.2775664E-09
   40.44000      2.2786337E-09
   40.50000      2.2697462E-09
   40.56000      2.2508182E-09
   40.62000      2.2236053E-09
   40.68000      2.1911541E-09
   40.74000      2.1569813E-09
   40.80000      2.1244237E-09
   40.86000      2.0963258E-09
   40.92000      2.0749058E-09
   40.98000      2.0615474E-09
   41.04000      2.0564304E-09
   41.10000      2.0581898E-09
   41.16000      2.0639406E-09
   41.22000      2.0698352E-09
   41.28000      2.0720199E-09
   41.34000      2.0675628E-09
   41.40000      2.0549447E-09
   41.46000      2.0339594E-09
   41.52000      2.0052264E-09
   41.58000      1.9696804E-09
   41.64000      1.9283037E-09
   41.70000      1.8820969E-09
   41.76000      1.8320807E-09
   41.82000      1.7791474E-09
   41.88000      1.7237903E-09
   41.94000      1.6659462E-09
   42.00000      1.6051672E-09
   42.06000      1.5411025E-09
   42.12000      1.4739696E-09
   42.18000      1.4046215E-09
   42.24000      1.3340511E-09
   42.30000      1.2626007E-09
   42.36000      1.1894467E-09
   42.42000      1.1128475E-09
   42.48000      1.0311881E-09
   42.54000      9.4430386E-10
   42.60000      8.5429763E-10
   42.66000      7.6529932E-10
   42.72000      6.8221279E-10
   42.78000      6.0909405E-10
   42.84000      5.4800847E-10
   42.90000      4.9890275E-10
   42.96000      4.6041118E-10
   43.02000      4.3100246E-10
   43.08000      4.0977088E-10
   43.14000      3.9651482E-10
   43.20000      3.9125228E-10
   43.26000      3.9365075E-10
   43.32000      4.0279816E-10
   43.38000      4.1741197E-10
   43.44000      4.3623652E-10
   43.50000      4.5827955E-10
   43.56000      4.8272231E-10
   43.62000      5.0863636E-10
   43.68000      5.3480742E-10
   43.74000      5.5987465E-10
   43.80000      5.8273031E-10
   43.86000      6.0290234E-10
   43.92000      6.2064109E-10
   43.98000      6.3665190E-10
   44.04000      6.5167577E-10
   44.10000      6.6623390E-10
   44.16000      6.8071060E-10
   44.22000      6.9567696E-10
   44.28000      7.1214501E-10
   44.34000      7.3146339E-10
   44.40000      7.5480044E-10
   44.46000      7.8244511E-10
   44.52000      8.1330509E-10
   44.58000      8.4488511E-10
   44.64000      8.7377827E-10
   44.70000      8.9645880E-10
   44.76000      9.1007296E-10
   44.82000      9.1299901E-10
   44.88000      9.0509539E-10
   44.94000      8.8766960E-10
   45.00000      8.6320651E-10
   45.06000      8.3487173E-10
   45.12000      8.0581025E-10
   45.18000      7.7834650E-10
   45.24000      7.5328743E-10
   45.30000      7.2956519E-10
   45.36000      7.0435136E-10
   45.42000      6.7359124E-10
   45.48000      6.3274908E-10
   45.54000      5.7752403E-10
   45.60000      5.0439802E-10
   45.66000      4.1101711E-10
   45.72000      2.9646993E-10
   45.78000      1.6146549E-10
   45.84000      8.3027508E-12
   45.90000     -1.5951025E-10
   45.96000     -3.3800776E-10
   46.02000     -5.2368243E-10
   46.08000     -7.1418760E-10
   46.14000     -9.0847918E-10
   46.20000     -1.1063171E-09
   46.26000     -1.3073967E-09
   46.32000     -1.5106132E-09
   46.38000     -1.7139016E-09
   46.44000     -1.9147730E-09
   46.50000     -2.1112703E-09
   46.56000     -2.3028255E-09
   46.62000     -2.4905533E-09
   46.68000     -2.6768001E-09
   46.74000     -2.8641147E-09
   46.80000     -3.0540341E-09
   46.86000     -3.2460867E-09
   46.92000     -3.4372885E-09
   46.98000     -3.6222467E-09
   47.04000     -3.7938652E-09
   47.10000     -3.9445633E-09
   47.16000     -4.0678030E-09
   47.22000     -4.1595887E-09
   47.28000     -4.2194599E-09
   47.34000     -4.2505603E-09
   47.40000     -4.2586099E-09
   47.46000     -4.2500248E-09
   47.52000     -4.2298320E-09
   47.58000     -4.2001682E-09
   47.64000     -4.1599373E-09
   47.70000     -4.1057477E-09
   47.76000     -4.0337254E-09
   47.82000     -3.9414814E-09
   47.88000     -3.8295154E-09
   47.94000     -3.7016046E-09
   48.00000     -3.5641010E-09
   48.06000     -3.4244043E-09
   48.12000     -3.2890928E-09
   48.18000     -3.1622598E-09
   48.24000     -3.0445628E-09
   48.30000     -2.9333220E-09
   48.36000     -2.8237155E-09
   48.42000     -2.7107321E-09
   48.48000     -2.5912053E-09
   48.54000     -2.4651310E-09
   48.60000     -2.3356979E-09
   48.66000     -2.2079789E-09
   48.72000     -2.0868300E-09
   48.78000     -1.9749227E-09
   48.84000     -1.8717627E-09
   48.90000     -1.7740827E-09
   48.96000     -1.6773390E-09
   49.02000     -1.5775866E-09
   49.08000     -1.4729085E-09
   49.14000     -1.3639005E-09
   49.20000     -1.2531938E-09
   49.26000     -1.1443958E-09
   49.32000     -1.0409744E-09
   49.38000     -9.4549468E-10
   49.44000     -8.5938484E-10
   49.50000     -7.8320211E-10
   49.56000     -7.1723982E-10
   49.62000     -6.6225297E-10
   49.68000     -6.2004069E-10
   49.74000     -5.9362054E-10
   49.80000     -5.8681299E-10
   49.86000     -6.0326794E-10
   49.92000     -6.4523542E-10
   49.98000     -7.1258088E-10
   50.04000     -8.0251111E-10
   50.10000     -9.1018604E-10
   50.16000     -1.0299781E-09
   50.22000     -1.1568302E-09
   50.28000     -1.2871509E-09
   50.34000     -1.4189737E-09
   50.40000     -1.5515156E-09
   50.46000     -1.6845582E-09
   50.52000     -1.8180597E-09
   50.58000     -1.9521471E-09
   50.64000     -2.0873145E-09
   50.70000     -2.2245021E-09
   50.76000     -2.3648217E-09
   50.82000     -2.5089526E-09
   50.88000     -2.6564808E-09
   50.94000     -2.8054969E-09
   51.00000     -2.9526548E-09
   51.06000     -3.0936644E-09
   51.12000     -3.2240561E-09
   51.18000     -3.3400009E-09
   51.24000     -3.4390264E-09
   51.30000     -3.5204870E-09
   51.36000     -3.5856516E-09
   51.42000     -3.6372663E-09
   51.48000     -3.6785783E-09
   51.54000     -3.7120214E-09
   51.60000     -3.7380206E-09
   51.66000     -3.7544474E-09
   51.72000     -3.7570511E-09
   51.78000     -3.7407477E-09
   51.84000     -3.7012127E-09
   51.90000     -3.6360495E-09
   51.96000     -3.5450496E-09
   52.02000     -3.4295664E-09
   52.08000     -3.2915153E-09
   52.14000     -3.1326659E-09
   52.20000     -2.9546183E-09
   52.26000     -2.7593610E-09
   52.32000     -2.5498945E-09
   52.38000     -2.3303788E-09
   52.44000     -2.1055848E-09
   52.50000     -1.8799040E-09
   52.56000     -1.6564405E-09
   52.62000     -1.4366184E-09
   52.68000     -1.2203705E-09
   52.74000     -1.0066156E-09
   52.80000     -7.9362067E-10
   52.86000     -5.7905858E-10
   52.92000     -3.5990269E-10
   52.98000     -1.3249318E-10
   53.04000      1.0700185E-10
   53.10000      3.6183020E-10
   53.16000      6.3398747E-10
   53.22000      9.2403585E-10
   53.28000      1.2315267E-09
   53.34000      1.5557727E-09
   53.40000      1.8965303E-09
   53.46000      2.2542956E-09
   53.52000      2.6302849E-09
   53.58000      3.0264569E-09
   53.64000      3.4459198E-09
   53.70000      3.8937240E-09
   53.76000      4.3776041E-09
   53.82000      4.9080691E-09
   53.88000      5.4974962E-09
   53.94000      6.1584156E-09
   54.00000      6.9016948E-09
   54.06000      7.7354398E-09
   54.12000      8.6650935E-09
   54.18000      9.6946087E-09
   54.24000      1.0828121E-08
   54.30000      1.2071430E-08
   54.36000      1.3432869E-08
   54.42000      1.4923529E-08
   54.48000      1.6557021E-08
   54.54000      1.8348947E-08
   54.60000      2.0316060E-08
   54.66000      2.2475126E-08
   54.72000      2.4841636E-08
   54.78000      2.7428847E-08
   54.84000      3.0247634E-08
   54.90000      3.3307373E-08
   54.96000      3.6617475E-08
   55.02000      4.0188670E-08
   55.08000      4.4033133E-08
   55.14000      4.8163024E-08
   55.20000      5.2587939E-08
   55.26000      5.7312416E-08
   55.32000      6.2334536E-08
   55.38000      6.7646155E-08
   55.44000      7.3234396E-08
   55.50000      7.9083222E-08
   55.56000      8.5174257E-08