  -2.400000      0.0000000E+00
  -2.340000      0.0000000E+00
  -2.280000      0.0000000E+00
  -2.220000      0.0000000E+00
  -2.160000      0.0000000E+00
  -2.100000     -6.8445099E-20
  -2.040000     -5.3591765E-19
  -1.980000     -2.1097746E-18
  -1.920000     -5.3370012E-18
  -1.860000     -8.8630674E-18
  -1.800000     -6.8652628E-18
  -1.740000      1.2098746E-17
  -1.680000      6.0787796E-17
  -1.620000      1.3995120E-16
  -1.560000      2.1773895E-16
  -1.500000      2.1422012E-16
  -1.440000      1.4106842E-17
  -1.380000     -4.7007422E-16
  -1.320000     -1.1868123E-15
  -1.260000     -1.8371687E-15
  -1.200000     -1.8669601E-15
  -1.140000     -6.5801495E-16
  -1.080000      2.0678166E-15
  -1.020000      5.7785490E-15
 -0.9600000      8.8963837E-15
 -0.9000000      9.1168240E-15
 -0.8400000      4.3970145E-15
 -0.7800000     -5.6670629E-15
 -0.7200000     -1.8742989E-14
 -0.6600000     -2.9722725E-14
 -0.6000000     -3.2179395E-14
 -0.5400000     -2.1043736E-14
 -0.4800000      4.5165355E-15
 -0.4200000      3.9360662E-14
 -0.3600000      7.2796065E-14
 -0.3000000      9.1304534E-14
 -0.2400000      8.2776342E-14
 -0.1800000      4.0924986E-14
 -0.1200000     -3.1368564E-14
 -5.9999999E-02 -1.2058490E-13
  0.0000000E+00 -2.0339951E-13
  5.9999999E-02 -2.5020125E-13
  0.1200000     -2.3169829E-13
  0.1800000     -1.2850037E-13
  0.2400000      5.7914556E-14
  0.3000000      2.9653772E-13
  0.3600000      5.2562062E-13
  0.4200000      6.6333110E-13
  0.4800000      6.3095742E-13
  0.5400000      3.8350546E-13
  0.6000000     -6.2876387E-14
  0.6600000     -6.1910015E-13
  0.7200000     -1.1358836E-12
  0.7800000     -1.4415597E-12
  0.8400000     -1.3953701E-12
  0.9000000     -9.3920542E-13
  0.9600000     -1.2935161E-13
   1.020000      8.6464402E-13
   1.080000      1.7964785E-12
   1.140000      2.4060704E-12
   1.200000      2.4916705E-12
   1.260000      1.9707237E-12
   1.320000      9.1185490E-13
   1.380000     -4.7220040E-13
   1.440000     -1.8707939E-12
   1.500000     -2.9502952E-12
   1.560000     -3.4389542E-12
   1.620000     -3.1989873E-12
   1.680000     -2.2654799E-12
   1.740000     -8.4032954E-13
   1.800000      7.5779492E-13
   1.860000      2.1738065E-12
   1.920000      3.1050126E-12
   1.980000      3.3754564E-12
   2.040000      2.9782802E-12
   2.100000      2.0771499E-12
   2.160000      9.6589024E-13
   2.220000     -8.3533314E-15
   2.280000     -5.4728211E-13
   2.340000     -5.0969244E-13
   2.400000      3.9173978E-15
   2.460000      6.2783909E-13
   2.520000      8.0214053E-13
   2.580000     -5.1766740E-14
   2.640000     -2.2822712E-12
   2.700000     -5.7622765E-12
   2.760000     -9.7508703E-12
   2.820000     -1.2951358E-11
   2.880000     -1.3794392E-11
   2.940000     -1.0884973E-11
   3.000000     -3.4706077E-12
   3.060000      8.2435985E-12
   3.120000      2.3064531E-11
   3.180000      3.9090783E-11
   3.240000      5.4201314E-11
   3.300000      6.6563810E-11
   3.360000      7.4968823E-11
   3.420000      7.8880596E-11
   3.480000      7.8232067E-11
   3.540000      7.3113092E-11
   3.600000      6.3547279E-11
   3.660000      4.9498936E-11
   3.720000      3.1123566E-11
   3.780000      9.1361762E-12
   3.840000     -1.4908580E-11
   3.900000     -3.8610268E-11
   3.960000     -5.9064496E-11
   4.020000     -7.3473873E-11
   4.080000     -7.9826763E-11
   4.140000     -7.7404291E-11
   4.200000     -6.6937657E-11
   4.260000     -5.0370257E-11
   4.320000     -3.0324729E-11
   4.380000     -9.4744317E-12
   4.440000      9.9643687E-12
   4.500000      2.6471570E-11
   4.560000      3.9165622E-11
   4.620000      4.7543879E-11
   4.680000      5.1191260E-11
   4.740000      4.9626490E-11
   4.800000      4.2379520E-11
   4.860000      2.9274333E-11
   4.920000      1.0780385E-11
   4.980000     -1.1756890E-11
   5.040000     -3.6163281E-11
   5.100000     -5.9806389E-11
   5.160000     -8.0192845E-11
   5.220000     -9.5583985E-11
   5.280000     -1.0539537E-10
   5.340000     -1.1022230E-10
   5.400000     -1.1148444E-10
   5.460000     -1.1084274E-10
   5.520000     -1.0963919E-10
   5.580000     -1.0859719E-10
   5.640000     -1.0789973E-10
   5.700000     -1.0758679E-10
   5.760000     -1.0806112E-10
   5.820000     -1.1043386E-10
   5.880000     -1.1650672E-10
   5.940000     -1.2835281E-10
   6.000000     -1.4764832E-10
   6.060000     -1.7503449E-10
   6.120000     -2.0979217E-10
   6.180000     -2.4998043E-10
   6.240000     -2.9298527E-10
   6.300000     -3.3623712E-10
   6.360000     -3.7778136E-10
   6.420000     -4.1646628E-10
   6.480000     -4.5171170E-10
   6.540000     -4.8304227E-10
   6.600000     -5.0969806E-10
   6.660000     -5.3059729E-10
   6.720000     -5.4473404E-10
   6.780000     -5.5184135E-10
   6.840000     -5.5296540E-10
   6.900000     -5.5058191E-10
   6.960000     -5.4805660E-10
   7.020000     -5.4853916E-10
   7.080000     -5.5364430E-10
   7.140000     -5.6240718E-10
   7.200000     -5.7094246E-10
   7.260000     -5.7301219E-10
   7.320000     -5.6141619E-10
   7.380000     -5.2985338E-10
   7.440000     -4.7474835E-10
   7.500000     -3.9653131E-10
   7.560000     -2.9999139E-10
   7.620000     -1.9356999E-10
   7.680000     -8.7755067E-11
   7.740000      6.9944619E-12
   7.800000      8.2213944E-11
   7.860000      1.3274358E-10
   7.920000      1.5707344E-10
   7.980000      1.5676675E-10
   8.040000      1.3533645E-10
   8.100000      9.7104672E-11
   8.160000      4.6477155E-11
   8.220000     -1.2235165E-11
   8.280000     -7.4651479E-11
   8.340000     -1.3620303E-10
   8.400000     -1.9237890E-10
   8.460000     -2.3936986E-10
   8.520000     -2.7482711E-10
   8.580000     -2.9830455E-10
   8.640000     -3.1107678E-10
   8.700000     -3.1535638E-10
   8.760000     -3.1327482E-10
   8.820000     -3.0612982E-10
   8.880000     -2.9424779E-10
   8.940000     -2.7745134E-10
   9.000000     -2.5577079E-10
   9.060000     -2.2991513E-10
   9.120000     -2.0118995E-10
   9.180000     -1.7091284E-10
   9.240000     -1.3970879E-10
   9.300000     -1.0715616E-10
   9.360000     -7.2051538E-11
   9.420000     -3.3188830E-11
   9.480000      9.7651826E-12
   9.540000      5.5776637E-11
   9.600000      1.0258344E-10
   9.660000      1.4734725E-10
   9.720000      1.8741045E-10
   9.780000      2.2072340E-10
   9.840000      2.4575780E-10
   9.900000      2.6108710E-10
   9.960000      2.6506072E-10
   10.02000      2.5595417E-10
   10.08000      2.3265333E-10
   10.14000      1.9552168E-10
   10.20000      1.4686616E-10
   10.26000      9.0539215E-11
   10.32000      3.0665519E-11
   10.38000     -2.9982204E-11
   10.44000     -9.1122110E-11
   10.50000     -1.5492131E-10
   10.56000     -2.2463297E-10
   10.62000     -3.0247696E-10
   10.68000     -3.8778974E-10
   10.74000     -4.7641591E-10
   10.80000     -5.6174054E-10
   10.86000     -6.3695604E-10
   10.92000     -6.9754319E-10
   10.98000     -7.4284257E-10
   11.04000     -7.7604839E-10
   11.10000     -8.0270290E-10
   11.16000     -8.2841128E-10
   11.22000     -8.5672275E-10
   11.28000     -8.8788638E-10
   11.34000     -9.1871066E-10
   11.40000     -9.4334229E-10
   11.46000     -9.5463115E-10
   11.52000     -9.4582719E-10
   11.58000     -9.1245489E-10
   11.64000     -8.5413393E-10
   11.70000     -7.7587081E-10
   11.76000     -6.8813821E-10
   11.82000     -6.0519634E-10
   11.88000     -5.4169896E-10
   11.94000     -5.0847865E-10
   12.00000     -5.0906096E-10
   12.06000     -5.3846261E-10
   12.12000     -5.8503274E-10
   12.18000     -6.3479649E-10
   12.24000     -6.7658340E-10
   12.30000     -7.0580025E-10
   12.36000     -7.2528611E-10
   12.42000     -7.4301609E-10
   12.48000     -7.6783446E-10
   12.54000     -8.0521112E-10
   12.60000     -8.5486218E-10
   12.66000     -9.1109481E-10
   12.72000     -9.6546449E-10
   12.78000     -1.0103872E-09
   12.84000     -1.0421145E-09
   12.90000     -1.0619671E-09
   12.96000     -1.0755833E-09
   13.02000     -1.0907428E-09
   13.08000     -1.1147437E-09
   13.14000     -1.1522635E-09
   13.20000     -1.2042466E-09
   13.26000     -1.2678951E-09
   13.32000     -1.3374777E-09
   13.38000     -1.4055418E-09
   13.44000     -1.4641840E-09
   13.50000     -1.5062025E-09
   13.56000     -1.5261102E-09
   13.62000     -1.5210175E-09
   13.68000     -1.4913063E-09
   13.74000     -1.4408736E-09
   13.80000     -1.3766591E-09
   13.86000     -1.3072923E-09
   13.92000     -1.2410194E-09
   13.98000     -1.1834590E-09
   14.04000     -1.1359684E-09
   14.10000     -1.0953037E-09
   14.16000     -1.0547923E-09
   14.22000     -1.0066096E-09
   14.28000     -9.4427044E-10
   14.34000     -8.6438501E-10
   14.40000     -7.6713053E-10
   14.46000     -6.5553363E-10
   14.52000     -5.3418581E-10
   14.58000     -4.0814063E-10
   14.64000     -2.8242880E-10
   14.70000     -1.6210877E-10
   14.76000     -5.2390280E-11
   14.82000      4.1642290E-11
   14.88000      1.1584179E-10
   14.94000      1.6804594E-10
   15.00000      1.9882611E-10
   15.06000      2.1151626E-10
   15.12000      2.1146780E-10
   15.18000      2.0484495E-10
   15.24000      1.9741943E-10
   15.30000      1.9369137E-10
   15.36000      1.9639837E-10
   15.42000      2.0628969E-10
   15.48000      2.2205847E-10
   15.54000      2.4048366E-10
   15.60000      2.5695707E-10
   15.66000      2.6650743E-10
   15.72000      2.6518257E-10
   15.78000      2.5137059E-10
   15.84000      2.2654330E-10
   15.90000      1.9508652E-10
   15.96000      1.6326851E-10
   16.02000      1.3776416E-10
   16.08000      1.2430146E-10
   16.14000      1.2685403E-10
   16.20000      1.4748308E-10
   16.26000      1.8662835E-10
   16.32000      2.4352464E-10
   16.38000      3.1650244E-10
   16.44000      4.0311413E-10
   16.50000      5.0018256E-10
   16.56000      6.0390037E-10
   16.62000      7.1004391E-10
   16.68000      8.1427121E-10
   16.74000      9.1242724E-10
   16.80000      1.0007934E-09
   16.86000      1.0762632E-09
   16.92000      1.1364578E-09
   16.98000      1.1798008E-09
   17.04000      1.2055638E-09
   17.10000      1.2138943E-09
   17.16000      1.2058434E-09
   17.22000      1.1833929E-09
   17.28000      1.1494502E-09
   17.34000      1.1077356E-09
   17.40000      1.0624900E-09
   17.46000      1.0180001E-09
   17.52000      9.7804520E-10
   17.58000      9.4544816E-10
   17.64000      9.2188973E-10
   17.70000      9.0801261E-10
   17.76000      9.0367891E-10
   17.82000      9.0816676E-10
   17.88000      9.2015917E-10
   17.94000      9.3756458E-10
   18.00000      9.5738018E-10
   18.06000      9.7584496E-10
   18.12000      9.8898900E-10
   18.18000      9.9343800E-10
   18.24000      9.8716035E-10
   18.30000      9.6984509E-10
   18.36000      9.4277841E-10
   18.42000      9.0832653E-10
   18.48000      8.6927887E-10
   18.54000      8.2828311E-10
   18.60000      7.8746515E-10
   18.66000      7.4820128E-10
   18.72000      7.1099238E-10
   18.78000      6.7547518E-10
   18.84000      6.4068950E-10
   18.90000      6.0567518E-10
   18.96000      5.7029115E-10
   19.02000      5.3592730E-10
   19.08000      5.0569382E-10
   19.14000      4.8382681E-10
   19.20000      4.7440196E-10
   19.26000      4.7981508E-10
   19.32000      4.9966015E-10
   19.38000      5.3050447E-10
   19.44000      5.6668925E-10
   19.50000      6.0186117E-10
   19.56000      6.3066635E-10
   19.62000      6.5001710E-10
   19.68000      6.5953959E-10
   19.74000      6.6112177E-10
   19.80000      6.5777211E-10
   19.86000      6.5221117E-10
   19.92000      6.4570194E-10
   19.98000      6.3757427E-10
   20.04000      6.2568578E-10
   20.10000      6.0771338E-10
   20.16000      5.8277994E-10
   20.22000      5.5267108E-10
   20.28000      5.2195243E-10
   20.34000      4.9672594E-10
   20.40000      4.8240717E-10
   20.46000      4.8146237E-10
   20.52000      4.9218896E-10
   20.58000      5.0922733E-10
   20.64000      5.2570209E-10
   20.70000      5.3609822E-10
   20.76000      5.3858834E-10
   20.82000      5.3576060E-10
   20.88000      5.3342530E-10
   20.94000      5.3804966E-10
   21.00000      5.5394878E-10
   21.06000      5.8140726E-10
   21.12000      6.1644112E-10
   21.18000      6.5220662E-10
   21.24000      6.8143630E-10
   21.30000      6.9897726E-10
   21.36000      7.0356238E-10
   21.42000      6.9827771E-10
   21.48000      6.8963646E-10
   21.54000      6.8559447E-10
   21.60000      6.9315281E-10
   21.66000      7.1631778E-10
   21.72000      7.5509388E-10
   21.78000      8.0585727E-10
   21.84000      8.6297802E-10
   21.90000      9.2108571E-10
   21.96000      9.7710218E-10
   22.02000      1.0312403E-09
   22.08000      1.0865862E-09
   22.14000      1.1474778E-09
   22.20000      1.2174034E-09
   22.26000      1.2973298E-09
   22.32000      1.3851655E-09
   22.38000      1.4765495E-09
   22.44000      1.5665869E-09
   22.50000      1.6517684E-09
   22.56000      1.7312610E-09
   22.62000      1.8070434E-09
   22.68000      1.8828432E-09
   22.74000      1.9623125E-09
   22.80000      2.0471647E-09
   22.86000      2.1360098E-09
   22.92000      2.2243571E-09
   22.98000      2.3058053E-09
   23.04000      2.3740030E-09
   23.10000      2.4246516E-09
   23.16000      2.4567972E-09
   23.22000      2.4729063E-09
   23.28000      2.4776767E-09
   23.34000      2.4760127E-09
   23.40000      2.4709244E-09
   23.46000      2.4621563E-09
   23.52000      2.4460864E-09
   23.58000      2.4169649E-09
   23.64000      2.3690552E-09
   23.70000      2.2989022E-09
   23.76000      2.2068909E-09
   23.82000      2.0975237E-09
   23.88000      1.9783226E-09
   23.94000      1.8577707E-09
   24.00000      1.7430529E-09
   24.06000      1.6384122E-09
   24.12000      1.5446560E-09
   24.18000      1.4598870E-09
   24.24000      1.3810549E-09
   24.30000      1.3056545E-09
   24.36000      1.2329151E-09
   24.42000      1.1641182E-09
   24.48000      1.1020729E-09
   24.54000      1.0500969E-09
   24.60000      1.0109699E-09
   24.66000      9.8622566E-10
   24.72000      9.7593189E-10
   24.78000      9.7889696E-10
   24.84000      9.9312680E-10
   24.90000      1.0163435E-09
   24.96000      1.0464263E-09
   25.02000      1.0816874E-09
   25.08000      1.1209446E-09
   25.14000      1.1633864E-09
   25.20000      1.2082948E-09
   25.26000      1.2547480E-09
   25.32000      1.3014615E-09
   25.38000      1.3468728E-09
   25.44000      1.3894630E-09
   25.50000      1.4281794E-09
   25.56000      1.4627621E-09
   25.62000      1.4938113E-09
   25.68000      1.5225503E-09
   25.74000      1.5503604E-09
   25.80000      1.5782252E-09
   25.86000      1.6062196E-09
   25.92000      1.6331465E-09
   25.98000      1.6564164E-09
   26.04000      1.6722772E-09
   26.10000      1.6764710E-09
   26.16000      1.6652767E-09
   26.22000      1.6366768E-09
   26.28000      1.5911970E-09
   26.34000      1.5319472E-09
   26.40000      1.4636523E-09
   26.46000      1.3909144E-09
   26.52000      1.3163880E-09
   26.58000      1.2396856E-09
   26.64000      1.1575546E-09
   26.70000      1.0652752E-09
   26.76000      9.5863961E-10
   26.82000      8.3559587E-10
   26.88000      6.9685901E-10
   26.94000      5.4533472E-10
   27.00000      3.8479059E-10
   27.06000      2.1849192E-10
   27.12000      4.8401633E-11
   27.18000     -1.2485464E-10
   27.24000     -3.0145295E-10
   27.30000     -4.8164078E-10
   27.36000     -6.6511752E-10
   27.42000     -8.5064544E-10
   27.48000     -1.0359038E-09
   27.54000     -1.2176185E-09
   27.60000     -1.3920669E-09
   27.66000     -1.5560124E-09
   27.72000     -1.7078898E-09
   27.78000     -1.8487726E-09
   27.84000     -1.9825204E-09
   27.90000     -2.1147246E-09
   27.96000     -2.2506133E-09
   28.02000     -2.3926605E-09
   28.08000     -2.5389451E-09
   28.14000     -2.6830658E-09
   28.20000     -2.8157565E-09
   28.26000     -2.9275717E-09
   28.32000     -3.0115581E-09
   28.38000     -3.0648994E-09
   28.44000     -3.0890694E-09
   28.50000     -3.0886995E-09
   28.56000     -3.0698482E-09
   28.62000     -3.0384164E-09
   28.68000     -2.9991802E-09
   28.74000     -2.9555103E-09
   28.80000     -2.9095550E-09
   28.86000     -2.8625899E-09
   28.92000     -2.8152951E-09
   28.98000     -2.7678595E-09
   29.04000     -2.7198801E-09
   29.10000     -2.6700984E-09
   29.16000     -2.6160738E-09
   29.22000     -2.5539966E-09
   29.28000     -2.4788935E-09
   29.34000     -2.3854028E-09
   29.40000     -2.2690811E-09
   29.46000     -2.1279039E-09
   29.52000     -1.9634199E-09
   29.58000     -1.7810605E-09
   29.64000     -1.5893786E-09
   29.70000     -1.3984039E-09
   29.76000     -1.2176358E-09
   29.82000     -1.0542821E-09
   29.88000     -9.1219970E-10
   29.94000     -7.9168805E-10
   30.00000     -6.9000755E-10
   30.06000     -6.0235578E-10
   30.12000     -5.2302479E-10
   30.18000     -4.4652954E-10
   30.24000     -3.6855324E-10
   30.30000     -2.8658553E-10
   30.36000     -2.0016030E-10
   30.42000     -1.1068007E-10
   30.48000     -2.0924809E-11
   30.54000      6.5565754E-11
   30.60000      1.4504350E-10
   30.66000      2.1393563E-10
   30.72000      2.6909203E-10
   30.78000      3.0800851E-10
   30.84000      3.2911029E-10
   30.90000      3.3206951E-10
   30.96000      3.1802017E-10
   31.02000      2.8951971E-10
   31.08000      2.5020536E-10
   31.14000      2.0423931E-10
   31.20000      1.5573261E-10
   31.26000      1.0831035E-10
   31.32000      6.4861012E-11
   31.38000      2.7386081E-11
   31.44000     -3.1621229E-12
   31.50000     -2.7076008E-11
   31.56000     -4.5993202E-11
   31.62000     -6.2686113E-11
   31.68000     -8.0385684E-11
   31.74000     -1.0169016E-10
   31.80000     -1.2736499E-10
   31.86000     -1.5550217E-10
   31.92000     -1.8147610E-10
   31.98000     -1.9889423E-10
   32.04000     -2.0138025E-10
   32.10000     -1.8468586E-10
   32.16000     -1.4844258E-10
   32.22000     -9.6920964E-11
   32.28000     -3.8457178E-11
   32.34000      1.6353970E-11
   32.40000      5.7170109E-11
   32.46000      7.6330643E-11
   32.52000      7.0449507E-11
   32.58000      4.0733753E-11
   32.64000     -7.9299319E-12
   32.70000     -6.8645652E-11
   32.76000     -1.3426139E-10
   32.82000     -1.9864321E-10
   32.88000     -2.5724603E-10
   32.94000     -3.0712452E-10
   33.00000     -3.4672806E-10
   33.06000     -3.7577572E-10
   33.12000     -3.9528431E-10
   33.18000     -4.0759773E-10
   33.24000     -4.1619086E-10
   33.30000     -4.2514009E-10
   33.36000     -4.3836071E-10
   33.42000     -4.5886472E-10
   33.48000     -4.8828619E-10
   33.54000     -5.2677435E-10
   33.60000     -5.7318095E-10
   33.66000     -6.2538708E-10
   33.72000     -6.8065492E-10
   33.78000     -7.3600143E-10
   33.84000     -7.8864681E-10
   33.90000     -8.3654539E-10
   33.96000     -8.7888646E-10
   34.02000     -9.1636371E-10
   34.08000     -9.5104180E-10
   34.14000     -9.8579922E-10
   34.20000     -1.0235159E-09
   34.26000     -1.0662831E-09
   34.32000     -1.1148895E-09
   34.38000     -1.1687141E-09
   34.44000     -1.2260064E-09
   34.50000     -1.2844521E-09
   34.56000     -1.3418778E-09
   34.62000     -1.3969293E-09
   34.68000     -1.4495150E-09
   34.74000     -1.5007943E-09
   34.80000     -1.5525695E-09
   34.86000     -1.6061736E-09
   34.92000     -1.6612479E-09
   34.98000     -1.7150035E-09
   35.04000     -1.7624699E-09
   35.10000     -1.7978208E-09
   35.16000     -1.8163003E-09
   35.22000     -1.8158857E-09
   35.28000     -1.7978614E-09
   35.34000     -1.7660003E-09
   35.40000     -1.7247614E-09
   35.46000     -1.6774179E-09
   35.52000     -1.6250244E-09
   35.58000     -1.5666048E-09
   35.64000     -1.5002358E-09
   35.70000     -1.4242425E-09
   35.76000     -1.3377947E-09
   35.82000     -1.2407071E-09
   35.88000     -1.1328476E-09
   35.94000     -1.0138185E-09
   36.00000     -8.8333557E-10
   36.06000     -7.4215217E-10
   36.12000     -5.9288013E-10
   36.18000     -4.4000215E-10
   36.24000     -2.8881247E-10
   36.30000     -1.4369261E-10
   36.36000     -6.5905029E-12
   36.42000      1.2347494E-10
   36.48000      2.4959573E-10
   36.54000      3.7525397E-10
   36.60000      5.0255988E-10
   36.66000      6.3127287E-10
   36.72000      7.5897055E-10
   36.78000      8.8213986E-10
   36.84000      9.9758546E-10
   36.90000      1.1035276E-09
   36.96000      1.2000440E-09
   37.02000      1.2888615E-09
   37.08000      1.3727463E-09
   37.14000      1.4547769E-09
   37.20000      1.5377102E-09
   37.26000      1.6235338E-09
   37.32000      1.7132367E-09
   37.38000      1.8067861E-09
   37.44000      1.9032538E-09
   37.50000      2.0009847E-09
   37.56000      2.0976836E-09
   37.62000      2.1903832E-09
   37.68000      2.2754010E-09
   37.74000      2.3485160E-09
   37.80000      2.4055635E-09
   37.86000      2.4434146E-09
   37.92000      2.4610012E-09
   37.98000      2.4598468E-09
   38.04000      2.4436695E-09
   38.10000      2.4170210E-09
   38.16000      2.3834403E-09
   38.22000      2.3439271E-09
   38.28000      2.2964661E-09
   38.34000      2.2368778E-09
   38.40000      2.1606508E-09
   38.46000      2.0649757E-09
   38.52000      1.9501623E-09
   38.58000      1.8199560E-09
   38.64000      1.6807824E-09
   38.70000      1.5403245E-09
   38.76000      1.4059437E-09
   38.82000      1.2833157E-09
   38.88000      1.1754480E-09
   38.94000      1.0821360E-09
   39.00000      9.9994857E-10
   39.06000      9.2288083E-10
   39.12000      8.4374169E-10
   39.18000      7.5607831E-10
   39.24000      6.5611672E-10
   39.30000      5.4401939E-10
   39.36000      4.2390177E-10
   39.42000      3.0251404E-10
   39.48000      1.8706126E-10
   39.54000      8.3018432E-11
   39.60000     -7.2214808E-12
   39.66000     -8.4438810E-11
   39.72000     -1.5156436E-10
   39.78000     -2.1213457E-10
   39.84000     -2.6891903E-10
   39.90000     -3.2318415E-10
   39.96000     -3.7467254E-10
   40.02000     -4.2208004E-10
   40.08000     -4.6372953E-10
   40.14000     -4.9824223E-10
   40.20000     -5.2514509E-10
   40.26000     -5.4538302E-10
   40.32000     -5.6161648E-10
   40.38000     -5.7808108E-10
   40.44000     -5.9982358E-10
   40.50000     -6.3136607E-10
   40.56000     -6.7519434E-10
   40.62000     -7.3070200E-10
   40.68000     -7.9416390E-10
   40.74000     -8.5991986E-10
   40.80000     -9.2239272E-10
   40.86000     -9.7813213E-10
   40.92000     -1.0270141E-09
   40.98000     -1.0720863E-09
   41.04000     -1.1181600E-09
   41.10000     -1.1697943E-09
   41.16000     -1.2295398E-09
   41.22000     -1.2971136E-09
   41.28000     -1.3697047E-09
   41.34000     -1.4431126E-09
   41.40000     -1.5131487E-09
   41.46000     -1.5767376E-09
   41.52000     -1.6324017E-09
   41.58000     -1.6800954E-09
   41.64000     -1.7205736E-09
   41.70000     -1.7545507E-09
   41.76000     -1.7819139E-09
   41.82000     -1.8012191E-09
   41.88000     -1.8096664E-09
   41.94000     -1.8036714E-09
   42.00000     -1.7799771E-09
   42.06000     -1.7370191E-09
   42.12000     -1.6760556E-09
   42.18000     -1.6015299E-09
   42.24000     -1.5203596E-09
   42.30000     -1.4402421E-09
   42.36000     -1.3675083E-09
   42.42000     -1.3052982E-09
   42.48000     -1.2527483E-09
   42.54000     -1.2054974E-09
   42.60000     -1.1572938E-09
   42.66000     -1.1020751E-09
   42.72000     -1.0357522E-09
   42.78000     -9.5710184E-10
   42.84000     -8.6756258E-10
   42.90000     -7.7014217E-10
   42.96000     -6.6793471E-10
   43.02000     -5.6282329E-10
   43.08000     -4.5482373E-10
   43.14000     -3.4227365E-10
   43.20000     -2.2277626E-10
   43.26000     -9.4546863E-11
   43.32000      4.2351081E-11
   43.38000      1.8539718E-10
   43.44000      3.2997105E-10
   43.50000      4.7067661E-10
   43.56000      6.0323735E-10
   43.62000      7.2626194E-10
   43.68000      8.4212060E-10
   43.74000      9.5643971E-10
   43.80000      1.0762352E-09
   43.86000      1.2072850E-09
   43.92000      1.3517133E-09
   43.98000      1.5067430E-09
   44.04000      1.6651449E-09
   44.10000      1.8172412E-09
   44.16000      1.9537032E-09
   44.22000      2.0680919E-09
   44.28000      2.1582569E-09
   44.34000      2.2262203E-09
   44.40000      2.2767950E-09
   44.46000      2.3156150E-09
   44.52000      2.3473454E-09
   44.58000      2.3745876E-09
   44.64000      2.3976336E-09
   44.70000      2.4148987E-09
   44.76000      2.4237612E-09
   44.82000      2.4215616E-09
   44.88000      2.4065969E-09
   44.94000      2.3789293E-09
   45.00000      2.3407587E-09
   45.06000      2.2960847E-09
   45.12000      2.2495463E-09
   45.18000      2.2046875E-09
   45.24000      2.1622937E-09
   45.30000      2.1196198E-09
   45.36000      2.0710893E-09
   45.42000      2.0104001E-09
   45.48000      1.9332558E-09
   45.54000      1.8394957E-09
   45.60000      1.7335655E-09
   45.66000      1.6229955E-09
   45.72000      1.5155001E-09
   45.78000      1.4159907E-09
   45.84000      1.3248367E-09
   45.90000      1.2381012E-09
   45.96000      1.1495452E-09
   46.02000      1.0534111E-09
   46.08000      9.4675079E-10
   46.14000      8.3040230E-10
   46.20000      7.0841061E-10
   46.26000      5.8634864E-10
   46.32000      4.6933624E-10
   46.38000      3.6049594E-10
   46.44000      2.6027308E-10
   46.50000      1.6668622E-10
   46.56000      7.6315655E-11
   46.62000     -1.4297843E-11
   46.68000     -1.0722536E-10
   46.74000     -2.0209175E-10
   46.80000     -2.9574043E-10
   46.86000     -3.8281789E-10
   46.92000     -4.5719645E-10
   46.98000     -5.1383720E-10
   47.04000     -5.5048432E-10
   47.10000     -5.6860228E-10
   47.16000     -5.7322352E-10
   47.22000     -5.7175931E-10
   47.28000     -5.7215899E-10
   47.34000     -5.8096311E-10
   47.40000     -6.0175986E-10
   47.46000     -6.3440164E-10
   47.52000     -6.7515254E-10
   47.58000     -7.1776068E-10
   47.64000     -7.5525619E-10
   47.70000     -7.8205808E-10
   47.76000     -7.9577828E-10
   47.82000     -7.9806833E-10
   47.88000     -7.9407453E-10
   47.94000     -7.9055218E-10
   48.00000     -7.9326085E-10
   48.06000     -8.0464307E-10
   48.12000     -8.2275392E-10
   48.18000     -8.4191687E-10
   48.24000     -8.5485269E-10
   48.30000     -8.5539825E-10
   48.36000     -8.4070706E-10
   48.42000     -8.1208817E-10
   48.48000     -7.7424289E-10
   48.54000     -7.3330580E-10
   48.60000     -6.9450706E-10
   48.66000     -6.6033090E-10
   48.72000     -6.2978028E-10
   48.78000     -5.9893368E-10
   48.84000     -5.6255123E-10
   48.90000     -5.1617066E-10
   48.96000     -4.5799184E-10
   49.02000     -3.8991052E-10
   49.08000     -3.1731776E-10
   49.14000     -2.4768687E-10
   49.20000     -1.8839273E-10
   49.26000     -1.4449870E-10
   49.32000     -1.1726724E-10
   49.38000     -1.0388270E-10
   49.44000     -9.8425761E-11
   49.50000     -9.3705023E-11
   49.56000     -8.3306709E-11
   49.62000     -6.3238352E-11
   49.68000     -3.2758855E-11
   49.74000      5.7231303E-12
   49.80000      4.7551619E-11
   49.86000      8.7234435E-11
   49.92000      1.1998932E-10
   49.98000      1.4302395E-10
   50.04000      1.5619539E-10
   50.10000      1.6183722E-10
   50.16000      1.6379378E-10
   50.22000      1.6599130E-10
   50.28000      1.7108072E-10
   50.34000      1.7969053E-10
   50.40000      1.9059146E-10
   50.46000      2.0168853E-10
   50.52000      2.1139032E-10
   50.58000      2.1973187E-10
   50.64000      2.2873173E-10
   50.70000      2.4179905E-10
   50.76000      2.6242639E-10
   50.82000      2.9272798E-10
   50.88000      3.3246919E-10
   50.94000      3.7903797E-10
   51.00000      4.2840956E-10
   51.06000      4.7670917E-10
   51.12000      5.2169613E-10
   51.18000      5.6351712E-10
   51.24000      6.0442240E-10
   51.30000      6.4764916E-10
   51.36000      6.9609207E-10
   51.42000      7.5145928E-10
   51.48000      8.1430040E-10
   51.54000      8.8474766E-10
   51.60000      9.6336883E-10
   51.66000      1.0514637E-09
   51.72000      1.1505036E-09
   51.78000      1.2610021E-09
   51.84000      1.3815281E-09
   51.90000      1.5085591E-09
   51.96000      1.6374059E-09
   52.02000      1.7637956E-09
   52.08000      1.8852830E-09
   52.14000      2.0017248E-09
   52.20000      2.1145499E-09
   52.26000      2.2251598E-09
   52.32000      2.3332305E-09
   52.38000      2.4356388E-09
   52.44000      2.5264115E-09
   52.50000      2.5976215E-09
   52.56000      2.6408620E-09
   52.62000      2.6487814E-09
   52.68000      2.6162399E-09
   52.74000      2.5407318E-09
   52.80000      2.4218745E-09
   52.86000      2.2599873E-09
   52.92000      2.0540643E-09
   52.98000      1.7998305E-09
   53.04000      1.4886832E-09
   53.10000      1.1081114E-09
   53.16000      6.4361855E-10
   53.22000      8.1526300E-11
   53.28000     -5.8842303E-10
   53.34000     -1.3716602E-09
   53.40000     -2.2690352E-09
   53.46000     -3.2784253E-09
   53.52000     -4.3969228E-09
   53.58000     -5.6227081E-09
   53.64000     -6.9559887E-09
   53.70000     -8.3988843E-09
   53.76000     -9.9544177E-09
   53.82000     -1.1624981E-08
   53.88000     -1.3410560E-08
   53.94000     -1.5307158E-08
   54.00000     -1.7305798E-08
   54.06000     -1.9392459E-08
   54.12000     -2.1549202E-08
   54.18000     -2.3756170E-08
   54.24000     -2.5993819E-08
   54.30000     -2.8244425E-08
   54.36000     -3.0492284E-08
   54.42000     -3.2722536E-08
   54.48000     -3.4919299E-08
   54.54000     -3.7064076E-08
   54.60000     -3.9135127E-08
   54.66000     -4.1107985E-08
   54.72000     -4.2956614E-08
   54.78000     -4.4654534E-08
   54.84000     -4.6175352E-08
   54.90000     -4.7492630E-08
   54.96000     -4.8579462E-08
   55.02000     -4.9408186E-08
   55.08000     -4.9950561E-08
   55.14000     -5.0178276E-08
   55.20000     -5.0063544E-08
   55.26000     -4.9579644E-08
   55.32000     -4.8701395E-08
   55.38000     -4.7405884E-08
   55.44000     -4.5673477E-08
   55.50000     -4.3489148E-08
   55.56000     -4.0843837E-08