 -0.750000000       0.00000000    
 -0.689999998       0.00000000    
 -0.629999995       0.00000000    
 -0.569999993       0.00000000    
 -0.509999990       0.00000000    
 -0.449999988      -6.84450986E-20
 -0.389999986      -5.35920858E-19
 -0.330000013      -2.10979198E-18
 -0.270000011      -5.33702928E-18
 -0.209999993      -8.86303099E-18
 -0.150000006      -6.86512180E-18
  -9.00000036E-02   1.20983081E-17
  -2.99999993E-02   6.07842821E-17
   2.99999993E-02   1.39940868E-16
   9.00000036E-02   2.17722752E-16
  0.150000006       2.14215810E-16
  0.209999993       1.41558777E-17
  0.270000011      -4.69930015E-16
  0.330000013      -1.18660507E-15
  0.389999986      -1.83710329E-15
  0.449999988      -1.86742876E-15
  0.509999990      -6.59364486E-16
  0.569999993       2.06581743E-15
  0.629999995       5.77729198E-15
  0.689999998       8.89841315E-15
  0.750000000       9.12449895E-15
  0.810000002       4.40975093E-15
  0.870000005      -5.65564153E-15
  0.930000007      -1.87452000E-14
  0.990000010      -2.97514292E-14
   1.04999995      -3.22368780E-14
   1.11000001      -2.11097585E-14
   1.16999996       4.48771947E-15
   1.23000002       3.94245488E-14
   1.28999996       7.29818563E-14
   1.35000002       9.15725896E-14
   1.40999997       8.29974720E-14
   1.47000003       4.09116100E-14
   1.52999997      -3.17693869E-14
   1.59000003      -1.21365347E-13
   1.64999998      -2.04299997E-13
   1.71000004      -2.50734492E-13
   1.76999998      -2.31332314E-13
   1.83000004      -1.26960888E-13
   1.88999999       6.03542959E-14
   1.95000005       2.98960374E-13
   2.00999999       5.26698531E-13
   2.06999993       6.61885477E-13
   2.13000011       6.26651129E-13
   2.19000006       3.77338297E-13
   2.25000000      -6.85971665E-14
   2.30999994      -6.21460945E-13
   2.36999989      -1.13257949E-12
   2.43000007      -1.43216710E-12
   2.49000001      -1.38208921E-12
   2.54999995      -9.26596148E-13
   2.60999990      -1.22963895E-13
   2.67000008       8.60382674E-13
   2.73000002       1.78036101E-12
   2.78999996       2.38132040E-12
   2.84999990       2.46562536E-12
   2.91000009       1.95286344E-12
   2.97000003       9.10681036E-13
   3.02999997      -4.52444804E-13
   3.08999991      -1.83239600E-12
   3.15000010      -2.90240336E-12
   3.21000004      -3.39562644E-12
   3.26999998      -3.17535126E-12
   3.32999992      -2.27305306E-12
   3.39000010      -8.82892392E-13
   3.45000005       6.86476212E-13
   3.50999999       2.08959412E-12
   3.56999993       3.03024684E-12
   3.63000011       3.33367383E-12
   3.69000006       2.98795559E-12
   3.75000000       2.14589240E-12
   3.80999994       1.08650979E-12
   3.86999989       1.41275473E-13
   3.93000007      -4.04236106E-13
   3.99000001      -4.14611325E-13
   4.05000019       1.40073940E-14
   4.11000013       5.31744733E-13
   4.17000008       6.04359715E-13
   4.23000002      -3.16319941E-13
   4.28999996      -2.55167675E-12
   4.34999990      -5.96036024E-12
   4.40999985      -9.80754193E-12
   4.46999979      -1.28256008E-11
   4.53000021      -1.34926818E-11
   4.59000015      -1.04678601E-11
   4.65000010      -3.04284029E-12
   4.71000004       8.55903629E-12
   4.76999998       2.31624442E-11
   4.82999992       3.89193365E-11
   4.88999987       5.37853199E-11
   4.94999981       6.60065752E-11
   5.01000023       7.44295597E-11
   5.07000017       7.85321738E-11
   5.13000011       7.82104451E-11
   5.19000006       7.34729291E-11
   5.25000000       6.42368381E-11
   5.30999994       5.03619230E-11
   5.36999989       3.19275474E-11
   5.42999983       9.62018833E-12
   5.48999977      -1.49787318E-11
   5.55000019      -3.93903833E-11
   5.61000013      -6.05915318E-11
   5.67000008      -7.56388355E-11
   5.73000002      -8.23586407E-11
   5.78999996      -7.98620198E-11
   5.84999990      -6.87103430E-11
   5.90999985      -5.06912116E-11
   5.96999979      -2.83092820E-11
   6.03000021      -4.19190290E-12
   6.09000015       1.93808233E-11
   6.15000010       4.06846813E-11
   6.21000004       5.84842244E-11
   6.26999998       7.17944176E-11
   6.32999992       7.96430422E-11
   6.38999987       8.09959461E-11
   6.44999981       7.49233800E-11
   6.51000023       6.09638243E-11
   6.57000017       3.95327902E-11
   6.63000011       1.21773910E-11
   6.69000006      -1.84821394E-11
   6.75000000      -4.91670142E-11
   6.80999994      -7.66074981E-11
   6.86999989      -9.82480972E-11
   6.92999983      -1.12746798E-10
   6.98999977      -1.20099652E-10
   7.05000019      -1.21371177E-10
   7.11000013      -1.18169516E-10
   7.17000008      -1.12105859E-10
   7.23000002      -1.04469836E-10
   7.28999996      -9.62399951E-11
   7.34999990      -8.83810247E-11
   7.40999985      -8.22312496E-11
   7.46999979      -7.97292302E-11
   7.53000021      -8.32937816E-11
   7.59000015      -9.53334217E-11
   7.65000010      -1.17548915E-10
   7.71000004      -1.50313900E-10
   7.76999998      -1.92412475E-10
   7.82999992      -2.41274140E-10
   7.88999987      -2.93630509E-10
   7.94999981      -3.46329132E-10
   8.01000023      -3.96970318E-10
   8.06999969      -4.44122017E-10
   8.13000011      -4.87080987E-10
   8.18999958      -5.25378241E-10
   8.25000000      -5.58357527E-10
   8.31000042      -5.85111071E-10
   8.36999989      -6.04854278E-10
   8.43000031      -6.17563334E-10
   8.48999977      -6.24513496E-10
   8.55000019      -6.28349872E-10
   8.60999966      -6.32505825E-10
   8.67000008      -6.40071995E-10
   8.72999954      -6.52485843E-10
   8.78999996      -6.68528788E-10
   8.85000038      -6.84047541E-10
   8.90999985      -6.92578939E-10
   8.97000027      -6.86769863E-10
   9.02999973      -6.60225652E-10
   9.09000015      -6.09290840E-10
   9.14999962      -5.34271183E-10
   9.21000004      -4.39749431E-10
   9.27000046      -3.33882255E-10
   9.32999992      -2.26841962E-10
   9.39000034      -1.28811906E-10
   9.44999981      -4.80787944E-11
   9.51000023       1.02657145E-11
   9.56999969       4.47137466E-11
   9.63000011       5.68405809E-11
   9.68999958       5.02378555E-11
   9.75000000       2.93552960E-11
   9.81000042      -1.34348587E-12
   9.86999989      -3.77527593E-11
   9.93000031      -7.61491009E-11
   9.98999977      -1.13155270E-10
   10.0500002      -1.45882625E-10
   10.1099997      -1.72279899E-10
   10.1700001      -1.91487243E-10
   10.2299995      -2.03908862E-10
   10.2900000      -2.10843648E-10
   10.3500004      -2.13778634E-10
   10.4099998      -2.13680185E-10
   10.4700003      -2.10657852E-10
   10.5299997      -2.04174955E-10
   10.5900002      -1.93656452E-10
   10.6499996      -1.79094364E-10
   10.7100000      -1.61240368E-10
   10.7700005      -1.41225920E-10
   10.8299999      -1.19816643E-10
   10.8900003      -9.67666225E-11
   10.9499998      -7.07216855E-11
   11.0100002      -3.98235576E-11
   11.0699997      -2.75722717E-12
   11.1300001       4.02972551E-11
   11.1899996       8.73237316E-11
   11.2500000       1.34930733E-10
   11.3100004       1.79368354E-10
   11.3699999       2.17552712E-10
   11.4300003       2.47567827E-10
   11.4899998       2.68442019E-10
   11.5500002       2.79441664E-10
   11.6099997       2.79422513E-10
   11.6700001       2.66742212E-10
   11.7299995       2.39875286E-10
   11.7900000       1.98399588E-10
   11.8500004       1.43721368E-10
   11.9099998       7.89825566E-11
   11.9700003       8.03021104E-12
   12.0299997      -6.61072030E-11
   12.0900002      -1.42433954E-10
   12.1499996      -2.22166618E-10
   12.2100000      -3.07663117E-10
   12.2700005      -4.00562972E-10
   12.3299999      -5.00072650E-10
   12.3900003      -6.02315031E-10
   12.4499998      -7.01156910E-10
   12.5100002      -7.90182142E-10
   12.5699997      -8.64909533E-10
   12.6300001      -9.24247345E-10
   12.6899996      -9.70576286E-10
   12.7500000      -1.00851394E-09
   12.8100004      -1.04296738E-09
   12.8699999      -1.07726805E-09
   12.9300003      -1.11197473E-09
   12.9899998      -1.14455023E-09
   13.0500002      -1.16981091E-09
   13.1099997      -1.18098420E-09
   13.1700001      -1.17127119E-09
   13.2299995      -1.13582588E-09
   13.2900000      -1.07385378E-09
   13.3500004      -9.90190485E-10
   13.4099998      -8.95512220E-10
   13.4700003      -8.04549538E-10
   13.5299997      -7.32404026E-10
   13.5900002      -6.90024204E-10
   13.6499996      -6.80565604E-10
   13.7100000      -6.98285041E-10
   13.7700005      -7.30682237E-10
   13.8299999      -7.63192398E-10
   13.8900003      -7.84536880E-10
   13.9499998      -7.90484789E-10
   14.0100002      -7.84488807E-10
   14.0699997      -7.75093156E-10
   14.1300001      -7.71455122E-10
   14.1899996      -7.79077691E-10
   14.2500000      -7.97586108E-10
   14.3100004      -8.21307744E-10
   14.3699999      -8.42106551E-10
   14.4300003      -8.53016158E-10
   14.4899998      -8.51071991E-10
   14.5500002      -8.38303926E-10
   14.6099997      -8.20760515E-10
   14.6700001      -8.06218370E-10
   14.7299995      -8.01601840E-10
   14.7900000      -8.11018031E-10
   14.8500004      -8.34886660E-10
   14.9099998      -8.70151451E-10
   14.9700003      -9.11218767E-10
   15.0299997      -9.51170254E-10
   15.0900002      -9.82907644E-10
   15.1499996      -1.00009989E-09
   15.2100000      -9.97976368E-10
   15.2700005      -9.74049286E-10
   15.3299999      -9.28735144E-10
   15.3900003      -8.65667149E-10
   15.4499998      -7.91380295E-10
   15.5100002      -7.14147685E-10
   15.5699997      -6.42059406E-10
   15.6300001      -5.80838377E-10
   15.6899996      -5.32161093E-10
   15.7500000      -4.93180774E-10
   15.8100004      -4.57523019E-10
   15.8699999      -4.17404056E-10
   15.9300003      -3.66037672E-10
   15.9899998      -2.99407554E-10
   16.0499992      -2.16846374E-10
   16.1100006      -1.20474034E-10
   16.1700001      -1.40582754E-11
   16.2299995       9.80010101E-11
   16.2900009       2.11138537E-10
   16.3500004       3.20590665E-10
   16.4099998       4.21269269E-10
   16.4699993       5.07973774E-10
   16.5300007       5.76088954E-10
   16.5900002       6.22539020E-10
   16.6499996       6.46561693E-10
   16.7099991       6.49944931E-10
   16.7700005       6.36647846E-10
   16.8299999       6.11999229E-10
   16.8899994       5.81758197E-10
   16.9500008       5.51227397E-10
   17.0100002       5.24456867E-10
   17.0699997       5.03530384E-10
   17.1299992       4.88030061E-10
   17.1900005       4.74927431E-10
   17.2500000       4.59168231E-10
   17.3099995       4.35011999E-10
   17.3700008       3.97827299E-10
   17.4300003       3.45743073E-10
   17.4899998       2.80518664E-10
   17.5499992       2.07291656E-10
   17.6100006       1.33332512E-10
   17.6700001       6.63414948E-11
   17.7299995       1.29399286E-11
   17.7900009      -2.21921787E-11
   17.8500004      -3.64513107E-11
   17.9099998      -2.89622909E-11
   17.9699993      -1.08568590E-13
   18.0300007       4.87977714E-11
   18.0900002       1.15638076E-10
   18.1499996       1.97491912E-10
   18.2099991       2.90658220E-10
   18.2700005       3.90772609E-10
   18.3299999       4.93027175E-10
   18.3899994       5.92462746E-10
   18.4500008       6.84298618E-10
   18.5100002       7.64272146E-10
   18.5699997       8.28952518E-10
   18.6299992       8.75979733E-10
   18.6900005       9.04187114E-10
   18.7500000       9.13610854E-10
   18.8099995       9.05434727E-10
   18.8700008       8.81929196E-10
   18.9300003       8.46393178E-10
   18.9899998       8.03033917E-10
   19.0499992       7.56691210E-10
   19.1100006       7.12365056E-10
   19.1700001       6.74628020E-10
   19.2299995       6.47097320E-10
   19.2900009       6.32137453E-10
   19.3500004       6.30840380E-10
   19.4099998       6.43168574E-10
   19.4699993       6.68074485E-10
   19.5300007       7.03483383E-10
   19.5900002       7.46210205E-10
   19.6499996       7.92030386E-10
   19.7099991       8.36117564E-10
   19.7700005       8.73863648E-10
   19.8299999       9.01836605E-10
   19.8899994       9.18479126E-10
   19.9500008       9.24228472E-10
   20.0100002       9.21014265E-10
   20.0699997       9.11390741E-10
   20.1299992       8.97707908E-10
   20.1900005       8.81628548E-10
   20.2500000       8.64053440E-10
   20.3099995       8.45294057E-10
   20.3700008       8.25276736E-10
   20.4300003       8.03690725E-10
   20.4899998       7.80156661E-10
   20.5499992       7.54554752E-10
   20.6100006       7.27522209E-10
   20.6700001       7.00920488E-10
   20.7299995       6.77938539E-10
   20.7900009       6.62581379E-10
   20.8500004       6.58584187E-10
   20.9099998       6.68120947E-10
   20.9699993       6.90850488E-10
   21.0300007       7.23742011E-10
   21.0900002       7.61796626E-10
   21.1499996       7.99403543E-10
   21.2099991       8.31826108E-10
   21.2700005       8.56297144E-10
   21.3299999       8.72386774E-10
   21.3899994       8.81577866E-10
   21.4500008       8.86248686E-10
   21.5100002       8.88438101E-10
   21.5699997       8.88848384E-10
   21.6299992       8.86492213E-10
   21.6900005       8.79198825E-10
   21.7500000       8.64869232E-10
   21.8099995       8.43002390E-10
   21.8700008       8.15779222E-10
   21.9300003       7.88057342E-10
   21.9899998       7.66047670E-10
   22.0499992       7.55076335E-10
   22.1100006       7.57365559E-10
   22.1700001       7.70896125E-10
   22.2299995       7.90004839E-10
   22.2900009       8.07588163E-10
   22.3500004       8.18007606E-10
   22.4099998       8.19420032E-10
   22.4699993       8.14493362E-10
   22.5300007       8.09194323E-10
   22.5900002       8.10191303E-10
   22.6499996       8.21990198E-10
   22.7099991       8.44978532E-10
   22.7700005       8.75110651E-10
   22.8299999       9.05281461E-10
   22.8899994       9.27805388E-10
   22.9500008       9.37082523E-10
   23.0100002       9.31548061E-10
   23.0699997       9.14293918E-10
   23.1299992       8.92198648E-10
   23.1900005       8.73862704E-10
   23.2500000       8.67011851E-10
   23.3099995       8.76216211E-10
   23.3700008       9.01695940E-10
   23.4300003       9.39638922E-10
   23.4899998       9.83923831E-10
   23.5499992       1.02860387E-09
   23.6100006       1.07018772E-09
   23.6700001       1.10881992E-09
   23.7299995       1.14790166E-09
   23.7900009       1.19234433E-09
   23.8500004       1.24622457E-09
   23.9099998       1.31084921E-09
   23.9699993       1.38404810E-09
   24.0300007       1.46097190E-09
   24.0900002       1.53602964E-09
   24.1499996       1.60512414E-09
   24.2099991       1.66723091E-09
   24.2700005       1.72465375E-09
   24.3299999       1.78184179E-09
   24.3899994       1.84324067E-09
   24.4500008       1.91104954E-09
   24.5100002       1.98379491E-09
   24.5699997       2.05631845E-09
   24.6299992       2.12121076E-09
   24.6900005       2.17116103E-09
   24.7500000       2.20131935E-09
   24.8099995       2.21078089E-09
   24.8700008       2.20262875E-09
   24.9300003       2.18253704E-09
   24.9899998       2.15648188E-09
   25.0499992       2.12841478E-09
   25.1100006       2.09875761E-09
   25.1700001       2.06425033E-09
   25.2299995       2.01918904E-09
   25.2900009       1.95759453E-09
   25.3500004       1.87554017E-09
   25.4099998       1.77281434E-09
   25.4699993       1.65334113E-09
   25.5300007       1.52422053E-09
   25.5900002       1.39374989E-09
   25.6499996       1.26915389E-09
   25.7099991       1.15484244E-09
   25.7700005       1.05179609E-09
   25.8299999       9.58212509E-10
   25.8899994       8.71050621E-10
   25.9500008       7.87784504E-10
   26.0100002       7.07664649E-10
   26.0699997       6.32075003E-10
   26.1299992       5.64000069E-10
   26.1900005       5.06969189E-10
   26.2500000       4.63972943E-10
   26.3099995       4.36734704E-10
   26.3700008       4.25474933E-10
   26.4300003       4.29087793E-10
   26.4899998       4.45549042E-10
   26.5499992       4.72396788E-10
   26.6100006       5.07185072E-10
   26.6700001       5.47849599E-10
   26.7299995       5.92915161E-10
   26.7900009       6.41478370E-10
   26.8500004       6.92957802E-10
   26.9099998       7.46714690E-10
   26.9699993       8.01743671E-10
   27.0300007       8.56630988E-10
   27.0900002       9.09847808E-10
   27.1499996       9.60257651E-10
   27.2099991       1.00757835E-09
   27.2700005       1.05254283E-09
   27.3299999       1.09664777E-09
   27.3899994       1.14156629E-09
   27.4500008       1.18843180E-09
   27.5100002       1.23721666E-09
   27.5699997       1.28636179E-09
   27.6299992       1.33274702E-09
   27.6900005       1.37205625E-09
   27.7500000       1.39956069E-09
   27.8099995       1.41124357E-09
   27.8700008       1.40500522E-09
   27.9300003       1.38150447E-09
   27.9899998       1.34416100E-09
   28.0499992       1.29809419E-09
   28.1100006       1.24824506E-09
   28.1700001       1.19740473E-09
   28.2299995       1.14504195E-09
   28.2900009       1.08753895E-09
   28.3500004       1.01978503E-09
   28.4099998       9.37403599E-10
   28.4699993       8.38560166E-10
   28.5300007       7.24540428E-10
   28.5900002       5.98930128E-10
   28.6499996       4.65939343E-10
   28.7099991       3.28761796E-10
   28.7700005       1.88715876E-10
   28.8299999       4.54025775E-11
   28.8899994      -1.02407673E-10
   28.9500008      -2.55699933E-10
   29.0100002      -4.14398377E-10
   29.0699997      -5.76982073E-10
   29.1299992      -7.40496608E-10
   29.1900005      -9.00899577E-10
   29.2500000      -1.05375841E-09
   29.3099995      -1.19532284E-09
   29.3700008      -1.32379752E-09
   29.4300003      -1.44035150E-09
   29.4899998      -1.54924695E-09
   29.5499992      -1.65667802E-09
   29.6100006      -1.76848880E-09
   29.6700001      -1.88757898E-09
   29.7299995      -2.01214467E-09
   29.7900009      -2.13564078E-09
   29.8500004      -2.24861330E-09
   29.9099998      -2.34166331E-09
   29.9699993      -2.40830200E-09
   30.0300007      -2.44655696E-09
   30.0900002      -2.45885579E-09
   30.1499996      -2.45050691E-09
   30.2099991      -2.42764409E-09
   30.2700005      -2.39553688E-09
   30.3299999      -2.35777531E-09
   30.3899994      -2.31633690E-09
   30.4500008      -2.27217289E-09
   30.5100002      -2.22587260E-09
   30.5699997      -2.17809881E-09
   30.6299992      -2.12965956E-09
   30.6900005      -2.08122142E-09
   30.7500000      -2.03274153E-09
   30.8099995      -1.98278460E-09
   30.8700008      -1.92801597E-09
   30.9300003      -1.86322691E-09
   30.9899998      -1.78215920E-09
   31.0499992      -1.67910896E-09
   31.1100006      -1.55087920E-09
   31.1700001      -1.39836687E-09
   31.2299995      -1.22708799E-09
   31.2900009      -1.04631570E-09
   31.3500004      -8.67064198E-10
   31.4099998      -6.99613534E-10
   31.4699993      -5.51409085E-10
   31.5300007      -4.25943197E-10
   31.5900002      -3.22777388E-10
   31.6499996      -2.38456477E-10
   31.7099991      -1.67851136E-10
   31.7700005      -1.05503078E-10
   31.8299999      -4.67043973E-11
   31.8899994       1.17982768E-11
   31.9500008       7.14947615E-11
   32.0099983       1.32179212E-10
   32.0699997       1.92327917E-10
   32.1300011       2.49648080E-10
   32.1899986       3.01597802E-10
   32.2500000       3.45706574E-10
   32.3100014       3.79651866E-10
   32.3699989       4.01213979E-10
   32.4300003       4.08320988E-10
   32.4900017       3.99337702E-10
   32.5499992       3.73565956E-10
   32.6100006       3.31737110E-10
   32.6699982       2.76217937E-10
   32.7299995       2.10767084E-10
   32.7900009       1.39902839E-10
   32.8499985       6.81232640E-11
   32.9099998      -7.49323563E-13
   32.9700012      -6.39531345E-11
   33.0299988      -1.19932814E-10
   33.0900002      -1.68372094E-10
   33.1500015      -2.10191309E-10
   33.2099991      -2.47449755E-10
   33.2700005      -2.82992130E-10
   33.3300018      -3.19722943E-10
   33.3899994      -3.59585112E-10
   33.4500008      -4.02551131E-10
   33.5099983      -4.46061188E-10
   33.5699997      -4.85260498E-10
   33.6300011      -5.14117637E-10
   33.6899986      -5.27161703E-10
   33.7500000      -5.21313548E-10
   33.8100014      -4.97209329E-10
   33.8699989      -4.59556310E-10
   33.9300003      -4.16356088E-10
   33.9900017      -3.77184756E-10
   34.0499992      -3.51016688E-10
   34.1100006      -3.44225315E-10
   34.1699982      -3.59341057E-10
   34.2299995      -3.94891148E-10
   34.2900009      -4.46277182E-10
   34.3499985      -5.07292097E-10
   34.4099998      -5.71694359E-10
   34.4700012      -6.34319930E-10
   34.5299988      -6.91492863E-10
   34.5900002      -7.40851658E-10
   34.6500015      -7.80948306E-10
   34.7099991      -8.10998380E-10
   34.7700005      -8.30958191E-10
   34.8300018      -8.41830772E-10
   34.8899994      -8.45916226E-10
   34.9500008      -8.46730464E-10
   35.0099983      -8.48491499E-10
   35.0699997      -8.55298610E-10
   35.1300011      -8.70272465E-10
   35.1899986      -8.94920082E-10
   35.2500000      -9.28878974E-10
   35.3100014      -9.70061587E-10
   35.3699989      -1.01513487E-09
   35.4300003      -1.06023479E-09
   35.4900017      -1.10180065E-09
   35.5499992      -1.13737841E-09
   35.6100006      -1.16620502E-09
   35.6699982      -1.18938848E-09
   35.7299995      -1.20959187E-09
   35.7900009      -1.23028576E-09
   35.8499985      -1.25479305E-09
   35.9099998      -1.28542099E-09
   35.9700012      -1.32292766E-09
   36.0299988      -1.36644229E-09
   36.0900002      -1.41381551E-09
   36.1500015      -1.46228829E-09
   36.2099991      -1.50931656E-09
   36.2700005      -1.55335889E-09
   36.3300018      -1.59438485E-09
   36.3899994      -1.63386060E-09
   36.4500008      -1.67406577E-09
   36.5099983      -1.71685954E-09
   36.5699997      -1.76232196E-09
   36.6300011      -1.80790638E-09
   36.6899986      -1.84863780E-09
   36.7500000      -1.87845983E-09
   36.8100014      -1.89224769E-09
   36.8699989      -1.88758831E-09
   36.9300003      -1.86546045E-09
   36.9900017      -1.82947013E-09
   37.0499992      -1.78402959E-09
   37.1100006      -1.73241566E-09
   37.1699982      -1.67565695E-09
   37.2299995      -1.61268676E-09
   37.2900009      -1.54146251E-09
   37.3499985      -1.46025680E-09
   37.4099998      -1.36835077E-09
   37.4700012      -1.26586852E-09
   37.5299988      -1.15311549E-09
   37.5900002      -1.03010245E-09
   37.6500015      -8.96741292E-10
   37.7099991      -7.53646368E-10
   37.7700005      -6.02956129E-10
   37.8300018      -4.48475701E-10
   37.8899994      -2.94829383E-10
   37.9500008      -1.45948878E-10
   38.0099983      -3.69128859E-12
   38.0699997       1.32632946E-10
   38.1300011       2.65533623E-10
   38.1899986       3.97795769E-10
   38.2500000       5.30930522E-10
   38.3100014       6.64395094E-10
   38.3699989       7.95891297E-10
   38.4300003       9.22470877E-10
   38.4900017       1.04180908E-09
   38.5499992       1.15303367E-09
   38.6100006       1.25683153E-09
   38.6699982       1.35496003E-09
   38.7299995       1.44953316E-09
   38.7900009       1.54244539E-09
   38.8499985       1.63510994E-09
   38.9099998       1.72847825E-09
   38.9700012       1.82317961E-09
   39.0299988       1.91961180E-09
   39.0900002       2.01786676E-09
   39.1500015       2.11746420E-09
   39.2099991       2.21695462E-09
   39.2700005       2.31355135E-09
   39.3300018       2.40303466E-09
   39.3899994       2.48016652E-09
   39.4500008       2.53970311E-09
   39.5099983       2.57780153E-09
   39.5699997       2.59331756E-09
   39.6300011       2.58837241E-09
   39.6899986       2.56775512E-09
   39.7500000       2.53721555E-09
   39.8100014       2.50124876E-09
   39.8699989       2.46130161E-09
   39.9300003       2.41521025E-09
   39.9900017       2.35816411E-09
   40.0499992       2.28479857E-09
   40.1100006       2.19154717E-09
   40.1699982       2.07830864E-09
   40.2299995       1.94887062E-09
   40.2900009       1.81008408E-09
   40.3499985       1.67024117E-09
   40.4099998       1.53725943E-09
   40.4700012       1.41714163E-09
   40.5299988       1.31293254E-09
   40.5900002       1.22422605E-09
   40.6500015       1.14726173E-09
   40.7099991       1.07568943E-09
   40.7700005       1.00202535E-09
   40.8300018       9.19606613E-10
   40.8899994       8.24539437E-10
   40.9500008       7.16955773E-10
   41.0099983       6.01016348E-10
   41.0699997       4.83543261E-10
   41.1300011       3.71753933E-10
   41.1899986       2.70976491E-10
   41.2500000       1.83239743E-10
   41.3100014       1.07221357E-10
   41.3699989       3.94209214E-11
   41.4300003      -2.40762878E-11
   41.4900017      -8.60280319E-11
   41.5499992      -1.47210424E-10
   41.6100006      -2.06466899E-10
   41.6699982      -2.61395683E-10
   41.7299995      -3.09304526E-10
   41.7900009      -3.48144236E-10
   41.8499985      -3.77286813E-10
   41.9099998      -3.98077460E-10
   41.9700012      -4.14036000E-10
   42.0299988      -4.30503799E-10
   42.0900002      -4.53591803E-10
   42.1500015      -4.88542928E-10
   42.2099991      -5.37986378E-10
   42.2700005      -6.00795358E-10
   42.3300018      -6.72168321E-10
   42.3899994      -7.45094320E-10
   42.4500008      -8.12737544E-10
   42.5099983      -8.70805650E-10
   42.5699997      -9.18920828E-10
   42.6300011      -9.60436064E-10
   42.6899986      -1.00083142E-09
   42.7500000      -1.04542863E-09
   42.8100014      -1.09739229E-09
   42.8699989      -1.15675647E-09
   42.9300003      -1.22069954E-09
   42.9900017      -1.28475997E-09
   43.0499992      -1.34438649E-09
   43.1100006      -1.39622913E-09
   43.1699982      -1.43880130E-09
   43.2299995      -1.47242674E-09
   43.2900009      -1.49859181E-09
   43.3499985      -1.51894231E-09
   43.4099998      -1.53422441E-09
   43.4700012      -1.54350188E-09
   43.5299988      -1.54396729E-09
   43.5900002      -1.53154367E-09
   43.6500015      -1.50221413E-09
   43.7099991      -1.45369594E-09
   43.7700005      -1.38683776E-09
   43.8300018      -1.30612166E-09
   43.8899994      -1.21894050E-09
   43.9500008      -1.13379650E-09
   44.0099983      -1.05801512E-09
   44.0699997      -9.95771687E-10
   44.1300011      -9.47105061E-10
   44.1899986      -9.08201347E-10
   44.2500000      -8.72765360E-10
   44.3100014      -8.33953406E-10
   44.3699989      -7.86224419E-10
   44.4300003      -7.26579796E-10
   44.4900017      -6.54908960E-10
   44.5499992      -5.73443848E-10
   44.6100006      -4.85573304E-10
   44.6699982      -3.94433125E-10
   44.7299995      -3.01753372E-10
   44.7900009      -2.07369275E-10
   44.8499985      -1.09586812E-10
   44.9099998      -6.27558899E-12
   44.9700012       1.03757711E-10
   45.0299988       2.19729401E-10
   45.0900002       3.38703204E-10
   45.1500015       4.56465921E-10
   45.2099991       5.69170655E-10
   45.2700005       6.75075384E-10
   45.3300018       7.75590592E-10
   45.3899994       8.75089723E-10
   45.4500008       9.79437753E-10
   45.5099983       1.09374343E-09
   45.5699997       1.22019339E-09
   45.6300011       1.35682343E-09
   45.6899986       1.49772039E-09
   45.7500000       1.63458080E-09
   45.8100014       1.75903336E-09
   45.8699989       1.86485982E-09
   45.9300003       1.94935201E-09
   45.9900017       2.01343164E-09
   46.0499992       2.06066386E-09
   46.1100006       2.09567030E-09
   46.1699982       2.12257656E-09
   46.2299995       2.14396434E-09
   46.2900009       2.16051177E-09
   46.3499985       2.17123275E-09
   46.4099998       2.17411089E-09
   46.4700012       2.16692775E-09
   46.5299988       2.14815188E-09
   46.5900002       2.11773332E-09
   46.6500015       2.07756190E-09
   46.7099991       2.03130046E-09
   46.7700005       1.98341255E-09
   46.8300018       1.93753791E-09
   46.8899994       1.89479055E-09
   46.9500008       1.85280358E-09
   47.0099983       1.80618898E-09
   47.0699997       1.74849291E-09
   47.1300011       1.67496417E-09
   47.1899986       1.58491109E-09
   47.2500000       1.48247670E-09
   47.3100014       1.37533607E-09
   47.3699989       1.27181665E-09
   47.4300003       1.17772081E-09
   47.4900017       1.09428755E-09
   47.5499992       1.01816000E-09
   47.6100006       9.43250478E-10
   47.6699982       8.63532024E-10
   47.7299995       7.75464915E-10
   47.7900009       6.79095280E-10
   47.8499985       5.77589754E-10
   47.9099998       4.75678441E-10
   47.9700012       3.77825105E-10
   48.0299988       2.86854707E-10
   48.0900002       2.03400907E-10
   48.1500015       1.26153449E-10
   48.2099991       5.26607785E-11
   48.2700005      -1.96067503E-11
   48.3300018      -9.21968960E-11
   48.3899994      -1.64862624E-10
   48.4500008      -2.35234388E-10
   48.5099983      -2.99159503E-10
   48.5699997      -3.51724566E-10
   48.6300011      -3.88730131E-10
   48.6899986      -4.08170664E-10
   48.7500000      -4.11211759E-10
   48.8100014      -4.02298223E-10
   48.8699989      -3.88313298E-10
   48.9300003      -3.77008785E-10
   48.9900017      -3.75134646E-10
   49.0499992      -3.86759264E-10
   49.1100006      -4.12225337E-10
   49.1699982      -4.48051235E-10
   49.2299995      -4.87887897E-10
   49.2900009      -5.24365995E-10
   49.3499985      -5.51359847E-10
   49.4099998      -5.65955782E-10
   49.4700012      -5.69390202E-10
   49.5299988      -5.66510061E-10
   49.5900002      -5.63848634E-10
   49.6500015      -5.66997782E-10
   49.7099991      -5.78302184E-10
   49.7700005      -5.95816674E-10
   49.8300018      -6.13959272E-10
   49.8899994      -6.25583696E-10
   49.9500008      -6.24618302E-10
   50.0099983      -6.08219142E-10
   50.0699997      -5.77630277E-10
   50.1300011      -5.37498102E-10
   50.1899986      -4.93984353E-10
   50.2500000      -4.52438725E-10
   50.3100014      -4.15493334E-10
   50.3699989      -3.82240101E-10
   50.4300003      -3.48748558E-10
   50.4900017      -3.09717557E-10
   50.5499992      -2.60671346E-10
   50.6100006      -1.99927699E-10