  -2.400000      0.0000000E+00
  -2.340000      0.0000000E+00
  -2.280000      0.0000000E+00
  -2.220000      0.0000000E+00
  -2.160000      0.0000000E+00
  -2.100000     -1.1655582E-20
  -2.040000     -1.3070931E-19
  -1.980000     -6.7382029E-19
  -1.920000     -2.0904186E-18
  -1.860000     -4.0222050E-18
  -1.800000     -3.3054162E-18
  -1.740000      7.4351469E-18
  -1.680000      3.6637490E-17
  -1.620000      8.2553082E-17
  -1.560000      1.1672560E-16
  -1.500000      7.6159306E-17
  -1.440000     -1.1456690E-16
  -1.380000     -4.7924060E-16
  -1.320000     -9.0404123E-16
  -1.260000     -1.0922206E-15
  -1.200000     -6.4196855E-16
  -1.140000      7.1054010E-16
  -1.080000      2.7530146E-15
  -1.020000      4.5727158E-15
 -0.9600000      4.7198268E-15
 -0.9000000      1.9159777E-15
 -0.8400000     -3.8616774E-15
 -0.7800000     -1.0503434E-14
 -0.7200000     -1.3904158E-14
 -0.6600000     -9.6624691E-15
 -0.6000000      3.9459640E-15
 -0.5400000      2.3120677E-14
 -0.4800000      3.7919385E-14
 -0.4200000      3.5531599E-14
 -0.3600000      7.2339993E-15
 -0.3000000     -4.3831214E-14
 -0.2400000     -9.8827976E-14
 -0.1800000     -1.2761920E-13
 -0.1200000     -1.0204198E-13
 -5.9999999E-02 -1.3209569E-14
  0.0000000E+00  1.1644410E-13
  5.9999999E-02  2.3563795E-13
  0.1200000      2.8448031E-13
  0.1800000      2.2566160E-13
  0.2400000      7.0950590E-14
  0.3000000     -1.1427874E-13
  0.3600000     -2.3710268E-13
  0.4200000     -2.2605337E-13
  0.4800000     -7.9742650E-14
  0.5400000      1.1370062E-13
  0.6000000      2.0492352E-13
  0.6600000      5.4790882E-14
  0.7200000     -3.8060559E-13
  0.7800000     -9.9399005E-13
  0.8400000     -1.5347418E-12
  0.9000000     -1.6881725E-12
  0.9600000     -1.1999620E-12
   1.020000      4.2742083E-15
   1.080000      1.7554206E-12
   1.140000      3.6618460E-12
   1.200000      5.2082444E-12
   1.260000      5.8948475E-12
   1.320000      5.3671980E-12
   1.380000      3.4968285E-12
   1.440000      3.9855830E-13
   1.500000     -3.6028691E-12
   1.560000     -8.0279047E-12
   1.620000     -1.2290511E-11
   1.680000     -1.5725556E-11
   1.740000     -1.7601859E-11
   1.800000     -1.7145426E-11
   1.860000     -1.3605505E-11
   1.920000     -6.3899832E-12
   1.980000      4.7245289E-12
   2.040000      1.9335922E-11
   2.100000      3.6178342E-11
   2.160000      5.2995226E-11
   2.220000      6.6618884E-11
   2.280000      7.3318511E-11
   2.340000      6.9411643E-11
   2.400000      5.2051155E-11
   2.460000      2.0030377E-11
   2.520000     -2.5577063E-11
   2.580000     -8.1093847E-11
   2.640000     -1.4030066E-10
   2.700000     -1.9485052E-10
   2.760000     -2.3492297E-10
   2.820000     -2.4998062E-10
   2.880000     -2.2952693E-10
   2.940000     -1.6383833E-10
   3.000000     -4.4718122E-11
   3.060000      1.3366040E-10
   3.120000      3.7380038E-10
   3.180000      6.7390399E-10
   3.240000      1.0270780E-09
   3.300000      1.4209969E-09
   3.360000      1.8382734E-09
   3.420000      2.2576450E-09
   3.480000      2.6558782E-09
   3.540000      3.0100822E-09
   3.600000      3.3000074E-09
   3.660000      3.5099015E-09
   3.720000      3.6296457E-09
   3.780000      3.6551036E-09
   3.840000      3.5878045E-09
   3.900000      3.4341900E-09
   3.960000      3.2046459E-09
   4.020000      2.9124405E-09
   4.080000      2.5725839E-09
   4.140000      2.2005637E-09
   4.200000      1.8109605E-09
   4.260000      1.4160427E-09
   4.320000      1.0245659E-09
   4.380000      6.4104105E-10
   4.440000      2.6568414E-10
   4.500000     -1.0490606E-10
   4.560000     -4.7648774E-10
   4.620000     -8.5564700E-10
   4.680000     -1.2483703E-09
   4.740000     -1.6590288E-09
   4.800000     -2.0899227E-09
   4.860000     -2.5413387E-09
   4.920000     -3.0119083E-09
   4.980000     -3.4989893E-09
   5.040000     -3.9988284E-09
   5.100000     -4.5064112E-09
   5.160000     -5.0150959E-09
   5.220000     -5.5162892E-09
   5.280000     -5.9995200E-09
   5.340000     -6.4532006E-09
   5.400000     -6.8661858E-09
   5.460000     -7.2299486E-09
   5.520000     -7.5408719E-09
   5.580000     -7.8019884E-09
   5.640000     -8.0234868E-09
   5.700000     -8.2215825E-09
   5.760000     -8.4158218E-09
   5.820000     -8.6254088E-09
   5.880000     -8.8655741E-09
   5.940000     -9.1450678E-09
   6.000000     -9.4655590E-09
   6.060000     -9.8230624E-09
   6.120000     -1.0210782E-08
   6.180000     -1.0622195E-08
   6.240000     -1.1053126E-08
   6.300000     -1.1501953E-08
   6.360000     -1.1967915E-08
   6.420000     -1.2448313E-08
   6.480000     -1.2935935E-08
   6.540000     -1.3417977E-08
   6.600000     -1.3877175E-08
   6.660000     -1.4294944E-08
   6.720000     -1.4655577E-08
   6.780000     -1.4950102E-08
   6.840000     -1.5178573E-08
   6.900000     -1.5350148E-08
   6.960000     -1.5481019E-08
   7.020000     -1.5590903E-08
   7.080000     -1.5699026E-08
   7.140000     -1.5820559E-08
   7.200000     -1.5964121E-08
   7.260000     -1.6130709E-08
   7.320000     -1.6314097E-08
   7.380000     -1.6502572E-08
   7.440000     -1.6681652E-08
   7.500000     -1.6837244E-08
   7.560000     -1.6958625E-08
   7.620000     -1.7040467E-08
   7.680000     -1.7083428E-08
   7.740000     -1.7093123E-08
   7.800000     -1.7077832E-08
   7.860000     -1.7045677E-08
   7.920000     -1.7002270E-08
   7.980000     -1.6949604E-08
   8.040000     -1.6886570E-08
   8.100000     -1.6810848E-08
   8.160000     -1.6721438E-08
   8.220000     -1.6620803E-08
   8.280000     -1.6515735E-08
   8.340000     -1.6416546E-08
   8.400000     -1.6334688E-08
   8.460000     -1.6279621E-08
   8.520000     -1.6255969E-08
   8.580000     -1.6262005E-08
   8.640000     -1.6290079E-08
   8.700000     -1.6328997E-08
   8.760000     -1.6367679E-08
   8.820000     -1.6398975E-08
   8.880000     -1.6422399E-08
   8.940000     -1.6444828E-08
   9.000000     -1.6478806E-08
   9.060000     -1.6538911E-08
   9.120000     -1.6637221E-08
   9.180000     -1.6779332E-08
   9.240000     -1.6962256E-08
   9.300000     -1.7174967E-08
   9.360000     -1.7401456E-08
   9.420000     -1.7625284E-08
   9.480000     -1.7834056E-08
   9.540000     -1.8022174E-08
   9.600000     -1.8190928E-08
   9.660000     -1.8345899E-08
   9.720000     -1.8492859E-08
   9.780000     -1.8633880E-08
   9.840000     -1.8765361E-08
   9.900000     -1.8878865E-08
   9.960000     -1.8964480E-08
   10.02000     -1.9015269E-08
   10.08000     -1.9030908E-08
   10.14000     -1.9018824E-08
   10.20000     -1.8992163E-08
   10.26000     -1.8965201E-08
   10.32000     -1.8947841E-08
   10.38000     -1.8941222E-08
   10.44000     -1.8936124E-08
   10.50000     -1.8914827E-08
   10.56000     -1.8855863E-08
   10.62000     -1.8740106E-08
   10.68000     -1.8556204E-08
   10.74000     -1.8303609E-08
   10.80000     -1.7992285E-08
   10.86000     -1.7639213E-08
   10.92000     -1.7262842E-08
   10.98000     -1.6877234E-08
   11.04000     -1.6487645E-08
   11.10000     -1.6088810E-08
   11.16000     -1.5666352E-08
   11.22000     -1.5200822E-08
   11.28000     -1.4673190E-08
   11.34000     -1.4070296E-08
   11.40000     -1.3388911E-08
   11.46000     -1.2637453E-08
   11.52000     -1.1835022E-08
   11.58000     -1.1008046E-08
   11.64000     -1.0185316E-08
   11.70000     -9.3925374E-09
   11.76000     -8.6476737E-09
   11.82000     -7.9581355E-09
   11.88000     -7.3204580E-09
   11.94000     -6.7224764E-09
   12.00000     -6.1473076E-09
   12.06000     -5.5780109E-09
   12.12000     -5.0016622E-09
   12.18000     -4.4119117E-09
   12.24000     -3.8096366E-09
   12.30000     -3.2019145E-09
   12.36000     -2.5999110E-09
   12.42000     -2.0163624E-09
   12.48000     -1.4631683E-09
   12.54000     -9.4937858E-10
   12.60000     -4.7974574E-10
   12.66000     -5.3999753E-11
   12.72000      3.3296035E-10
   12.78000      6.8985662E-10
   12.84000      1.0269701E-09
   12.90000      1.3537510E-09
   12.96000      1.6768676E-09
   13.02000      1.9993975E-09
   13.08000      2.3214572E-09
   13.14000      2.6419635E-09
   13.20000      2.9607292E-09
   13.26000      3.2799414E-09
   13.32000      3.6043626E-09
   13.38000      3.9401717E-09
   13.44000      4.2929624E-09
   13.50000      4.6657496E-09
   13.56000      5.0577902E-09
   13.62000      5.4646900E-09
   13.68000      5.8797518E-09
   13.74000      6.2961210E-09
   13.80000      6.7090618E-09
   13.86000      7.1176878E-09
   13.92000      7.5256557E-09
   13.98000      7.9406126E-09
   14.04000      8.3725116E-09
   14.10000      8.8312238E-09
   14.16000      9.3240597E-09
   14.22000      9.8538564E-09
   14.28000      1.0418082E-08
   14.34000      1.1009140E-08
   14.40000      1.1615662E-08
   14.46000      1.2224379E-08
   14.52000      1.2822073E-08
   14.58000      1.3397278E-08
   14.64000      1.3941517E-08
   14.70000      1.4450042E-08
   14.76000      1.4922056E-08
   14.82000      1.5360403E-08
   14.88000      1.5770727E-08
   14.94000      1.6160222E-08
   15.00000      1.6536202E-08
   15.06000      1.6904858E-08
   15.12000      1.7270407E-08
   15.18000      1.7634727E-08
   15.24000      1.7997319E-08
   15.30000      1.8355355E-08
   15.36000      1.8703732E-08
   15.42000      1.9035259E-08
   15.48000      1.9341281E-08
   15.54000      1.9613024E-08
   15.60000      1.9843556E-08
   15.66000      2.0029882E-08
   15.72000      2.0174365E-08
   15.78000      2.0284782E-08
   15.84000      2.0372768E-08
   15.90000      2.0451012E-08
   15.96000      2.0530084E-08
   16.02000      2.0615900E-08
   16.08000      2.0708537E-08
   16.14000      2.0802617E-08
   16.20000      2.0888875E-08
   16.26000      2.0956325E-08
   16.32000      2.0994312E-08
   16.38000      2.0993960E-08
   16.44000      2.0948823E-08
   16.50000      2.0854774E-08
   16.56000      2.0709329E-08
   16.62000      2.0510772E-08
   16.68000      2.0257406E-08
   16.74000      1.9947205E-08
   16.80000      1.9577920E-08
   16.86000      1.9147487E-08
   16.92000      1.8654360E-08
   16.98000      1.8097431E-08
   17.04000      1.7475408E-08
   17.10000      1.6785867E-08
   17.16000      1.6024485E-08
   17.22000      1.5184970E-08
   17.28000      1.4260001E-08
   17.34000      1.3242957E-08
   17.40000      1.2129869E-08
   17.46000      1.0920851E-08
   17.52000      9.6204662E-09
   17.58000      8.2369089E-09
   17.64000      6.7803057E-09
   17.70000      5.2607239E-09
   17.76000      3.6864862E-09
   17.82000      2.0631838E-09
   17.88000      3.9352654E-10
   17.94000     -1.3220567E-09
   18.00000     -3.0842995E-09
   18.06000     -4.8937698E-09
   18.12000     -6.7496608E-09
   18.18000     -8.6490006E-09
   18.24000     -1.0586453E-08
   18.30000     -1.2554691E-08
   18.36000     -1.4545073E-08
   18.42000     -1.6548244E-08
   18.48000     -1.8554308E-08
   18.54000     -2.0552491E-08
   18.60000     -2.2530539E-08
   18.66000     -2.4474323E-08
   18.72000     -2.6368118E-08
   18.78000     -2.8195709E-08
   18.84000     -2.9942090E-08
   18.90000     -3.1595171E-08
   18.96000     -3.3146893E-08
   19.02000     -3.4593317E-08
   19.08000     -3.5933763E-08
   19.14000     -3.7169276E-08
   19.20000     -3.8301085E-08
   19.26000     -3.9329372E-08
   19.32000     -4.0252718E-08
   19.38000     -4.1068091E-08
   19.44000     -4.1771312E-08
   19.50000     -4.2357762E-08
   19.56000     -4.2823256E-08
   19.62000     -4.3164953E-08
   19.68000     -4.3382158E-08
   19.74000     -4.3476884E-08
   19.80000     -4.3453927E-08
   19.86000     -4.3320391E-08
   19.92000     -4.3084796E-08
   19.98000     -4.2755889E-08
   20.04000     -4.2341629E-08
   20.10000     -4.1848445E-08
   20.16000     -4.1280945E-08
   20.22000     -4.0641861E-08
   20.28000     -3.9932150E-08
   20.34000     -3.9151047E-08
   20.40000     -3.8296164E-08
   20.46000     -3.7363801E-08
   20.52000     -3.6349597E-08
   20.58000     -3.5249546E-08
   20.64000     -3.4061166E-08
   20.70000     -3.2784481E-08
   20.76000     -3.1422410E-08
   20.82000     -2.9980487E-08
   20.88000     -2.8465944E-08
   20.94000     -2.6886562E-08
   21.00000     -2.5249689E-08
   21.06000     -2.3561784E-08
   21.12000     -2.1828590E-08
   21.18000     -2.0055833E-08
   21.24000     -1.8250084E-08
   21.30000     -1.6419516E-08
   21.36000     -1.4574125E-08
   21.42000     -1.2725331E-08
   21.48000     -1.0884919E-08
   21.54000     -9.0636441E-09
   21.60000     -7.2699158E-09
   21.66000     -5.5091269E-09
   21.72000     -3.7839767E-09
   21.78000     -2.0958462E-09
   21.84000     -4.4681348E-10
   21.90000      1.1584340E-09
   21.96000      2.7115943E-09
   22.02000      4.2011603E-09
   22.08000      5.6142109E-09
   22.14000      6.9389805E-09
   22.20000      8.1672908E-09
   22.26000      9.2959800E-09
   22.32000      1.0326846E-08
   22.38000      1.1265188E-08
   22.44000      1.2117461E-08
   22.50000      1.2888800E-08
   22.56000      1.3581096E-08
   22.62000      1.4192074E-08
   22.68000      1.4715504E-08
   22.74000      1.5142362E-08
   22.80000      1.5462563E-08
   22.86000      1.5666741E-08
   22.92000      1.5747586E-08
   22.98000      1.5700403E-08
   23.04000      1.5522795E-08
   23.10000      1.5213743E-08
   23.16000      1.4772392E-08
   23.22000      1.4197050E-08
   23.28000      1.3484613E-08
   23.34000      1.2630493E-08
   23.40000      1.1628976E-08
   23.46000      1.0473891E-08
   23.52000      9.1595611E-09
   23.58000      7.6819830E-09
   23.64000      6.0401235E-09
   23.70000      4.2370401E-09
   23.76000      2.2804290E-09
   23.82000      1.8233744E-10
   23.88000     -2.0419300E-09
   23.94000     -4.3752943E-09
   24.00000     -6.8001391E-09
   24.06000     -9.2987902E-09
   24.12000     -1.1853110E-08
   24.18000     -1.4443526E-08
   24.24000     -1.7048057E-08
   24.30000     -1.9641805E-08
   24.36000     -2.2197119E-08
   24.42000     -2.4684262E-08
   24.48000     -2.7072398E-08
   24.54000     -2.9330725E-08
   24.60000     -3.1429796E-08
   24.66000     -3.3342982E-08
   24.72000     -3.5047801E-08
   24.78000     -3.6526597E-08
   24.84000     -3.7766082E-08
   24.90000     -3.8755569E-08
   24.96000     -3.9484437E-08
   25.02000     -3.9939966E-08
   25.08000     -4.0106634E-08
   25.14000     -3.9967436E-08
   25.20000     -3.9506915E-08
   25.26000     -3.8714717E-08
   25.32000     -3.7588293E-08
   25.38000     -3.6133851E-08
   25.44000     -3.4365517E-08
   25.50000     -3.2303273E-08
   25.56000     -2.9970622E-08
   25.62000     -2.7392570E-08
   25.68000     -2.4594128E-08
   25.74000     -2.1599147E-08
   25.80000     -1.8429416E-08
   25.86000     -1.5104085E-08
   25.92000     -1.1639732E-08
   25.98000     -8.0512397E-09
   26.04000     -4.3532840E-09
   26.10000     -5.6191773E-10
   26.16000      3.3044145E-09
   26.22000      7.2247759E-09
   26.28000      1.1176439E-08
   26.34000      1.5135868E-08
   26.40000      1.9079403E-08
   26.46000      2.2983352E-08
   26.52000      2.6823544E-08
   26.58000      3.0574785E-08
   26.64000      3.4210604E-08
   26.70000      3.7703554E-08
   26.76000      4.1025995E-08
   26.82000      4.4151246E-08
   26.88000      4.7054801E-08
   26.94000      4.9715453E-08
   27.00000      5.2116192E-08
   27.06000      5.4244655E-08
   27.12000      5.6093057E-08
   27.18000      5.7657541E-08
   27.24000      5.8937108E-08
   27.30000      5.9932304E-08
   27.36000      6.0643899E-08
   27.42000      6.1071738E-08
   27.48000      6.1213562E-08
   27.54000      6.1063965E-08
   27.60000      6.0613438E-08
   27.66000      5.9848084E-08
   27.72000      5.8750260E-08
   27.78000      5.7300507E-08
   27.84000      5.5480648E-08
   27.90000      5.3277258E-08
   27.96000      5.0684822E-08
   28.02000      4.7707648E-08
   28.08000      4.4360281E-08
   28.14000      4.0666617E-08
   28.20000      3.6658079E-08
   28.26000      3.2371563E-08
   28.32000      2.7847445E-08
   28.38000      2.3127864E-08
   28.44000      1.8255241E-08
   28.50000      1.3270976E-08
   28.56000      8.2142950E-09
   28.62000      3.1211858E-09
   28.68000     -1.9764672E-09
   28.74000     -7.0515029E-09
   28.80000     -1.2081662E-08
   28.86000     -1.7049171E-08
   28.92000     -2.1939645E-08
   28.98000     -2.6740446E-08
   29.04000     -3.1438809E-08
   29.10000     -3.6020211E-08
   29.16000     -4.0467313E-08
   29.22000     -4.4759531E-08
   29.28000     -4.8873162E-08
   29.34000     -5.2781818E-08
   29.40000     -5.6457129E-08
   29.46000     -5.9869826E-08
   29.52000     -6.2991290E-08
   29.58000     -6.5795433E-08
   29.64000     -6.8260391E-08
   29.70000     -7.0369396E-08
   29.76000     -7.2110261E-08
   29.82000     -7.3473856E-08
   29.88000     -7.4452153E-08
   29.94000     -7.5037157E-08
   30.00000     -7.5221323E-08
   30.06000     -7.4999363E-08
   30.12000     -7.4370476E-08
   30.18000     -7.3340019E-08
   30.24000     -7.1919629E-08
   30.30000     -7.0126141E-08
   30.36000     -6.7980032E-08
   30.42000     -6.5504452E-08
   30.48000     -6.2725022E-08
   30.54000     -5.9670455E-08
   30.60000     -5.6372826E-08
   30.66000     -5.2867229E-08
   30.72000     -4.9190604E-08
   30.78000     -4.5380489E-08
   30.84000     -4.1474362E-08
   30.90000     -3.7509903E-08
   30.96000     -3.3525669E-08
   31.02000     -2.9561440E-08
   31.08000     -2.5657270E-08
   31.14000     -2.1851385E-08
   31.20000     -1.8177422E-08
   31.26000     -1.4662265E-08
   31.32000     -1.1325349E-08
   31.38000     -8.1797857E-09
   31.44000     -5.2348570E-09
   31.50000     -2.4989346E-09
   31.56000      1.8153921E-11
   31.62000      2.3040423E-09
   31.68000      4.3442925E-09
   31.74000      6.1242353E-09
   31.80000      7.6316198E-09
   31.86000      8.8592618E-09
   31.92000      9.8068158E-09
   31.98000      1.0480983E-08
   32.04000      1.0894006E-08
   32.10000      1.1060885E-08
   32.16000      1.0996292E-08
   32.22000      1.0712220E-08
   32.28000      1.0217056E-08
   32.34000      9.5161292E-09
   32.40000      8.6132266E-09
   32.46000      7.5123632E-09
   32.52000      6.2193068E-09
   32.58000      4.7426827E-09
   32.64000      3.0947502E-09
   32.70000      1.2918960E-09
   32.76000     -6.4530120E-10
   32.82000     -2.6926827E-09
   32.88000     -4.8238888E-09
   32.94000     -7.0122264E-09
   33.00000     -9.2323926E-09
   33.06000     -1.1461414E-08
   33.12000     -1.3678505E-08
   33.18000     -1.5864085E-08
   33.24000     -1.7998621E-08
   33.30000     -2.0061968E-08
   33.36000     -2.2033568E-08
   33.42000     -2.3893447E-08
   33.48000     -2.5623613E-08
   33.54000     -2.7209518E-08
   33.60000     -2.8641320E-08
   33.66000     -2.9914844E-08
   33.72000     -3.1032069E-08
   33.78000     -3.2000855E-08
   33.84000     -3.2833636E-08
   33.90000     -3.3545071E-08
   33.96000     -3.4149032E-08
   34.02000     -3.4655852E-08
   34.08000     -3.5070588E-08
   34.14000     -3.5392951E-08
   34.20000     -3.5618751E-08
   34.26000     -3.5742293E-08
   34.32000     -3.5758731E-08
   34.38000     -3.5665657E-08
   34.44000     -3.5463465E-08
   34.50000     -3.5154571E-08
   34.56000     -3.4741912E-08
   34.62000     -3.4227341E-08
   34.68000     -3.3610707E-08
   34.74000     -3.2890128E-08
   34.80000     -3.2063578E-08
   34.86000     -3.1131499E-08
   34.92000     -3.0099343E-08
   34.98000     -2.8979020E-08
   35.04000     -2.7788404E-08
   35.10000     -2.6548920E-08
   35.16000     -2.5282041E-08
   35.22000     -2.4006098E-08
   35.28000     -2.2734415E-08
   35.34000     -2.1475127E-08
   35.40000     -2.0232024E-08
   35.46000     -1.9005391E-08
   35.52000     -1.7792100E-08
   35.58000     -1.6584940E-08
   35.64000     -1.5371894E-08
   35.70000     -1.4136273E-08
   35.76000     -1.2858095E-08
   35.82000     -1.1516463E-08
   35.88000     -1.0092132E-08
   35.94000     -8.5695087E-09
   36.00000     -6.9378614E-09
   36.06000     -5.1919979E-09
   36.12000     -3.3328365E-09
   36.18000     -1.3679328E-09
   36.24000      6.8845402E-10
   36.30000      2.8164489E-09
   36.36000      4.9931859E-09
   36.42000      7.1966486E-09
   36.48000      9.4096979E-09
   36.54000      1.1622984E-08
   36.60000      1.3835790E-08
   36.66000      1.6054594E-08
   36.72000      1.8289953E-08
   36.78000      2.0552784E-08
   36.84000      2.2851161E-08
   36.90000      2.5188440E-08
   36.96000      2.7563024E-08
   37.02000      2.9969513E-08
   37.08000      3.2400497E-08
   37.14000      3.4848085E-08
   37.20000      3.7304254E-08
   37.26000      3.9759772E-08
   37.32000      4.2202238E-08
   37.38000      4.4614438E-08
   37.44000      4.6974435E-08
   37.50000      4.9257981E-08
   37.56000      5.1442647E-08
   37.62000      5.3511997E-08
   37.68000      5.5457701E-08
   37.74000      5.7278513E-08
   37.80000      5.8976376E-08
   37.86000      6.0551471E-08
   37.92000      6.1998456E-08
   37.98000      6.3305357E-08
   38.04000      6.4455257E-08
   38.10000      6.5429688E-08
   38.16000      6.6212159E-08
   38.22000      6.6790918E-08
   38.28000      6.7160734E-08
   38.34000      6.7324123E-08
   38.40000      6.7291957E-08
   38.46000      6.7083150E-08
   38.52000      6.6722436E-08
   38.58000      6.6235984E-08
   38.64000      6.5645743E-08
   38.70000      6.4964389E-08
   38.76000      6.4193266E-08
   38.82000      6.3324428E-08
   38.88000      6.2346530E-08
   38.94000      6.1252067E-08
   39.00000      6.0043170E-08
   39.06000      5.8733619E-08
   39.12000      5.7346313E-08
   39.18000      5.5907471E-08
   39.24000      5.4439688E-08
   39.30000      5.2956384E-08
   39.36000      5.1459303E-08
   39.42000      4.9939668E-08
   39.48000      4.8382503E-08
   39.54000      4.6772634E-08
   39.60000      4.5100599E-08
   39.66000      4.3366512E-08
   39.72000      4.1580556E-08
   39.78000      3.9759868E-08
   39.84000      3.7922693E-08
   39.90000      3.6082024E-08
   39.96000      3.4241040E-08
   40.02000      3.2392212E-08
   40.08000      3.0520535E-08
   40.14000      2.8609859E-08
   40.20000      2.6650067E-08
   40.26000      2.4642729E-08
   40.32000      2.2603279E-08
   40.38000      2.0558900E-08
   40.44000      1.8542613E-08
   40.50000      1.6585194E-08
   40.56000      1.4707289E-08
   40.62000      1.2914317E-08
   40.68000      1.1196049E-08
   40.74000      9.5314432E-09
   40.80000      7.8974036E-09
   40.86000      6.2784888E-09
   40.92000      4.6739861E-09
   40.98000      3.0995422E-09
   41.04000      1.5826241E-09
   41.10000      1.5354853E-10
   41.16000     -1.1644378E-09
   41.22000     -2.3623214E-09
   41.28000     -3.4473098E-09
   41.34000     -4.4393405E-09
   41.40000     -5.3637401E-09
   41.46000     -6.2426624E-09
   41.52000     -7.0878556E-09
   41.58000     -7.8965696E-09
   41.64000     -8.6514662E-09
   41.70000     -9.3245287E-09
   41.76000     -9.8842206E-09
   41.82000     -1.0304276E-08
   41.88000     -1.0571807E-08
   41.94000     -1.0692117E-08
   42.00000     -1.0688219E-08
   42.06000     -1.0594703E-08
   42.12000     -1.0447626E-08
   42.18000     -1.0273811E-08
   42.24000     -1.0083319E-08
   42.30000     -9.8677084E-09
   42.36000     -9.6045101E-09
   42.42000     -9.2660368E-09
   42.48000     -8.8292360E-09
   42.54000     -8.2831972E-09
   42.60000     -7.6320550E-09
   42.66000     -6.8927193E-09
   42.72000     -6.0885461E-09
   42.78000     -5.2412656E-09
   42.84000     -4.3639337E-09
   42.90000     -3.4573573E-09
   42.96000     -2.5113895E-09
   43.02000     -1.5108527E-09
   43.08000     -4.4413137E-10
   43.14000      6.8871070E-10
   43.20000      1.8715076E-09
   43.26000      3.0732237E-09
   43.32000      4.2546628E-09
   43.38000      5.3783524E-09
   43.44000      6.4181234E-09
   43.50000      7.3651658E-09
   43.56000      8.2287936E-09
   43.62000      9.0320658E-09
   43.68000      9.8039568E-09
   43.74000      1.0570448E-08
   43.80000      1.1346884E-08
   43.86000      1.2133357E-08
   43.92000      1.2914176E-08
   43.98000      1.3661658E-08
   44.04000      1.4343410E-08
   44.10000      1.4931162E-08
   44.16000      1.5408386E-08
   44.22000      1.5773987E-08
   44.28000      1.6040518E-08
   44.34000      1.6227538E-08
   44.40000      1.6352660E-08
   44.46000      1.6424037E-08
   44.52000      1.6437301E-08
   44.58000      1.6378047E-08
   44.64000      1.6228563E-08
   44.70000      1.5975832E-08
   44.76000      1.5617662E-08
   44.82000      1.5164831E-08
   44.88000      1.4638920E-08
   44.94000      1.4066860E-08
   45.00000      1.3474121E-08
   45.06000      1.2878417E-08
   45.12000      1.2285520E-08
   45.18000      1.1688323E-08
   45.24000      1.1069560E-08
   45.30000      1.0407772E-08
   45.36000      9.6849853E-09
   45.42000      8.8937453E-09
   45.48000      8.0409501E-09
   45.54000      7.1469284E-09
   45.60000      6.2399055E-09
   45.66000      5.3478515E-09
   45.72000      4.4907491E-09
   45.78000      3.6760730E-09
   45.84000      2.8988332E-09
   45.90000      2.1457467E-09
   45.96000      1.4016760E-09
   46.02000      6.5602229E-10
   46.08000     -9.2829577E-11
   46.14000     -8.3603363E-10
   46.20000     -1.5559156E-09
   46.26000     -2.2301885E-09
   46.32000     -2.8377356E-09
   46.38000     -3.3645442E-09
   46.44000     -3.8081356E-09
   46.50000     -4.1789980E-09
   46.56000     -4.4982493E-09
   46.62000     -4.7919708E-09
   46.68000     -5.0838960E-09
   46.74000     -5.3888276E-09
   46.80000     -5.7089520E-09
   46.86000     -6.0341496E-09
   46.92000     -6.3459922E-09
   46.98000     -6.6239387E-09
   47.04000     -6.8517458E-09
   47.10000     -7.0222765E-09
   47.16000     -7.1395325E-09
   47.22000     -7.2175141E-09
   47.28000     -7.2762814E-09
   47.34000     -7.3362880E-09
   47.40000     -7.4125790E-09
   47.46000     -7.5106570E-09
   47.52000     -7.6254336E-09
   47.58000     -7.7437061E-09
   47.64000     -7.8492555E-09
   47.70000     -7.9285885E-09
   47.76000     -7.9750206E-09
   47.82000     -7.9895646E-09
   47.88000     -7.9784739E-09
   47.94000     -7.9487315E-09
   48.00000     -7.9034965E-09
   48.06000     -7.8392839E-09
   48.12000     -7.7457054E-09
   48.18000     -7.6075315E-09
   48.24000     -7.4081106E-09
   48.30000     -7.1330510E-09
   48.36000     -6.7732526E-09
   48.42000     -6.3266743E-09
   48.48000     -5.7984431E-09
   48.54000     -5.1991442E-09
   48.60000     -4.5415578E-09
   48.66000     -3.8366732E-09
   48.72000     -3.0902934E-09
   48.78000     -2.3015134E-09
   48.84000     -1.4637217E-09
   48.90000     -5.6769833E-10
   48.96000      3.9452985E-10
   49.02000      1.4266950E-09
   49.08000      2.5272138E-09
   49.14000      3.6900667E-09
   49.20000      4.9067590E-09
   49.26000      6.1681988E-09
   49.32000      7.4656983E-09
   49.38000      8.7909777E-09
   49.44000      1.0135559E-08
   49.50000      1.1489996E-08
   49.56000      1.2843202E-08
   49.62000      1.4181939E-08
   49.68000      1.5490599E-08
   49.74000      1.6751631E-08
   49.80000      1.7947055E-08
   49.86000      1.9061027E-08
   49.92000      2.0082839E-08
   49.98000      2.1009061E-08
   50.04000      2.1843569E-08
   50.10000      2.2595049E-08
   50.16000      2.3272721E-08
   50.22000      2.3881952E-08
   50.28000      2.4421535E-08
   50.34000      2.4883519E-08
   50.40000      2.5255357E-08
   50.46000      2.5523223E-08
   50.52000      2.5675201E-08
   50.58000      2.5703637E-08
   50.64000      2.5606550E-08
   50.70000      2.5388326E-08
   50.76000      2.5059739E-08
   50.82000      2.4637004E-08
   50.88000      2.4139608E-08
   50.94000      2.3587138E-08
   51.00000      2.2995996E-08
   51.06000      2.2377350E-08
   51.12000      2.1737197E-08
   51.18000      2.1078547E-08
   51.24000      2.0404627E-08
   51.30000      1.9721657E-08
   51.36000      1.9040058E-08
   51.42000      1.8373960E-08
   51.48000      1.7739652E-08
   51.54000      1.7153809E-08
   51.60000      1.6631981E-08
   51.66000      1.6187263E-08
   51.72000      1.5828874E-08
   51.78000      1.5560754E-08
   51.84000      1.5380696E-08
   51.90000      1.5280794E-08
   51.96000      1.5249405E-08
   52.02000      1.5273926E-08
   52.08000      1.5342977E-08
   52.14000      1.5446647E-08
   52.20000      1.5574315E-08
   52.26000      1.5710908E-08
   52.32000      1.5833193E-08
   52.38000      1.5907743E-08
   52.44000      1.5891262E-08
   52.50000      1.5732896E-08
   52.56000      1.5377410E-08
   52.62000      1.4768132E-08
   52.68000      1.3849077E-08
   52.74000      1.2566175E-08
   52.80000      1.0867796E-08
   52.86000      8.7046370E-09
   52.92000      6.0289054E-09
   52.98000      2.7928744E-09
   53.04000     -1.0528579E-09
   53.10000     -5.5606639E-09
   53.16000     -1.0786068E-08
   53.22000     -1.6786441E-08
   53.28000     -2.3618432E-08
   53.34000     -3.1334793E-08
   53.40000     -3.9981266E-08
   53.46000     -4.9594050E-08
   53.52000     -6.0198040E-08
   53.58000     -7.1805964E-08
   53.64000     -8.4418446E-08
   53.70000     -9.8025055E-08
   53.76000     -1.1260600E-07
   53.82000     -1.2813361E-07
   53.88000     -1.4457309E-07
   53.94000     -1.6188164E-07
   54.00000     -1.8000621E-07
   54.06000     -1.9888110E-07
   54.12000     -2.1842615E-07
   54.18000     -2.3854696E-07
   54.24000     -2.5913673E-07
   54.30000     -2.8007906E-07
   54.36000     -3.0125102E-07
   54.42000     -3.2252461E-07
   54.48000     -3.4376808E-07
   54.54000     -3.6484587E-07
   54.60000     -3.8561899E-07
   54.66000     -4.0594540E-07
   54.72000     -4.2568047E-07
   54.78000     -4.4467782E-07
   54.84000     -4.6279024E-07
   54.90000     -4.7987140E-07
   54.96000     -4.9577818E-07
   55.02000     -5.1037279E-07
   55.08000     -5.2352550E-07
   55.14000     -5.3511485E-07
   55.20000     -5.4502812E-07
   55.26000     -5.5315979E-07
   55.32000     -5.5941189E-07
   55.38000     -5.6369447E-07
   55.44000     -5.6592785E-07
   55.50000     -5.6604551E-07
   55.56000     -5.6399716E-07