 -0.750000000       0.00000000    
 -0.689999998       0.00000000    
 -0.629999995       0.00000000    
 -0.569999993       0.00000000    
 -0.509999990       0.00000000    
 -0.449999988      -1.16557107E-20
 -0.389999986      -1.30709413E-19
 -0.330000013      -6.73824687E-19
 -0.270000011      -2.09046759E-18
 -0.209999993      -4.02243167E-18
 -0.150000006      -3.30597414E-18
  -9.00000036E-02   7.43453887E-18
  -2.99999993E-02   3.66383605E-17
   2.99999993E-02   8.25580117E-17
   9.00000036E-02   1.16734640E-16
  0.150000006       7.61626086E-17
  0.209999993      -1.14593301E-16
  0.270000011      -4.79320804E-16
  0.330000013      -9.04155685E-16
  0.389999986      -1.09225089E-15
  0.449999988      -6.41697020E-16
  0.509999990       7.11285435E-16
  0.569999993       2.75404907E-15
  0.629999995       4.57319060E-15
  0.689999998       4.71831191E-15
  0.750000000       1.91133768E-15
  0.810000002      -3.86865485E-15
  0.870000005      -1.05085609E-14
  0.930000007      -1.39002155E-14
  0.990000010      -9.64293393E-15
   1.04999995       3.98015615E-15
   1.11000001       2.31547976E-14
   1.16999996       3.79250769E-14
   1.23000002       3.54787238E-14
   1.28999996       7.11351398E-15
   1.35000002      -4.39837748E-14
   1.40999997      -9.89265432E-14
   1.47000003      -1.27555057E-13
   1.52999997      -1.01746533E-13
   1.59000003      -1.27274468E-14
   1.64999998       1.16917313E-13
   1.71000004       2.35798767E-13
   1.76999998       2.84054437E-13
   1.83000004       2.24591138E-13
   1.88999999       6.95347507E-14
   1.95000005      -1.15398183E-13
   2.00999999      -2.37167301E-13
   2.06999993      -2.24573439E-13
   2.13000011      -7.68752534E-14
   2.19000006       1.16999035E-13
   2.25000000       2.07130632E-13
   2.30999994       5.44294427E-14
   2.36999989      -3.84197313E-13
   2.43000007      -1.00008847E-12
   2.49000001      -1.54121280E-12
   2.54999995      -1.69213439E-12
   2.60999990      -1.19896671E-12
   2.67000008       1.10013461E-14
   2.73000002       1.76625522E-12
   2.78999996       3.67299073E-12
   2.84999990       5.21498253E-12
   2.91000009       5.89344372E-12
   2.97000003       5.35671681E-12
   3.02999997       3.48005891E-12
   3.08999991       3.81476236E-13
   3.15000010      -3.61313128E-12
   3.21000004      -8.02596010E-12
   3.26999998      -1.22753908E-11
   3.32999992      -1.57019068E-11
   3.39000010      -1.75788550E-11
   3.45000005      -1.71334058E-11
   3.50999999      -1.36114462E-11
   3.56999993      -6.41363828E-12
   3.63000011       4.69184717E-12
   3.69000006       1.93087803E-11
   3.75000000       3.61713090E-11
   3.80999994       5.30158001E-11
   3.86999989       6.66623909E-11
   3.93000007       7.33678743E-11
   3.99000001       6.94430971E-11
   4.05000019       5.20442266E-11
   4.11000013       1.99783089E-11
   4.17000008      -2.56613914E-11
   4.23000002      -8.11798337E-11
   4.28999996      -1.40350259E-10
   4.34999990      -1.94833247E-10
   4.40999985      -2.34829850E-10
   4.46999979      -2.49831100E-10
   4.53000021      -2.29365152E-10
   4.59000015      -1.63720495E-10
   4.65000010      -4.46948520E-11
   4.71000004       1.33560163E-10
   4.76999998       3.73578835E-10
   4.82999992       6.73596401E-10
   4.88999987       1.02674769E-09
   4.94999981       1.42072687E-09
   5.01000023       1.83815685E-09
   5.07000017       2.25777219E-09
   5.13000011       2.65631694E-09
   5.19000006       3.01085401E-09
   5.25000000       3.30105410E-09
   5.30999994       3.51106033E-09
   5.36999989       3.63064490E-09
   5.42999983       3.65558894E-09
   5.48999977       3.58740548E-09
   5.55000019       3.43261619E-09
   5.61000013       3.20179616E-09
   5.67000008       2.90849189E-09
   5.73000002       2.56803823E-09
   5.78999996       2.19623630E-09
   5.84999990       1.80791182E-09
   5.90999985       1.41547563E-09
   5.96999979       1.02770958E-09
   6.03000021       6.49045928E-10
   6.09000015       2.79537227E-10
   6.15000010      -8.44490380E-11
   6.21000004      -4.48967918E-10
   6.26999998      -8.20978230E-10
   6.32999992      -1.20692989E-09
   6.38999987      -1.61175051E-09
   6.44999981      -2.03836414E-09
   6.51000023      -2.48768961E-09
   6.57000017      -2.95891334E-09
   6.63000011      -3.44977136E-09
   6.69000006      -3.95663102E-09
   6.75000000      -4.47429693E-09
   6.80999994      -4.99564745E-09
   6.86999989      -5.51136736E-09
   6.92999983      -6.01011196E-09
   6.98999977      -6.47937304E-09
   7.05000019      -6.90713442E-09
   7.11000013      -7.28411020E-09
   7.17000008      -7.60608287E-09
   7.23000002      -7.87566012E-09
   7.28999996      -8.10280554E-09
   7.34999990      -8.30373192E-09
   7.40999985      -8.49823945E-09
   7.46999979      -8.70605810E-09
   7.53000021      -8.94320884E-09
   7.59000015      -9.21941634E-09
   7.65000010      -9.53736912E-09
   7.71000004      -9.89395144E-09
   7.76999998      -1.02828874E-08
   7.82999992      -1.06976890E-08
   7.88999987      -1.11336753E-08
   7.94999981      -1.15882788E-08
   8.01000023      -1.20595516E-08
   8.06999969      -1.25436310E-08
   8.13000011      -1.30324089E-08
   8.18999958      -1.35126088E-08
   8.25000000      -1.39669396E-08
   8.31000042      -1.43771608E-08
   8.36999989      -1.47281165E-08
   8.43000031      -1.50114676E-08
   8.48999977      -1.52279096E-08
   8.55000019      -1.53872648E-08
   8.60999966      -1.55064690E-08
   8.67000008      -1.56060906E-08
   8.72999954      -1.57062612E-08
   8.78999996      -1.58229554E-08
   8.85000038      -1.59652558E-08
   8.90999985      -1.61340949E-08
   8.97000027      -1.63225788E-08
   9.02999973      -1.65178218E-08
   9.09000015      -1.67039431E-08
   9.14999962      -1.68655987E-08
   9.21000004      -1.69912830E-08
   9.27000046      -1.70755250E-08
   9.32999992      -1.71194579E-08
   9.39000034      -1.71295547E-08
   9.44999981      -1.71150329E-08
   9.51000023      -1.70847425E-08
   9.56999969      -1.70446519E-08
   9.63000011      -1.69967187E-08
   9.68999958      -1.69395307E-08
   9.75000000      -1.68703522E-08
   9.81000042      -1.67878014E-08
   9.86999989      -1.66940346E-08
   9.93000031      -1.65956067E-08
   9.98999977      -1.65025789E-08
   10.0500002      -1.64260907E-08
   10.1099997      -1.63752247E-08
   10.1700001      -1.63542140E-08
   10.2299995      -1.63610174E-08
   10.2900000      -1.63878155E-08
   10.3500004      -1.64234173E-08
   10.4099998      -1.64568856E-08
   10.4700003      -1.64812803E-08
   10.5299997      -1.64963083E-08
   10.5900002      -1.65089808E-08
   10.6499996      -1.65319562E-08
   10.7100000      -1.65799747E-08
   10.7700005      -1.66654353E-08
   10.8299999      -1.67944858E-08
   10.8900003      -1.69649379E-08
   10.9499998      -1.71667072E-08
   11.0100002      -1.73847017E-08
   11.0699997      -1.76031900E-08
   11.1300001      -1.78100823E-08
   11.1899996      -1.79996178E-08
   11.2500000      -1.81724609E-08
   11.3100004      -1.83332798E-08
   11.3699999      -1.84868583E-08
   11.4300003      -1.86344398E-08
   11.4899998      -1.87719138E-08
   11.5500002      -1.88906988E-08
   11.6099997      -1.89810159E-08
   11.6700001      -1.90361487E-08
   11.7299995      -1.90559035E-08
   11.7900000      -1.90476293E-08
   11.8500004      -1.90241831E-08
   11.9099998      -1.89994793E-08
   11.9700003      -1.89831351E-08
   12.0299997      -1.89762073E-08
   12.0900002      -1.89696134E-08
   12.1499996      -1.89458902E-08
   12.2100000      -1.88837692E-08
   12.2700005      -1.87641280E-08
   12.3299999      -1.85754079E-08
   12.3900003      -1.83167685E-08
   12.4499998      -1.79980031E-08
   12.5100002      -1.76362800E-08
   12.5699997      -1.72506791E-08
   12.6300001      -1.68562746E-08
   12.6899996      -1.64594631E-08
   12.7500000      -1.60559424E-08
   12.8100004      -1.56318301E-08
   12.8699999      -1.51675650E-08
   12.9300003      -1.46434456E-08
   12.9899998      -1.40453000E-08
   13.0500002      -1.33688287E-08
   13.1099997      -1.26216015E-08
   13.1700001      -1.18222809E-08
   13.2299995      -1.09973106E-08
   13.2900000      -1.01758735E-08
   13.3500004      -9.38432532E-09
   13.4099998      -8.64138983E-09
   13.4700003      -7.95526223E-09
   13.5299997      -7.32325844E-09
   13.5900002      -6.73396361E-09
   13.6499996      -6.17117957E-09
   13.7100000      -5.61846525E-09
   13.7700005      -5.06304909E-09
   13.8299999      -4.49821824E-09
   13.8900003      -3.92390254E-09
   13.9499998      -3.34572769E-09
   14.0100002      -2.77314083E-09
   14.0699997      -2.21718954E-09
   14.1300001      -1.68835446E-09
   14.1899996      -1.19460908E-09
   14.2500000      -7.39863837E-10
   14.3100004      -3.23039179E-10
   14.3699999       6.18842408E-11
   14.4300003       4.24607016E-10
   14.4899998       7.76182729E-10
   14.5500002       1.12624488E-09
   14.6099997       1.48074275E-09
   14.6700001       1.84106408E-09
   14.7299995       2.20490337E-09
   14.7900000       2.56849497E-09
   14.8500004       2.92922930E-09
   14.9099998       3.28751248E-09
   14.9700003       3.64709996E-09
   15.0299997       4.01384526E-09
   15.0900002       4.39348158E-09
   15.1499996       4.78941420E-09
   15.2100000       5.20141308E-09
   15.2700005       5.62565106E-09
   15.3299999       6.05601791E-09
   15.3900003       6.48620579E-09
   15.4499998       6.91189728E-09
   15.5100002       7.33241778E-09
   15.5699997       7.75141729E-09
   15.6300001       8.17636270E-09
   15.6899996       8.61694893E-09
   15.7500000       9.08278430E-09
   15.8100004       9.58094315E-09
   15.8699999       1.01140483E-08
   15.9300003       1.06793951E-08
   15.9899998       1.12693188E-08
   16.0499992       1.18725945E-08
   16.1100006       1.24764004E-08
   16.1700001       1.30682825E-08
   16.2299995       1.36377203E-08
   16.2900009       1.41771332E-08
   16.3500004       1.46823647E-08
   16.4099998       1.51527537E-08
   16.4699993       1.55908157E-08
   16.5300007       1.60015574E-08
   16.5900002       1.63914446E-08
   16.6499996       1.67671885E-08
   16.7099991       1.71345906E-08
   16.7700005       1.74977224E-08
   16.8299999       1.78585093E-08
   16.8899994       1.82166318E-08
   16.9500008       1.85695583E-08
   17.0100002       1.89125675E-08
   17.0699997       1.92389074E-08
   17.1299992       1.95403533E-08
   17.1900005       1.98084091E-08
   17.2500000       2.00361274E-08
   17.3099995       2.02201136E-08
   17.3700008       2.03619699E-08
   17.4300003       2.04685549E-08
   17.4899998       2.05507380E-08
   17.5499992       2.06209627E-08
   17.6100006       2.06903525E-08
   17.6700001       2.07662261E-08
   17.7299995       2.08506954E-08
   17.7900009       2.09405755E-08
   17.8500004       2.10284092E-08
   17.9099998       2.11041744E-08
   17.9699993       2.11571649E-08
   18.0300007       2.11775788E-08
   18.0900002       2.11575735E-08
   18.1499996       2.10915889E-08
   18.2099991       2.09759907E-08
   18.2700005       2.08082565E-08
   18.3299999       2.05860982E-08
   18.3899994       2.03068797E-08
   18.4500008       1.99675885E-08
   18.5100002       1.95652508E-08
   18.5699997       1.90974028E-08
   18.6299992       1.85621900E-08
   18.6900005       1.79578468E-08
   18.7500000       1.72817654E-08
   18.8099995       1.65296399E-08
   18.8700008       1.56953295E-08
   18.9300003       1.47717598E-08
   18.9899998       1.37526577E-08
   19.0499992       1.26345263E-08
   19.1100006       1.14180638E-08
   19.1700001       1.01084678E-08
   19.2299995       8.71454997E-09
   19.2900009       7.24700966E-09
   19.3500004       5.71646686E-09
   19.4099998       4.13182821E-09
   19.4699993       2.49932763E-09
   19.5300007       8.22329038E-10
   19.5900002      -8.98186192E-10
   19.6499996      -2.66264100E-09
   19.7099991      -4.47163995E-09
   19.7700005      -6.32479313E-09
   19.8299999      -8.21988877E-09
   19.8899994      -1.01526210E-08
   19.9500008      -1.21168631E-08
   20.0100002      -1.41052201E-08
   20.0699997      -1.61094551E-08
   20.1299992      -1.81204456E-08
   20.1900005      -2.01276471E-08
   20.2500000      -2.21183782E-08
   20.3099995      -2.40775204E-08
   20.3700008      -2.59880313E-08
   20.4300003      -2.78324439E-08
   20.4899998      -2.95948741E-08
   20.5499992      -3.12629069E-08
   20.6100006      -3.28286305E-08
   20.6700001      -3.42885045E-08
   20.7299995      -3.56421594E-08
   20.7900009      -3.68906932E-08
   20.8500004      -3.80350080E-08
   20.9099998      -3.90747203E-08
   20.9699993      -4.00078122E-08
   21.0300007      -4.08308622E-08
   21.0900002      -4.15397032E-08
   21.1499996      -4.21302424E-08
   21.2099991      -4.25993285E-08
   21.2700005      -4.29454552E-08
   21.3299999      -4.31693223E-08
   21.3899994      -4.32740386E-08
   21.4500008      -4.32649507E-08
   21.5100002      -4.31490825E-08
   21.5699997      -4.29342890E-08
   21.6299992      -4.26283826E-08
   21.6900005      -4.22383266E-08
   21.7500000      -4.17697450E-08
   21.8099995      -4.12266097E-08
   21.8700008      -4.06111376E-08
   21.9300003      -3.99237763E-08
   21.9899998      -3.91632824E-08
   22.0499992      -3.83269203E-08
   22.1100006      -3.74109561E-08
   22.1700001      -3.64113610E-08
   22.2299995      -3.53247849E-08
   22.2900009      -3.41494797E-08
   22.3500004      -3.28859677E-08
   22.4099998      -3.15372262E-08
   22.4699993      -3.01083638E-08
   22.5300007      -2.86058945E-08
   22.5900002      -2.70368457E-08
   22.6499996      -2.54080810E-08
   22.7099991      -2.37259759E-08
   22.7700005      -2.19965841E-08
   22.8299999      -2.02261763E-08
   22.8899994      -1.84219040E-08
   22.9500008      -1.65923471E-08
   23.0100002      -1.47476094E-08
   23.0699997      -1.28988527E-08
   23.1299992      -1.10572858E-08
   23.1900005      -9.23287580E-09
   23.2500000      -7.43321271E-09
   23.3099995      -5.66301805E-09
   23.3700008      -3.92462818E-09
   23.4300003      -2.21945418E-09
   23.4899998      -5.49994661E-10
   23.5499992       1.07832043E-09
   23.6100006       2.65623190E-09
   23.6700001       4.17117674E-09
   23.7299995       5.60918112E-09
   23.7900009       6.95751945E-09
   23.8500004       8.20721269E-09
   23.9099998       9.35447542E-09
   23.9699993       1.04006501E-08
   24.0300007       1.13506875E-08
   24.0900002       1.22107311E-08
   24.1499996       1.29856010E-08
   24.2099991       1.36768747E-08
   24.2700005       1.42820307E-08
   24.3299999       1.47947103E-08
   24.3899994       1.52059183E-08
   24.4500008       1.55057176E-08
   24.5100002       1.56849485E-08
   24.5699997       1.57365463E-08
   24.6299992       1.56561324E-08
   24.6900005       1.54418487E-08
   24.7500000       1.50935282E-08
   24.8099995       1.46115413E-08
   24.8700008       1.39956722E-08
   24.9300003       1.32443034E-08
   24.9899998       1.23540813E-08
   25.0499992       1.13200898E-08
   25.1100006       1.01365076E-08
   25.1700001       8.79768436E-09
   25.2299995       7.29949923E-09
   25.2900009       5.64077451E-09
   25.3500004       3.82438570E-09
   25.4099998       1.85771265E-09
   25.4699993      -2.47747600E-10
   25.5300007      -2.47747556E-09
   25.5900002      -4.81526907E-09
   25.6499996      -7.24425631E-09
   25.7099991      -9.74717640E-09
   25.7700005      -1.23059101E-08
   25.8299999      -1.49006221E-08
   25.8899994      -1.75090342E-08
   25.9500008      -2.01061869E-08
   26.0100002      -2.26647536E-08
   26.0699997      -2.51556891E-08
   26.1299992      -2.75490475E-08
   26.1900005      -2.98148599E-08
   26.2500000      -3.19242659E-08
   26.3099995      -3.38508954E-08
   26.3700008      -3.55722527E-08
   26.4300003      -3.70705564E-08
   26.4899998      -3.83323915E-08
   26.5499992      -3.93470252E-08
   26.6100006      -4.01038527E-08
   26.6700001      -4.05901446E-08
   26.7299995      -4.07902867E-08
   26.7900009      -4.06871052E-08
   26.8500004      -4.02649185E-08
   26.9099998      -3.95131039E-08
   26.9699993      -3.84287588E-08
   27.0300007      -3.70175606E-08
   27.0900002      -3.52927820E-08
   27.1499996      -3.32732171E-08
   27.2099991      -3.09809565E-08
   27.2700005      -2.84396187E-08
   27.3299999      -2.56731383E-08
   27.3899994      -2.27047945E-08
   27.4500008      -1.95562659E-08
   27.5100002      -1.62468101E-08
   27.5699997      -1.27929569E-08
   27.6299992      -9.20907350E-09
   27.6900005      -5.50879076E-09
   27.7500000      -1.70678094E-09
   27.8099995       2.17981855E-09
   27.8700008       6.13086160E-09
   27.9300003       1.01235935E-08
   27.9899998       1.41335805E-08
   28.0499992       1.81355908E-08
   28.1100006       2.21040271E-08
   28.1700001       2.60128594E-08
   28.2299995       2.98353804E-08
   28.2900009       3.35440795E-08
   28.3500004       3.71109472E-08
   28.4099998       4.05081195E-08
   28.4699993       4.37088588E-08
   28.5300007       4.66886014E-08
   28.5900002       4.94259815E-08
   28.6499996       5.19036334E-08
   28.7099991       5.41086287E-08
   28.7700005       5.60323983E-08
   28.8299999       5.76701105E-08
   28.8899994       5.90196372E-08
   28.9500008       6.00803958E-08
   29.0100002       6.08521873E-08
   29.0699997       6.13342337E-08
   29.1299992       6.15241049E-08
   29.1900005       6.14166922E-08
   29.2500000       6.10030071E-08
   29.3099995       6.02696488E-08
   29.3700008       5.91991558E-08
   29.4300003       5.77718744E-08
   29.4899998       5.59691458E-08
   29.5499992       5.37771605E-08
   29.6100006       5.11904581E-08
   29.6700001       4.82140763E-08
   29.7299995       4.48639845E-08
   29.7900009       4.11658831E-08
   29.8500004       3.71530895E-08
   29.9099998       3.28640795E-08
   29.9699993       2.83403363E-08
   30.0300007       2.36245459E-08
   30.0900002       1.87591986E-08
   30.1499996       1.37853791E-08
   30.2099991       8.74171313E-09
   30.2700005       3.66342312E-09
   30.3299999      -1.41844114E-09
   30.3899994      -6.47750076E-09
   30.4500008      -1.14921441E-08
   30.5100002      -1.64450960E-08
   30.5699997      -2.13223679E-08
   30.6299992      -2.61116817E-08
   30.6900005      -3.08006562E-08
   30.7500000      -3.53751339E-08
   30.8099995      -3.98179871E-08
   30.8700008      -4.41085923E-08
   30.9300003      -4.82229012E-08
   30.9899998      -5.21338954E-08
   31.0499992      -5.58124533E-08
   31.1100006      -5.92285403E-08
   31.1700001      -6.23529104E-08
   31.2299995      -6.51590213E-08
   31.2900009      -6.76247325E-08
   31.3500004      -6.97331970E-08
   31.4099998      -7.14723711E-08
   31.4699993      -7.28334655E-08
   31.5300007      -7.38090549E-08
   31.5900002      -7.43919131E-08
   31.6499996      -7.45752757E-08
   31.7099991      -7.43545456E-08
   31.7700005      -7.37294741E-08
   31.8299999      -7.27057454E-08
   31.8899994      -7.12951334E-08
   31.9500008      -6.95144564E-08
   32.0099983      -6.73840574E-08
   32.0699997      -6.49268230E-08
   32.1300011      -6.21681409E-08
   32.1899986      -5.91365357E-08
   32.2500000      -5.58641275E-08
   32.3100014      -5.23862305E-08
   32.3699989      -4.87401373E-08
   32.4300003      -4.49636381E-08
   32.4900017      -4.10941468E-08
   32.5499992      -3.71688245E-08
   32.6100006      -3.32253265E-08
   32.6699982      -2.93023135E-08
   32.7299995      -2.54388279E-08
   32.7900009      -2.16723386E-08
   32.8499985      -1.80360491E-08
   32.9099998      -1.45566119E-08
   32.9700012      -1.12532836E-08
   33.0299988      -8.13895973E-09
   33.0900002      -5.22269605E-09
   33.1500015      -2.51278043E-09
   33.2099991      -1.92455375E-11
   33.2700005       2.24500529E-09
   33.3300018       4.26476809E-09
   33.3899994       6.02459282E-09
   33.4500008       7.51165263E-09
   33.5099983       8.71851746E-09
   33.5699997       9.64490177E-09
   33.6300011       1.02977484E-08
   33.6899986       1.06895595E-08
   33.7500000       1.08355049E-08
   33.8100014       1.07503197E-08
   33.8699989       1.04460005E-08
   33.9300003       9.93094584E-09
   33.9900017       9.21054077E-09
   34.0499992       8.28863733E-09
   34.1100006       7.16928605E-09
   34.1699982       5.85820548E-09
   34.2299995       4.36389502E-09
   34.2900009       2.69846590E-09
   34.3499985       8.78217499E-10
   34.4099998      -1.07622478E-09
   34.4700012      -3.14049609E-09
   34.5299988      -5.28790167E-09
   34.5900002      -7.49134355E-09
   34.6500015      -9.72511405E-09
   34.7099991      -1.19658736E-08
   34.7700005      -1.41925041E-08
   34.8300018      -1.63851333E-08
   34.8899994      -1.85239752E-08
   34.9500008      -2.05887396E-08
   35.0099983      -2.25589432E-08
   35.0699997      -2.44150051E-08
   35.1300011      -2.61397002E-08
   35.1899986      -2.77195600E-08
   35.2500000      -2.91459248E-08
   35.3100014      -3.04156274E-08
   35.3699989      -3.15312008E-08
   35.4300003      -3.25004201E-08
   35.4900017      -3.33350485E-08
   35.5499992      -3.40487354E-08
   35.6100006      -3.46543736E-08
   35.6699982      -3.51617118E-08
   35.7299995      -3.55758409E-08
   35.7900009      -3.58970738E-08
   35.8499985      -3.61221133E-08
   35.9099998      -3.62460391E-08
   35.9700012      -3.62642929E-08
   36.0299988      -3.61740788E-08
   36.0900002      -3.59747752E-08
   36.1500015      -3.56674121E-08
   36.2099991      -3.52535423E-08
   36.2700005      -3.47339686E-08
   36.3300018      -3.41080835E-08
   36.3899994      -3.33741852E-08
   36.4500008      -3.25310374E-08
   36.5099983      -3.15802495E-08
   36.5699997      -3.05285432E-08
   36.6300011      -2.93889126E-08
   36.6899986      -2.81798656E-08
   36.7500000      -2.69228675E-08
   36.8100014      -2.56389345E-08
   36.8699989      -2.43456579E-08
   36.9300003      -2.30557067E-08
   36.9900017      -2.17769163E-08
   37.0499992      -2.05132356E-08
   37.1100006      -1.92654355E-08
   37.1699982      -1.80308870E-08
   37.2299995      -1.68025860E-08
   37.2900009      -1.55682951E-08
   37.3499985      -1.43107455E-08
   37.4099998      -1.30093074E-08
   37.4700012      -1.16426486E-08
   37.5299988      -1.01914566E-08
   37.5900002      -8.64041816E-09
   37.6500015      -6.97924873E-09
   37.7099991      -5.20320054E-09
   37.7700005      -3.31352812E-09
   37.8300018      -1.31802014E-09
   37.8899994       7.68912767E-10
   37.9500008       2.92735147E-09
   38.0099983       5.13459231E-09
   38.0699997       7.36907824E-09
   38.1300011       9.61440172E-09
   38.1899986       1.18620154E-08
   38.2500000       1.41117322E-08
   38.3100014       1.63700005E-08
   38.3699989       1.86466647E-08
   38.4300003       2.09514290E-08
   38.4900017       2.32910242E-08
   38.5499992       2.56677470E-08
   38.6100006       2.80794730E-08
   38.6699982       3.05208019E-08
   38.7299995       3.29847012E-08
   38.7900009       3.54637848E-08
   38.8499985       3.79505032E-08
   38.9099998       4.04360101E-08
   38.9700012       4.29081588E-08
   39.0299988       4.53498110E-08
   39.0900002       4.77388049E-08
   39.1500015       5.00502360E-08
   39.2099991       5.22606527E-08
   39.2700005       5.43523875E-08
   39.3300018       5.63160576E-08
   39.3899994       5.81498298E-08
   39.4500008       5.98557293E-08
   39.5099983       6.14346192E-08
   39.5699997       6.28821155E-08
   39.6300011       6.41871125E-08
   39.6899986       6.53332037E-08
   39.7500000       6.63019648E-08
   39.8100014       6.70765914E-08
   39.8699989       6.76448408E-08
   39.9300003       6.80010714E-08
   39.9900017       6.81475427E-08
   40.0499992       6.80950905E-08
   40.1100006       6.78627785E-08
   40.1699982       6.74755967E-08
   40.2299995       6.69600055E-08
   40.2900009       6.63381385E-08
   40.3499985       6.56226931E-08
   40.4099998       6.48147918E-08
   40.4700012       6.39061426E-08
   40.5299988       6.28850501E-08
   40.5900002       6.17438189E-08
   40.6500015       6.04847585E-08
   40.7099991       5.91221756E-08
   40.7700005       5.76797596E-08
   40.8300018       5.61845894E-08
   40.8899994       5.46600312E-08
   40.9500008       5.31200577E-08
   41.0099983       5.15667509E-08
   41.0699997       4.99915345E-08
   41.1300011       4.83795830E-08
   41.1899986       4.67158863E-08
   41.2500000       4.49911290E-08
   41.3100014       4.32055174E-08
   41.3699989       4.13692227E-08
   41.4300003       3.94992270E-08
   41.4900017       3.76135496E-08
   41.5499992       3.57249625E-08
   41.6100006       3.38365140E-08
   41.6699982       3.19407398E-08
   41.7299995       3.00229317E-08
   41.7900009       2.80674151E-08
   41.8499985       2.60646935E-08
   41.9099998       2.40170035E-08
   41.9700012       2.19403962E-08
   42.0299988       1.98625756E-08
   42.0900002       1.78169639E-08
   42.1500015       1.58346207E-08
   42.2099991       1.39363783E-08
   42.2700005       1.21277104E-08
   42.3300018       1.03982831E-08
   42.3899994       8.72673400E-09
   42.4500008       7.08938019E-09
   42.5099983       5.46996271E-09
   42.5699997       3.86682464E-09
   42.6300011       2.29472552E-09
   42.6899986       7.80511711E-10
   42.7500000      -6.45680898E-10
   42.8100014      -1.96029015E-09
   42.8699989      -3.15357229E-09
   42.9300003      -4.23179403E-09
   42.9900017      -5.21402299E-09
   43.0499992      -6.12504625E-09
   43.1100006      -6.98695768E-09
   43.1699982      -7.81194220E-09
   43.2299995      -8.59805560E-09
   43.2900009      -9.32892164E-09
   43.3499985      -9.97742600E-09
   43.4099998      -1.05127027E-08
   43.4700012      -1.09088427E-08
   43.5299988      -1.11529959E-08
   43.5900002      -1.12502265E-08
   43.6500015      -1.12231096E-08
   43.7099991      -1.11056906E-08
   43.7700005      -1.09334932E-08
   43.8300018      -1.07329630E-08
   43.8899994      -1.05140652E-08
   43.9500008      -1.02686304E-08
   44.0099983      -9.97481919E-09
   44.0699997      -9.60582369E-09
   44.1300011      -9.13951137E-09
   44.1899986      -8.56573656E-09
   44.2500000      -7.88908050E-09
   44.3100014      -7.12651405E-09
   44.3699989      -6.30111829E-09
   44.4300003      -5.43410295E-09
   44.4900017      -4.53787719E-09
   44.5499992      -3.61257335E-09
   44.6100006      -2.64742939E-09
   44.6699982      -1.62678804E-09
   44.7299995      -5.38767253E-10
   44.7900009       6.16575235E-10
   44.8499985       1.82281990E-09
   44.9099998       3.04849457E-09
   44.9700012       4.25391944E-09
   45.0299988       5.40123679E-09
   45.0900002       6.46408260E-09
   45.1500015       7.43363504E-09
   45.2099991       8.31928038E-09
   45.2700005       9.14410769E-09
   45.3300018       9.93696858E-09
   45.3899994       1.07235740E-08
   45.4500008       1.15189271E-08
   45.5099983       1.23228485E-08
   45.5699997       1.31195561E-08
   45.6300011       1.38814888E-08
   45.6899986       1.45765187E-08
   45.7500000       1.51766546E-08
   45.8100014       1.56655275E-08
   45.8699989       1.60419553E-08
   45.9300003       1.63181397E-08
   45.9900017       1.65129865E-08
   46.0499992       1.66432628E-08
   46.1100006       1.67161804E-08
   46.1699982       1.67265011E-08
   46.2299995       1.66592482E-08
   46.2900009       1.64966156E-08
   46.3499985       1.62260889E-08
   46.4099998       1.58465170E-08
   46.4700012       1.53699915E-08
   46.5299988       1.48192925E-08
   46.5900002       1.42220564E-08
   46.6500015       1.36037315E-08
   46.7099991       1.29813102E-08
   46.7700005       1.23594566E-08
   46.8300018       1.17299717E-08
   46.8899994       1.10749081E-08
   46.9500008       1.03727320E-08
   47.0099983       9.60597379E-09
   47.0699997       8.76804851E-09
   47.1300011       7.86686094E-09
   47.1899986       6.92369007E-09
   47.2500000       5.96756466E-09
   47.3100014       5.02707742E-09
   47.3699989       4.12264090E-09
   47.4300003       3.26193583E-09
   47.4900017       2.43995801E-09
   47.5499992       1.64326253E-09
   47.6100006       8.56557436E-10
   47.6699982       6.92762653E-11
   47.7299995      -7.19871163E-10
   47.7900009      -1.50147461E-09
   47.8499985      -2.25726327E-09
   47.9099998      -2.96458391E-09
   47.9700012      -3.60235730E-09
   48.0299988      -4.15698187E-09
   48.0900002      -4.62654048E-09
   48.1500015      -5.02191178E-09
   48.2099991      -5.36418021E-09
   48.2700005      -5.67889247E-09
   48.3300018      -5.98885874E-09
   48.3899994      -6.30780583E-09
   48.4500008      -6.63693189E-09
   48.5099983      -6.96538649E-09
   48.5699997      -7.27434957E-09
   48.6300011      -7.54324780E-09
   48.6899986      -7.75613174E-09
   48.7500000      -7.90640797E-09
   48.8100014      -7.99871724E-09
   48.8699989      -8.04757860E-09
   48.9300003      -8.07324074E-09
   48.9900017      -8.09591771E-09
   49.0499992      -8.13007972E-09
   49.1100006      -8.18060375E-09
   49.1699982      -8.24209145E-09
   49.2299995      -8.30163849E-09
   49.2900009      -8.34400016E-09
   49.3499985      -8.35715674E-09
   49.4099998      -8.33605895E-09
   49.4700012      -8.28316171E-09
   49.5299988      -8.20572854E-09
   49.5900002      -8.11125744E-09
   49.6500015      -8.00298583E-09
   49.7099991      -7.87722332E-09
   49.7700005      -7.72324338E-09
   49.8300018      -7.52550022E-09
   49.8899994      -7.26719307E-09
   49.9500008      -6.93403912E-09
   50.0099983      -6.51732002E-09
   50.0699997      -6.01554984E-09
   50.1300011      -5.43439649E-09
   50.1899986      -4.78480322E-09
   50.2500000      -4.07967615E-09
   50.3100014      -3.33003003E-09
   50.3699989      -2.54182830E-09
   50.4300003      -1.71465209E-09
   50.4900017      -8.42683479E-10
   50.5499992       8.24542795E-11
   50.6100006       1.06823461E-09