 -0.750000000       0.00000000    
 -0.689999998       0.00000000    
 -0.629999995       0.00000000    
 -0.569999993       0.00000000    
 -0.509999990       0.00000000    
 -0.449999988      -1.09334252E-19
 -0.389999986      -7.89310268E-19
 -0.330000013      -2.78531441E-18
 -0.270000011      -6.01823651E-18
 -0.209999993      -7.48656853E-18
 -0.150000006      -1.10764678E-20
  -9.00000036E-02   2.51976486E-17
  -2.99999993E-02   7.06418662E-17
   2.99999993E-02   1.22019887E-16
   9.00000036E-02   1.42089023E-16
  0.150000006       7.66766914E-17
  0.209999993      -1.23402615E-16
  0.270000011      -4.67326712E-16
  0.330000013      -8.85095484E-16
  0.389999986      -1.19908165E-15
  0.449999988      -1.12938429E-15
  0.509999990      -3.63988560E-16
  0.569999993       1.28243096E-15
  0.629999995       3.64051838E-15
  0.689999998       5.99075402E-15
  0.750000000       7.08070670E-15
  0.810000002       5.52394442E-15
  0.870000005       5.74231534E-16
  0.930000007      -7.04373287E-15
  0.990000010      -1.48341117E-14
   1.04999995      -1.92998829E-14
   1.11000001      -1.77913206E-14
   1.16999996      -1.05819758E-14
   1.23000002      -1.66858524E-15
   1.28999996       2.99216337E-15
   1.35000002      -2.79904526E-16
   1.40999997      -8.29119386E-15
   1.47000003      -9.50397225E-15
   1.52999997       1.14804067E-14
   1.59000003       6.37814386E-14
   1.64999998       1.39047546E-13
   1.71000004       2.06620921E-13
   1.76999998       2.21150328E-13
   1.83000004       1.42722409E-13
   1.88999999      -3.85674904E-14
   1.95000005      -2.87070091E-13
   2.00999999      -5.26705307E-13
   2.06999993      -6.68611921E-13
   2.13000011      -6.49892846E-13
   2.19000006      -4.63141081E-13
   2.25000000      -1.58737281E-13
   2.30999994       1.83807518E-13
   2.36999989       4.99987855E-13
   2.43000007       7.72085683E-13
   2.49000001       1.02479082E-12
   2.54999995       1.28176365E-12
   2.60999990       1.50743957E-12
   2.67000008       1.57508837E-12
   2.73000002       1.29525806E-12
   2.78999996       5.07872553E-13
   2.84999990      -7.98870193E-13
   2.91000009      -2.40603674E-12
   2.97000003      -3.87552273E-12
   3.02999997      -4.67360785E-12
   3.08999991      -4.36849905E-12
   3.15000010      -2.82052810E-12
   3.21000004      -2.77745248E-13
   3.26999998       2.67265333E-12
   3.32999992       5.28233490E-12
   3.39000010       6.87565413E-12
   3.45000005       7.04224569E-12
   3.50999999       5.71525119E-12
   3.56999993       3.12061358E-12
   3.63000011      -3.54711459E-13
   3.69000006      -4.29338553E-12
   3.75000000      -8.30531911E-12
   3.80999994      -1.19886618E-11
   3.86999989      -1.48304685E-11
   3.93000007      -1.61244160E-11
   3.99000001      -1.49850184E-11
   4.05000019      -1.05011945E-11
   4.11000013      -2.01468421E-12
   4.17000008       1.05436172E-11
   4.23000002       2.63543389E-11
   4.28999996       4.35389814E-11
   4.34999990       5.91819718E-11
   4.40999985       6.95692948E-11
   4.46999979       7.06251238E-11
   4.53000021       5.84886167E-11
   4.59000015       3.01380136E-11
   4.65000010      -1.60546593E-11
   4.71000004      -7.99565483E-11
   4.76999998      -1.59581959E-10
   4.82999992      -2.51293764E-10
   4.88999987      -3.50231122E-10
   4.94999981      -4.50824850E-10
   5.01000023      -5.47245360E-10
   5.07000017      -6.33682884E-10
   5.13000011      -7.04465819E-10
   5.19000006      -7.54130258E-10
   5.25000000      -7.77592102E-10
   5.30999994      -7.70514319E-10
   5.36999989      -7.29820426E-10
   5.42999983      -6.54160615E-10
   5.48999977      -5.44080447E-10
   5.55000019      -4.01724431E-10
   5.61000013      -2.30111846E-10
   5.67000008      -3.22455812E-11
   5.73000002       1.89573315E-10
   5.78999996       4.33922898E-10
   5.84999990       6.99872993E-10
   5.90999985       9.86265958E-10
   5.96999979       1.29107791E-09
   6.03000021       1.61123614E-09
   6.09000015       1.94301797E-09
   6.15000010       2.28283614E-09
   6.21000004       2.62799094E-09
   6.26999998       2.97698599E-09
   6.32999992       3.32924111E-09
   6.38999987       3.68436970E-09
   6.44999981       4.04143075E-09
   6.51000023       4.39856018E-09
   6.57000017       4.75314765E-09
   6.63000011       5.10240872E-09
   6.69000006       5.44394396E-09
   6.75000000       5.77588599E-09
   6.80999994       6.09647888E-09
   6.86999989       6.40325482E-09
   6.92999983       6.69225608E-09
   6.98999977       6.95774682E-09
   7.05000019       7.19266424E-09
   7.11000013       7.38969730E-09
   7.17000008       7.54261897E-09
   7.23000002       7.64738051E-09
   7.28999996       7.70263853E-09
   7.34999990       7.70964359E-09
   7.40999985       7.67171393E-09
   7.46999979       7.59362262E-09
   7.53000021       7.48120943E-09
   7.59000015       7.34135641E-09
   7.65000010       7.18223037E-09
   7.71000004       7.01357861E-09
   7.76999998       6.84678758E-09
   7.82999992       6.69451428E-09
   7.88999987       6.56980559E-09
   7.94999981       6.48477760E-09
   8.01000023       6.44905729E-09
   8.06999969       6.46829568E-09
   8.13000011       6.54307897E-09
   8.18999958       6.66856748E-09
   8.25000000       6.83504808E-09
   8.31000042       7.02938374E-09
   8.36999989       7.23708915E-09
   8.43000031       7.44454631E-09
   8.48999977       7.64078134E-09
   8.55000019       7.81831933E-09
   8.60999966       7.97291477E-09
   8.67000008       8.10231349E-09
   8.72999954       8.20455526E-09
   8.78999996       8.27642843E-09
   8.85000038       8.31263769E-09
   8.90999985       8.30592572E-09
   8.97000027       8.24805202E-09
   9.02999973       8.13121215E-09
   9.09000015       7.94944466E-09
   9.14999962       7.69960451E-09
   9.21000004       7.38172234E-09
   9.27000046       6.99876468E-09
   9.32999992       6.55591892E-09
   9.39000034       6.05960393E-09
   9.44999981       5.51636559E-09
   9.51000023       4.93186869E-09
   9.56999969       4.31019087E-09
   9.63000011       3.65364805E-09
   9.68999958       2.96324210E-09
   9.75000000       2.23963759E-09
   9.81000042       1.48431778E-09
   9.86999989       7.00462022E-10
   9.93000031      -1.06818505E-10
   9.98999977      -9.30940991E-10
   10.0500002      -1.76468484E-09
   10.1099997      -2.60086508E-09
   10.1700001      -3.43239037E-09
   10.2299995      -4.25163016E-09
   10.2900000      -5.04948927E-09
   10.3500004      -5.81486637E-09
   10.4099998      -6.53510313E-09
   10.4700003      -7.19757587E-09
   10.5299997      -7.79200260E-09
   10.5900002      -8.31262792E-09
   10.6499996      -8.75940920E-09
   10.7100000      -9.13770570E-09
   10.7700005      -9.45653866E-09
   10.8299999      -9.72602532E-09
   10.8900003      -9.95481031E-09
   10.9499998      -1.01482822E-08
   11.0100002      -1.03080096E-08
   11.0699997      -1.04324931E-08
   11.1300001      -1.05189732E-08
   11.1899996      -1.05657474E-08
   11.2500000      -1.05742943E-08
   11.3100004      -1.05504867E-08
   11.3699999      -1.05043174E-08
   11.4300003      -1.04480442E-08
   11.4899998      -1.03931921E-08
   11.5500002      -1.03474571E-08
   11.6099997      -1.03127267E-08
   11.6700001      -1.02851248E-08
   11.7299995      -1.02572493E-08
   11.7900000      -1.02218447E-08
   11.8500004      -1.01755351E-08
   11.9099998      -1.01211670E-08
   11.9700003      -1.00679038E-08
   12.0299997      -1.00290514E-08
   12.0900002      -1.00184741E-08
   12.1499996      -1.00467927E-08
   12.2100000      -1.01184980E-08
   12.2700005      -1.02306537E-08
   12.3299999      -1.03733067E-08
   12.3900003      -1.05313429E-08
   12.4499998      -1.06872848E-08
   12.5100002      -1.08244222E-08
   12.5699997      -1.09296412E-08
   12.6300001      -1.09953584E-08
   12.6899996      -1.10201119E-08
   12.7500000      -1.10077485E-08
   12.8100004      -1.09655733E-08
   12.8699999      -1.09021672E-08
   12.9300003      -1.08256497E-08
   12.9899998      -1.07428351E-08
   13.0500002      -1.06592095E-08
   13.1099997      -1.05792664E-08
   13.1700001      -1.05065974E-08
   13.2299995      -1.04434736E-08
   13.2900000      -1.03901048E-08
   13.3500004      -1.03440971E-08
   13.4099998      -1.03005728E-08
   13.4700003      -1.02531006E-08
   13.5299997      -1.01950333E-08
   13.5900002      -1.01206350E-08
   13.6499996      -1.00254907E-08
   13.7100000      -9.90609195E-09
   13.7700005      -9.75896519E-09
   13.8299999      -9.57993418E-09
   13.8900003      -9.36397893E-09
   13.9499998      -9.10580678E-09
   14.0100002      -8.80091999E-09
   14.0699997      -8.44675796E-09
   14.1300001      -8.04359601E-09
   14.1899996      -7.59504104E-09
   14.2500000      -7.10811365E-09
   14.3100004      -6.59294619E-09
   14.3699999      -6.06211659E-09
   14.4300003      -5.52960611E-09
   14.4899998      -5.00946973E-09
   14.5500002      -4.51440529E-09
   14.6099997      -4.05450251E-09
   14.6700001      -3.63641051E-09
   14.7299995      -3.26305805E-09
   14.7900000      -2.93393332E-09
   14.8500004      -2.64585309E-09
   14.9099998      -2.39416575E-09
   14.9700003      -2.17427676E-09
   15.0299997      -1.98328642E-09
   15.0900002      -1.82133864E-09
   15.1499996      -1.69217296E-09
   15.2100000      -1.60251623E-09
   15.2700005      -1.56032365E-09
   15.3299999      -1.57241153E-09
   15.3900003      -1.64233649E-09
   15.4499998      -1.76931580E-09
   15.5100002      -1.94848426E-09
   15.5699997      -2.17213691E-09
   15.6300001      -2.43116904E-09
   15.6899996      -2.71598521E-09
   15.7500000      -3.01662295E-09
   15.8100004      -3.32244321E-09
   15.8699999      -3.62203667E-09
   15.9300003      -3.90380128E-09
   15.9899998      -4.15708490E-09
   16.0499992      -4.37327197E-09
   16.1100006      -4.54610438E-09
   16.1700001      -4.67092454E-09
   16.2299995      -4.74325335E-09
   16.2900009      -4.75756767E-09
   16.3500004      -4.70710715E-09
   16.4099998      -4.58494043E-09
   16.4699993      -4.38575443E-09
   16.5300007      -4.10737178E-09
   16.5900002      -3.75114118E-09
   16.6499996      -3.32100480E-09
   16.7099991      -2.82177970E-09
   16.7700005      -2.25759855E-09
   16.8299999      -1.63126634E-09
   16.8899994      -9.44694212E-10
   16.9500008      -1.99959244E-10
   17.0100002       5.99721328E-10
   17.0699997       1.44960965E-09
   17.1299992       2.34369524E-09
   17.1900005       3.27520810E-09
   17.2500000       4.23696767E-09
   17.3099995       5.22137444E-09
   17.3700008       6.22020035E-09
   17.4300003       7.22450633E-09
   17.4899998       8.22488566E-09
   17.5499992       9.21196808E-09
   17.6100006       1.01768709E-08
   17.6700001       1.11113181E-08
   17.7299995       1.20074075E-08
   17.7900009       1.28573054E-08
   17.8500004       1.36533194E-08
   17.9099998       1.43886068E-08
   17.9699993       1.50584292E-08
   18.0300007       1.56614757E-08
   18.0900002       1.62006888E-08
   18.1499996       1.66831491E-08
   18.2099991       1.71189605E-08
   18.2700005       1.75194437E-08
   18.3299999       1.78951609E-08
   18.3899994       1.82542390E-08
   18.4500008       1.86013622E-08
   18.5100002       1.89375786E-08
   18.5699997       1.92608578E-08
   18.6299992       1.95672367E-08
   18.6900005       1.98522265E-08
   18.7500000       2.01120756E-08
   18.8099995       2.03445154E-08
   18.8700008       2.05487556E-08
   18.9300003       2.07248672E-08
   18.9899998       2.08728608E-08
   19.0499992       2.09920028E-08
   19.1100006       2.10806661E-08
   19.1700001       2.11367652E-08
   19.2299995       2.11583995E-08
   19.2900009       2.11442561E-08
   19.3500004       2.10935482E-08
   19.4099998       2.10055617E-08
   19.4699993       2.08793072E-08
   19.5300007       2.07136885E-08
   19.5900002       2.05083559E-08
   19.6499996       2.02648494E-08
   19.7099991       1.99873753E-08
   19.7700005       1.96826395E-08
   19.8299999       1.93585716E-08
   19.8899994       1.90224583E-08
   19.9500008       1.86792519E-08
   20.0100002       1.83307627E-08
   20.0699997       1.79759780E-08
   20.1299992       1.76120931E-08
   20.1900005       1.72356511E-08
   20.2500000       1.68432770E-08
   20.3099995       1.64318816E-08
   20.3700008       1.59986993E-08
   20.4300003       1.55415254E-08
   20.4899998       1.50592552E-08
   20.5499992       1.45524437E-08
   20.6100006       1.40233576E-08
   20.6700001       1.34751827E-08
   20.7299995       1.29105526E-08
   20.7900009       1.23300765E-08
   20.8500004       1.17316281E-08
   20.9099998       1.11108589E-08
   20.9699993       1.04627320E-08
   21.0300007       9.78334214E-09
   21.0900002       9.07119357E-09
   21.1499996       8.32746316E-09
   21.2099991       7.55540874E-09
   21.2700005       6.75950895E-09
   21.3299999       5.94491034E-09
   21.3899994       5.11739939E-09
   21.4500008       4.28360769E-09
   21.5100002       3.45096818E-09
   21.5699997       2.62709632E-09
   21.6299992       1.81877402E-09
   21.6900005       1.03107933E-09
   21.7500000       2.67245309E-10
   21.8099995      -4.70559702E-10
   21.8700008      -1.17991872E-09
   21.9300003      -1.85708937E-09
   21.9899998      -2.49686671E-09
   22.0499992      -3.09359471E-09
   22.1100006      -3.64287356E-09
   22.1700001      -4.14308543E-09
   22.2299995      -4.59588012E-09
   22.2900009      -5.00526243E-09
   22.3500004      -5.37560529E-09
   22.4099998      -5.70943381E-09
   22.4699993      -6.00596861E-09
   22.5300007      -6.26108587E-09
   22.5900002      -6.46871978E-09
   22.6499996      -6.62312916E-09
   22.7099991      -6.72103795E-09
   22.7700005      -6.76273348E-09
   22.8299999      -6.75162415E-09
   22.8899994      -6.69244660E-09
   22.9500008      -6.58891963E-09
   23.0100002      -6.44190701E-09
   23.0699997      -6.24893604E-09
   23.1299992      -6.00529892E-09
   23.1900005      -5.70619241E-09
   23.2500000      -5.34885336E-09
   23.3099995      -4.93366592E-09
   23.3700008      -4.46375470E-09
   23.4300003      -3.94335808E-09
   23.4899998      -3.37590156E-09
   23.5499992      -2.76280532E-09
   23.6100006      -2.10362350E-09
   23.6700001      -1.39741074E-09
   23.7299995      -6.44605869E-10
   23.7900009       1.51430687E-10
   23.8500004       9.83819803E-10
   23.9099998       1.84257432E-09
   23.9699993       2.71565748E-09
   24.0300007       3.59018260E-09
   24.0900002       4.45338166E-09
   24.1499996       5.29319388E-09
   24.2099991       6.09849549E-09
   24.2700005       6.85903467E-09
   24.3299999       7.56514140E-09
   24.3899994       8.20735124E-09
   24.4500008       8.77619488E-09
   24.5100002       9.26246457E-09
   24.5699997       9.65807967E-09
   24.6299992       9.95736738E-09
   24.6900005       1.01581685E-08
   24.7500000       1.02621129E-08
   24.8099995       1.02737294E-08
   24.8700008       1.01986464E-08
   24.9300003       1.00416742E-08
   24.9899998       9.80566917E-09
   25.0499992       9.49162260E-09
   25.1100006       9.09969344E-09
   25.1700001       8.63035954E-09
   25.2299995       8.08487854E-09
   25.2900009       7.46482609E-09
   25.3500004       6.77123158E-09
   25.4099998       6.00421002E-09
   25.4699993       5.16371212E-09
   25.5300007       4.25124558E-09
   25.5900002       3.27162453E-09
   25.6499996       2.23360641E-09
   25.7099991       1.14879484E-09
   25.7700005       2.91729939E-11
   25.8299999      -1.11553244E-09
   25.8899994      -2.27931940E-09
   25.9500008      -3.45949402E-09
   26.0100002      -4.65466732E-09
   26.0699997      -5.86227156E-09
   26.1299992      -7.07683423E-09
   26.1900005      -8.28971025E-09
   26.2500000      -9.49016510E-09
   26.3099995      -1.06670779E-08
   26.3700008      -1.18104344E-08
   26.4300003      -1.29121016E-08
   26.4899998      -1.39658605E-08
   26.5499992      -1.49669575E-08
   26.6100006      -1.59114837E-08
   26.6700001      -1.67957381E-08
   26.7299995      -1.76155961E-08
   26.7900009      -1.83659967E-08
   26.8500004      -1.90406659E-08
   26.9099998      -1.96322372E-08
   26.9699993      -2.01327239E-08
   27.0300007      -2.05341824E-08
   27.0900002      -2.08291819E-08
   27.1499996      -2.10109388E-08
   27.2099991      -2.10732161E-08
   27.2700005      -2.10103810E-08
   27.3299999      -2.08179713E-08
   27.3899994      -2.04937827E-08
   27.4500008      -2.00391010E-08
   27.5100002      -1.94594456E-08
   27.5699997      -1.87642470E-08
   27.6299992      -1.79654460E-08
   27.6900005      -1.70754610E-08
   27.7500000      -1.61053091E-08
   27.8099995      -1.50635291E-08
   27.8700008      -1.39562015E-08
   27.9300003      -1.27878854E-08
   27.9899998      -1.15630145E-08
   28.0499992      -1.02872599E-08
   28.1100006      -8.96848906E-09
   28.1700001      -7.61710606E-09
   28.2299995      -6.24568264E-09
   28.2900009      -4.86794471E-09
   28.3500004      -3.49734219E-09
   28.4099998      -2.14562523E-09
   28.4699993      -8.21924917E-10
   28.5300007       4.67343164E-10
   28.5900002       1.71784609E-09
   28.6499996       2.92647262E-09
   28.7099991       4.09088186E-09
   28.7700005       5.20980592E-09
   28.8299999       6.28384722E-09
   28.8899994       7.31597094E-09
   28.9500008       8.31085512E-09
   29.0100002       9.27279409E-09
   29.0699997       1.02027515E-08
   29.1299992       1.10958362E-08
   29.1900005       1.19404717E-08
   29.2500000       1.27197897E-08
   29.3099995       1.34146898E-08
   29.3700008       1.40071137E-08
   29.4300003       1.44821160E-08
   29.4899998       1.48279780E-08
   29.5499992       1.50348196E-08
   29.6100006       1.50929704E-08
   29.6700001       1.49924482E-08
   29.7299995       1.47242663E-08
   29.7900009       1.42831791E-08
   29.8500004       1.36706682E-08
   29.9099998       1.28968161E-08
   29.9699993       1.19801546E-08
   30.0300007       1.09454525E-08
   30.0900002       9.82026549E-09
   30.1499996       8.63143423E-09
   30.2099991       7.40266204E-09
   30.2700005       6.15376150E-09
   30.3299999       4.90144281E-09
   30.3899994       3.66092201E-09
   30.4500008       2.44729992E-09
   30.5100002       1.27581778E-09
   30.5699997       1.60620642E-10
   30.6299992      -8.87586504E-10
   30.6900005      -1.86400029E-09
   30.7500000      -2.77112511E-09
   30.8099995      -3.61835717E-09
   30.8700008      -4.41976988E-09
   30.9300003      -5.19093213E-09
   30.9899998      -5.94595795E-09
   31.0499992      -6.69573019E-09
   31.1100006      -7.44751016E-09
   31.1700001      -8.20538570E-09
   31.2299995      -8.97069530E-09
   31.2900009      -9.74179670E-09
   31.3500004      -1.05132099E-08
   31.4099998      -1.12747180E-08
   31.4699993      -1.20111565E-08
   31.5300007      -1.27032491E-08
   31.5900002      -1.33292692E-08
   31.6499996      -1.38668943E-08
   31.7099991      -1.42946783E-08
   31.7700005      -1.45929819E-08
   31.8299999      -1.47446801E-08
   31.8899994      -1.47361217E-08
   31.9500008      -1.45585988E-08
   32.0099983      -1.42100847E-08
   32.0699997      -1.36965852E-08
   32.1300011      -1.30324000E-08
   32.1899986      -1.22389405E-08
   32.2500000      -1.13422702E-08
   32.3100014      -1.03700497E-08
   32.3699989      -9.34874489E-09
   32.4300003      -8.30186675E-09
   32.4900017      -7.24961424E-09
   32.5499992      -6.20980423E-09
   32.6100006      -5.19945020E-09
   32.6699982      -4.23602398E-09
   32.7299995      -3.33746941E-09
   32.7900009      -2.52049137E-09
   32.8499985      -1.79752058E-09
   32.9099998      -1.17361632E-09
   32.9700012      -6.44955145E-10
   33.0299988      -2.00095815E-10
   33.0900002       1.76033438E-10
   33.1500015       4.96911179E-10
   33.2099991       7.70258413E-10
   33.2700005       9.96829619E-10
   33.3300018       1.17255039E-09
   33.3899994       1.29259881E-09
   33.4500008       1.35499323E-09
   33.5099983       1.36165978E-09
   33.5699997       1.31657740E-09
   33.6300011       1.22245569E-09
   33.6899986       1.07830178E-09
   33.7500000       8.79615158E-10
   33.8100014       6.21194873E-10
   33.8699989       3.00813874E-10
   33.9300003      -7.85587290E-11
   33.9900017      -5.09361442E-10
   34.0499992      -9.82418036E-10
   34.1100006      -1.49035473E-09
   34.1699982      -2.02933959E-09
   34.2299995      -2.59823363E-09
   34.2900009      -3.19596194E-09
   34.3499985      -3.81899223E-09
   34.4099998      -4.46055548E-09
   34.4700012      -5.11192377E-09
   34.5299988      -5.76465498E-09
   34.5900002      -6.41218456E-09
   34.6500015      -7.04982916E-09
   34.7099991      -7.67356134E-09
   34.7700005      -8.27884161E-09
   34.8300018      -8.86068019E-09
   34.8899994      -9.41505274E-09
   34.9500008      -9.94060922E-09
   35.0099983      -1.04392148E-08
   35.0699997      -1.09145573E-08
   35.1300011      -1.13693570E-08
   35.1899986      -1.18027037E-08
   35.2500000      -1.22090293E-08
   35.3100014      -1.25792461E-08
   35.3699989      -1.29032287E-08
   35.4300003      -1.31722073E-08
   35.4900017      -1.33798927E-08
   35.5499992      -1.35221976E-08
   35.6100006      -1.35963747E-08
   35.6699982      -1.36005562E-08
   35.7299995      -1.35341480E-08
   35.7900009      -1.33986395E-08
   35.8499985      -1.31980089E-08
   35.9099998      -1.29382061E-08
   35.9700012      -1.26260007E-08
   36.0299988      -1.22680701E-08
   36.0900002      -1.18710455E-08
   36.1500015      -1.14425092E-08
   36.2099991      -1.09920499E-08
   36.2700005      -1.05312425E-08
   36.3300018      -1.00720081E-08
   36.3899994      -9.62390789E-09
   36.4500008      -9.19169807E-09
   36.5099983      -8.77449224E-09
   36.5699997      -8.36697822E-09
   36.6300011      -7.96201860E-09
   36.6899986      -7.55328688E-09
   36.7500000      -7.13679382E-09
   36.8100014      -6.71098599E-09
   36.8699989      -6.27598462E-09
   36.9300003      -5.83284665E-09
   36.9900017      -5.38341194E-09
   37.0499992      -4.93064034E-09
   37.1100006      -4.47891280E-09
   37.1699982      -4.03382794E-09
   37.2299995      -3.60150132E-09
   37.2900009      -3.18773585E-09
   37.3499985      -2.79746981E-09
   37.4099998      -2.43457254E-09
   37.4700012      -2.10168527E-09
   37.5299988      -1.79980086E-09
   37.5900002      -1.52764745E-09
   37.6500015      -1.28139321E-09
   37.7099991      -1.05526210E-09
   37.7700005      -8.43164205E-10
   37.8300018      -6.40662967E-10
   37.8899994      -4.46114395E-10
   37.9500008      -2.60075683E-10
   38.0099983      -8.30570682E-11
   38.0699997       8.71915318E-11
   38.1300011       2.57178556E-10
   38.1899986       4.36810310E-10
   38.2500000       6.36344477E-10
   38.3100014       8.62637239E-10
   38.3699989       1.11663179E-09
   38.4300003       1.39336276E-09
   38.4900017       1.68435799E-09
   38.5499992       1.98104910E-09
   38.6100006       2.27740760E-09
   38.6699982       2.57067767E-09
   38.7299995       2.86027158E-09
   38.7900009       3.14587134E-09
   38.8499985       3.42599105E-09
   38.9099998       3.69768638E-09
   38.9700012       3.95729138E-09
   39.0299988       4.20150581E-09
   39.0900002       4.42819870E-09
   39.1500015       4.63671856E-09
   39.2099991       4.82788254E-09
   39.2700005       5.00389019E-09
   39.3300018       5.16815080E-09
   39.3899994       5.32475752E-09
   39.4500008       5.47740386E-09
   39.5099983       5.62790925E-09
   39.5699997       5.77499470E-09
   39.6300011       5.91405991E-09
   39.6899986       6.03835382E-09
   39.7500000       6.14122042E-09
   39.8100014       6.21850615E-09
   39.8699989       6.27009733E-09
   39.9300003       6.30000940E-09
   39.9900017       6.31516572E-09
   40.0499992       6.32356878E-09
   40.1100006       6.33265529E-09
   40.1699982       6.34832986E-09
   40.2299995       6.37466790E-09
   40.2900009       6.41406528E-09
   40.3499985       6.46759002E-09
   40.4099998       6.53551524E-09
   40.4700012       6.61808919E-09
   40.5299988       6.71647093E-09
   40.5900002       6.83350754E-09
   40.6500015       6.97386460E-09
   40.7099991       7.14320958E-09
   40.7700005       7.34659400E-09
   40.8300018       7.58665486E-09
   40.8899994       7.86247423E-09
   40.9500008       8.16968004E-09
   41.0099983       8.50188808E-09
   41.0699997       8.85294416E-09
   41.1300011       9.21920584E-09
   41.1899986       9.60102486E-09
   41.2500000       1.00029363E-08
   41.3100014       1.04324434E-08
   41.3699989       1.08975993E-08
   41.4300003       1.14039809E-08
   41.4900017       1.19518777E-08
   41.5499992       1.25346951E-08
   41.6100006       1.31393598E-08
   41.6699982       1.37489637E-08
   41.7299995       1.43469716E-08
   41.7900009       1.49215449E-08
   41.8499985       1.54682898E-08
   41.9099998       1.59902562E-08
   41.9700012       1.64952247E-08
   42.0299988       1.69915229E-08
   42.0900002       1.74842292E-08
   42.1500015       1.79733277E-08
   42.2099991       1.84542905E-08
   42.2700005       1.89203799E-08
   42.3300018       1.93652809E-08
   42.3899994       1.97848173E-08
   42.4500008       2.01773176E-08
   42.5099983       2.05428883E-08
   42.5699997       2.08823305E-08
   42.6300011       2.11961240E-08
   42.6899986       2.14835687E-08
   42.7500000       2.17419416E-08
   42.8100014       2.19657448E-08
   42.8699989       2.21465353E-08
   42.9300003       2.22739409E-08
   42.9900017       2.23381811E-08
   43.0499992       2.23334151E-08
   43.1100006       2.22606431E-08
   43.1699982       2.21285621E-08
   43.2299995       2.19516441E-08
   43.2900009       2.17458442E-08
   43.3499985       2.15235847E-08
   43.4099998       2.12899440E-08
   43.4700012       2.10415294E-08
   43.5299988       2.07682707E-08
   43.5900002       2.04573105E-08
   43.6500015       2.00975254E-08
   43.7099991       1.96832524E-08
   43.7700005       1.92162322E-08
   43.8300018       1.87053448E-08
   43.8899994       1.81642044E-08
   43.9500008       1.76071460E-08
   44.0099983       1.70446626E-08
   44.0699997       1.64797473E-08
   44.1300011       1.59066946E-08
   44.1899986       1.53132245E-08
   44.2500000       1.46855319E-08
   44.3100014       1.40144456E-08
   44.3699989       1.33001281E-08
   44.4300003       1.25531123E-08
   44.4900017       1.17910837E-08
   44.5499992       1.10327321E-08
   44.6100006       1.02913793E-08
   44.6699982       9.57111190E-09
   44.7299995       8.86689477E-09
   44.7900009       8.16827761E-09
   44.8499985       7.46485096E-09
   44.9099998       6.75115208E-09
   44.9700012       6.02938943E-09
   45.0299988       5.30942890E-09
   45.0900002       4.60651917E-09
   45.1500015       3.93772392E-09
   45.2099991       3.31808092E-09
   45.2700005       2.75739809E-09
   45.3300018       2.25848829E-09
   45.3899994       1.81745230E-09
   45.4500008       1.42614642E-09
   45.5099983       1.07620202E-09
   45.5699997       7.63159480E-10
   45.6300011       4.88980689E-10
   45.6899986       2.61739519E-10
   45.7500000       9.25348131E-11
   45.8100014      -8.99661335E-12
   45.8699989      -3.85308035E-11
   45.9300003       1.34888791E-12
   45.9900017       1.02193289E-10
   46.0499992       2.52433963E-10
   46.1100006       4.40289583E-10
   46.1699982       6.55639765E-10
   46.2299995       8.90625906E-10
   46.2900009       1.13955456E-09
   46.3499985       1.39882406E-09
   46.4099998       1.66706826E-09
   46.4700012       1.94506411E-09
   46.5299988       2.23478658E-09
   46.5900002       2.53754262E-09
   46.6500015       2.85197621E-09
   46.7099991       3.17325499E-09
   46.7700005       3.49435525E-09
   46.8300018       3.80924536E-09
   46.8899994       4.11652445E-09
   46.9500008       4.42156578E-09
   47.0099983       4.73581796E-09
   47.0699997       5.07329423E-09
   47.1300011       5.44570389E-09
   47.1899986       5.85827431E-09
   47.2500000       6.30785957E-09
   47.3100014       6.78377088E-09
   47.3699989       7.27059124E-09
   47.4300003       7.75164555E-09
   47.4900017       8.21192714E-09
   47.5499992       8.63983729E-09
   47.6100006       9.02759290E-09
   47.6699982       9.37050526E-09
   47.7299995       9.66537872E-09
   47.7900009       9.90844651E-09
   47.8499985       1.00934745E-08
   47.9099998       1.02108642E-08
   47.9700012       1.02484181E-08
   48.0299988       1.01938715E-08
   48.0900002       1.00384216E-08
   48.1500015       9.77988357E-09
   48.2099991       9.42412637E-09
   48.2700005       8.98417518E-09
   48.3300018       8.47742943E-09
   48.3899994       7.92224242E-09
   48.4500008       7.33518091E-09
   48.5099983       6.72966527E-09
   48.5699997       6.11587847E-09
   48.6300011       5.50128210E-09
   48.6899986       4.89113550E-09
   48.7500000       4.28889368E-09
   48.8100014       3.69676378E-09
   48.8699989       3.11668535E-09
   48.9300003       2.55156785E-09
   48.9900017       2.00611416E-09
   49.0499992       1.48649537E-09
   49.1100006       9.98680805E-10
   49.1699982       5.46093892E-10
   49.2299995       1.27882385E-10
   49.2900009      -2.61020205E-10
   49.3499985      -6.27752017E-10
   49.4099998      -9.78191972E-10
   49.4700012      -1.31409594E-09
   49.5299988      -1.63221325E-09
   49.5900002      -1.92589433E-09
   49.6500015      -2.18838614E-09
   49.7099991      -2.41613685E-09
   49.7700005      -2.61045496E-09
   49.8300018      -2.77675571E-09
   49.8899994      -2.92186031E-09
   49.9500008      -3.05073189E-09
   50.0099983      -3.16418802E-09
   50.0699997      -3.25855032E-09
   50.1300011      -3.32719385E-09
   50.1899986      -3.36310046E-09
   50.2500000      -3.36116091E-09
   50.3100014      -3.31922467E-09
   50.3699989      -3.23758464E-09
   50.4300003      -3.11735993E-09
   50.4900017      -2.95876035E-09
   50.5499992      -2.76022782E-09
   50.6100006      -2.51897903E-09