  -2.400000      0.0000000E+00
  -2.340000      0.0000000E+00
  -2.280000      0.0000000E+00
  -2.220000      0.0000000E+00
  -2.160000      0.0000000E+00
  -2.100000     -1.0933424E-19
  -2.040000     -7.8930985E-19
  -1.980000     -2.7853119E-18
  -1.920000     -6.0182282E-18
  -1.860000     -7.4865388E-18
  -1.800000     -1.0994971E-20
  -1.740000      2.5197794E-17
  -1.680000      7.0641979E-17
  -1.620000      1.2201965E-16
  -1.560000      1.4208802E-16
  -1.500000      7.6674958E-17
  -1.440000     -1.2340365E-16
  -1.380000     -4.6732364E-16
  -1.320000     -8.8508426E-16
  -1.260000     -1.1990626E-15
  -1.200000     -1.1293682E-15
  -1.140000     -3.6400134E-16
  -1.080000      1.2823585E-15
  -1.020000      3.6403782E-15
 -0.9600000      5.9906003E-15
 -0.9000000      7.0806762E-15
 -0.8400000      5.5242210E-15
 -0.7800000      5.7491657E-16
 -0.7200000     -7.0427990E-15
 -0.6600000     -1.4833466E-14
 -0.6000000     -1.9300335E-14
 -0.5400000     -1.7793514E-14
 -0.4800000     -1.0585738E-14
 -0.4200000     -1.6724022E-15
 -0.3600000      2.9910199E-15
 -0.3000000     -2.7554561E-16
 -0.2400000     -8.2803603E-15
 -0.1800000     -9.4894617E-15
 -0.1200000      1.1491496E-14
 -5.9999999E-02  6.3779731E-14
  0.0000000E+00  1.3902601E-13
  5.9999999E-02  2.0658066E-13
  0.1200000      2.2110449E-13
  0.1800000      1.4269505E-13
  0.2400000     -3.8549432E-14
  0.3000000     -2.8699056E-13
  0.3600000     -5.2657374E-13
  0.4200000     -6.6847163E-13
  0.4800000     -6.4981603E-13
  0.5400000     -4.6320597E-13
  0.6000000     -1.5899112E-13
  0.6600000      1.8338986E-13
  0.7200000      4.9953097E-13
  0.7800000      7.7180493E-13
  0.8400000      1.0249330E-12
  0.9000000      1.2824993E-12
  0.9600000      1.5087342E-12
   1.020000      1.5766064E-12
   1.080000      1.2963683E-12
   1.140000      5.0780430E-13
   1.200000     -8.0071719E-13
   1.260000     -2.4097089E-12
   1.320000     -3.8802126E-12
   1.380000     -4.6776263E-12
   1.440000     -4.3696631E-12
   1.500000     -2.8169613E-12
   1.560000     -2.6888485E-13
   1.620000      2.6852361E-12
   1.680000      5.2947633E-12
   1.740000      6.8825540E-12
   1.800000      7.0385199E-12
   1.860000      5.6983840E-12
   1.920000      3.0926453E-12
   1.980000     -3.8650962E-13
   2.040000     -4.3178243E-12
   2.100000     -8.3106317E-12
   2.160000     -1.1967001E-11
   2.220000     -1.4782044E-11
   2.280000     -1.6059466E-11
   2.340000     -1.4922376E-11
   2.400000     -1.0463282E-11
   2.460000     -2.0202178E-12
   2.520000      1.0486931E-11
   2.580000      2.6254403E-11
   2.640000      4.3419289E-11
   2.700000      5.9076397E-11
   2.760000      6.9512923E-11
   2.820000      7.0643734E-11
   2.880000      5.8589612E-11
   2.940000      3.0305619E-11
   3.000000     -1.5858323E-11
   3.060000     -7.9784464E-11
   3.120000     -1.5948989E-10
   3.180000     -2.5132499E-10
   3.240000     -3.5040129E-10
   3.300000     -4.5111059E-10
   3.360000     -5.4758142E-10
   3.420000     -6.3397088E-10
   3.480000     -7.0459577E-10
   3.540000     -7.5401196E-10
   3.600000     -7.7718976E-10
   3.660000     -7.6987355E-10
   3.720000     -7.2907702E-10
   3.780000     -6.5352418E-10
   3.840000     -5.4379218E-10
   3.900000     -4.0199691E-10
   3.960000     -2.3106521E-10
   4.020000     -3.3855627E-11
   4.080000      1.8750171E-10
   4.140000      4.3175205E-10
   4.200000      6.9810063E-10
   4.260000      9.8547392E-10
   4.320000      1.2918742E-09
   4.380000      1.6141982E-09
   4.440000      1.9486444E-09
   4.500000      2.2915034E-09
   4.560000      2.6399165E-09
   4.620000      2.9921907E-09
   4.680000      3.3475140E-09
   4.740000      3.7052401E-09
   4.800000      4.0641503E-09
   4.860000      4.4221045E-09
   4.920000      4.7762456E-09
   4.980000      5.1235958E-09
   5.040000      5.4616476E-09
   5.100000      5.7885314E-09
   5.160000      6.1026095E-09
   5.220000      6.4016641E-09
   5.280000      6.6821078E-09
   5.340000      6.9386843E-09
   5.400000      7.1648811E-09
   5.460000      7.3539645E-09
   5.520000      7.5002466E-09
   5.580000      7.6001010E-09
   5.640000      7.6524191E-09
   5.700000      7.6584392E-09
   5.760000      7.6211828E-09
   5.820000      7.5448590E-09
   5.880000      7.4345405E-09
   5.940000      7.2962658E-09
   6.000000      7.1374235E-09
   6.060000      6.9672073E-09
   6.120000      6.7968049E-09
   6.180000      6.6390862E-09
   6.240000      6.5077077E-09
   6.300000      6.4156875E-09
   6.360000      6.3736927E-09
   6.420000      6.3883685E-09
   6.480000      6.4611014E-09
   6.540000      6.5875501E-09
   6.600000      6.7581816E-09
   6.660000      6.9597470E-09
   6.720000      7.1774351E-09
   6.780000      7.3971589E-09
   6.840000      7.6073787E-09
   6.900000      7.7999696E-09
   6.960000      7.9699500E-09
   7.020000      8.1142657E-09
   7.080000      8.2301357E-09
   7.140000      8.3136156E-09
   7.200000      8.3588771E-09
   7.260000      8.3584215E-09
   7.320000      8.3040765E-09
   7.380000      8.1883504E-09
   7.440000      8.0056974E-09
   7.500000      7.7533278E-09
   7.560000      7.4314537E-09
   7.620000      7.0430142E-09
   7.680000      6.5930470E-09
   7.740000      6.0878329E-09
   7.800000      5.5339475E-09
   7.860000      4.9373359E-09
   7.920000      4.3026134E-09
   7.980000      3.6328018E-09
   8.040000      2.9296583E-09
   8.100000      2.1945372E-09
   8.160000      1.4294890E-09
   8.220000      6.3812894E-10
   8.280000     -1.7410523E-10
   8.340000     -1.0004015E-09
   8.400000     -1.8334230E-09
   8.460000     -2.6660152E-09
   8.520000     -3.4912873E-09
   8.580000     -4.3019530E-09
   8.640000     -5.0893090E-09
   8.700000     -5.8425544E-09
   8.760000     -6.5490995E-09
   8.820000     -7.1960851E-09
   8.880000     -7.7727291E-09
   8.940000     -8.2726599E-09
   9.000000     -8.6953369E-09
   9.060000     -9.0459773E-09
   9.120000     -9.3340029E-09
   9.180000     -9.5705373E-09
   9.240000     -9.7657846E-09
   9.300000     -9.9270521E-09
   9.360000     -1.0057936E-08
   9.420000     -1.0158796E-08
   9.480000     -1.0228325E-08
   9.540000     -1.0265728E-08
   9.600000     -1.0272837E-08
   9.660000     -1.0255409E-08
   9.720000     -1.0223021E-08
   9.780000     -1.0187373E-08
   9.840000     -1.0159388E-08
   9.900000     -1.0146098E-08
   9.960000     -1.0148556E-08
   10.02000     -1.0161749E-08
   10.08000     -1.0176763E-08
   10.14000     -1.0184521E-08
   10.20000     -1.0179702E-08
   10.26000     -1.0163352E-08
   10.32000     -1.0143183E-08
   10.38000     -1.0131504E-08
   10.44000     -1.0141548E-08
   10.50000     -1.0183507E-08
   10.56000     -1.0261495E-08
   10.62000     -1.0372217E-08
   10.68000     -1.0505522E-08
   10.74000     -1.0646499E-08
   10.80000     -1.0778474E-08
   10.86000     -1.0886199E-08
   10.92000     -1.0958511E-08
   10.98000     -1.0989931E-08
   11.04000     -1.0980877E-08
   11.10000     -1.0936586E-08
   11.16000     -1.0865171E-08
   11.22000     -1.0775534E-08
   11.28000     -1.0675781E-08
   11.34000     -1.0572521E-08
   11.40000     -1.0470896E-08
   11.46000     -1.0374919E-08
   11.52000     -1.0287579E-08
   11.58000     -1.0210536E-08
   11.64000     -1.0143573E-08
   11.70000     -1.0084260E-08
   11.76000     -1.0028199E-08
   11.82000     -9.9698889E-09
   11.88000     -9.9038360E-09
   11.94000     -9.8253725E-09
   12.00000     -9.7307993E-09
   12.06000     -9.6168664E-09
   12.12000     -9.4799750E-09
   12.18000     -9.3156336E-09
   12.24000     -9.1185210E-09
   12.30000     -8.8831911E-09
   12.36000     -8.6051299E-09
   12.42000     -8.2818135E-09
   12.48000     -7.9134530E-09
   12.54000     -7.5033588E-09
   12.60000     -7.0579236E-09
   12.66000     -6.5862982E-09
   12.72000     -6.0997576E-09
   12.78000     -5.6107798E-09
   12.84000     -5.1319069E-09
   12.90000     -4.6745532E-09
   12.96000     -4.2479713E-09
   13.02000     -3.8585326E-09
   13.08000     -3.5093997E-09
   13.14000     -3.2005902E-09
   13.20000     -2.9294640E-09
   13.26000     -2.6916871E-09
   13.32000     -2.4826881E-09
   13.38000     -2.2994184E-09
   13.44000     -2.1419442E-09
   13.50000     -2.0142212E-09
   13.56000     -1.9235544E-09
   13.62000     -1.8787072E-09
   13.68000     -1.8872675E-09
   13.74000     -1.9532713E-09
   13.80000     -2.0760211E-09
   13.86000     -2.2504505E-09
   13.92000     -2.4686206E-09
   13.98000     -2.7214102E-09
   14.04000     -2.9995164E-09
   14.10000     -3.2934433E-09
   14.16000     -3.5928909E-09
   14.22000     -3.8863459E-09
   14.28000     -4.1615045E-09
   14.34000     -4.4065263E-09
   14.40000     -4.6114734E-09
   14.46000     -4.7690785E-09
   14.52000     -4.8743538E-09
   14.58000     -4.9232973E-09
   14.64000     -4.9115290E-09
   14.70000     -4.8337578E-09
   14.76000     -4.6844653E-09
   14.82000     -4.4594120E-09
   14.88000     -4.1570609E-09
   14.94000     -3.7790455E-09
   15.00000     -3.3294063E-09
   15.06000     -2.8130280E-09
   15.12000     -2.2341449E-09
   15.18000     -1.5956615E-09
   15.24000     -8.9950575E-10
   15.30000     -1.4762369E-10
   15.36000      6.5703715E-10
   15.42000      1.5100626E-09
   15.48000      2.4057050E-09
   15.54000      3.3373144E-09
   15.60000      4.2976795E-09
   15.66000      5.2790936E-09
   15.72000      6.2732646E-09
   15.78000      7.2713320E-09
   15.84000      8.2641565E-09
   15.90000      9.2427879E-09
   15.96000      1.0198846E-08
   16.02000      1.1124540E-08
   16.08000      1.2012387E-08
   16.14000      1.2854898E-08
   16.20000      1.3644686E-08
   16.26000      1.4375217E-08
   16.32000      1.5042097E-08
   16.38000      1.5644410E-08
   16.44000      1.6185489E-08
   16.50000      1.6672717E-08
   16.56000      1.7116296E-08
   16.62000      1.7527340E-08
   16.68000      1.7915806E-08
   16.74000      1.8288890E-08
   16.80000      1.8650161E-08
   16.86000      1.8999593E-08
   16.92000      1.9334397E-08
   16.98000      1.9650324E-08
   17.04000      1.9943073E-08
   17.10000      2.0209391E-08
   17.16000      2.0447555E-08
   17.22000      2.0657115E-08
   17.28000      2.0838156E-08
   17.34000      2.0990413E-08
   17.40000      2.1112752E-08
   17.46000      2.1203212E-08
   17.52000      2.1259520E-08
   17.58000      2.1279737E-08
   17.64000      2.1262558E-08
   17.70000      2.1207150E-08
   17.76000      2.1112683E-08
   17.82000      2.0978046E-08
   17.88000      2.0802116E-08
   17.94000      2.0584670E-08
   18.00000      2.0327512E-08
   18.06000      2.0035168E-08
   18.12000      1.9714589E-08
   18.18000      1.9373843E-08
   18.24000      1.9020254E-08
   18.30000      1.8658776E-08
   18.36000      1.8291262E-08
   18.42000      1.7916804E-08
   18.48000      1.7532759E-08
   18.54000      1.7135898E-08
   18.60000      1.6723167E-08
   18.66000      1.6291963E-08
   18.72000      1.5840170E-08
   18.78000      1.5366304E-08
   18.84000      1.4869859E-08
   18.90000      1.4351610E-08
   18.96000      1.3813503E-08
   19.02000      1.3257911E-08
   19.08000      1.2686420E-08
   19.14000      1.2098721E-08
   19.20000      1.1492228E-08
   19.26000      1.0862687E-08
   19.32000      1.0205581E-08
   19.38000      9.5176391E-09
   19.44000      8.7978256E-09
   19.50000      8.0474605E-09
   19.56000      7.2696964E-09
   19.62000      6.4688521E-09
   19.68000      5.6500724E-09
   19.74000      4.8193987E-09
   19.80000      3.9839310E-09
   19.86000      3.1516392E-09
   19.92000      2.3305862E-09
   19.98000      1.5278032E-09
   20.04000      7.4838730E-10
   20.10000     -4.6170606E-12
   20.16000     -7.2939516E-10
   20.22000     -1.4239980E-09
   20.28000     -2.0852107E-09
   20.34000     -2.7083504E-09
   20.40000     -3.2882177E-09
   20.46000     -3.8207686E-09
   20.52000     -4.3046438E-09
   20.58000     -4.7416875E-09
   20.64000     -5.1360618E-09
   20.70000     -5.4922431E-09
   20.76000     -5.8127609E-09
   20.82000     -6.0966983E-09
   20.88000     -6.3396577E-09
   20.94000     -6.5352670E-09
   21.00000     -6.6775798E-09
   21.06000     -6.7633321E-09
   21.12000     -6.7930408E-09
   21.18000     -6.7704575E-09
   21.24000     -6.7006130E-09
   21.30000     -6.5873600E-09
   21.36000     -6.4315486E-09
   21.42000     -6.2306760E-09
   21.48000     -5.9801364E-09
   21.54000     -5.6754219E-09
   21.60000     -5.3141664E-09
   21.66000     -4.8970410E-09
   21.72000     -4.4271338E-09
   21.78000     -3.9082315E-09
   21.84000     -3.3429834E-09
   21.90000     -2.7319300E-09
   21.96000     -2.0738897E-09
   22.02000     -1.3674801E-09
   22.08000     -6.1302396E-10
   22.14000      1.8600363E-10
   22.20000      1.0224992E-09
   22.26000      1.8862318E-09
   22.32000      2.7649389E-09
   22.38000      3.6455305E-09
   22.44000      4.5150519E-09
   22.50000      5.3612612E-09
   22.56000      6.1728396E-09
   22.62000      6.9392696E-09
   22.68000      7.6504927E-09
   22.74000      8.2965066E-09
   22.80000      8.8672154E-09
   22.86000      9.3528190E-09
   22.92000      9.7448503E-09
   22.98000      1.0037564E-08
   23.04000      1.0229074E-08
   23.10000      1.0321568E-08
   23.16000      1.0320311E-08
   23.22000      1.0231748E-08
   23.28000      1.0061540E-08
   23.34000      9.8133750E-09
   23.40000      9.4889820E-09
   23.46000      9.0890424E-09
   23.52000      8.6142320E-09
   23.58000      8.0656628E-09
   23.64000      7.4445352E-09
   23.70000      6.7514958E-09
   23.76000      5.9864980E-09
   23.82000      5.1496611E-09
   23.88000      4.2429087E-09
   23.94000      3.2714926E-09
   24.00000      2.2443754E-09
   24.06000      1.1729895E-09
   24.12000      6.8817056E-11
   24.18000     -1.0590723E-09
   24.24000     -2.2052919E-09
   24.30000     -3.3676231E-09
   24.36000     -4.5450497E-09
   24.42000     -5.7353993E-09
   24.48000     -6.9337158E-09
   24.54000     -8.1320026E-09
   24.60000     -9.3202033E-09
   24.66000     -1.0487754E-08
   24.72000     -1.1624953E-08
   24.78000     -1.2723707E-08
   24.84000     -1.3777607E-08
   24.90000     -1.4781592E-08
   24.96000     -1.5731421E-08
   25.02000     -1.6623106E-08
   25.08000     -1.7452326E-08
   25.14000     -1.8213910E-08
   25.20000     -1.8901533E-08
   25.26000     -1.9507782E-08
   25.32000     -2.0024597E-08
   25.38000     -2.0443899E-08
   25.44000     -2.0758105E-08
   25.50000     -2.0960339E-08
   25.56000     -2.1044402E-08
   25.62000     -2.1004800E-08
   25.68000     -2.0837177E-08
   25.74000     -2.0539238E-08
   25.80000     -2.0111862E-08
   25.86000     -1.9559858E-08
   25.92000     -1.8891875E-08
   25.98000     -1.8119286E-08
   26.04000     -1.7254365E-08
   26.10000     -1.6308396E-08
   26.16000     -1.5290375E-08
   26.22000     -1.4206685E-08
   26.28000     -1.3061833E-08
   26.34000     -1.1859842E-08
   26.40000     -1.0605834E-08
   26.46000     -9.3072536E-09
   26.52000     -7.9743288E-09
   26.58000     -6.6196164E-09
   26.64000     -5.2567497E-09
   26.70000     -3.8988222E-09
   26.76000     -2.5569962E-09
   26.82000     -1.2398512E-09
   26.88000      4.6364568E-11
   26.94000      1.2968885E-09
   27.00000      2.5076645E-09
   27.06000      3.6752479E-09
   27.12000      4.7975464E-09
   27.18000      5.8748970E-09
   27.24000      6.9105637E-09
   27.30000      7.9098434E-09
   27.36000      8.8776542E-09
   27.42000      9.8153814E-09
   27.48000      1.0718337E-08
   27.54000      1.1575048E-08
   27.60000      1.2368773E-08
   27.66000      1.3080563E-08
   27.72000      1.3692481E-08
   27.78000      1.4189535E-08
   27.84000      1.4559770E-08
   27.90000      1.4792932E-08
   27.96000      1.4878910E-08
   28.02000      1.4807268E-08
   28.08000      1.4568476E-08
   28.14000      1.4156549E-08
   28.20000      1.3571989E-08
   28.26000      1.2823746E-08
   28.32000      1.1929271E-08
   28.38000      1.0912565E-08
   28.44000      9.8008703E-09
   28.50000      8.6211491E-09
   28.56000      7.3974911E-09
   28.62000      6.1501377E-09
   28.68000      4.8961430E-09
   28.74000      3.6509729E-09
   28.80000      2.4300011E-09
   28.86000      1.2489035E-09
   28.92000      1.2251537E-10
   28.98000     -9.3750541E-10
   29.04000     -1.9251967E-09
   29.10000     -2.8417975E-09
   29.16000     -3.6954462E-09
   29.22000     -4.4991069E-09
   29.28000     -5.2675406E-09
   29.34000     -6.0145120E-09
   29.40000     -6.7510983E-09
   29.46000     -7.4852844E-09
   29.52000     -8.2222718E-09
   29.58000     -8.9646894E-09
   29.64000     -9.7121315E-09
   29.70000     -1.0460139E-08
   29.76000     -1.1199198E-08
   29.82000     -1.1914500E-08
   29.88000     -1.2586789E-08
   29.94000     -1.3194058E-08
   30.00000     -1.3713513E-08
   30.06000     -1.4123187E-08
   30.12000     -1.4403074E-08
   30.18000     -1.4535980E-08
   30.24000     -1.4508514E-08
   30.30000     -1.4312441E-08
   30.36000     -1.3946192E-08
   30.42000     -1.3416001E-08
   30.48000     -1.2736086E-08
   30.54000     -1.1927545E-08
   30.60000     -1.1016105E-08
   30.66000     -1.0029263E-08
   30.72000     -8.9935739E-09
   30.78000     -7.9328339E-09
   30.84000     -6.8675670E-09
   30.90000     -5.8158180E-09
   30.96000     -4.7947091E-09
   31.02000     -3.8217731E-09
   31.08000     -2.9150773E-09
   31.14000     -2.0915818E-09
   31.20000     -1.3640878E-09
   31.26000     -7.3806172E-10
   31.32000     -2.1004733E-10
   31.38000      2.3110529E-10
   31.44000      6.0024719E-10
   31.50000      9.1070362E-10
   31.56000      1.1701410E-09
   31.62000      1.3794238E-09
   31.68000      1.5348054E-09
   31.74000      1.6319996E-09
   31.80000      1.6696857E-09
   31.86000      1.6504504E-09
   31.92000      1.5788333E-09
   31.98000      1.4579657E-09
   32.04000      1.2871630E-09
   32.10000      1.0621537E-09
   32.16000      7.7789336E-10
   32.22000      4.3221482E-10
   32.28000      2.8039451E-11
   32.34000     -4.2717496E-10
   32.40000     -9.2429220E-10
   32.46000     -1.4557839E-09
   32.52000     -2.0174233E-09
   32.58000     -2.6075349E-09
   32.64000     -3.2245842E-09
   32.70000     -3.8648875E-09
   32.76000     -4.5219508E-09
   32.82000     -5.1876756E-09
   32.88000     -5.8543792E-09
   32.94000     -6.5161259E-09
   33.00000     -7.1685649E-09
   33.06000     -7.8077003E-09
   33.12000     -8.4288407E-09
   33.18000     -9.0268113E-09
   33.24000     -9.5974482E-09
   33.30000     -1.0139297E-08
   33.36000     -1.0654087E-08
   33.42000     -1.1145274E-08
   33.48000     -1.1615251E-08
   33.54000     -1.2062721E-08
   33.60000     -1.2481739E-08
   33.66000     -1.2862895E-08
   33.72000     -1.3195835E-08
   33.78000     -1.3471699E-08
   33.84000     -1.3684284E-08
   33.90000     -1.3829769E-08
   33.96000     -1.3905791E-08
   34.02000     -1.3910828E-08
   34.08000     -1.3844415E-08
   34.14000     -1.3707870E-08
   34.20000     -1.3504785E-08
   34.26000     -1.3240768E-08
   34.32000     -1.2922620E-08
   34.38000     -1.2557594E-08
   34.44000     -1.2153360E-08
   34.50000     -1.1718665E-08
   34.56000     -1.1263940E-08
   34.62000     -1.0800984E-08
   34.68000     -1.0341318E-08
   34.74000     -9.8937516E-09
   34.80000     -9.4623189E-09
   34.86000     -9.0457064E-09
   34.92000     -8.6384828E-09
   34.98000     -8.2335072E-09
   35.04000     -7.8243367E-09
   35.10000     -7.4066473E-09
   35.16000     -6.9784392E-09
   35.22000     -6.5394770E-09
   35.28000     -6.0907057E-09
   35.34000     -5.6340821E-09
   35.40000     -5.1727471E-09
   35.46000     -4.7111341E-09
   35.52000     -4.2547277E-09
   35.58000     -3.8094896E-09
   35.64000     -3.3812650E-09
   35.70000     -2.9753928E-09
   35.76000     -2.5964610E-09
   35.82000     -2.2479216E-09
   35.88000     -1.9313857E-09
   35.94000     -1.6458461E-09
   36.00000     -1.3874328E-09
   36.06000     -1.1502386E-09
   36.12000     -9.2816810E-10
   36.18000     -7.1698580E-10
   36.24000     -5.1535809E-10
   36.30000     -3.2407144E-10
   36.36000     -1.4364271E-10
   36.42000      2.8396830E-11
   36.48000      1.9887952E-10
   36.54000      3.7800321E-10
   36.60000      5.7624056E-10
   36.66000      8.0066082E-10
   36.72000      1.0525412E-09
   36.78000      1.3274332E-09
   36.84000      1.6174961E-09
   36.90000      1.9147373E-09
   36.96000      2.2134825E-09
   37.02000      2.5110478E-09
   37.08000      2.8067066E-09
   37.14000      3.0999299E-09
   37.20000      3.3890488E-09
   37.26000      3.6709795E-09
   37.32000      3.9418908E-09
   37.38000      4.1982391E-09
   37.44000      4.4376072E-09
   37.50000      4.6591424E-09
   37.56000      4.8636921E-09
   37.62000      5.0537823E-09
   37.68000      5.2333644E-09
   37.74000      5.4070917E-09
   37.80000      5.5790212E-09
   37.86000      5.7510103E-09
   37.92000      5.9214784E-09
   37.98000      6.0852803E-09
   38.04000      6.2349899E-09
   38.10000      6.3632446E-09
   38.16000      6.4652195E-09
   38.22000      6.5402332E-09
   38.28000      6.5919203E-09
   38.34000      6.6270984E-09
   38.40000      6.6539756E-09
   38.46000      6.6804517E-09
   38.52000      6.7129950E-09
   38.58000      6.7561641E-09
   38.64000      6.8126118E-09
   38.70000      6.8834045E-09
   38.76000      6.9686150E-09
   38.82000      7.0682078E-09
   38.88000      7.1830657E-09
   38.94000      7.3158017E-09
   39.00000      7.4708852E-09
   39.06000      7.6538083E-09
   39.12000      7.8694464E-09
   39.18000      8.1202485E-09
   39.24000      8.4050722E-09
   39.30000      8.7192467E-09
   39.36000      9.0559968E-09
   39.42000      9.4087396E-09
   39.48000      9.7734638E-09
   39.54000      1.0150353E-08
   39.60000      1.0544065E-08
   39.66000      1.0962495E-08
   39.72000      1.1414219E-08
   39.78000      1.1905282E-08
   39.84000      1.2436268E-08
   39.90000      1.3000679E-08
   39.96000      1.3585429E-08
   40.02000      1.4173585E-08
   40.08000      1.4748618E-08
   40.14000      1.5298710E-08
   40.20000      1.5819410E-08
   40.26000      1.6313633E-08
   40.32000      1.6789000E-08
   40.38000      1.7253766E-08
   40.44000      1.7713093E-08
   40.50000      1.8167189E-08
   40.56000      1.8611765E-08
   40.62000      1.9040218E-08
   40.68000      1.9446238E-08
   40.74000      1.9825658E-08
   40.80000      2.0177030E-08
   40.86000      2.0501075E-08
   40.92000      2.0799563E-08
   40.98000      2.1074083E-08
   41.04000      2.1324853E-08
   41.10000      2.1549639E-08
   41.16000      2.1742963E-08
   41.22000      2.1896085E-08
   41.28000      2.1998313E-08
   41.34000      2.2039684E-08
   41.40000      2.2014399E-08
   41.46000      2.1923576E-08
   41.52000      2.1775957E-08
   41.58000      2.1585864E-08
   41.64000      2.1368898E-08
   41.70000      2.1137012E-08
   41.76000      2.0894806E-08
   41.82000      2.0638472E-08
   41.88000      2.0357652E-08
   41.94000      2.0039325E-08
   42.00000      1.9672346E-08
   42.06000      1.9251118E-08
   42.12000      1.8777454E-08
   42.18000      1.8260186E-08
   42.24000      1.7712674E-08
   42.30000      1.7148800E-08
   42.36000      1.6578573E-08
   42.42000      1.6004750E-08
   42.48000      1.5421826E-08
   42.54000      1.4818205E-08
   42.60000      1.4181006E-08
   42.66000      1.3501853E-08
   42.72000      1.2781237E-08
   42.78000      1.2029453E-08
   42.84000      1.1263588E-08
   42.90000      1.0501769E-08
   42.96000      9.7571640E-09
   43.02000      9.0342711E-09
   43.08000      8.3288887E-09
   43.14000      7.6314688E-09
   43.20000      6.9321975E-09
   43.26000      6.2256942E-09
   43.32000      5.5137312E-09
   43.38000      4.8054041E-09
   43.44000      4.1150932E-09
   43.50000      3.4590895E-09
   43.56000      2.8518681E-09
   43.62000      2.3029254E-09
   43.68000      1.8150083E-09
   43.74000      1.3843412E-09
   43.80000      1.0029876E-09
   43.86000      6.6270966E-10
   43.92000      3.5895106E-10
   43.98000      9.3287281E-11
   44.04000     -1.2679127E-10
   44.10000     -2.9072827E-10
   44.16000     -3.8910744E-10
   44.22000     -4.1732898E-10
   44.28000     -3.7725090E-10
   44.34000     -2.7642352E-10
   44.40000     -1.2573032E-10
   44.46000      6.3203678E-11
   44.52000      2.7980454E-10
   44.58000      5.1535221E-10
   44.64000      7.6328643E-10
   44.70000      1.0195569E-09
   44.76000      1.2830351E-09
   44.82000      1.5554297E-09
   44.88000      1.8401071E-09
   44.94000      2.1398561E-09
   45.00000      2.4545450E-09
   45.06000      2.7800853E-09
   45.12000      3.1096745E-09
   45.18000      3.4370768E-09
   45.24000      3.7604382E-09
   45.30000      4.0846166E-09
   45.36000      4.4206350E-09
   45.42000      4.7822870E-09
   45.48000      5.1813283E-09
   45.54000      5.6232943E-09
   45.60000      6.1055210E-09
   45.66000      6.6178072E-09
   45.72000      7.1450157E-09
   45.78000      7.6703754E-09
   45.84000      8.1783629E-09
   45.90000      8.6565679E-09
   45.96000      9.0963646E-09
   46.02000      9.4924451E-09
   46.08000      9.8413677E-09
   46.14000      1.0139420E-08
   46.20000      1.0380497E-08
   46.26000      1.0554920E-08
   46.32000      1.0650061E-08
   46.38000      1.0652920E-08
   46.44000      1.0553877E-08
   46.50000      1.0350114E-08
   46.56000      1.0047213E-08
   46.62000      9.6582475E-09
   46.68000      9.2008339E-09
   46.74000      8.6934984E-09
   46.80000      8.1527674E-09
   46.86000      7.5917592E-09
   46.92000      7.0201187E-09
   46.98000      6.4445955E-09
   47.04000      5.8696279E-09
   47.10000      5.2978022E-09
   47.16000      4.7304960E-09
   47.22000      4.1689745E-09
   47.28000      3.6157368E-09
   47.34000      3.0753819E-09
   47.40000      2.5542397E-09
   47.46000      2.0585811E-09
   47.52000      1.5921467E-09
   47.58000      1.1543497E-09
   47.64000      7.4034667E-10
   47.70000      3.4323977E-10
   47.76000     -4.2536859E-11
   47.82000     -4.1833115E-10
   47.88000     -7.8039536E-10
   47.94000     -1.1214969E-09
   48.00000     -1.4342071E-09
   48.06000     -1.7142172E-09
   48.12000     -1.9620745E-09
   48.18000     -2.1825821E-09
   48.24000     -2.3822719E-09
   48.30000     -2.5662255E-09
   48.36000     -2.7357068E-09
   48.42000     -2.8875629E-09
   48.48000     -3.0154657E-09
   48.54000     -3.1122527E-09
   48.60000     -3.1722165E-09
   48.66000     -3.1923360E-09
   48.72000     -3.1720220E-09
   48.78000     -3.1117098E-09
   48.84000     -3.0111937E-09
   48.90000     -2.8687230E-09
   48.96000     -2.6814426E-09
   49.02000     -2.4469926E-09
   49.08000     -2.1653472E-09
   49.14000     -1.8397350E-09
   49.20000     -1.4759199E-09
   49.26000     -1.0800520E-09
   49.32000     -6.5620576E-10
   49.38000     -2.0503138E-10
   49.44000      2.7559172E-10
   49.50000      7.8813389E-10
   49.56000      1.3325198E-09
   49.62000      1.9043869E-09
   49.68000      2.4955071E-09
   49.74000      3.0961487E-09
   49.80000      3.6980707E-09
   49.86000      4.2965511E-09
   49.92000      4.8905071E-09
   49.98000      5.4809375E-09
   50.04000      6.0688428E-09
   50.10000      6.6539099E-09
   50.16000      7.2345676E-09
   50.22000      7.8089952E-09
   50.28000      8.3760705E-09
   50.34000      8.9353369E-09
   50.40000      9.4858130E-09
   50.46000      1.0024226E-08
   50.52000      1.0543611E-08
   50.58000      1.1032824E-08
   50.64000      1.1476830E-08
   50.70000      1.1857071E-08
   50.76000      1.2151200E-08
   50.82000      1.2331953E-08
   50.88000      1.2365648E-08
   50.94000      1.2211077E-08
   51.00000      1.1819435E-08
   51.06000      1.1135263E-08
   51.12000      1.0097850E-08
   51.18000      8.6422878E-09
   51.24000      6.6996835E-09
   51.30000      4.1965356E-09
   51.36000      1.0537839E-09
   51.42000     -2.8138656E-09
   51.48000     -7.4979134E-09
   51.54000     -1.3095288E-08
   51.60000     -1.9706984E-08
   51.66000     -2.7436379E-08
   51.72000     -3.6387345E-08
   51.78000     -4.6662318E-08
   51.84000     -5.8360445E-08
   51.90000     -7.1576046E-08
   51.96000     -8.6397677E-08
   52.02000     -1.0290761E-07
   52.08000     -1.2118153E-07
   52.14000     -1.4128746E-07
   52.20000     -1.6328362E-07
   52.26000     -1.8721494E-07
   52.32000     -2.1310879E-07
   52.38000     -2.4097079E-07
   52.44000     -2.7078156E-07
   52.50000     -3.0249464E-07
   52.56000     -3.3603501E-07
   52.62000     -3.7129772E-07
   52.68000     -4.0814587E-07
   52.74000     -4.4640845E-07
   52.80000     -4.8587845E-07
   52.86000     -5.2631225E-07
   52.92000     -5.6743033E-07
   52.98000     -6.0891881E-07
   53.04000     -6.5043110E-07
   53.10000     -6.9158858E-07
   53.16000     -7.3198061E-07
   53.22000     -7.7116471E-07
   53.28000     -8.0866744E-07
   53.34000     -8.4398755E-07
   53.40000     -8.7660055E-07
   53.46000     -9.0596365E-07
   53.52000     -9.3152073E-07
   53.58000     -9.5270667E-07
   53.64000     -9.6895224E-07
   53.70000     -9.7968837E-07
   53.76000     -9.8435135E-07
   53.82000     -9.8238786E-07
   53.88000     -9.7325960E-07
   53.94000     -9.5644793E-07
   54.00000     -9.3145923E-07
   54.06000     -8.9783174E-07
   54.12000     -8.5514557E-07
   54.18000     -8.0303352E-07
   54.24000     -7.4119077E-07
   54.30000     -6.6938088E-07
   54.36000     -5.8743763E-07
   54.42000     -4.9526295E-07
   54.48000     -3.9282449E-07
   54.54000     -2.8015532E-07
   54.60000     -1.5735668E-07
   54.66000     -2.4603255E-08
   54.72000      1.1785185E-07
   54.78000      2.6967456E-07
   54.84000      4.3045094E-07
   54.90000      5.9969074E-07
   54.96000      7.7683291E-07
   55.02000      9.6125063E-07
   55.08000      1.1522569E-06
   55.14000      1.3491094E-06
   55.20000      1.5510174E-06
   55.26000      1.7571473E-06
   55.32000      1.9666290E-06
   55.38000      2.1785625E-06
   55.44000      2.3920225E-06
   55.50000      2.6060659E-06
   55.56000      2.8197403E-06