  -2.400000      0.0000000E+00
  -2.340000      0.0000000E+00
  -2.280000      0.0000000E+00
  -2.220000      0.0000000E+00
  -2.160000      0.0000000E+00
  -2.100000      0.0000000E+00
  -2.040000      0.0000000E+00
  -1.980000     -1.0708432E-25
  -1.920000     -8.5092168E-25
  -1.860000     -2.8624559E-24
  -1.800000     -3.1720428E-24
  -1.740000      1.5276041E-23
  -1.680000      1.0102779E-22
  -1.620000      3.4841906E-22
  -1.560000      8.6998125E-22
  -1.500000      1.6210685E-21
  -1.440000      1.8954468E-21
  -1.380000     -5.8020212E-22
  -1.320000     -1.0373679E-20
  -1.260000     -3.2989553E-20
  -1.200000     -6.8392191E-20
  -1.140000     -9.7813261E-20
  -1.080000     -6.8950538E-20
  -1.020000      1.0378580E-19
 -0.9600000      4.9849636E-19
 -0.9000000      1.0876485E-18
 -0.8400000      1.6051451E-18
 -0.7800000      1.4666157E-18
 -0.7200000     -1.1474695E-19
 -0.6600000     -3.6957598E-18
 -0.6000000     -8.8854583E-18
 -0.5400000     -1.3643935E-17
 -0.4800000     -1.4163643E-17
 -0.4200000     -5.9360425E-18
 -0.3600000      1.3786444E-17
 -0.3000000      4.2760648E-17
 -0.2400000      7.1355319E-17
 -0.1800000      8.3092337E-17
 -0.1200000      5.9644090E-17
 -5.9999999E-02 -1.0099341E-17
  0.0000000E+00 -1.1994257E-16
  5.9999999E-02 -2.4041773E-16
  0.1200000     -3.2202859E-16
  0.1800000     -3.0975172E-16
  0.2400000     -1.6552613E-16
  0.3000000      1.0969007E-16
  0.3600000      4.6458121E-16
  0.4200000      8.0375745E-16
  0.4800000      1.0108864E-15
  0.5400000      9.7998737E-16
  0.6000000      6.4324487E-16
  0.6600000     -1.1599627E-17
  0.7200000     -9.3155921E-16
  0.7800000     -1.9869945E-15
  0.8400000     -2.9537273E-15
  0.9000000     -3.5016727E-15
  0.9600000     -3.2238754E-15
   1.020000     -1.7445616E-15
   1.080000      1.0839389E-15
   1.140000      4.9474962E-15
   1.200000      8.9197406E-15
   1.260000      1.1541308E-14
   1.320000      1.1217739E-14
   1.380000      6.8795237E-15
   1.440000     -1.3313072E-15
   1.500000     -1.1696463E-14
   1.560000     -2.1176869E-14
   1.620000     -2.6345915E-14
   1.680000     -2.4709515E-14
   1.740000     -1.5842093E-14
   1.800000     -1.7424366E-15
   1.860000      1.3876987E-14
   1.920000      2.7113714E-14
   1.980000      3.5461543E-14
   2.040000      3.8566078E-14
   2.100000      3.7631417E-14
   2.160000      3.3731989E-14
   2.220000      2.6057464E-14
   2.280000      1.1409347E-14
   2.340000     -1.4217619E-14
   2.400000     -5.2278406E-14
   2.460000     -9.8107937E-14
   2.520000     -1.3933909E-13
   2.580000     -1.5801846E-13
   2.640000     -1.3655305E-13
   2.700000     -6.5622929E-14
   2.760000      4.9218228E-14
   2.820000      1.8552821E-13
   2.880000      3.0821859E-13
   2.940000      3.7916152E-13
   3.000000      3.6892681E-13
   3.060000      2.6642699E-13
   3.120000      8.3107275E-14
   3.180000     -1.4941309E-13
   3.240000     -3.8679685E-13
   3.300000     -5.8150414E-13
   3.360000     -6.9137274E-13
   3.420000     -6.8569483E-13
   3.480000     -5.4903890E-13
   3.540000     -2.8410689E-13
   3.600000      8.5452295E-14
   3.660000      5.1288726E-13
   3.720000      9.2912147E-13
   3.780000      1.2493082E-12
   3.840000      1.3867638E-12
   3.900000      1.2730623E-12
   3.960000      8.7981179E-13
   4.020000      2.3545301E-13
   4.080000     -5.6952717E-13
   4.140000     -1.3929887E-12
   4.200000     -2.0667949E-12
   4.260000     -2.4326871E-12
   4.320000     -2.3798470E-12
   4.380000     -1.8744787E-12
   4.440000     -9.7330347E-13
   4.500000      1.8331879E-13
   4.560000      1.3978386E-12
   4.620000      2.4556795E-12
   4.680000      3.1695336E-12
   4.740000      3.4168592E-12
   4.800000      3.1612584E-12
   4.860000      2.4527910E-12
   4.920000      1.4084297E-12
   4.980000      1.7987440E-13
   5.040000     -1.0802602E-12
   5.100000     -2.2430076E-12
   5.160000     -3.2118785E-12
   5.220000     -3.9166504E-12
   5.280000     -4.2998547E-12
   5.340000     -4.3072199E-12
   5.400000     -3.8912701E-12
   5.460000     -3.0300990E-12
   5.520000     -1.7540918E-12
   5.580000     -1.6678976E-13
   5.640000      1.5538382E-12
   5.700000      3.1795749E-12
   5.760000      4.4749001E-12
   5.820000      5.2403663E-12
   5.880000      5.3337139E-12
   5.940000      4.6521589E-12
   6.000000      3.0743481E-12
   6.060000      3.7816931E-13
   6.120000     -3.8369273E-12
   6.180000     -1.0192828E-11
   6.240000     -1.9520739E-11
   6.300000     -3.2791020E-11
   6.360000     -5.0997390E-11
   6.420000     -7.5016562E-11
   6.480000     -1.0546319E-10
   6.540000     -1.4255357E-10
   6.600000     -1.8598577E-10
   6.660000     -2.3484464E-10
   6.720000     -2.8754837E-10
   6.780000     -3.4186243E-10
   6.840000     -3.9500991E-10
   6.900000     -4.4389475E-10
   6.960000     -4.8542698E-10
   7.020000     -5.1690552E-10
   7.080000     -5.3638033E-10
   7.140000     -5.4290711E-10
   7.200000     -5.3661886E-10
   7.260000     -5.1857912E-10
   7.320000     -4.9043586E-10
   7.380000     -4.5394713E-10
   7.440000     -4.1048848E-10
   7.500000     -3.6066064E-10
   7.560000     -3.0409747E-10
   7.620000     -2.3953159E-10
   7.680000     -1.6511491E-10
   7.740000     -7.8934373E-11
   7.800000      2.0384406E-11
   7.860000      1.3311667E-10
   7.920000      2.5804600E-10
   7.980000      3.9233000E-10
   8.040000      5.3165633E-10
   8.100000      6.7065759E-10
   8.160000      8.0349949E-10
   8.220000      9.2452834E-10
   8.280000      1.0288717E-09
   8.340000      1.1129201E-09
   8.400000      1.1746644E-09
   8.460000      1.2139008E-09
   8.520000      1.2323275E-09
   8.580000      1.2335384E-09
   8.640000      1.2228797E-09
   8.700000      1.2071094E-09
   8.760000      1.1937998E-09
   8.820000      1.1904685E-09
   8.880000      1.2035045E-09
   8.940000      1.2370550E-09
   9.000000      1.2920942E-09
   9.060000      1.3659046E-09
   9.120000      1.4521326E-09
   9.180000      1.5414561E-09
   9.240000      1.6227576E-09
   9.300000      1.6845931E-09
   9.360000      1.7166893E-09
   9.420000      1.7112303E-09
   9.480000      1.6637720E-09
   9.540000      1.5737138E-09
   9.600000      1.4443243E-09
   9.660000      1.2823587E-09
   9.720000      1.0973038E-09
   9.780000      9.0030211E-10
   9.840000      7.0283213E-10
   9.900000      5.1530102E-10
   9.960000      3.4576952E-10
   10.02000      1.9906704E-10
   10.08000      7.6498190E-11
   10.14000     -2.3796815E-11
   10.20000     -1.0595771E-10
   10.26000     -1.7528334E-10
   10.32000     -2.3721694E-10
   10.38000     -2.9669617E-10
   10.44000     -3.5793857E-10
   10.50000     -4.2452966E-10
   10.56000     -4.9956311E-10
   10.62000     -5.8560828E-10
   10.68000     -6.8443584E-10
   10.74000     -7.9662849E-10
   10.80000     -9.2133162E-10
   10.86000     -1.0563812E-09
   10.92000     -1.1988828E-09
   10.98000     -1.3460876E-09
   11.04000     -1.4962307E-09
   11.10000     -1.6489622E-09
   11.16000     -1.8051355E-09
   11.22000     -1.9659663E-09
   11.28000     -2.1318305E-09
   11.34000     -2.3011326E-09
   11.40000     -2.4696869E-09
   11.46000     -2.6308964E-09
   11.52000     -2.7767724E-09
   11.58000     -2.8995646E-09
   11.64000     -2.9935576E-09
   11.70000     -3.0565135E-09
   11.76000     -3.0903018E-09
   11.82000     -3.1004885E-09
   11.88000     -3.0949532E-09
   11.94000     -3.0819240E-09
   12.00000     -3.0680150E-09
   12.06000     -3.0568463E-09
   12.12000     -3.0486429E-09
   12.18000     -3.0408562E-09
   12.24000     -3.0295240E-09
   12.30000     -3.0108684E-09
   12.36000     -2.9826177E-09
   12.42000     -2.9447085E-09
   12.48000     -2.8992631E-09
   12.54000     -2.8499567E-09
   12.60000     -2.8009950E-09
   12.66000     -2.7559401E-09
   12.72000     -2.7166147E-09
   12.78000     -2.6822888E-09
   12.84000     -2.6493847E-09
   12.90000     -2.6118894E-09
   12.96000     -2.5625371E-09
   13.02000     -2.4945805E-09
   13.08000     -2.4036928E-09
   13.14000     -2.2893689E-09
   13.20000     -2.1552702E-09
   13.26000     -2.0082824E-09
   13.32000     -1.8565282E-09
   13.38000     -1.7070121E-09
   13.44000     -1.5637479E-09
   13.50000     -1.4270425E-09
   13.56000     -1.2941679E-09
   13.62000     -1.1611053E-09
   13.68000     -1.0246529E-09
   13.74000     -8.8408181E-10
   13.80000     -7.4174666E-10
   13.86000     -6.0249161E-10
   13.92000     -4.7215226E-10
   13.98000     -3.5576694E-10
   14.04000     -2.5617181E-10
   14.10000     -1.7345919E-10
   14.16000     -1.0541766E-10
   14.22000     -4.8690978E-11
   14.28000     -1.3604000E-13
   14.34000      4.2174909E-11
   14.40000      7.8666039E-11
   14.46000      1.0869939E-10
   14.52000      1.3142637E-10
   14.58000      1.4655874E-10
   14.64000      1.5464358E-10
   14.70000      1.5671407E-10
   14.76000      1.5354042E-10
   14.82000      1.4493549E-10
   14.88000      1.2955315E-10
   14.94000      1.0535607E-10
   15.00000      7.0565304E-11
   15.06000      2.4632855E-11
   15.12000     -3.1246242E-11
   15.18000     -9.4331876E-11
   15.24000     -1.6112543E-10
   15.30000     -2.2831681E-10
   15.36000     -2.9337652E-10
   15.42000     -3.5445172E-10
   15.48000     -4.0956466E-10
   15.54000     -4.5545079E-10
   15.60000     -4.8656612E-10
   15.66000     -4.9476856E-10
   15.72000     -4.6997117E-10
   15.78000     -4.0176204E-10
   15.84000     -2.8168509E-10
   15.90000     -1.0565002E-10
   15.96000      1.2416675E-10
   16.02000      3.9851775E-10
   16.08000      7.0174710E-10
   16.14000      1.0139182E-09
   16.20000      1.3139689E-09
   16.26000      1.5830939E-09
   16.32000      1.8074250E-09
   16.38000      1.9792830E-09
   16.44000      2.0967523E-09
   16.50000      2.1619329E-09
   16.56000      2.1786735E-09
   16.62000      2.1507178E-09
   16.68000      2.0809281E-09
   16.74000      1.9717210E-09
   16.80000      1.8263127E-09
   16.86000      1.6500359E-09
   16.92000      1.4510092E-09
   16.98000      1.2397600E-09
   17.04000      1.0278568E-09
   17.10000      8.2601259E-10
   17.16000      6.4231304E-10
   17.22000      4.8117688E-10
   17.28000      3.4340020E-10
   17.34000      2.2727850E-10
   17.40000      1.3044676E-10
   17.46000      5.1824274E-11
   17.52000     -7.0221680E-12
   17.58000     -4.1637645E-11
   17.64000     -4.5745213E-11
   17.70000     -1.3335884E-11
   17.76000      5.8919314E-11
   17.82000      1.6982502E-10
   17.88000      3.1311329E-10
   17.94000      4.7844306E-10
   18.00000      6.5358841E-10
   18.06000      8.2698037E-10
   18.12000      9.8965003E-10
   18.18000      1.1359240E-09
   18.24000      1.2628070E-09
   18.30000      1.3685666E-09
   18.36000      1.4513436E-09
   18.42000      1.5085100E-09
   18.48000      1.5370667E-09
   18.54000      1.5348423E-09
   18.60000      1.5018874E-09
   18.66000      1.4414144E-09
   18.72000      1.3598852E-09
   18.78000      1.2662460E-09
   18.84000      1.1706425E-09
   18.90000      1.0830701E-09
   18.96000      1.0123208E-09
   19.02000      9.6536323E-10
   19.08000      9.4706532E-10
   19.14000      9.6005892E-10
   19.20000      1.0045699E-09
   19.26000      1.0781674E-09
   19.32000      1.1755401E-09
   19.38000      1.2885145E-09
   19.44000      1.4065458E-09
   19.50000      1.5178048E-09
   19.56000      1.6108073E-09
   19.62000      1.6763189E-09
   19.68000      1.7091050E-09
   19.74000      1.7090619E-09
   19.80000      1.6813696E-09
   19.86000      1.6355476E-09
   19.92000      1.5835903E-09
   19.98000      1.5375903E-09
   20.04000      1.5073848E-09
   20.10000      1.4987250E-09
   20.16000      1.5123244E-09
   20.22000      1.5439406E-09
   20.28000      1.5854432E-09
   20.34000      1.6266271E-09
   20.40000      1.6573815E-09
   20.46000      1.6697245E-09
   20.52000      1.6592183E-09
   20.58000      1.6254211E-09
   20.64000      1.5713034E-09
   20.70000      1.5018865E-09
   20.76000      1.4226035E-09
   20.82000      1.3379347E-09
   20.88000      1.2506899E-09
   20.94000      1.1619861E-09
   21.00000      1.0716682E-09
   21.06000      9.7879904E-10
   21.12000      8.8194174E-10
   21.18000      7.7920459E-10
   21.24000      6.6823785E-10
   21.30000      5.4643873E-10
   21.36000      4.1149345E-10
   21.42000      2.6215555E-10
   21.48000      9.8970832E-11
   21.54000     -7.5377288E-11
   21.60000     -2.5630259E-10
   21.66000     -4.3811774E-10
   21.72000     -6.1519972E-10
   21.78000     -7.8321766E-10
   21.84000     -9.4012031E-10
   21.90000     -1.0866509E-09
   21.96000     -1.2262511E-09
   22.02000     -1.3643449E-09
   22.08000     -1.5071276E-09
   22.14000     -1.6601294E-09
   22.20000     -1.8268991E-09
   22.26000     -2.0081357E-09
   22.32000     -2.2014446E-09
   22.38000     -2.4017146E-09
   22.44000     -2.6019613E-09
   22.50000     -2.7944531E-09
   22.56000     -2.9720000E-09
   22.62000     -3.1293261E-09
   22.68000     -3.2644007E-09
   22.74000     -3.3794250E-09
   22.80000     -3.4810421E-09
   22.86000     -3.5793781E-09
   22.92000     -3.6858623E-09
   22.98000     -3.8103014E-09
   23.04000     -3.9581107E-09
   23.10000     -4.1287032E-09
   23.16000     -4.3156181E-09
   23.22000     -4.5082960E-09
   23.28000     -4.6947304E-09
   23.34000     -4.8639972E-09
   23.40000     -5.0078772E-09
   23.46000     -5.1213780E-09
   23.52000     -5.2024753E-09
   23.58000     -5.2515738E-09
   23.64000     -5.2710165E-09
   23.70000     -5.2646256E-09
   23.76000     -5.2370726E-09
   23.82000     -5.1929856E-09
   23.88000     -5.1360201E-09
   23.94000     -5.0683338E-09
   24.00000     -4.9908171E-09
   24.06000     -4.9039928E-09
   24.12000     -4.8090452E-09
   24.18000     -4.7082436E-09
   24.24000     -4.6043351E-09
   24.30000     -4.4990962E-09
   24.36000     -4.3918358E-09
   24.42000     -4.2787769E-09
   24.48000     -4.1538404E-09
   24.54000     -4.0106332E-09
   24.60000     -3.8447845E-09
   24.66000     -3.6556020E-09
   24.72000     -3.4463763E-09
   24.78000     -3.2232998E-09
   24.84000     -2.9935707E-09
   24.90000     -2.7634688E-09
   24.96000     -2.5370419E-09
   25.02000     -2.3156714E-09
   25.08000     -2.0984472E-09
   25.14000     -1.8831046E-09
   25.20000     -1.6672276E-09
   25.26000     -1.4494469E-09
   25.32000     -1.2303460E-09
   25.38000     -1.0128144E-09
   25.44000     -8.0167661E-10
   25.50000     -6.0266081E-10
   25.56000     -4.2101467E-10
   25.62000     -2.6023855E-10
   25.68000     -1.2135086E-10
   25.74000     -2.8676644E-12
   25.80000      9.8599330E-11
   25.86000      1.8739038E-10
   25.92000      2.6775568E-10
   25.98000      3.4289163E-10
   26.04000      4.1416034E-10
   26.10000      4.8063015E-10
   26.16000      5.3914551E-10
   26.22000      5.8510252E-10
   26.28000      6.1388489E-10
   26.34000      6.2257255E-10
   26.40000      6.1127486E-10
   26.46000      5.8347999E-10
   26.52000      5.4519395E-10
   26.58000      5.0318999E-10
   26.64000      4.6309365E-10
   26.70000      4.2805312E-10
   26.76000      3.9838069E-10
   26.82000      3.7204048E-10
   26.88000      3.4552011E-10
   26.94000      3.1463970E-10
   27.00000      2.7515140E-10
   27.06000      2.2329916E-10
   27.12000      1.5657993E-10
   27.18000      7.4714582E-11
   27.24000     -1.9529127E-11
   27.30000     -1.2021291E-10
   27.36000     -2.1919522E-10
   27.42000     -3.0810210E-10
   27.48000     -3.8068584E-10
   27.54000     -4.3468232E-10
   27.60000     -4.7242954E-10
   27.66000     -5.0000598E-10
   27.72000     -5.2523769E-10
   27.78000     -5.5533400E-10
   27.84000     -5.9498761E-10
   27.90000     -6.4553773E-10
   27.96000     -7.0537665E-10
   28.02000     -7.7134737E-10
   28.08000     -8.4056051E-10
   28.14000     -9.1193281E-10
   28.20000     -9.8685404E-10
   28.26000     -1.0687097E-09
   28.32000     -1.1614322E-09
   28.38000     -1.2676645E-09
   28.44000     -1.3872977E-09
   28.50000     -1.5169845E-09
   28.56000     -1.6507931E-09
   28.62000     -1.7816524E-09
   28.68000     -1.9029445E-09
   28.74000     -2.0096400E-09
   28.80000     -2.0987190E-09
   28.86000     -2.1690094E-09
   28.92000     -2.2207876E-09
   28.98000     -2.2553963E-09
   29.04000     -2.2748969E-09
   29.10000     -2.2815985E-09
   29.16000     -2.2773778E-09
   29.22000     -2.2629514E-09
   29.28000     -2.2374989E-09
   29.34000     -2.1990090E-09
   29.40000     -2.1453783E-09
   29.46000     -2.0758366E-09
   29.52000     -1.9919970E-09
   29.58000     -1.8979438E-09
   29.64000     -1.7992505E-09
   29.70000     -1.7013696E-09
   29.76000     -1.6081362E-09
   29.82000     -1.5210121E-09
   29.88000     -1.4392659E-09
   29.94000     -1.3608239E-09
   30.00000     -1.2833052E-09
   30.06000     -1.2048332E-09
   30.12000     -1.1244720E-09
   30.18000     -1.0423441E-09
   30.24000     -9.5952857E-10
   30.30000     -8.7776064E-10
   30.36000     -7.9890455E-10
   30.42000     -7.2425405E-10
   30.48000     -6.5388739E-10
   30.54000     -5.8641386E-10
   30.60000     -5.1934890E-10
   30.66000     -4.5006363E-10
   30.72000     -3.7692482E-10
   30.78000     -3.0010144E-10
   30.84000     -2.2165314E-10
   30.90000     -1.4486032E-10
   30.96000     -7.3090985E-11
   31.02000     -8.6436691E-12
   31.08000      4.8074881E-11
   31.14000      9.8869572E-11
   31.20000      1.4756178E-10
   31.26000      1.9931952E-10
   31.32000      2.5957705E-10
   31.38000      3.3270270E-10
   31.44000      4.2075854E-10
   31.50000      5.2284488E-10
   31.56000      6.3545302E-10
   31.62000      7.5388240E-10
   31.68000      8.7424701E-10
   31.74000      9.9520847E-10
   31.80000      1.1185936E-09
   31.86000      1.2485440E-09
   31.92000      1.3895529E-09
   31.98000      1.5442633E-09
   32.04000      1.7119592E-09
   32.10000      1.8882558E-09
   32.16000      2.0658850E-09
   32.22000      2.2360598E-09
   32.28000      2.3898612E-09
   32.34000      2.5193743E-09
   32.40000      2.6185865E-09
   32.46000      2.6841493E-09
   32.52000      2.7159301E-09
   32.58000      2.7170752E-09
   32.64000      2.6933014E-09
   32.70000      2.6514420E-09
   32.76000      2.5976841E-09
   32.82000      2.5362037E-09
   32.88000      2.4687388E-09
   32.94000      2.3951729E-09
   33.00000      2.3146640E-09
   33.06000      2.2266102E-09
   33.12000      2.1309596E-09
   33.18000      2.0278517E-09
   33.24000      1.9170465E-09
   33.30000      1.7976918E-09
   33.36000      1.6687157E-09
   33.42000      1.5296666E-09
   33.48000      1.3814934E-09
   33.54000      1.2267652E-09
   33.60000      1.0691340E-09
   33.66000      9.1224611E-10
   33.72000      7.5857448E-10
   33.78000      6.0864547E-10
   33.84000      4.6094029E-10
   33.90000      3.1248565E-10
   33.96000      1.5993383E-10
   34.02000      8.0218042E-13
   34.08000     -1.6549677E-10
   34.14000     -3.3717215E-10
   34.20000     -5.1031301E-10
   34.26000     -6.7983708E-10
   34.32000     -8.4079160E-10
   34.38000     -9.8949293E-10
   34.44000     -1.1240509E-09
   34.50000     -1.2441456E-09
   34.56000     -1.3503311E-09
   34.62000     -1.4433937E-09
   34.68000     -1.5242122E-09
   34.74000     -1.5941735E-09
   34.80000     -1.6557612E-09
   34.86000     -1.7127347E-09
   34.92000     -1.7695292E-09
   34.98000     -1.8299899E-09
   35.04000     -1.8960171E-09
   35.10000     -1.9668140E-09
   35.16000     -2.0391384E-09
   35.22000     -2.1084301E-09
   35.28000     -2.1702675E-09
   35.34000     -2.2215214E-09
   35.40000     -2.2608488E-09
   35.46000     -2.2885589E-09
   35.52000     -2.3061653E-09
   35.58000     -2.3159350E-09
   35.64000     -2.3205804E-09
   35.70000     -2.3230482E-09
   35.76000     -2.3262989E-09
   35.82000     -2.3330373E-09
   35.88000     -2.3454152E-09
   35.94000     -2.3647295E-09
   36.00000     -2.3910778E-09
   36.06000     -2.4229339E-09
   36.12000     -2.4567401E-09
   36.18000     -2.4868121E-09
   36.24000     -2.5059297E-09
   36.30000     -2.5067883E-09
   36.36000     -2.4840059E-09
   36.42000     -2.4359248E-09
   36.48000     -2.3653142E-09
   36.54000     -2.2784794E-09
   36.60000     -2.1830378E-09
   36.66000     -2.0853248E-09
   36.72000     -1.9885897E-09
   36.78000     -1.8926978E-09
   36.84000     -1.7952436E-09
   36.90000     -1.6932800E-09
   36.96000     -1.5847151E-09
   37.02000     -1.4688597E-09
   37.08000     -1.3462598E-09
   37.14000     -1.2183705E-09
   37.20000     -1.0875199E-09
   37.26000     -9.5713959E-10
   37.32000     -8.3180562E-10
   37.38000     -7.1661177E-10
   37.44000     -6.1586125E-10
   37.50000     -5.3165183E-10
   37.56000     -4.6319437E-10
   37.62000     -4.0738493E-10
   37.68000     -3.6041689E-10
   37.74000     -3.1955771E-10
   37.80000     -2.8408434E-10
   37.86000     -2.5488195E-10
   37.92000     -2.3303509E-10
   37.98000     -2.1833067E-10
   38.04000     -2.0857968E-10
   38.10000     -2.0007861E-10
   38.16000     -1.8880261E-10
   38.22000     -1.7153867E-10
   38.28000     -1.4634977E-10
   38.34000     -1.1232929E-10
   38.40000     -6.9108962E-11
   38.46000     -1.6663646E-11
   38.52000      4.4412533E-11
   38.58000      1.1249151E-10
   38.64000      1.8491701E-10
   38.70000      2.5874147E-10
   38.76000      3.3194208E-10
   38.82000      4.0440176E-10
   38.88000      4.7793514E-10
   38.94000      5.5514032E-10
   39.00000      6.3756839E-10
   39.06000      7.2416662E-10
   39.12000      8.1087675E-10
   39.18000      8.9168839E-10
   39.24000      9.6070440E-10
   39.30000      1.0142838E-09
   39.36000      1.0523286E-09
   39.42000      1.0782156E-09
   39.48000      1.0974767E-09
   39.54000      1.1157918E-09
   39.60000      1.1370255E-09
   39.66000      1.1619217E-09
   39.72000      1.1878007E-09
   39.78000      1.2093051E-09
   39.84000      1.2199677E-09
   39.90000      1.2141517E-09
   39.96000      1.1887763E-09
   40.02000      1.1442551E-09
   40.08000      1.0843004E-09
   40.14000      1.0146416E-09
   40.20000      9.4113672E-10
   40.26000      8.6800950E-10
   40.32000      7.9687329E-10
   40.38000      7.2684692E-10
   40.44000      6.5557804E-10
   40.50000      5.8063726E-10
   40.56000      5.0068150E-10
   40.62000      4.1599829E-10
   40.68000      3.2838537E-10
   40.74000      2.4058483E-10
   40.80000      1.5556668E-10
   40.86000      7.5871830E-11
   40.92000      3.0974771E-12
   40.98000     -6.2449879E-11
   41.04000     -1.2187794E-10
   41.10000     -1.7750801E-10
   41.16000     -2.3228709E-10
   41.22000     -2.8890151E-10
   41.28000     -3.4887343E-10
   41.34000     -4.1202283E-10
   41.40000     -4.7658250E-10
   41.46000     -5.3998211E-10
   41.52000     -5.9999261E-10
   41.58000     -6.5572409E-10
   41.64000     -7.0801609E-10
   41.70000     -7.5903345E-10
   41.76000     -8.1124824E-10
   41.82000     -8.6626495E-10
   41.88000     -9.2399771E-10
   41.94000     -9.8252773E-10
   42.00000     -1.0386614E-09
   42.06000     -1.0889246E-09
   42.12000     -1.1306016E-09
   42.18000     -1.1624672E-09
   42.24000     -1.1850353E-09
   42.30000     -1.2003286E-09
   42.36000     -1.2113049E-09
   42.42000     -1.2211027E-09
   42.48000     -1.2322563E-09
   42.54000     -1.2459973E-09
   42.60000     -1.2617530E-09
   42.66000     -1.2769581E-09
   42.72000     -1.2872716E-09
   42.78000     -1.2872206E-09
   42.84000     -1.2711673E-09
   42.90000     -1.2343900E-09
   42.96000     -1.1740046E-09
   43.02000     -1.0894919E-09
   43.08000     -9.8271280E-10
   43.14000     -8.5742485E-10
   43.20000     -7.1844281E-10
   43.26000     -5.7065053E-10
   43.32000     -4.1809065E-10
   43.38000     -2.6334060E-10
   43.44000     -1.0732602E-10
   43.50000      5.0379159E-11
   43.56000      2.1086437E-10
   43.62000      3.7505665E-10
   43.68000      5.4308508E-10
   43.74000      7.1409723E-10
   43.80000      8.8657015E-10
   43.86000      1.0588813E-09
   43.92000      1.2297311E-09
   43.98000      1.3980714E-09
   44.04000      1.5624930E-09
   44.10000      1.7204225E-09
   44.16000      1.8677180E-09
   44.22000      1.9991453E-09
   44.28000      2.1097890E-09
   44.34000      2.1968962E-09
   44.40000      2.2613094E-09
   44.46000      2.3077305E-09
   44.52000      2.3435671E-09
   44.58000      2.3767648E-09
   44.64000      2.4134985E-09
   44.70000      2.4565954E-09
   44.76000      2.5051574E-09
   44.82000      2.5552713E-09
   44.88000      2.6012872E-09
   44.94000      2.6370950E-09
   45.00000      2.6570901E-09
   45.06000      2.6568432E-09
   45.12000      2.6336466E-09
   45.18000      2.5870039E-09
   45.24000      2.5188980E-09
   45.30000      2.4335345E-09
   45.36000      2.3363833E-09
   45.42000      2.2326734E-09
   45.48000      2.1258555E-09
   45.54000      2.0166717E-09
   45.60000      1.9032624E-09
   45.66000      1.7822976E-09
   45.72000      1.6506567E-09
   45.78000      1.5069800E-09
   45.84000      1.3525031E-09
   45.90000      1.1909330E-09
   45.96000      1.0275111E-09
   46.02000      8.6767010E-10
   46.08000      7.1575829E-10
   46.14000      5.7420563E-10
   46.20000      4.4331960E-10
   46.26000      3.2170530E-10
   46.32000      2.0712572E-10
   46.38000      9.7488177E-11
   46.44000     -8.4098579E-12
   46.50000     -1.1067100E-10
   46.56000     -2.0872289E-10
   46.62000     -3.0220651E-10
   46.68000     -3.9193324E-10
   46.74000     -4.8045673E-10
   46.80000     -5.7195459E-10
   46.86000     -6.7139944E-10
   46.92000     -7.8328710E-10
   46.98000     -9.1034907E-10
   47.04000     -1.0526520E-09
   47.10000     -1.2073396E-09
   47.16000     -1.3690818E-09
   47.22000     -1.5311398E-09
   47.28000     -1.6868434E-09
   47.34000     -1.8311757E-09
   47.40000     -1.9620761E-09
   47.46000     -2.0810442E-09
   47.52000     -2.1927464E-09
   47.58000     -2.3036137E-09
   47.64000     -2.4197955E-09
   47.70000     -2.5451454E-09
   47.76000     -2.6799520E-09
   47.82000     -2.8208706E-09
   47.88000     -2.9620293E-09
   47.94000     -3.0968221E-09
   48.00000     -3.2196861E-09
   48.06000     -3.3272534E-09
   48.12000     -3.4186287E-09
   48.18000     -3.4948999E-09
   48.24000     -3.5582466E-09
   48.30000     -3.6110250E-09
   48.36000     -3.6550867E-09
   48.42000     -3.6914511E-09
   48.48000     -3.7203352E-09
   48.54000     -3.7415120E-09
   48.60000     -3.7548982E-09
   48.66000     -3.7611847E-09
   48.72000     -3.7622478E-09
   48.78000     -3.7610857E-09
   48.84000     -3.7611643E-09
   48.90000     -3.7653316E-09
   48.96000     -3.7746561E-09
   49.02000     -3.7876386E-09
   49.08000     -3.8001025E-09
   49.14000     -3.8058006E-09
   49.20000     -3.7975356E-09
   49.26000     -3.7684584E-09
   49.32000     -3.7132590E-09
   49.38000     -3.6290688E-09
   49.44000     -3.5159706E-09
   49.50000     -3.3770355E-09
   49.56000     -3.2178040E-09
   49.62000     -3.0452141E-09
   49.68000     -2.8661544E-09
   49.74000     -2.6860461E-09
   49.80000     -2.5079288E-09
   49.86000     -2.3324065E-09
   49.92000     -2.1584436E-09
   49.98000     -1.9846234E-09
   50.04000     -1.8102850E-09
   50.10000     -1.6360536E-09
   50.16000     -1.4636335E-09
   50.22000     -1.2951297E-09
   50.28000     -1.1323565E-09
   50.34000     -9.7651054E-10
   50.40000     -8.2827817E-10
   50.46000     -6.8815414E-10
   50.52000     -5.5663657E-10
   50.58000     -4.3409945E-10
   50.64000     -3.2041070E-10
   50.70000     -2.1458296E-10
   50.76000     -1.1476650E-10
   50.82000     -1.8716636E-11
   50.88000      7.5401664E-11
   50.94000      1.6821194E-10
   51.00000      2.5869826E-10
   51.06000      3.4437239E-10
   51.12000      4.2201190E-10
   51.18000      4.8871324E-10
   51.24000      5.4288291E-10
   51.30000      5.8481547E-10
   51.36000      6.1666872E-10
   51.42000      6.4187544E-10
   51.48000      6.6424494E-10
   51.54000      6.8710609E-10
   51.60000      7.1278722E-10
   51.66000      7.4253476E-10
   51.72000      7.7674389E-10
   51.78000      8.1524348E-10
   51.84000      8.5741764E-10
   51.90000      9.0213403E-10
   51.96000      9.4765373E-10
   52.02000      9.9176733E-10
   52.08000      1.0322682E-09
   52.14000      1.0676191E-09
   52.20000      1.0974662E-09
   52.26000      1.1226700E-09
   52.32000      1.1447800E-09
   52.38000      1.1652376E-09
   52.44000      1.1847979E-09
   52.50000      1.2035870E-09
   52.56000      1.2218425E-09
   52.62000      1.2409499E-09
   52.68000      1.2641499E-09
   52.74000      1.2964008E-09
   52.80000      1.3432980E-09
   52.86000      1.4094544E-09
   52.92000      1.4970430E-09
   52.98000      1.6051720E-09
   53.04000      1.7303988E-09
   53.10000      1.8682114E-09
   53.16000      2.0149260E-09
   53.22000      2.1693258E-09
   53.28000      2.3335311E-09
   53.34000      2.5129101E-09
   53.40000      2.7152205E-09
   53.46000      2.9493838E-09
   53.52000      3.2243799E-09
   53.58000      3.5485959E-09
   53.64000      3.9297423E-09
   53.70000      4.3751891E-09
   53.76000      4.8924806E-09
   53.82000      5.4897313E-09
   53.88000      6.1757977E-09
   53.94000      6.9602262E-09
   54.00000      7.8530853E-09
   54.06000      8.8647649E-09
   54.12000      1.0005781E-08
   54.18000      1.1286589E-08
   54.24000      1.2717419E-08
   54.30000      1.4308267E-08
   54.36000      1.6069166E-08
   54.42000      1.8010802E-08
   54.48000      2.0145249E-08
   54.54000      2.2486473E-08
   54.60000      2.5050207E-08
   54.66000      2.7853039E-08
   54.72000      3.0910918E-08
   54.78000      3.4237583E-08
   54.84000      3.7843446E-08
   54.90000      4.1735312E-08
   54.96000      4.5916824E-08
   55.02000      5.0389193E-08
   55.08000      5.5151791E-08
   55.14000      6.0202318E-08
   55.20000      6.5536462E-08
   55.26000      7.1147170E-08
   55.32000      7.7023650E-08
   55.38000      8.3150120E-08
   55.44000      8.9504219E-08
   55.50000      9.6055437E-08
   55.56000      1.0276362E-07