 -0.750000000       0.00000000    
 -0.689999998       0.00000000    
 -0.629999995       0.00000000    
 -0.569999993       0.00000000    
 -0.509999990       0.00000000    
 -0.449999988       0.00000000    
 -0.389999986       0.00000000    
 -0.330000013       7.98628532E-25
 -0.270000011       7.80469318E-24
 -0.209999993       3.41487725E-23
 -0.150000006       7.25203995E-23
  -9.00000036E-02  -2.42735246E-23
  -2.99999993E-02  -7.42948595E-22
   2.99999993E-02  -2.87468325E-21
   9.00000036E-02  -6.51530102E-21
  0.150000006      -8.54247594E-21
  0.209999993       2.18015532E-22
  0.270000011       3.36060445E-20
  0.330000013       9.80102526E-20
  0.389999986       1.67869533E-19
  0.449999988       1.62327914E-19
  0.509999990      -4.42180996E-20
  0.569999993      -5.41645982E-19
  0.629999995      -1.23424963E-18
  0.689999998      -1.70160554E-18
  0.750000000      -1.22984717E-18
  0.810000002       8.33406336E-19
  0.870000005       4.41607244E-18
  0.930000007       8.07684875E-18
  0.990000010       8.98016472E-18
   1.04999995       4.04571928E-18
   1.11000001      -7.75065587E-18
   1.16999996      -2.29458430E-17
   1.23000002      -3.29112071E-17
   1.28999996      -2.67229233E-17
   1.35000002       2.21633284E-18
   1.40999997       4.83857182E-17
   1.47000003       9.02964650E-17
   1.52999997       9.58801195E-17
   1.59000003       3.87528194E-17
   1.64999998      -7.99573228E-17
   1.71000004      -2.16509073E-16
   1.76999998      -2.90454930E-16
   1.83000004      -2.18808899E-16
   1.88999999       3.00251640E-17
   1.95000005       3.88987784E-16
   2.00999999       6.86975484E-16
   2.06999993       7.09687825E-16
   2.13000011       3.18437510E-16
   2.19000006      -4.24082424E-16
   2.25000000      -1.20091590E-15
   2.30999994      -1.52986856E-15
   2.36999989      -1.00197814E-15
   2.43000007       4.17388693E-16
   2.49000001       2.19149404E-15
   2.54999995       3.29287319E-15
   2.60999990       2.63370898E-15
   2.67000008      -2.72238666E-16
   2.73000002      -4.72838990E-15
   2.78999996      -8.74445220E-15
   2.84999990      -9.65363619E-15
   2.91000009      -5.37824375E-15
   2.97000003       4.14749132E-15
   3.02999997       1.61525270E-14
   3.08999991       2.54702672E-14
   3.15000010       2.64176430E-14
   3.21000004       1.55425802E-14
   3.26999998      -5.96360153E-15
   3.32999992      -3.15373710E-14
   3.39000010      -5.10019442E-14
   3.45000005      -5.45203260E-14
   3.50999999      -3.72643200E-14
   3.56999993      -2.65542267E-15
   3.63000011       3.76733828E-14
   3.69000006       6.77769811E-14
   3.75000000       7.39751075E-14
   3.80999994       5.14515663E-14
   3.86999989       7.79101498E-15
   3.93000007      -3.86837779E-14
   3.99000001      -6.58516549E-14
   4.05000019      -5.77057662E-14
   4.11000013      -1.32323606E-14
   4.17000008       4.99703259E-14
   4.23000002       1.00010739E-13
   4.28999996       1.02699824E-13
   4.34999990       3.75901668E-14
   4.40999985      -8.81199072E-14
   4.46999979      -2.34521034E-13
   4.53000021      -3.37304728E-13
   4.59000015      -3.29359071E-13
   4.65000010      -1.69768957E-13
   4.71000004       1.30412201E-13
   4.76999998       4.97588516E-13
   4.82999992       8.08601395E-13
   4.88999987       9.27389567E-13
   4.94999981       7.55217612E-13
   5.01000023       2.76370804E-13
   5.07000017      -4.20320652E-13
   5.13000011      -1.15677747E-12
   5.19000006      -1.71658380E-12
   5.25000000      -1.91488969E-12
   5.30999994      -1.66070033E-12
   5.36999989      -9.85920438E-13
   5.42999983      -2.84122972E-14
   5.48999977       1.02362064E-12
   5.55000019       2.00029229E-12
   5.61000013       2.79867687E-12
   5.67000008       3.38667917E-12
   5.73000002       3.75901177E-12
   5.78999996       3.86782923E-12
   5.84999990       3.56798337E-12
   5.90999985       2.61631949E-12
   5.96999979       7.43983542E-13
   6.03000021      -2.21234229E-12
   6.09000015      -6.16594753E-12
   6.15000010      -1.06834281E-11
   6.21000004      -1.49874713E-11
   6.26999998      -1.80781397E-11
   6.32999992      -1.89481590E-11
   6.38999987      -1.68306150E-11
   6.44999981      -1.14028327E-11
   6.51000023      -2.88455262E-12
   6.57000017       7.99288066E-12
   6.63000011       2.01224679E-11
   6.69000006       3.22021854E-11
   6.75000000       4.28893275E-11
   6.80999994       5.08775348E-11
   6.86999989       5.48882849E-11
   6.92999983       5.36156675E-11
   6.98999977       4.56946633E-11
   7.05000019       2.97633480E-11
   7.11000013       4.65634562E-12
   7.17000008      -3.02892711E-11
   7.23000002      -7.48915582E-11
   7.28999996      -1.27855268E-10
   7.34999990      -1.86683988E-10
   7.40999985      -2.47833171E-10
   7.46999979      -3.07091075E-10
   7.53000021      -3.60099006E-10
   7.59000015      -4.02873512E-10
   7.65000010      -4.32191422E-10
   7.71000004      -4.45747828E-10
   7.76999998      -4.42078513E-10
   7.82999992      -4.20324164E-10
   7.88999987      -3.79967141E-10
   7.94999981      -3.20670379E-10
   8.01000023      -2.42294296E-10
   8.06999969      -1.45078408E-10
   8.13000011      -2.98915857E-11
   8.18999958       1.01585448E-10
   8.25000000       2.46859005E-10
   8.31000042       4.02836098E-10
   8.36999989       5.66182712E-10
   8.43000031       7.33673955E-10
   8.48999977       9.02366792E-10
   8.55000019       1.06948572E-09
   8.60999966       1.23203436E-09
   8.67000008       1.38627831E-09
   8.72999954       1.52733626E-09
   8.78999996       1.64911074E-09
   8.85000038       1.74469394E-09
   8.90999985       1.80722015E-09
   8.97000027       1.83096438E-09
   9.02999973       1.81238780E-09
   9.09000015       1.75083015E-09
   9.14999962       1.64866376E-09
   9.21000004       1.51089574E-09
   9.27000046       1.34437228E-09
   9.32999992       1.15683729E-09
   9.39000034       9.56087209E-10
   9.44999981       7.49370066E-10
   9.51000023       5.43043777E-10
   9.56999969       3.42401330E-10
   9.63000011       1.51539059E-10
   9.68999958      -2.68082535E-11
   9.75000000      -1.91448662E-10
   9.81000042      -3.42825379E-10
   9.86999989      -4.82887730E-10
   9.93000031      -6.14655660E-10
   9.98999977      -7.41496697E-10
   10.0500002      -8.66253902E-10
   10.1099997      -9.90437843E-10
   10.1700001      -1.11369569E-09
   10.2299995      -1.23369970E-09
   10.2900000      -1.34646949E-09
   10.3500004      -1.44702250E-09
   10.4099998      -1.53016189E-09
   10.4700003      -1.59119296E-09
   10.5299997      -1.62640734E-09
   10.5900002      -1.63326741E-09
   10.6499996      -1.61032587E-09
   10.7100000      -1.55699897E-09
   10.7700005      -1.47334900E-09
   10.8299999      -1.36000433E-09
   10.8900003      -1.21827959E-09
   10.9499998      -1.05044573E-09
   11.0100002      -8.60013283E-10
   11.0699997      -6.51834253E-10
   11.1300001      -4.31860492E-10
   11.1899996      -2.06498360E-10
   11.2500000       1.83362873E-11
   11.3100004       2.38204345E-10
   11.3699999       4.50833593E-10
   11.4300003       6.56225130E-10
   11.4899998       8.56074212E-10
   11.5500002       1.05266940E-09
   11.6099997       1.24766908E-09
   11.6700001       1.44125201E-09
   11.7299995       1.63202751E-09
   11.7900000       1.81779403E-09
   11.8500004       1.99686467E-09
   11.9099998       2.16940310E-09
   11.9700003       2.33815789E-09
   12.0299997       2.50821319E-09
   12.0900002       2.68577427E-09
   12.1499996       2.87642776E-09
   12.2100000       3.08355075E-09
   12.2700005       3.30748406E-09
   12.3299999       3.54575702E-09
   12.3900003       3.79421694E-09
   12.4499998       4.04854816E-09
   12.5100002       4.30556923E-09
   12.5699997       4.56384441E-09
   12.6300001       4.82349494E-09
   12.6899996       5.08543341E-09
   12.7500000       5.35045963E-09
   12.8100004       5.61862068E-09
   12.8699999       5.88906346E-09
   12.9300003       6.16035045E-09
   12.9899998       6.43100018E-09
   13.0500002       6.69996725E-09
   13.1099997       6.96681601E-09
   13.1700001       7.23149807E-09
   13.2299995       7.49379403E-09
   13.2900000       7.75259945E-09
   13.3500004       8.00529332E-09
   13.4099998       8.24740898E-09
   13.4700003       8.47275672E-09
   13.5299997       8.67403838E-09
   13.5900002       8.84382789E-09
   13.6499996       8.97569397E-09
   13.7100000       9.06518771E-09
   13.7700005       9.11042619E-09
   13.8299999       9.11214837E-09
   13.8900003       9.07325237E-09
   13.9499998       8.99801833E-09
   14.0100002       8.89126461E-09
   14.0699997       8.75771011E-09
   14.1300001       8.60172644E-09
   14.1899996       8.42749870E-09
   14.2500000       8.23946866E-09
   14.3100004       8.04282596E-09
   14.3699999       7.84376564E-09
   14.4300003       7.64925723E-09
   14.4899998       7.46626760E-09
   14.5500002       7.30053573E-09
   14.6099997       7.15522486E-09
   14.6700001       7.02985714E-09
   14.7299995       6.91989799E-09
   14.7900000       6.81715973E-09
   14.8500004       6.71096334E-09
   14.9099998       6.58974741E-09
   14.9700003       6.44274945E-09
   15.0299997       6.26142427E-09
   15.0900002       6.04038597E-09
   15.1499996       5.77783466E-09
   15.2100000       5.47547252E-09
   15.2700005       5.13796428E-09
   15.3299999       4.77198592E-09
   15.3900003       4.38497327E-09
   15.4499998       3.98378130E-09
   15.5100002       3.57355190E-09
   15.5699997       3.15709814E-09
   15.6300001       2.73495759E-09
   15.6899996       2.30606201E-09
   15.7500000       1.86873161E-09
   15.8100004       1.42166290E-09
   15.8699999       9.64664570E-10
   15.9300003       4.99107700E-10
   15.9899998       2.82117350E-11
   16.0499992      -4.42702625E-10
   16.1100006      -9.06002384E-10
   16.1700001      -1.35175693E-09
   16.2299995      -1.76822035E-09
   16.2900009      -2.14289053E-09
   16.3500004      -2.46397880E-09
   16.4099998      -2.72188938E-09
   16.4699993      -2.91025248E-09
   16.5300007      -3.02625658E-09
   16.5900002      -3.07033043E-09
   16.6499996      -3.04549919E-09
   16.7099991      -2.95676239E-09
   16.7700005      -2.81066637E-09
   16.8299999      -2.61497313E-09
   16.8899994      -2.37818765E-09
   16.9500008      -2.10878182E-09
   17.0100002      -1.81421389E-09
   17.0699997      -1.50009805E-09
   17.1299992      -1.16993637E-09
   17.1900005      -8.25624402E-10
   17.2500000      -4.68576400E-10
   17.3099995      -1.01019276E-10
   17.3700008       2.73070483E-10
   17.4300003       6.47710330E-10
   17.4899998       1.01531317E-09
   17.5499992       1.36744061E-09
   17.6100006       1.69552827E-09
   17.6700001       1.99135441E-09
   17.7299995       2.24726149E-09
   17.7900009       2.45632492E-09
   17.8500004       2.61265454E-09
   17.9099998       2.71188560E-09
   17.9699993       2.75172907E-09
   18.0300007       2.73235190E-09
   18.0900002       2.65640399E-09
   18.1499996       2.52863552E-09
   18.2099991       2.35520625E-09
   18.2700005       2.14287521E-09
   18.3299999       1.89828331E-09
   18.3899994       1.62748626E-09
   18.4500008       1.33584355E-09
   18.5100002       1.02829012E-09
   18.5699997       7.09926840E-10
   18.6299992       3.86776416E-10
   18.6900005       6.64607813E-11
   18.7500000      -2.41456244E-10
   18.8099995      -5.25637700E-10
   18.8700008      -7.73665410E-10
   18.9300003      -9.73087166E-10
   18.9899998      -1.11255094E-09
   19.0499992      -1.18277443E-09
   19.1100006      -1.17722609E-09
   19.1700001      -1.09253229E-09
   19.2299995      -9.28695121E-10
   19.2900009      -6.89171664E-10
   19.3500004      -3.80768667E-10
   19.4099998      -1.32458532E-11
   19.4699993       4.01436051E-10
   19.5300007       8.50139292E-10
   19.5900002       1.31959910E-09
   19.6499996       1.79718640E-09
   19.7099991       2.27115882E-09
   19.7700005       2.73039302E-09
   19.8299999       3.16383253E-09
   19.8899994       3.56000340E-09
   19.9500008       3.90690813E-09
   20.0100002       4.19240820E-09
   20.0699997       4.40499459E-09
   20.1299992       4.53471261E-09
   20.1900005       4.57400207E-09
   20.2500000       4.51834303E-09
   20.3099995       4.36668257E-09
   20.3700008       4.12166079E-09
   20.4300003       3.78961351E-09
   20.4899998       3.38024297E-09
   20.5499992       2.90587043E-09
   20.6100006       2.38028397E-09
   20.6700001       1.81741200E-09
   20.7299995       1.23017752E-09
   20.7900009       6.29894192E-10
   20.8500004       2.63414776E-11
   20.9099998      -5.71648451E-10
   20.9699993      -1.15551779E-09
   21.0300007      -1.71668657E-09
   21.0900002      -2.24687469E-09
   21.1499996      -2.73891687E-09
   21.2099991      -3.18762927E-09
   21.2700005      -3.59023056E-09
   21.3299999      -3.94604749E-09
   21.3899994      -4.25564073E-09
   21.4500008      -4.51984405E-09
   21.5100002      -4.73926942E-09
   21.5699997      -4.91458918E-09
   21.6299992      -5.04744868E-09
   21.6900005      -5.14146947E-09
   21.7500000      -5.20270271E-09
   21.8099995      -5.23915222E-09
   21.8700008      -5.25945021E-09
   21.9300003      -5.27123367E-09
   21.9899998      -5.27993604E-09
   22.0499992      -5.28852162E-09
   22.1100006      -5.29824806E-09
   22.1700001      -5.31007016E-09
   22.2299995      -5.32600009E-09
   22.2900009      -5.34980327E-09
   22.3500004      -5.38670042E-09
   22.4099998      -5.44218892E-09
   22.4699993      -5.52046453E-09
   22.5300007      -5.62307179E-09
   22.5900002      -5.74834402E-09
   22.6499996      -5.89187943E-09
   22.7099991      -6.04793904E-09
   22.7700005      -6.21127727E-09
   22.8299999      -6.37873931E-09
   22.8899994      -6.55001831E-09
   22.9500008      -6.72726141E-09
   23.0100002      -6.91367763E-09
   23.0699997      -7.11172143E-09
   23.1299992      -7.32161576E-09
   23.1900005      -7.54084617E-09
   23.2500000      -7.76481279E-09
   23.3099995      -7.98829536E-09
   23.3700008      -8.20703416E-09
   23.4300003      -8.41869774E-09
   23.4899998      -8.62287131E-09
   23.5499992      -8.82016948E-09
   23.6100006      -9.01106034E-09
   23.6700001      -9.19501986E-09
   23.7299995      -9.37043865E-09
   23.7900009      -9.53525259E-09
   23.8500004      -9.68786829E-09
   23.9099998      -9.82786830E-09
   23.9699993      -9.95609639E-09
   24.0300007      -1.00741433E-08
   24.0900002      -1.01835465E-08
   24.1499996      -1.02851825E-08
   24.2099991      -1.03792113E-08
   24.2700005      -1.04656186E-08
   24.3299999      -1.05451319E-08
   24.3899994      -1.06200631E-08
   24.4500008      -1.06946727E-08
   24.5100002      -1.07748619E-08
   24.5699997      -1.08672475E-08
   24.6299992      -1.09779394E-08
   24.6900005      -1.11114087E-08
   24.7500000      -1.12697833E-08
   24.8099995      -1.14527055E-08
   24.8700008      -1.16576624E-08
   24.9300003      -1.18805090E-08
   24.9899998      -1.21159225E-08
   25.0499992      -1.23575834E-08
   25.1100006      -1.25980719E-08
   25.1700001      -1.28286288E-08
   25.2299995      -1.30389948E-08
   25.2900009      -1.32175515E-08
   25.3500004      -1.33518565E-08
   25.4099998      -1.34296059E-08
   25.4699993      -1.34399496E-08
   25.5300007      -1.33750255E-08
   25.5900002      -1.32314426E-08
   25.6499996      -1.30114293E-08
   25.7099991      -1.27232562E-08
   25.7700005      -1.23806991E-08
   25.8299999      -1.20015278E-08
   25.8899994      -1.16053291E-08
   25.9500008      -1.12112417E-08
   26.0100002      -1.08361640E-08
   26.0699997      -1.04937410E-08
   26.1299992      -1.01940616E-08
   26.1900005      -9.94360416E-09
   26.2500000      -9.74497727E-09
   26.3099995      -9.59626156E-09
   26.3700008      -9.49022283E-09
   26.4300003      -9.41400646E-09
   26.4899998      -9.34990307E-09
   26.5499992      -9.27737442E-09
   26.6100006      -9.17596488E-09
   26.6700001      -9.02827590E-09
   26.7299995      -8.82216966E-09
   26.7900009      -8.55169269E-09
   26.8500004      -8.21679791E-09
   26.9099998      -7.82237564E-09
   26.9699993      -7.37720507E-09
   27.0300007      -6.89319002E-09
   27.0900002      -6.38484421E-09
   27.1499996      -5.86866244E-09
   27.2099991      -5.36195799E-09
   27.2700005      -4.88098850E-09
   27.3299999      -4.43857351E-09
   27.3899994      -4.04172518E-09
   27.4500008      -3.68998387E-09
   27.5100002      -3.37503292E-09
   27.5699997      -3.08185899E-09
   27.6299992      -2.79127899E-09
   27.6900005      -2.48322607E-09
   27.7500000      -2.13993956E-09
   27.8099995      -1.74822279E-09
   27.8700008      -1.30029520E-09
   27.9300003      -7.93326127E-10
   27.9899998      -2.28261465E-10
   28.0499992       3.91206290E-10
   28.1100006       1.05889275E-09
   28.1700001       1.76552462E-09
   28.2299995       2.49782017E-09
   28.2900009       3.23806981E-09
   28.3500004       3.96483246E-09
   28.4099998       4.65476280E-09
   28.4699993       5.28497379E-09
   28.5300007       5.83508131E-09
   28.5900002       6.28833874E-09
   28.6499996       6.63188482E-09
   28.7099991       6.85668144E-09
   28.7700005       6.95783120E-09
   28.8299999       6.93556768E-09
   28.8899994       6.79657841E-09
   28.9500008       6.55486243E-09
   29.0100002       6.23136964E-09
   29.0699997       5.85218762E-09
   29.1299992       5.44571854E-09
   29.1900005       5.03966557E-09
   29.2500000       4.65859262E-09
   29.3099995       4.32232161E-09
   29.3700008       4.04500389E-09
   29.4300003       3.83447318E-09
   29.4899998       3.69173292E-09
   29.5499992       3.61072505E-09
   29.6100006       3.57875884E-09
   29.6700001       3.57779562E-09
   29.7299995       3.58641183E-09
   29.7900009       3.58190300E-09
   29.8500004       3.54199958E-09
   29.9099998       3.44598572E-09
   29.9699993       3.27547522E-09
   30.0300007       3.01532244E-09
   30.0900002       2.65496314E-09
   30.1499996       2.18998997E-09
   30.2099991       1.62329727E-09
   30.2700005       9.65034275E-10
   30.3299999       2.30966746E-10
   30.3899994      -5.60508640E-10
   30.4500008      -1.39187761E-09
   30.5100002      -2.24952501E-09
   30.5699997      -3.12544568E-09
   30.6299992      -4.01730915E-09
   30.6900005      -4.92702013E-09
   30.7500000      -5.85824678E-09
   30.8099995      -6.81355949E-09
   30.8700008      -7.79187559E-09
   30.9300003      -8.78688056E-09
   30.9899998      -9.78691883E-09
   31.0499992      -1.07764357E-08
   31.1100006      -1.17385204E-08
   31.1700001      -1.26575568E-08
   31.2299995      -1.35208991E-08
   31.2900009      -1.43188901E-08
   31.3500004      -1.50433852E-08
   31.4099998      -1.56857816E-08
   31.4699993      -1.62358909E-08
   31.5300007      -1.66825487E-08
   31.5900002      -1.70159087E-08
   31.6499996      -1.72303878E-08
   31.7099991      -1.73267285E-08
   31.7700005      -1.73120913E-08
   31.8299999      -1.71980012E-08
   31.8899994      -1.69970882E-08
   31.9500008      -1.67199694E-08
   32.0099983      -1.63734697E-08
   32.0699997      -1.59605467E-08
   32.1300011      -1.54814952E-08
   32.1899986      -1.49355710E-08
   32.2500000      -1.43222758E-08
   32.3100014      -1.36420111E-08
   32.3699989      -1.28962299E-08
   32.4300003      -1.20873560E-08
   32.4900017      -1.12186251E-08
   32.5499992      -1.02938218E-08
   32.6100006      -9.31679445E-09
   32.6699982      -8.29080093E-09
   32.7299995      -7.21797289E-09
   32.7900009      -6.09924067E-09
   32.8499985      -4.93495778E-09
   32.9099998      -3.72607190E-09
   32.9700012      -2.47540100E-09
   33.0299988      -1.18847110E-09
   33.0900002       1.26405802E-10
   33.1500015       1.45876489E-09
   33.2099991       2.79693757E-09
   33.2700005       4.12882928E-09
   33.3300018       5.44221068E-09
   33.3899994       6.72454892E-09
   33.4500008       7.96272293E-09
   33.5099983       9.14306231E-09
   33.5699997       1.02520374E-08
   33.6300011       1.12775638E-08
   33.6899986       1.22105845E-08
   33.7500000       1.30463125E-08
   33.8100014       1.37845966E-08
   33.8699989       1.44291379E-08
   33.9300003       1.49857389E-08
   33.9900017       1.54601878E-08
   34.0499992       1.58565321E-08
   34.1100006       1.61763438E-08
   34.1699982       1.64191114E-08
   34.2299995       1.65834084E-08
   34.2900009       1.66681620E-08
   34.3499985       1.66734324E-08
   34.4099998       1.66004295E-08
   34.4700012       1.64509899E-08
   34.5299988       1.62269771E-08
   34.5900002       1.59299560E-08
   34.6500015       1.55612465E-08
   34.7099991       1.51220867E-08
   34.7700005       1.46136561E-08
   34.8300018       1.40368313E-08
   34.8899994       1.33919187E-08
   34.9500008       1.26787763E-08
   35.0099983       1.18975239E-08
   35.0699997       1.10496785E-08
   35.1300011       1.01391651E-08
   35.1899986       9.17264664E-09
   35.2500000       8.15891887E-09
   35.3100014       7.10770687E-09
   35.3699989       6.02851857E-09
   35.4300003       4.93020735E-09
   35.4900017       3.82144583E-09
   35.5499992       2.71175371E-09
   35.6100006       1.61243152E-09
   35.6699982       5.36822586E-10
   35.7299995      -5.00255004E-10
   35.7900009      -1.48365209E-09
   35.8499985      -2.39917575E-09
   35.9099998      -3.23469540E-09
   35.9700012      -3.98097288E-09
   36.0299988      -4.63223637E-09
   36.0900002      -5.18645926E-09
   36.1500015      -5.64516878E-09
   36.2099991      -6.01262862E-09
   36.2700005      -6.29451158E-09
   36.3300018      -6.49654375E-09
   36.3899994      -6.62378152E-09
   36.4500008      -6.68091182E-09
   36.5099983      -6.67332634E-09
   36.5699997      -6.60812871E-09
   36.6300011      -6.49404308E-09
   36.6899986      -6.33977848E-09
   36.7500000      -6.15132967E-09
   36.8100014      -5.92956084E-09
   36.8699989      -5.66949954E-09
   36.9300003      -5.36202327E-09
   36.9900017      -4.99735142E-09
   37.0499992      -4.56875604E-09
   37.1100006      -4.07475476E-09
   37.1699982      -3.51886076E-09
   37.2299995      -2.90726643E-09
   37.2900009      -2.24589147E-09
   37.3499985      -1.53843305E-09
   37.4099998      -7.86388343E-10
   37.4700012       9.10471611E-12
   37.5299988       8.44661063E-10
   37.5900002       1.71259573E-09
   37.6500015       2.60032840E-09
   37.7099991       3.49142737E-09
   37.7700005       4.36784209E-09
   37.8300018       5.21257926E-09
   37.8899994       6.01206906E-09
   37.9500008       6.75764911E-09
   38.0099983       7.44575601E-09
   38.0699997       8.07667888E-09
   38.1300011       8.65213767E-09
   38.1899986       9.17243881E-09
   38.2500000       9.63435021E-09
   38.3100014       1.00307602E-08
   38.3699989       1.03525393E-08
   38.4300003       1.05920233E-08
   38.4900017       1.07466116E-08
   38.5499992       1.08207594E-08
   38.6100006       1.08253202E-08
   38.6699982       1.07743885E-08
   38.7299995       1.06810409E-08
   38.7900009       1.05538112E-08
   38.8499985       1.03952873E-08
   38.9099998       1.02031059E-08
   38.9700012       9.97246907E-09
   39.0299988       9.69880354E-09
   39.0900002       9.37942080E-09
   39.1500015       9.01383324E-09
   39.2099991       8.60314486E-09
   39.2700005       8.14924661E-09
   39.3300018       7.65437314E-09
   39.3899994       7.12109305E-09
   39.4500008       6.55251009E-09
   39.5099983       5.95240301E-09
   39.5699997       5.32528022E-09
   39.6300011       4.67654049E-09
   39.6899986       4.01287359E-09
   39.7500000       3.34279360E-09
   39.8100014       2.67688538E-09
   39.8699989       2.02729611E-09
   39.9300003       1.40629819E-09
   39.9900017       8.24217916E-10
   40.0499992       2.87435936E-10
   40.1100006      -2.02782804E-10
   40.1699982      -6.50177467E-10
   40.2299995      -1.06214260E-09
   40.2900009      -1.44761503E-09
   40.3499985      -1.81484139E-09
   40.4099998      -2.16958873E-09
   40.4700012      -2.51414667E-09
   40.5299988      -2.84725044E-09
   40.5900002      -3.16489546E-09
   40.6500015      -3.46184592E-09
   40.7099991      -3.73345532E-09
   40.7700005      -3.97723232E-09
   40.8300018      -4.19353974E-09
   40.8899994      -4.38505454E-09
   40.9500008      -4.55507188E-09
   41.0099983      -4.70528150E-09
   41.0699997      -4.83397589E-09
   41.1300011      -4.93552088E-09
   41.1899986      -5.00142194E-09
   41.2500000      -5.02262676E-09
   41.3100014      -4.99218400E-09
   41.3699989      -4.90728791E-09
   41.4300003      -4.77006568E-09
   41.4900017      -4.58701122E-09
   41.5499992      -4.36745751E-09
   41.6100006      -4.12168299E-09
   41.6699982      -3.85920673E-09
   41.7299995      -3.58762109E-09
   41.7900009      -3.31212946E-09
   41.8499985      -3.03582581E-09
   41.9099998      -2.76065237E-09
   41.9700012      -2.48880450E-09
   42.0299988      -2.22412799E-09
   42.0900002      -1.97289407E-09
   42.1500015      -1.74341352E-09
   42.2099991      -1.54433388E-09
   42.2700005      -1.38205070E-09
   42.3300018      -1.25819211E-09
   42.3899994      -1.16829690E-09
   42.4500008      -1.10246268E-09
   42.5099983      -1.04797471E-09
   42.5699997      -9.93092608E-10
   42.6300011      -9.30646893E-10
   42.6899986      -8.60137406E-10
   42.7500000      -7.87621579E-10
   42.8100014      -7.23556881E-10
   42.8699989      -6.79529877E-10
   42.9300003      -6.65120403E-10
   42.9900017      -6.85924373E-10
   43.0499992      -7.43129225E-10
   43.1100006      -8.34328773E-10
   43.1699982      -9.54822998E-10
   43.2299995      -1.09866161E-09
   43.2900009      -1.25910515E-09
   43.3499985      -1.42873524E-09
   43.4099998      -1.59979940E-09
   43.4700012      -1.76529857E-09
   43.5299988      -1.92081484E-09
   43.5900002      -2.06642836E-09
   43.6500015      -2.20768470E-09
   43.7099991      -2.35475062E-09
   43.7700005      -2.51964205E-09
   43.8300018      -2.71240097E-09
   43.8899994      -2.93776070E-09
   43.9500008      -3.19380500E-09
   44.0099983      -3.47325191E-09
   44.0699997      -3.76676290E-09
   44.1300011      -4.06665324E-09
   44.1899986      -4.36917835E-09
   44.2500000      -4.67432670E-09
   44.3100014      -4.98333241E-09
   44.3699989      -5.29532729E-09
   44.4300003      -5.60495605E-09
   44.4900017      -5.90223737E-09
   44.5499992      -6.17479357E-09
   44.6100006      -6.41137854E-09
   44.6699982      -6.60508404E-09
   44.7299995      -6.75487133E-09
   44.7900009      -6.86494595E-09
   44.8499985      -6.94245950E-09
   44.9099998      -6.99461555E-09
   44.9700012      -7.02628400E-09
   45.0299988      -7.03884018E-09
   45.0900002      -7.03042113E-09
   45.1500015      -6.99737068E-09
   45.2099991      -6.93641455E-09
   45.2700005      -6.84696344E-09
   45.3300018      -6.73287959E-09
   45.3899994      -6.60305055E-09
   45.4500008      -6.47035669E-09
   45.5099983      -6.34907371E-09
   45.5699997      -6.25139984E-09
   45.6300011      -6.18426554E-09
   45.6899986      -6.14761797E-09
   45.7500000      -6.13488904E-09
   45.8100014      -6.13550366E-09
   45.8699989      -6.13848172E-09
   45.9300003      -6.13582385E-09
   45.9900017      -6.12456263E-09
   46.0499992      -6.10698514E-09
   46.1100006      -6.08925266E-09
   46.1699982      -6.07905637E-09
   46.2299995      -6.08309536E-09
   46.2900009      -6.10498629E-09
   46.3499985      -6.14400797E-09
   46.4099998      -6.19494944E-09
   46.4700012      -6.24914653E-09
   46.5299988      -6.29658903E-09
   46.5900002      -6.32860564E-09
   46.6500015      -6.34029451E-09
   46.7099991      -6.33177599E-09
   46.7700005      -6.30764907E-09
   46.8300018      -6.27472518E-09
   46.8899994      -6.23885832E-09
   46.9500008      -6.20212370E-09
   47.0099983      -6.16147400E-09
   47.0699997      -6.10936635E-09
   47.1300011      -6.03601036E-09
   47.1899986      -5.93226979E-09
   47.2500000      -5.79212323E-09
   47.3100014      -5.61388225E-09
   47.3699989      -5.39994938E-09
   47.4300003      -5.15543741E-09
   47.4900017      -4.88626029E-09
   47.5499992      -4.59739447E-09
   47.6100006      -4.29187708E-09
   47.6699982      -3.97089472E-09
   47.7299995      -3.63498232E-09
   47.7900009      -3.28599947E-09
   47.8499985      -2.92916491E-09
   47.9099998      -2.57426569E-09
   47.9700012      -2.23531660E-09
   48.0299988      -1.92848981E-09
   48.0900002      -1.66886460E-09
   48.1500015      -1.46712609E-09
   48.2099991      -1.32745559E-09
   48.2700005      -1.24740152E-09
   48.3300018      -1.21968569E-09
   48.3899994      -1.23510302E-09
   48.4500008      -1.28528044E-09
   48.5099983      -1.36424472E-09
   48.5699997      -1.46836532E-09
   48.6300011      -1.59496782E-09
   48.6899986      -1.74042225E-09
   48.7500000      -1.89862459E-09
   48.8100014      -2.06055861E-09
   48.8699989      -2.21518603E-09
   48.9300003      -2.35144682E-09
   48.9900017      -2.46078224E-09
   49.0499992      -2.53938093E-09
   49.1100006      -2.58934496E-09
   49.1699982      -2.61826205E-09
   49.2299995      -2.63716049E-09
   49.2900009      -2.65745737E-09
   49.3499985      -2.68796230E-09
   49.4099998      -2.73307288E-09
   49.4700012      -2.79284085E-09
   49.5299988      -2.86480528E-09
   49.5900002      -2.94670355E-09
   49.6500015      -3.03880210E-09
   49.7099991      -3.14482151E-09
   49.7700005      -3.27113847E-09
   49.8300018      -3.42475581E-09
   49.8899994      -3.61102459E-09
   49.9500008      -3.83208176E-09
   50.0099983      -4.08647827E-09
   50.0699997      -4.36989644E-09
   50.1300011      -4.67643169E-09
   50.1899986      -4.99987873E-09
   50.2500000      -5.33465982E-09
   50.3100014      -5.67634517E-09
   50.3699989      -6.02184169E-09
   50.4300003      -6.36933750E-09
   50.4900017      -6.71800526E-09
   50.5499992      -7.06746084E-09
   50.6100006      -7.41707540E-09