 -0.750000000       0.00000000    
 -0.689999998       0.00000000    
 -0.629999995       0.00000000    
 -0.569999993       0.00000000    
 -0.509999990       0.00000000    
 -0.449999988       0.00000000    
 -0.389999986       0.00000000    
 -0.330000013       2.61894671E-25
 -0.270000011       1.87034030E-24
 -0.209999993       3.74343056E-24
 -0.150000006      -1.52839528E-23
  -9.00000036E-02  -1.35321023E-22
  -2.99999993E-02  -5.10874249E-22
   2.99999993E-02  -1.22192550E-21
   9.00000036E-02  -1.78377238E-21
  0.150000006      -3.82362900E-22
  0.209999993       6.44427214E-21
  0.270000011       2.22164411E-20
  0.330000013       4.56785387E-20
  0.389999986       6.34598555E-20
  0.449999988       4.49547427E-20
  0.509999990      -5.22813658E-20
  0.569999993      -2.59302691E-19
  0.629999995      -5.56014057E-19
  0.689999998      -8.30621787E-19
  0.750000000      -8.66206063E-19
  0.810000002      -3.82024164E-19
  0.870000005       8.59823072E-19
  0.930000007       2.89815797E-18
  0.990000010       5.40465667E-18
   1.04999995       7.55258085E-18
   1.11000001       7.98235991E-18
   1.16999996       4.95529205E-18
   1.23000002      -3.17005079E-18
   1.28999996      -1.70160316E-17
   1.35000002      -3.48731902E-17
   1.40999997      -5.14505514E-17
   1.47000003      -5.76341731E-17
   1.52999997      -4.24041766E-17
   1.59000003       2.49656075E-18
   1.64999998       7.60680585E-17
   1.71000004       1.62655247E-16
   1.76999998       2.31785616E-16
   1.83000004       2.46340872E-16
   1.88999999       1.78250209E-16
   1.95000005       2.54251018E-17
   2.00999999      -1.80083731E-16
   2.06999993      -3.80996637E-16
   2.13000011      -5.20443777E-16
   2.19000006      -5.71696788E-16
   2.25000000      -5.51140092E-16
   2.30999994      -4.97909683E-16
   2.36999989      -4.23209583E-16
   2.43000007      -2.59412099E-16
   2.49000001       1.43887406E-16
   2.54999995       9.41136614E-16
   2.60999990       2.13946102E-15
   2.67000008       3.44762357E-15
   2.73000002       4.24027743E-15
   2.78999996       3.73305292E-15
   2.84999990       1.36809098E-15
   2.91000009      -2.73118129E-15
   2.97000003      -7.48754933E-15
   3.02999997      -1.10262141E-14
   3.08999991      -1.13442835E-14
   3.15000010      -7.30424293E-15
   3.21000004       4.93418873E-16
   3.26999998       9.47951078E-15
   3.32999992       1.58462924E-14
   3.39000010       1.61169770E-14
   3.45000005       8.94638994E-15
   3.50999999      -3.72321548E-15
   3.56999993      -1.68778735E-14
   3.63000011      -2.41785758E-14
   3.69000006      -2.06468550E-14
   3.75000000      -5.13734546E-15
   3.80999994       1.85969777E-14
   3.86999989       4.28790507E-14
   3.93000007       5.88181915E-14
   3.99000001       5.96002062E-14
   4.05000019       4.28816799E-14
   4.11000013       1.12299874E-14
   4.17000008      -2.94702989E-14
   4.23000002      -7.26668413E-14
   4.28999996      -1.13283054E-13
   4.34999990      -1.48024849E-13
   4.40999985      -1.73513032E-13
   4.46999979      -1.83223160E-13
   4.53000021      -1.65236246E-13
   4.59000015      -1.02983689E-13
   4.65000010       1.97145021E-14
   4.71000004       2.09769363E-13
   4.76999998       4.54588082E-13
   4.82999992       7.14515198E-13
   4.88999987       9.22285468E-13
   4.94999981       9.92471405E-13
   5.01000023       8.41024787E-13
   5.07000017       4.11363679E-13
   5.13000011      -2.99679145E-13
   5.19000006      -1.22403823E-12
   5.25000000      -2.21937464E-12
   5.30999994      -3.08370213E-12
   5.36999989      -3.58573631E-12
   5.42999983      -3.50506776E-12
   5.48999977      -2.67480222E-12
   5.55000019      -1.02065361E-12
   5.61000013       1.40669735E-12
   5.67000008       4.40722805E-12
   5.73000002       7.61742145E-12
   5.78999996       1.05126593E-11
   5.84999990       1.24373411E-11
   5.90999985       1.26755082E-11
   5.96999979       1.05693492E-11
   6.03000021       5.67944563E-12
   6.09000015      -2.03789828E-12
   6.15000010      -1.20778821E-11
   6.21000004      -2.33083587E-11
   6.26999998      -3.40073733E-11
   6.32999992      -4.20376442E-11
   6.38999987      -4.51470666E-11
   6.44999981      -4.13523452E-11
   6.51000023      -2.93405439E-11
   6.57000017      -8.81679972E-12
   6.63000011       1.92627650E-11
   6.69000006       5.26100032E-11
   6.75000000       8.76835132E-11
   6.80999994       1.19908791E-10
   6.86999989       1.44004128E-10
   6.92999983       1.54371085E-10
   6.98999977       1.45512186E-10
   7.05000019       1.12449175E-10
   7.11000013       5.11247954E-11
   7.17000008      -4.12227578E-11
   7.23000002      -1.65725558E-10
   7.28999996      -3.21612514E-10
   7.34999990      -5.06027942E-10
   7.40999985      -7.13979376E-10
   7.46999979      -9.38450540E-10
   7.53000021      -1.17069954E-09
   7.59000015      -1.40074052E-09
   7.65000010      -1.61797475E-09
   7.71000004      -1.81191662E-09
   7.76999998      -1.97294026E-09
   7.82999992      -2.09297202E-09
   7.88999987      -2.16606111E-09
   7.94999981      -2.18877760E-09
   8.01000023      -2.16039786E-09
   8.06999969      -2.08286455E-09
   8.13000011      -1.96052174E-09
   8.18999958      -1.79965720E-09
   8.25000000      -1.60791380E-09
   8.31000042      -1.39365897E-09
   8.36999989      -1.16541876E-09
   8.43000031      -9.31469457E-10
   8.48999977      -6.99636238E-10
   8.55000019      -4.77278939E-10
   8.60999966      -2.71376033E-10
   8.67000008      -8.85691936E-11
   8.72999954       6.49641105E-11
   8.78999996       1.83883894E-10
   8.85000038       2.64276462E-10
   8.90999985       3.04319875E-10
   8.97000027       3.04812564E-10
   9.02999973       2.69348266E-10
   9.09000015       2.03995792E-10
   9.14999962       1.16478868E-10
   9.21000004       1.50020864E-11
   9.27000046      -9.30162544E-11
   9.32999992      -2.02006786E-10
   9.39000034      -3.08865988E-10
   9.44999981      -4.13017481E-10
   9.51000023      -5.15970100E-10
   9.56999969      -6.20561991E-10
   9.63000011      -7.30143224E-10
   9.68999958      -8.47916848E-10
   9.75000000      -9.76542847E-10
   9.81000042      -1.11795517E-09
   9.86999989      -1.27322075E-09
   9.93000031      -1.44223244E-09
   9.98999977      -1.62311375E-09
   10.0500002      -1.81140014E-09
   10.1099997      -1.99927030E-09
   10.1700001      -2.17525065E-09
   10.2299995      -2.32479347E-09
   10.2900000      -2.43193288E-09
   10.3500004      -2.48185406E-09
   10.4099998      -2.46383935E-09
   10.4700003      -2.37379272E-09
   10.5299997      -2.21553864E-09
   10.5900002      -2.00038319E-09
   10.6499996      -1.74492865E-09
   10.7100000      -1.46768131E-09
   10.7700005      -1.18539700E-09
   10.8299999      -9.10191200E-10
   10.8900003      -6.48179399E-10
   10.9499998      -3.99889344E-10
   11.0100002      -1.62097433E-10
   11.0699997       6.97024383E-11
   11.1300001       2.99124753E-10
   11.1899996       5.27735078E-10
   11.2500000       7.55173202E-10
   11.3100004       9.80294623E-10
   11.3699999       1.20266985E-09
   11.4300003       1.42365930E-09
   11.4899998       1.64646763E-09
   11.5500002       1.87500460E-09
   11.6099997       2.11188067E-09
   11.6700001       2.35626274E-09
   11.7299995       2.60246158E-09
   11.7900000       2.83996804E-09
   11.8500004       3.05521586E-09
   11.9099998       3.23477112E-09
   11.9700003       3.36911699E-09
   12.0299997       3.45588602E-09
   12.0900002       3.50144247E-09
   12.1499996       3.52012863E-09
   12.2100000       3.53118912E-09
   12.2700005       3.55413143E-09
   12.3299999       3.60383590E-09
   12.3900003       3.68687658E-09
   12.4499998       3.80017573E-09
   12.5100002       3.93237620E-09
   12.5699997       4.06745260E-09
   12.6300001       4.18934931E-09
   12.6899996       4.28616653E-09
   12.7500000       4.35261782E-09
   12.8100004       4.39014602E-09
   12.8699999       4.40488535E-09
   12.9300003       4.40434222E-09
   12.9899998       4.39398118E-09
   13.0500002       4.37481740E-09
   13.1099997       4.34265601E-09
   13.1700001       4.28903180E-09
   13.2299995       4.20338564E-09
   13.2900000       4.07566292E-09
   13.3500004       3.89850285E-09
   13.4099998       3.66836095E-09
   13.4700003       3.38528272E-09
   13.5299997       3.05149972E-09
   13.5900002       2.66940092E-09
   13.6499996       2.23966712E-09
   13.7100000       1.76033788E-09
   13.7700005       1.22728161E-09
   13.8299999       6.36045716E-10
   13.8900003      -1.54766772E-11
   13.9499998      -7.24496685E-10
   14.0100002      -1.48187107E-09
   14.0699997      -2.27238273E-09
   14.1300001      -3.07680947E-09
   14.1899996      -3.87520682E-09
   14.2500000      -4.65040273E-09
   14.3100004      -5.39064926E-09
   14.3699999      -6.09068573E-09
   14.4300003      -6.75101131E-09
   14.4899998      -7.37574357E-09
   14.5500002      -7.96981592E-09
   14.6099997      -8.53640003E-09
   14.6700001      -9.07524988E-09
   14.7299995      -9.58234381E-09
   14.7900000      -1.00507664E-08
   14.8500004      -1.04724753E-08
   14.9099998      -1.08403588E-08
   14.9700003      -1.11500009E-08
   15.0299997      -1.14006982E-08
   15.0900002      -1.15954792E-08
   15.1499996      -1.17402017E-08
   15.2100000      -1.18420074E-08
   15.2700005      -1.19076038E-08
   15.3299999      -1.19418626E-08
   15.3900003      -1.19471579E-08
   15.4499998      -1.19237136E-08
   15.5100002      -1.18709158E-08
   15.5699997      -1.17892975E-08
   15.6300001      -1.16826415E-08
   15.6899996      -1.15595151E-08
   15.7500000      -1.14336096E-08
   15.8100004      -1.13225846E-08
   15.8699999      -1.12455449E-08
   15.9300003      -1.12197371E-08
   15.9899998      -1.12574146E-08
   16.0499992      -1.13637748E-08
   16.1100006      -1.15366268E-08
   16.1700001      -1.17678853E-08
   16.2299995      -1.20464749E-08
   16.2900009      -1.23617916E-08
   16.3500004      -1.27067086E-08
   16.4099998      -1.30792399E-08
   16.4699993      -1.34823051E-08
   16.5300007      -1.39214871E-08
   16.5900002      -1.44012766E-08
   16.6499996      -1.49208184E-08
   16.7099991      -1.54705191E-08
   16.7700005      -1.60309224E-08
   16.8299999      -1.65747007E-08
   16.8899994      -1.70716792E-08
   16.9500008      -1.74956245E-08
   17.0100002      -1.78306241E-08
   17.0699997      -1.80747932E-08
   17.1299992      -1.82397439E-08
   17.1900005      -1.83458830E-08
   17.2500000      -1.84151556E-08
   17.3099995      -1.84639770E-08
   17.3700008      -1.84990459E-08
   17.4300003      -1.85175182E-08
   17.4899998      -1.85112938E-08
   17.5499992      -1.84734628E-08
   17.6100006      -1.84041671E-08
   17.6700001      -1.83135018E-08
   17.7299995      -1.82203657E-08
   17.7900009      -1.81478441E-08
   17.8500004      -1.81169852E-08
   17.9099998      -1.81414173E-08
   17.9699993      -1.82246840E-08
   18.0300007      -1.83611419E-08
   18.0900002      -1.85398736E-08
   18.1499996      -1.87499438E-08
   18.2099991      -1.89850127E-08
   18.2700005      -1.92455971E-08
   18.3299999      -1.95382341E-08
   18.3899994      -1.98720382E-08
   18.4500008      -2.02540438E-08
   18.5100002      -2.06851301E-08
   18.5699997      -2.11580389E-08
   18.6299992      -2.16580247E-08
   18.6900005      -2.21657004E-08
   18.7500000      -2.26608208E-08
   18.8099995      -2.31256507E-08
   18.8700008      -2.35469013E-08
   18.9300003      -2.39160052E-08
   18.9899998      -2.42281946E-08
   19.0499992      -2.44811265E-08
   19.1100006      -2.46737812E-08
   19.1700001      -2.48059386E-08
   19.2299995      -2.48782452E-08
   19.2900009      -2.48925325E-08
   19.3500004      -2.48521523E-08
   19.4099998      -2.47620520E-08
   19.4699993      -2.46284966E-08
   19.5300007      -2.44583802E-08
   19.5900002      -2.42581546E-08
   19.6499996      -2.40325004E-08
   19.7099991      -2.37830555E-08
   19.7700005      -2.35075674E-08
   19.8299999      -2.31999202E-08
   19.8899994      -2.28512071E-08
   19.9500008      -2.24518146E-08
   20.0100002      -2.19941221E-08
   20.0699997      -2.14752394E-08
   20.1299992      -2.08991029E-08
   20.1900005      -2.02773407E-08
   20.2500000      -1.96284802E-08
   20.3099995      -1.89754292E-08
   20.3700008      -1.83415469E-08
   20.4300003      -1.77461690E-08
   20.4899998      -1.72008150E-08
   20.5499992      -1.67073484E-08
   20.6100006      -1.62588858E-08
   20.6700001      -1.58433515E-08
   20.7299995      -1.54484923E-08
   20.7900009      -1.50664832E-08
   20.8500004      -1.46962487E-08
   20.9099998      -1.43424872E-08
   20.9699993      -1.40116780E-08
   21.0300007      -1.37066474E-08
   21.0900002      -1.34218459E-08
   21.1499996      -1.31412694E-08
   21.2099991      -1.28398954E-08
   21.2700005      -1.24882531E-08
   21.3299999      -1.20586217E-08
   21.3899994      -1.15309104E-08
   21.4500008      -1.08964455E-08
   21.5100002      -1.01586561E-08
   21.5699997      -9.33060917E-09
   21.6299992      -8.43033376E-09
   21.6900005      -7.47548778E-09
   21.7500000      -6.47909193E-09
   21.8099995      -5.44763434E-09
   21.8700008      -4.38195080E-09
   21.9300003      -3.28023986E-09
   21.9899998      -2.14174323E-09
   22.0499992      -9.69418545E-10
   22.1100006       2.29531824E-10
   22.1700001       1.44537182E-09
   22.2299995       2.66879696E-09
   22.2900009       3.89359389E-09
   22.3500004       5.11761478E-09
   22.4099998       6.34151753E-09
   22.4699993       7.56578800E-09
   22.5300007       8.78735484E-09
   22.5900002       9.99728655E-09
   22.6499996       1.11806964E-08
   22.7099991       1.23191253E-08
   22.7700005       1.33949003E-08
   22.8299999       1.43962131E-08
   22.8899994       1.53213762E-08
   22.9500008       1.61807741E-08
   23.0100002       1.69954966E-08
   23.0699997       1.77925958E-08
   23.1299992       1.85980156E-08
   23.1900005       1.94292866E-08
   23.2500000       2.02903863E-08
   23.3099995       2.11707398E-08
   23.3700008       2.20488978E-08
   23.4300003       2.28997266E-08
   23.4899998       2.37025635E-08
   23.5499992       2.44474947E-08
   23.6100006       2.51376466E-08
   23.6700001       2.57870081E-08
   23.7299995       2.64148543E-08
   23.7900009       2.70388938E-08
   23.8500004       2.76693513E-08
   23.9099998       2.83055499E-08
   23.9699993       2.89356272E-08
   24.0300007       2.95392191E-08
   24.0900002       3.00923091E-08
   24.1499996       3.05730588E-08
   24.2099991       3.09672075E-08
   24.2700005       3.12716075E-08
   24.3299999       3.14946824E-08
   24.3899994       3.16535278E-08
   24.4500008       3.17684545E-08
   24.5100002       3.18567963E-08
   24.5699997       3.19282876E-08
   24.6299992       3.19836637E-08
   24.6900005       3.20169100E-08
   24.7500000       3.20199405E-08
   24.8099995       3.19874829E-08
   24.8700008       3.19199351E-08
   24.9300003       3.18229603E-08
   24.9899998       3.17040367E-08
   25.0499992       3.15674278E-08
   25.1100006       3.14096233E-08
   25.1700001       3.12169952E-08
   25.2299995       3.09664365E-08
   25.2900009       3.06287902E-08
   25.3500004       3.01739895E-08
   25.4099998       2.95765137E-08
   25.4699993       2.88197608E-08
   25.5300007       2.78984711E-08
   25.5900002       2.68187499E-08
   25.6499996       2.55959716E-08
   25.7099991       2.42512783E-08
   25.7700005       2.28075905E-08
   25.8299999       2.12860733E-08
   25.8899994       1.97036485E-08
   25.9500008       1.80718018E-08
   26.0100002       1.63965854E-08
   26.0699997       1.46795109E-08
   26.1299992       1.29189788E-08
   26.1900005       1.11117862E-08
   26.2500000       9.25435018E-09
   26.3099995       7.34326111E-09
   26.3700008       5.37501821E-09
   26.4300003       3.34521189E-09
   26.4899998       1.24780275E-09
   26.5499992      -9.24664845E-10
   26.6100006      -3.17934079E-09
   26.6700001      -5.51997292E-09
   26.7299995      -7.94338817E-09
   26.7900009      -1.04369873E-08
   26.8500004      -1.29785001E-08
   26.9099998      -1.55383848E-08
   26.9699993      -1.80841475E-08
   27.0300007      -2.05850785E-08
   27.0900002      -2.30158239E-08
   27.1499996      -2.53579682E-08
   27.2099991      -2.75997589E-08
   27.2700005      -2.97349256E-08
   27.3299999      -3.17616689E-08
   27.3899994      -3.36823653E-08
   27.4500008      -3.55038523E-08
   27.5100002      -3.72375695E-08
   27.5699997      -3.88987580E-08
   27.6299992      -4.05044247E-08
   27.6900005      -4.20701163E-08
   27.7500000      -4.36063914E-08
   27.8099995      -4.51156588E-08
   27.8700008      -4.65902659E-08
   27.9300003      -4.80123177E-08
   27.9899998      -4.93554531E-08
   28.0499992      -5.05883548E-08
   28.1100006      -5.16793577E-08
   28.1700001      -5.26011164E-08
   28.2299995      -5.33341975E-08
   28.2900009      -5.38684866E-08
   28.3500004      -5.42022072E-08
   28.4099998      -5.43389476E-08
   28.4699993      -5.42839800E-08
   28.5300007      -5.40412692E-08
   28.5900002      -5.36123324E-08
   28.6499996      -5.29972581E-08
   28.7099991      -5.21973540E-08
   28.7700005      -5.12182972E-08
   28.8299999      -5.00723978E-08
   28.8899994      -4.87788441E-08
   28.9500008      -4.73615458E-08
   29.0100002      -4.58448568E-08
   29.0699997      -4.42484129E-08
   29.1299992      -4.25827800E-08
   29.1900005      -4.08475671E-08
   29.2500000      -3.90331145E-08
   29.3099995      -3.71255204E-08
   29.3700008      -3.51136897E-08
   29.4300003      -3.29958780E-08
   29.4899998      -3.07834149E-08
   29.5499992      -2.85002475E-08
   29.6100006      -2.61784070E-08
   29.6700001      -2.38512072E-08
   29.7299995      -2.15465423E-08
   29.7900009      -1.92824103E-08
   29.8500004      -1.70656751E-08
   29.9099998      -1.48937938E-08
   29.9699993      -1.27583029E-08
   30.0300007      -1.06487121E-08
   30.0900002      -8.55578719E-09
   30.1499996      -6.47369092E-09
   30.2099991      -4.40090275E-09
   30.2700005      -2.33997044E-09
   30.3299999      -2.96346947E-10
   30.3899994       1.72327352E-09
   30.4500008       3.71239239E-09
   30.5100002       5.66508307E-09
   30.5699997       7.57474350E-09
   30.6299992       9.43132417E-09
   30.6900005       1.12179608E-08
   30.7500000       1.29084894E-08
   30.8099995       1.44672230E-08
   30.8700008       1.58516897E-08
   30.9300003       1.70180066E-08
   30.9899998       1.79275617E-08
   31.0499992       1.85533207E-08
   31.1100006       1.88840481E-08
   31.1700001       1.89253164E-08
   31.2299995       1.86969338E-08
   31.2900009       1.82272100E-08
   31.3500004       1.75454264E-08
   31.4099998       1.66743970E-08
   31.4699993       1.56253677E-08
   31.5300007       1.43969539E-08
   31.5900002       1.29786688E-08
   31.6499996       1.13579492E-08
   31.7099991       9.52821289E-09
   31.7700005       7.49494156E-09
   31.8299999       5.27751043E-09
   31.8899994       2.90618773E-09
   31.9500008       4.15664891E-10
   32.0099983      -2.16224105E-09
   32.0699997      -4.80394169E-09
   32.1300011      -7.49572404E-09
   32.1899986      -1.02314601E-08
   32.2500000      -1.30075568E-08
   32.3100014      -1.58170366E-08
   32.3699989      -1.86446822E-08
   32.4300003      -2.14646576E-08
   32.4900017      -2.42412757E-08
   32.5499992      -2.69328062E-08
   32.6100006      -2.94973024E-08
   32.6699982      -3.18988000E-08
   32.7299995      -3.41118529E-08
   32.7900009      -3.61226284E-08
   32.8499985      -3.79260072E-08
   32.9099998      -3.95195947E-08
   32.9700012      -4.08970457E-08
   33.0299988      -4.20435669E-08
   33.0900002      -4.29355751E-08
   33.1500015      -4.35448335E-08
   33.2099991      -4.38453078E-08
   33.2700005      -4.38199201E-08
   33.3300018      -4.34645457E-08
   33.3899994      -4.27878959E-08
   33.4500008      -4.18077590E-08
   33.5099983      -4.05454621E-08
   33.5699997      -3.90206019E-08
   33.6300011      -3.72477302E-08
   33.6899986      -3.52354448E-08
   33.7500000      -3.29875824E-08
   33.8100014      -3.05054115E-08
   33.8699989      -2.77901240E-08
   33.9300003      -2.48446579E-08
   33.9900017      -2.16746585E-08
   34.0499992      -1.82883770E-08
   34.1100006      -1.46958428E-08
   34.1699982      -1.09078035E-08
   34.2299995      -6.93515467E-09
   34.2900009      -2.78936096E-09
   34.3499985       1.51606627E-09
   34.4099998       5.96358651E-09
   34.4700012       1.05300684E-08
   34.5299988       1.51864921E-08
   34.5900002       1.98991952E-08
   34.6500015       2.46322056E-08
   34.7099991       2.93496765E-08
   34.7700005       3.40174218E-08
   34.8300018       3.86031580E-08
   34.8899994       4.30755804E-08
   34.9500008       4.74031268E-08
   35.0099983       5.15531298E-08
   35.0699997       5.54918387E-08
   35.1300011       5.91853002E-08
   35.1899986       6.26006909E-08
   35.2500000       6.57076313E-08
   35.3100014       6.84790677E-08
   35.3699989       7.08917014E-08
   35.4300003       7.29257792E-08
   35.4900017       7.45645181E-08
   35.5499992       7.57933591E-08
   35.6100006       7.65993491E-08
   35.6699982       7.69709914E-08
   35.7299995       7.68988500E-08
   35.7900009       7.63765229E-08
   35.8499985       7.54017009E-08
   35.9099998       7.39765937E-08
   35.9700012       7.21073476E-08
   36.0299988       6.98025886E-08
   36.0900002       6.70718094E-08
   36.1500015       6.39246096E-08
   36.2099991       6.03712493E-08
   36.2700005       5.64246889E-08
   36.3300018       5.21032355E-08
   36.3899994       4.74327422E-08
   36.4500008       4.24472830E-08
   36.5099983       3.71879807E-08
   36.5699997       3.17002744E-08
   36.6300011       2.60305821E-08
   36.6899986       2.02234300E-08
   36.7500000       1.43198653E-08
   36.8100014       8.35748448E-09
   36.8699989       2.37185782E-09
   36.9300003      -3.60131458E-09
   36.9900017      -9.52425250E-09
   37.0499992      -1.53562763E-08
   37.1100006      -2.10547704E-08
   37.1699982      -2.65779505E-08
   37.2299995      -3.18887423E-08
   37.2900009      -3.69584114E-08
   37.3499985      -4.17683808E-08
   37.4099998      -4.63091183E-08
   37.4700012      -5.05760056E-08
   37.5299988      -5.45633227E-08
   37.5900002      -5.82585322E-08
   37.6500015      -6.16391205E-08
   37.7099991      -6.46735785E-08
   37.7700005      -6.73266385E-08
   37.8300018      -6.95673066E-08
   37.8899994      -7.13769239E-08
   37.9500008      -7.27545739E-08
   38.0099983      -7.37177572E-08
   38.0699997      -7.42979509E-08
   38.1300011      -7.45323590E-08
   38.1899986      -7.44543485E-08
   38.2500000      -7.40857686E-08
   38.3100014      -7.34334975E-08
   38.3699989      -7.24914955E-08
   38.4300003      -7.12475270E-08
   38.4900017      -6.96924047E-08
   38.5499992      -6.78285446E-08
   38.6100006      -6.56747616E-08
   38.6699982      -6.32654036E-08
   38.7299995      -6.06439201E-08
   38.7900009      -5.78528656E-08
   38.8499985      -5.49239196E-08
   38.9099998      -5.18717691E-08
   38.9700012      -4.86944423E-08
   39.0299988      -4.53805704E-08
   39.0900002      -4.19211723E-08
   39.1500015      -3.83218541E-08
   39.2099991      -3.46105651E-08
   39.2700005      -3.08376791E-08
   39.3300018      -2.70677365E-08
   39.3899994      -2.33655033E-08
   39.4500008      -1.97812167E-08
   39.5099983      -1.63404152E-08
   39.5699997      -1.30421620E-08
   39.6300011      -9.86650761E-09
   39.6899986      -6.78876466E-09
   39.7500000      -3.79572285E-09
   39.8100014      -8.98261188E-10
   39.8699989       1.86404181E-09
   39.9300003       4.42812098E-09
   39.9900017       6.72111478E-09
   40.0499992       8.67839489E-09
   40.1100006       1.02602202E-08
   40.1699982       1.14614203E-08
   40.2299995       1.23105446E-08
   40.2900009       1.28582247E-08
   40.3499985       1.31583420E-08
   40.4099998       1.32483606E-08
   40.4700012       1.31359830E-08
   40.5299988       1.27973125E-08
   40.5900002       1.21876100E-08
   40.6500015       1.12610019E-08
   40.7099991       9.99194416E-09
   40.7700005       8.39043679E-09
   40.8300018       6.50535581E-09
   40.8899994       4.41472947E-09
   40.9500008       2.20662866E-09
   41.0099983      -4.23963711E-11
   41.0699997      -2.28389840E-09
   41.1300011      -4.50386040E-09
   41.1899986      -6.71731160E-09
   41.2500000      -8.95373464E-09
   41.3100014      -1.12385488E-08
   41.3699989      -1.35768738E-08
   41.4300003      -1.59447389E-08
   41.4900017      -1.82903968E-08
   41.5499992      -2.05452757E-08
   41.6100006      -2.26409700E-08
   41.6699982      -2.45268215E-08
   41.7299995      -2.61822830E-08
   41.7900009      -2.76199579E-08
   41.8499985      -2.88782793E-08
   41.9099998      -3.00064009E-08
   41.9700012      -3.10465431E-08
   42.0299988      -3.20198161E-08
   42.0900002      -3.29201590E-08
   42.1500015      -3.37180666E-08
   42.2099991      -3.43722917E-08
   42.2700005      -3.48452005E-08
   42.3300018      -3.51165781E-08
   42.3899994      -3.51914906E-08
   42.4500008      -3.50999478E-08
   42.5099983      -3.48886040E-08
   42.5699997      -3.46071296E-08
   42.6300011      -3.42934108E-08
   42.6899986      -3.39620811E-08
   42.7500000      -3.36002230E-08
   42.8100014      -3.31717800E-08
   42.8699989      -3.26298029E-08
   42.9300003      -3.19327071E-08
   42.9900017      -3.10593684E-08
   43.0499992      -3.00178442E-08
   43.1100006      -2.88447168E-08
   43.1699982      -2.75951706E-08
   43.2299995      -2.63270934E-08
   43.2900009      -2.50844234E-08
   43.3499985      -2.38849971E-08
   43.4099998      -2.27164669E-08
   43.4700012      -2.15411973E-08
   43.5299988      -2.03083523E-08
   43.5900002      -1.89694855E-08
   43.6500015      -1.74931696E-08
   43.7099991      -1.58745159E-08
   43.7700005      -1.41367904E-08
   43.8300018      -1.23244011E-08
   43.8899994      -1.04890070E-08
   43.9500008      -8.67274608E-09
   44.0099983      -6.89391477E-09
   44.0699997      -5.14008880E-09
   44.1300011      -3.37158013E-09
   44.1899986      -1.53465984E-09
   44.2500000       4.19493607E-10
   44.3100014       2.51646126E-09
   44.3699989       4.74723016E-09
   44.4300003       7.06792713E-09
   44.4900017       9.41101330E-09
   44.5499992       1.17044703E-08
   44.6100006       1.38929392E-08
   44.6699982       1.59542086E-08
   44.7299995       1.79059985E-08
   44.7900009       1.98009928E-08
   44.8499985       2.17116405E-08
   44.9099998       2.37092301E-08
   44.9700012       2.58435460E-08
   45.0299988       2.81291808E-08
   45.0900002       3.05427506E-08
   45.1500015       3.30318279E-08
   45.2099991       3.55327181E-08
   45.2700005       3.79912777E-08
   45.3300018       4.03798879E-08
   45.3899994       4.27048761E-08
   45.4500008       4.50021176E-08
   45.5099983       4.73223309E-08
   45.5699997       4.97113319E-08
   45.6300011       5.21919823E-08
   45.6899986       5.47538903E-08
   45.7500000       5.73541961E-08
   45.8100014       5.99289507E-08
   45.8699989       6.24112175E-08
   45.9300003       6.47497487E-08
   45.9900017       6.69221762E-08
   46.0499992       6.89383555E-08
   46.1100006       7.08325913E-08
   46.1699982       7.26473033E-08
   46.2299995       7.44132507E-08
   46.2900009       7.61330057E-08
   46.3499985       7.77733860E-08
   46.4099998       7.92698671E-08
   46.4700012       8.05420513E-08
   46.5299988       8.15155872E-08
   46.5900002       8.21434440E-08
   46.6500015       8.24193549E-08
   46.7099991       8.23789605E-08
   46.7700005       8.20878086E-08
   46.8300018       8.16202430E-08
   46.8899994       8.10360987E-08
   46.9500008       8.03629234E-08
   47.0099983       7.95895119E-08
   47.0699997       7.86728904E-08
   47.1300011       7.75558817E-08
   47.1899986       7.61893304E-08
   47.2500000       7.45513731E-08
   47.3100014       7.26572367E-08
   47.3699989       7.05567800E-08
   47.4300003       6.83207233E-08
   47.4900017       6.60206041E-08
   47.5499992       6.37091944E-08
   47.6100006       6.14077749E-08
   47.6699982       5.91043943E-08
   47.7299995       5.67629712E-08
   47.7900009       5.43401626E-08
   47.8499985       5.18038306E-08
   47.9099998       4.91470722E-08
   47.9700012       4.63930334E-08
   48.0299988       4.35891394E-08
   48.0900002       4.07928553E-08
   48.1500015       3.80539724E-08
   48.2099991       3.53996441E-08
   48.2700005       3.28272272E-08
   48.3300018       3.03074295E-08
   48.3899994       2.77965224E-08
   48.4500008       2.52532395E-08
   48.5099983       2.26543602E-08
   48.5699997       2.00035739E-08
   48.6300011       1.73307040E-08
   48.6899986       1.46819037E-08
   48.7500000       1.21046337E-08
   48.8100014       9.63295221E-09
   48.8699989       7.27826910E-09
   48.9300003       5.02854869E-09
   48.9900017       2.85568369E-09
   49.0499992       7.27913396E-10
   49.1100006      -1.37749856E-09
   49.1699982      -3.46586604E-09
   49.2299995      -5.52364732E-09
   49.2900009      -7.52394946E-09
   49.3499985      -9.43641254E-09
   49.4099998      -1.12374918E-08
   49.4700012      -1.29172948E-08
   49.5299988      -1.44806505E-08
   49.5900002      -1.59423994E-08
   49.6500015      -1.73190333E-08
   49.7099991      -1.86200921E-08
   49.7700005      -1.98426573E-08
   49.8300018      -2.09709690E-08
   49.8899994      -2.19812470E-08
   49.9500008      -2.28497719E-08
   50.0099983      -2.35611566E-08
   50.0699997      -2.41136231E-08
   50.1300011      -2.45191831E-08
   50.1899986      -2.47984921E-08
   50.2500000      -2.49721595E-08
   50.3100014      -2.50516212E-08
   50.3699989      -2.50330459E-08
   50.4300003      -2.48967886E-08
   50.4900017      -2.46129055E-08
   50.5499992      -2.41510918E-08
   50.6100006      -2.34915873E-08