  -2.400000      0.0000000E+00
  -2.340000      0.0000000E+00
  -2.280000      0.0000000E+00
  -2.220000      0.0000000E+00
  -2.160000      0.0000000E+00
  -2.100000      0.0000000E+00
  -2.040000      0.0000000E+00
  -1.980000      8.0225774E-25
  -1.920000      7.8407339E-24
  -1.860000      3.4245440E-23
  -1.800000      7.2154046E-23
  -1.740000     -2.8105432E-23
  -1.680000     -7.5768436E-22
  -1.620000     -2.9048024E-21
  -1.560000     -6.5279333E-21
  -1.500000     -8.4064524E-21
  -1.440000      7.4062568E-22
  -1.380000      3.4623338E-20
  -1.320000      9.8849214E-20
  -1.260000      1.6627627E-19
  -1.200000      1.5468942E-19
  -1.140000     -5.9773603E-20
  -1.080000     -5.5849658E-19
  -1.020000     -1.2303230E-18
 -0.9600000     -1.6418535E-18
 -0.9000000     -1.0902605E-18
 -0.8400000      1.0179673E-18
 -0.7800000      4.5041647E-18
 -0.7200000      7.8284348E-18
 -0.6600000      8.1828081E-18
 -0.6000000      2.7679786E-18
 -0.5400000     -8.8913247E-18
 -0.4800000     -2.2747349E-17
 -0.4200000     -3.0054923E-17
 -0.3600000     -2.0809444E-17
 -0.3000000      9.4501299E-18
 -0.2400000      5.2542231E-17
 -0.1800000      8.5487621E-17
 -0.1200000      7.7987587E-17
 -5.9999999E-02  9.8135500E-18
  0.0000000E+00 -1.0872939E-16
  5.9999999E-02 -2.2615658E-16
  0.1200000     -2.6192609E-16
  0.1800000     -1.4521731E-16
  0.2400000      1.3216939E-16
  0.3000000      4.7738846E-16
  0.3600000      7.0573583E-16
  0.4200000      6.1502379E-16
  0.4800000      1.0798971E-16
  0.5400000     -6.9419565E-16
  0.6000000     -1.4252433E-15
  0.6600000     -1.5917647E-15
  0.7200000     -8.2742080E-16
  0.7800000      8.1598008E-16
  0.8400000      2.7069566E-15
  0.9000000      3.7604036E-15
  0.9600000      2.8984049E-15
   1.020000     -2.9265806E-16
   1.080000     -5.0225831E-15
   1.140000     -9.2427685E-15
   1.200000     -1.0297263E-14
   1.260000     -6.1691819E-15
   1.320000      3.1697883E-15
   1.380000      1.5023849E-14
   1.440000      2.4454649E-14
   1.500000      2.6093622E-14
   1.560000      1.6705282E-14
   1.620000     -2.6396981E-15
   1.680000     -2.6004245E-14
   1.740000     -4.4301717E-14
   1.800000     -4.8916759E-14
   1.860000     -3.5800529E-14
   1.920000     -8.0953065E-15
   1.980000      2.4262271E-14
   2.040000      4.8258435E-14
   2.100000      5.3539709E-14
   2.160000      3.7679868E-14
   2.220000      8.3470227E-15
   2.280000     -1.9150126E-14
   2.340000     -2.8486518E-14
   2.400000     -1.0646442E-14
   2.460000      2.9687526E-14
   2.520000      7.3049836E-14
   2.580000      9.1028252E-14
   2.640000      5.7940889E-14
   2.700000     -3.5447116E-14
   2.760000     -1.7168339E-13
   2.820000     -3.0526205E-13
   2.880000     -3.7322291E-13
   2.940000     -3.1665867E-13
   3.000000     -1.0722110E-13
   3.060000      2.3104747E-13
   3.120000      6.1498267E-13
   3.180000      9.1758198E-13
   3.240000      1.0047458E-12
   3.300000      7.8374075E-13
   3.360000      2.4648819E-13
   3.420000     -5.1056300E-13
   3.480000     -1.3018249E-12
   3.540000     -1.9023019E-12
   3.600000     -2.1163557E-12
   3.660000     -1.8406073E-12
   3.720000     -1.0964423E-12
   3.780000     -1.9027372E-14
   3.840000      1.1919415E-12
   3.900000      2.3373679E-12
   3.960000      3.2697697E-12
   4.020000      3.9067391E-12
   4.080000      4.2021564E-12
   4.140000      4.0932331E-12
   4.200000      3.4572657E-12
   4.260000      2.1121772E-12
   4.320000     -1.2237115E-13
   4.380000     -3.3150104E-12
   4.440000     -7.3030054E-12
   4.500000     -1.1615725E-11
   4.560000     -1.5486210E-11
   4.620000     -1.7967848E-11
   4.680000     -1.8135120E-11
   4.740000     -1.5314314E-11
   4.800000     -9.2755343E-12
   4.860000     -3.2792830E-13
   4.920000      1.0707688E-11
   4.980000      2.2632804E-11
   5.040000      3.4060588E-11
   5.100000      4.3594694E-11
   5.160000      4.9943234E-11
   5.220000      5.1947110E-11
   5.280000      4.8544162E-11
   5.340000      3.8724021E-11
   5.400000      2.1538882E-11
   5.460000     -3.7837420E-12
   5.520000     -3.7623345E-11
   5.580000     -7.9692836E-11
   5.640000     -1.2879774E-10
   5.700000     -1.8272718E-10
   5.760000     -2.3834751E-10
   5.820000     -2.9190933E-10
   5.880000     -3.3950734E-10
   5.940000     -3.7757369E-10
   6.000000     -4.0326811E-10
   6.060000     -4.1465673E-10
   6.120000     -4.1064702E-10
   6.180000     -3.9073281E-10
   6.240000     -3.5467429E-10
   6.300000     -3.0225894E-10
   6.360000     -2.3325025E-10
   6.420000     -1.4754484E-10
   6.480000     -4.5461440E-11
   6.540000      7.1979978E-11
   6.600000      2.0293389E-10
   6.660000      3.4483691E-10
   6.720000      4.9471516E-10
   6.780000      6.4955541E-10
   6.840000      8.0655438E-10
   6.900000      9.6309904E-10
   6.960000      1.1164426E-09
   7.020000      1.2631920E-09
   7.080000      1.3988348E-09
   7.140000      1.5175675E-09
   7.200000      1.6126050E-09
   7.260000      1.6769860E-09
   7.320000      1.7046996E-09
   7.380000      1.6918241E-09
   7.440000      1.6373404E-09
   7.500000      1.5433852E-09
   7.560000      1.4148879E-09
   7.620000      1.2587345E-09
   7.680000      1.0827285E-09
   7.740000      8.9464025E-10
   7.800000      7.0154432E-10
   7.860000      5.0949323E-10
   7.920000      3.2343578E-10
   7.980000      1.4721853E-10
   8.040000     -1.6467848E-11
   8.100000     -1.6623788E-10
   8.160000     -3.0218236E-10
   8.220000     -4.2591358E-10
   8.280000     -5.4034238E-10
   8.340000     -6.4912736E-10
   8.400000     -7.5586276E-10
   8.460000     -8.6318719E-10
   8.520000     -9.7205111E-10
   8.580000     -1.0813517E-09
   8.640000     -1.1880421E-09
   8.700000     -1.2876770E-09
   8.760000     -1.3752246E-09
   8.820000     -1.4458985E-09
   8.880000     -1.4957726E-09
   8.940000     -1.5220317E-09
   9.000000     -1.5228566E-09
   9.060000     -1.4970837E-09
   9.120000     -1.4438671E-09
   9.180000     -1.3625678E-09
   9.240000     -1.2529818E-09
   9.300000     -1.1158549E-09
   9.360000     -9.5346420E-10
   9.420000     -7.6995810E-10
   9.480000     -5.7118987E-10
   9.540000     -3.6394901E-10
   9.600000     -1.5474405E-10
   9.660000      5.1492661E-11
   9.720000      2.5231148E-10
   9.780000      4.4789045E-10
   9.840000      6.4031230E-10
   9.900000      8.3221285E-10
   9.960000      1.0253220E-09
   10.02000      1.2195028E-09
   10.08000      1.4127223E-09
   10.14000      1.6020105E-09
   10.20000      1.7850271E-09
   10.26000      1.9615629E-09
   10.32000      2.1342847E-09
   10.38000      2.3083384E-09
   10.44000      2.4898972E-09
   10.50000      2.6842248E-09
   10.56000      2.8940346E-09
   10.62000      3.1188121E-09
   10.68000      3.3553476E-09
   10.74000      3.5992080E-09
   10.80000      3.8464885E-09
   10.86000      4.0951087E-09
   10.92000      4.3451767E-09
   10.98000      4.5983741E-09
   11.04000      4.8567608E-09
   11.10000      5.1215809E-09
   11.16000      5.3925993E-09
   11.22000      5.6681868E-09
   11.28000      5.9460303E-09
   11.34000      6.2240666E-09
   11.40000      6.5012000E-09
   11.46000      6.7774817E-09
   11.52000      7.0536679E-09
   11.58000      7.3303164E-09
   11.64000      7.6067437E-09
   11.70000      7.8801952E-09
   11.76000      8.1455287E-09
   11.82000      8.3955234E-09
   11.88000      8.6217868E-09
   11.94000      8.8159826E-09
   12.00000      8.9710896E-09
   12.06000      9.0823260E-09
   12.12000      9.1475334E-09
   12.18000      9.1670067E-09
   12.24000      9.1429078E-09
   12.30000      9.0785557E-09
   12.36000      8.9778744E-09
   12.42000      8.8451344E-09
   12.48000      8.6850029E-09
   12.54000      8.5027665E-09
   12.60000      8.3045055E-09
   12.66000      8.0970919E-09
   12.72000      7.8878823E-09
   12.78000      7.6841387E-09
   12.84000      7.4922601E-09
   12.90000      7.3169417E-09
   12.96000      7.1604229E-09
   13.02000      7.0219608E-09
   13.08000      6.8976522E-09
   13.14000      6.7806760E-09
   13.20000      6.6619603E-09
   13.26000      6.5312169E-09
   13.32000      6.3782264E-09
   13.38000      6.1942247E-09
   13.44000      5.9731851E-09
   13.50000      5.7127791E-09
   13.56000      5.4147544E-09
   13.62000      5.0845577E-09
   13.68000      4.7301496E-09
   13.74000      4.3602295E-09
   13.80000      3.9823087E-09
   13.86000      3.6012027E-09
   13.92000      3.2184133E-09
   13.98000      2.8325615E-09
   14.04000      2.4406339E-09
   14.10000      2.0395126E-09
   14.16000      1.6272270E-09
   14.22000      1.2035931E-09
   14.28000      7.7028184E-10
   14.34000      3.3062805E-10
   14.40000     -1.1046970E-10
   14.46000     -5.4642468E-10
   14.52000     -9.6878172E-10
   14.58000     -1.3673256E-09
   14.64000     -1.7307452E-09
   14.70000     -2.0478319E-09
   14.76000     -2.3088818E-09
   14.82000     -2.5068436E-09
   14.88000     -2.6378877E-09
   14.94000     -2.7013713E-09
   15.00000     -2.6994400E-09
   15.06000     -2.6365650E-09
   15.12000     -2.5191540E-09
   15.18000     -2.3551290E-09
   15.24000     -2.1532620E-09
   15.30000     -1.9221666E-09
   15.36000     -1.6691352E-09
   15.42000     -1.3992527E-09
   15.48000     -1.1152328E-09
   15.54000     -8.1813445E-10
   15.60000     -5.0870846E-10
   15.66000     -1.8878898E-10
   15.72000      1.3786090E-10
   15.78000      4.6554735E-10
   15.84000      7.8734391E-10
   15.90000      1.0960252E-09
   15.96000      1.3847421E-09
   16.02000      1.6472073E-09
   16.08000      1.8775115E-09
   16.14000      2.0699391E-09
   16.20000      2.2191238E-09
   16.26000      2.3206359E-09
   16.32000      2.3717943E-09
   16.38000      2.3723121E-09
   16.44000      2.3244391E-09
   16.50000      2.2324980E-09
   16.56000      2.1019824E-09
   16.62000      1.9385680E-09
   16.68000      1.7473829E-09
   16.74000      1.5327478E-09
   16.80000      1.2983954E-09
   16.86000      1.0480224E-09
   16.92000      7.8595164E-10
   16.98000      5.1770310E-10
   17.04000      2.5033864E-10
   17.10000     -7.4738375E-12
   17.16000     -2.4566560E-10
   17.22000     -4.5319604E-10
   17.28000     -6.1865063E-10
   17.34000     -7.3096684E-10
   17.40000     -7.8025358E-10
   17.46000     -7.5866091E-10
   17.52000     -6.6121680E-10
   17.58000     -4.8650012E-10
   17.64000     -2.3698576E-10
   17.70000      8.1068798E-11
   17.76000      4.5822601E-10
   17.82000      8.8284152E-10
   17.88000      1.3421606E-09
   17.94000      1.8232487E-09
   18.00000      2.3135300E-09
   18.06000      2.8008753E-09
   18.12000      3.2733600E-09
   18.18000      3.7189327E-09
   18.24000      4.1252486E-09
   18.30000      4.4798321E-09
   18.36000      4.7705759E-09
   18.42000      4.9864619E-09
   18.48000      5.1183240E-09
   18.54000      5.1594946E-09
   18.60000      5.1062417E-09
   18.66000      4.9579860E-09
   18.72000      4.7173274E-09
   18.78000      4.3898987E-09
   18.84000      3.9840486E-09
   18.90000      3.5103267E-09
   18.96000      2.9807996E-09
   19.02000      2.4082645E-09
   19.08000      1.8055191E-09
   19.14000      1.1848417E-09
   19.20000      5.5776206E-10
   19.26000     -6.4928375E-11
   19.32000     -6.7310640E-10
   19.38000     -1.2573906E-09
   19.44000     -1.8094605E-09
   19.50000     -2.3225322E-09
   19.56000     -2.7917453E-09
   19.62000     -3.2142018E-09
   19.68000     -3.5885697E-09
   19.74000     -3.9144399E-09
   19.80000     -4.1918113E-09
   19.86000     -4.4210680E-09
   19.92000     -4.6035393E-09
   19.98000     -4.7423416E-09
   20.04000     -4.8429674E-09
   20.10000     -4.9130970E-09
   20.16000     -4.9615085E-09
   20.22000     -4.9964215E-09
   20.28000     -5.0239852E-09
   20.34000     -5.0476006E-09
   20.40000     -5.0683790E-09
   20.46000     -5.0865099E-09
   20.52000     -5.1028644E-09
   20.58000     -5.1200884E-09
   20.64000     -5.1427209E-09
   20.70000     -5.1763509E-09
   20.76000     -5.2262203E-09
   20.82000     -5.2958731E-09
   20.88000     -5.3863412E-09
   20.94000     -5.4961165E-09
   21.00000     -5.6218541E-09
   21.06000     -5.7595666E-09
   21.12000     -5.9059313E-09
   21.18000     -6.0593282E-09
   21.24000     -6.2202528E-09
   21.30000     -6.3909220E-09
   21.36000     -6.5741430E-09
   21.42000     -6.7718395E-09
   21.48000     -6.9838157E-09
   21.54000     -7.2073094E-09
   21.60000     -7.4375728E-09
   21.66000     -7.6692226E-09
   21.72000     -7.8977420E-09
   21.78000     -8.1204110E-09
   21.84000     -8.3362686E-09
   21.90000     -8.5452214E-09
   21.96000     -8.7468699E-09
   22.02000     -8.9397556E-09
   22.08000     -9.1214680E-09
   22.14000     -9.2895194E-09
   22.20000     -9.4425054E-09
   22.26000     -9.5808650E-09
   22.32000     -9.7068442E-09
   22.38000     -9.8236628E-09
   22.44000     -9.9343351E-09
   22.50000     -1.0040721E-08
   22.56000     -1.0143285E-08
   22.62000     -1.0241652E-08
   22.68000     -1.0335701E-08
   22.74000     -1.0426700E-08
   22.80000     -1.0517974E-08
   22.86000     -1.0614785E-08
   22.92000     -1.0723428E-08
   22.98000     -1.0849836E-08
   23.04000     -1.0998184E-08
   23.10000     -1.1169973E-08
   23.16000     -1.1363874E-08
   23.22000     -1.1576268E-08
   23.28000     -1.1802140E-08
   23.34000     -1.2035832E-08
   23.40000     -1.2271268E-08
   23.46000     -1.2501635E-08
   23.52000     -1.2718786E-08
   23.58000     -1.2912846E-08
   23.64000     -1.3072408E-08
   23.70000     -1.3185431E-08
   23.76000     -1.3240585E-08
   23.82000     -1.3228705E-08
   23.88000     -1.3144010E-08
   23.94000     -1.2984942E-08
   24.00000     -1.2754654E-08
   24.06000     -1.2461159E-08
   24.12000     -1.2117047E-08
   24.18000     -1.1738631E-08
   24.24000     -1.1344440E-08
   24.30000     -1.0953221E-08
   24.36000     -1.0581914E-08
   24.42000     -1.0244085E-08
   24.48000     -9.9491491E-09
   24.54000     -9.7022648E-09
   24.60000     -9.5045216E-09
   24.66000     -9.3529584E-09
   24.72000     -9.2402912E-09
   24.78000     -9.1546646E-09
   24.84000     -9.0800096E-09
   24.90000     -8.9974463E-09
   24.96000     -8.8877385E-09
   25.02000     -8.7341787E-09
   25.08000     -8.5250393E-09
   25.14000     -8.2548519E-09
   25.20000     -7.9243003E-09
   25.26000     -7.5391213E-09
   25.32000     -7.1086750E-09
   25.38000     -6.6448096E-09
   25.44000     -6.1611782E-09
   25.50000     -5.6727769E-09
   25.56000     -5.1952145E-09
   25.62000     -4.7433670E-09
   25.68000     -4.3293942E-09
   25.74000     -3.9605177E-09
   25.80000     -3.6371819E-09
   25.86000     -3.3522460E-09
   25.92000     -3.0916212E-09
   25.98000     -2.8363694E-09
   26.04000     -2.5658411E-09
   26.10000     -2.2610707E-09
   26.16000     -1.9075088E-09
   26.22000     -1.4963890E-09
   26.28000     -1.0245385E-09
   26.34000     -4.9308202E-10
   26.40000      9.4052273E-11
   26.46000      7.3091772E-10
   26.52000      1.4092014E-09
   26.58000      2.1170772E-09
   26.64000      2.8381624E-09
   26.70000      3.5515342E-09
   26.76000      4.2332275E-09
   26.82000      4.8588156E-09
   26.88000      5.4060920E-09
   26.94000      5.8568865E-09
   27.00000      6.1976317E-09
   27.06000      6.4191061E-09
   27.12000      6.5162404E-09
   27.18000      6.4886874E-09
   27.24000      6.3421788E-09
   27.30000      6.0898997E-09
   27.36000      5.7528289E-09
   27.42000      5.3583245E-09
   27.48000      4.9370592E-09
   27.54000      4.5191753E-09
   27.60000      4.1308112E-09
   27.66000      3.7918402E-09
   27.72000      3.5149808E-09
   27.78000      3.3058862E-09
   27.84000      3.1636314E-09
   27.90000      3.0812468E-09
   27.96000      3.0463159E-09
   28.02000      3.0418379E-09
   28.08000      3.0475025E-09
   28.14000      3.0412495E-09
   28.20000      3.0008462E-09
   28.26000      2.9052545E-09
   28.32000      2.7357940E-09
   28.38000      2.4772826E-09
   28.44000      2.1193005E-09
   28.50000      1.6574573E-09
   28.56000      1.0942433E-09
   28.62000      4.3893711E-10
   28.68000     -2.9374300E-10
   28.74000     -1.0861281E-09
   28.80000     -1.9206809E-09
   28.86000     -2.7829070E-09
   28.92000     -3.6633778E-09
   28.98000     -4.5584048E-09
   29.04000     -5.4692078E-09
   29.10000     -6.3997447E-09
   29.16000     -7.3536763E-09
   29.22000     -8.3312415E-09
   29.28000     -9.3270112E-09
   29.34000     -1.0329355E-08
   29.40000     -1.1321952E-08
   29.46000     -1.2286844E-08
   29.52000     -1.3207781E-08
   29.58000     -1.4072378E-08
   29.64000     -1.4872128E-08
   29.70000     -1.5600383E-08
   29.76000     -1.6249627E-08
   29.82000     -1.6809711E-08
   29.88000     -1.7268347E-08
   29.94000     -1.7613825E-08
   30.00000     -1.7838669E-08
   30.06000     -1.7942350E-08
   30.12000     -1.7931621E-08
   30.18000     -1.7818284E-08
   30.24000     -1.7615461E-08
   30.30000     -1.7334093E-08
   30.36000     -1.6981055E-08
   30.42000     -1.6559282E-08
   30.48000     -1.6069292E-08
   30.54000     -1.5510945E-08
   30.60000     -1.4884626E-08
   30.66000     -1.4191535E-08
   30.72000     -1.3433486E-08
   30.78000     -1.2612656E-08
   30.84000     -1.1731538E-08
   30.90000     -1.0792964E-08
   30.96000     -9.7998889E-09
   31.02000     -8.7548804E-09
   31.08000     -7.6595521E-09
   31.14000     -6.5144383E-09
   31.20000     -5.3196429E-09
   31.26000     -4.0761545E-09
   31.32000     -2.7872904E-09
   31.38000     -1.4595766E-09
   31.44000     -1.0265348E-10
   31.50000      1.2716940E-09
   31.56000      2.6508198E-09
   31.62000      4.0221524E-09
   31.68000      5.3733902E-09
   31.74000      6.6920705E-09
   31.80000      7.9650269E-09
   31.86000      9.1783479E-09
   31.92000      1.0318177E-08
   31.98000      1.1372261E-08
   32.04000      1.2331719E-08
   32.10000      1.3192320E-08
   32.16000      1.3954736E-08
   32.22000      1.4623563E-08
   32.28000      1.5205391E-08
   32.34000      1.5706583E-08
   32.40000      1.6131445E-08
   32.46000      1.6481417E-08
   32.52000      1.6755374E-08
   32.58000      1.6950800E-08
   32.64000      1.7065226E-08
   32.70000      1.7097355E-08
   32.76000      1.7047508E-08
   32.82000      1.6917372E-08
   32.88000      1.6709397E-08
   32.94000      1.6426103E-08
   33.00000      1.6069626E-08
   33.06000      1.5641456E-08
   33.12000      1.5142339E-08
   33.18000      1.4572286E-08
   33.24000      1.3930750E-08
   33.30000      1.3217151E-08
   33.36000      1.2431713E-08
   33.42000      1.1576419E-08
   33.48000      1.0655700E-08
   33.54000      9.6764765E-09
   33.60000      8.6474978E-09
   33.66000      7.5783060E-09
   33.72000      6.4783707E-09
   33.78000      5.3568523E-09
   33.84000      4.2230934E-09
   33.90000      3.0874874E-09
   33.96000      1.9621613E-09
   34.02000      8.6101987E-10
   34.08000     -2.0093541E-10
   34.14000     -1.2087406E-09
   34.20000     -2.1486517E-09
   34.26000     -3.0090939E-09
   34.32000     -3.7813082E-09
   34.38000     -4.4597761E-09
   34.44000     -5.0424216E-09
   34.50000     -5.5304703E-09
   34.56000     -5.9278080E-09
   34.62000     -6.2398620E-09
   34.68000     -6.4723675E-09
   34.74000     -6.6305597E-09
   34.80000     -6.7191941E-09
   34.86000     -6.7432944E-09
   34.92000     -6.7089889E-09
   34.98000     -6.6235883E-09
   35.04000     -6.4944135E-09
   35.10000     -6.3266627E-09
   35.16000     -6.1213399E-09
   35.22000     -5.8744751E-09
   35.28000     -5.5783276E-09
   35.34000     -5.2242375E-09
   35.40000     -4.8058824E-09
   35.46000     -4.3214325E-09
   35.52000     -3.7736636E-09
   35.58000     -3.1681529E-09
   35.64000     -2.5106823E-09
   35.70000     -1.8052946E-09
   35.76000     -1.0540075E-09
   35.82000     -2.5826979E-10
   35.88000      5.7864813E-10
   35.94000      1.4495218E-09
   36.00000      2.3422828E-09
   36.06000      3.2407534E-09
   36.12000      4.1267358E-09
   36.18000      4.9827622E-09
   36.24000      5.7946661E-09
   36.30000      6.5532553E-09
   36.36000      7.2545912E-09
   36.42000      7.8987545E-09
   36.48000      8.4874268E-09
   36.54000      9.0211048E-09
   36.60000      9.4970369E-09
   36.66000      9.9088586E-09
   36.72000      1.0248279E-08
   36.78000      1.0508252E-08
   36.84000      1.0686303E-08
   36.90000      1.0786428E-08
   36.96000      1.0818604E-08
   37.02000      1.0795981E-08
   37.08000      1.0730933E-08
   37.14000      1.0631643E-08
   37.20000      1.0500550E-08
   37.26000      1.0335071E-08
   37.32000      1.0129932E-08
   37.38000      9.8798987E-09
   37.44000      9.5817079E-09
   37.50000      9.2347197E-09
   37.56000      8.8404448E-09
   37.62000      8.4015994E-09
   37.68000      7.9212752E-09
   37.74000      7.4025501E-09
   37.80000      6.8484955E-09
   37.86000      6.2624204E-09
   37.92000      5.6482405E-09
   37.98000      5.0109570E-09
   38.04000      4.3572115E-09
   38.10000      3.6957384E-09
   38.16000      3.0373757E-09
   38.22000      2.3943212E-09
   38.28000      1.7785805E-09
   38.34000      1.1999515E-09
   38.40000      6.6419775E-10
   38.46000      1.7208138E-10
   38.52000     -2.8036115E-10
   38.58000     -7.0037975E-10
   38.64000     -1.0963843E-09
   38.70000     -1.4757785E-09
   38.76000     -1.8433157E-09
   38.82000     -2.2003099E-09
   38.88000     -2.5447850E-09
   38.94000     -2.8724481E-09
   39.00000     -3.1782230E-09
   39.06000     -3.4579331E-09
   39.12000     -3.7096137E-09
   39.18000     -3.9339580E-09
   39.24000     -4.1336192E-09
   39.30000     -4.3115196E-09
   39.36000     -4.4687920E-09
   39.42000     -4.6032267E-09
   39.48000     -4.7089745E-09
   39.54000     -4.7777613E-09
   39.60000     -4.8012034E-09
   39.66000     -4.7733377E-09
   39.72000     -4.6924171E-09
   39.78000     -4.5613922E-09
   39.84000     -4.3870840E-09
   39.90000     -4.1785535E-09
   39.96000     -3.9453290E-09
   40.02000     -3.6960273E-09
   40.08000     -3.4375875E-09
   40.14000     -3.1750835E-09
   40.20000     -2.9120091E-09
   40.26000     -2.6509475E-09
   40.32000     -2.3945348E-09
   40.38000     -2.1464894E-09
   40.44000     -1.9123003E-09
   40.50000     -1.6990821E-09
   40.56000     -1.5143204E-09
   40.62000     -1.3637188E-09
   40.68000     -1.2489068E-09
   40.74000     -1.1660597E-09
   40.80000     -1.1062781E-09
   40.86000     -1.0578886E-09
   40.92000     -1.0099663E-09
   40.98000     -9.5577790E-10
   41.04000     -8.9481744E-10
   41.10000     -8.3270069E-10
   41.16000     -7.7909279E-10
   41.22000     -7.4462958E-10
   41.28000     -7.3808243E-10
   41.34000     -7.6470136E-10
   41.40000     -8.2597834E-10
   41.46000     -9.2039354E-10
   41.52000     -1.0443850E-09
   41.58000     -1.1929481E-09
   41.64000     -1.3597693E-09
   41.70000     -1.5373005E-09
   41.76000     -1.7173577E-09
   41.82000     -1.8925745E-09
   41.88000     -2.0584696E-09
   41.94000     -2.2153321E-09
   42.00000     -2.3689311E-09
   42.06000     -2.5293874E-09
   42.12000     -2.7083045E-09
   42.18000     -2.9150966E-09
   42.24000     -3.1539449E-09
   42.30000     -3.4226590E-09
   42.36000     -3.7139474E-09
   42.42000     -4.0185166E-09
   42.48000     -4.3285691E-09
   42.54000     -4.6400732E-09
   42.60000     -4.9527644E-09
   42.66000     -5.2679470E-09
   42.72000     -5.5852505E-09
   42.78000     -5.9000174E-09
   42.84000     -6.2026992E-09
   42.90000     -6.4806680E-09
   42.96000     -6.7216996E-09
   43.02000     -6.9176123E-09
   43.08000     -7.0665083E-09
   43.14000     -7.1727269E-09
   43.20000     -7.2446227E-09
   43.26000     -7.2911766E-09
   43.32000     -7.3187967E-09
   43.38000     -7.3294952E-09
   43.44000     -7.3209896E-09
   43.50000     -7.2885529E-09
   43.56000     -7.2278605E-09
   43.62000     -7.1378294E-09
   43.68000     -7.0224790E-09
   43.74000     -6.8911743E-09
   43.80000     -6.7570949E-09
   43.86000     -6.6343260E-09
   43.92000     -6.5344348E-09
   43.98000     -6.4636012E-09
   44.04000     -6.4212666E-09
   44.10000     -6.4007621E-09
   44.16000     -6.3917094E-09
   44.22000     -6.3833832E-09
   44.28000     -6.3679084E-09
   44.34000     -6.3423142E-09
   44.40000     -6.3089094E-09
   44.46000     -6.2740417E-09
   44.52000     -6.2457781E-09
   44.58000     -6.2312511E-09
   44.64000     -6.2344219E-09
   44.70000     -6.2547971E-09
   44.76000     -6.2874013E-09
   44.82000     -6.3239995E-09
   44.88000     -6.3552732E-09
   44.94000     -6.3733454E-09
   45.00000     -6.3738677E-09
   45.06000     -6.3569310E-09
   45.12000     -6.3264207E-09
   45.18000     -6.2879715E-09
   45.24000     -6.2462484E-09
   45.30000     -6.2025860E-09
   45.36000     -6.1538561E-09
   45.42000     -6.0929848E-09
   45.48000     -6.0108558E-09
   45.54000     -5.8988516E-09
   45.60000     -5.7511249E-09
   45.66000     -5.5658664E-09
   45.72000     -5.3452727E-09
   45.78000     -5.0943898E-09
   45.84000     -4.8193027E-09
   45.90000     -4.5253339E-09
   45.96000     -4.2158756E-09
   46.02000     -3.8922954E-09
   46.08000     -3.5550323E-09
   46.14000     -3.2055800E-09
   46.20000     -2.8486464E-09
   46.26000     -2.4935698E-09
   46.32000     -2.1542139E-09
   46.38000     -1.8470762E-09
   46.44000     -1.5880652E-09
   46.50000     -1.3890127E-09
   46.56000     -1.2551840E-09
   46.62000     -1.1847016E-09
   46.68000     -1.1700364E-09
   46.74000     -1.2008968E-09
   46.80000     -1.2673319E-09
   46.86000     -1.3618711E-09
   46.92000     -1.4800152E-09
   46.98000     -1.6191214E-09
   47.04000     -1.7763625E-09
   47.10000     -1.9467599E-09
   47.16000     -2.1222015E-09
   47.22000     -2.2919497E-09
   47.28000     -2.4445723E-09
   47.34000     -2.5706861E-09
   47.40000     -2.6655609E-09
   47.46000     -2.7305949E-09
   47.52000     -2.7730189E-09
   47.58000     -2.8038032E-09
   47.64000     -2.8344544E-09
   47.70000     -2.8738742E-09
   47.76000     -2.9264822E-09
   47.82000     -2.9923017E-09
   47.88000     -3.0688745E-09
   47.94000     -3.1540754E-09
   48.00000     -3.2485263E-09
   48.06000     -3.3565490E-09
   48.12000     -3.4853040E-09
   48.18000     -3.6425936E-09
   48.24000     -3.8343373E-09
   48.30000     -4.0627572E-09
   48.36000     -4.3258628E-09
   48.42000     -4.6182205E-09
   48.48000     -4.9324984E-09
   48.54000     -5.2611386E-09
   48.60000     -5.5976517E-09
   48.66000     -5.9373164E-09
   48.72000     -6.2773200E-09
   48.78000     -6.6164625E-09
   48.84000     -6.9545742E-09
   48.90000     -7.2917592E-09
   48.96000     -7.6276310E-09
   49.02000     -7.9607663E-09
   49.08000     -8.2886391E-09
   49.14000     -8.6081791E-09
   49.20000     -8.9168859E-09
   49.26000     -9.2141521E-09
   49.32000     -9.5022212E-09
   49.38000     -9.7862456E-09
   49.44000     -1.0073139E-08
   49.50000     -1.0369418E-08
   49.56000     -1.0678670E-08
   49.62000     -1.0999554E-08
   49.68000     -1.1325191E-08
   49.74000     -1.1644186E-08
   49.80000     -1.1942944E-08
   49.86000     -1.2208283E-08
   49.92000     -1.2429265E-08
   49.98000     -1.2597562E-08
   50.04000     -1.2706500E-08
   50.10000     -1.2749618E-08
   50.16000     -1.2719887E-08
   50.22000     -1.2610276E-08
   50.28000     -1.2415547E-08
   50.34000     -1.2134275E-08
   50.40000     -1.1769945E-08
   50.46000     -1.1330305E-08
   50.52000     -1.0825232E-08
   50.58000     -1.0264152E-08
   50.64000     -9.6543182E-09
   50.70000     -9.0007592E-09
   50.76000     -8.3077145E-09
   50.82000     -7.5805140E-09
   50.88000     -6.8266637E-09
   50.94000     -6.0553984E-09
   51.00000     -5.2758971E-09
   51.06000     -4.4951318E-09
   51.12000     -3.7165016E-09
   51.18000     -2.9399398E-09
   51.24000     -2.1633753E-09
   51.30000     -1.3847432E-09
   51.36000     -6.0355737E-10
   51.42000      1.7861813E-10
   51.48000      9.5884978E-10
   51.54000      1.7341862E-09
   51.60000      2.5029978E-09
   51.66000      3.2657879E-09
   51.72000      4.0253356E-09
   51.78000      4.7863891E-09
   51.84000      5.5552820E-09
   51.90000      6.3397798E-09
   51.96000      7.1492039E-09
   52.02000      7.9946449E-09
   52.08000      8.8889482E-09
   52.14000      9.8462616E-09
   52.20000      1.0881175E-08
   52.26000      1.2007855E-08
   52.32000      1.3239722E-08
   52.38000      1.4590183E-08
   52.44000      1.6074571E-08
   52.50000      1.7712917E-08
   52.56000      1.9532767E-08
   52.62000      2.1571090E-08
   52.68000      2.3874605E-08
   52.74000      2.6498434E-08
   52.80000      2.9503642E-08
   52.86000      3.2954716E-08
   52.92000      3.6918038E-08
   52.98000      4.1461941E-08
   53.04000      4.6658329E-08
   53.10000      5.2585015E-08
   53.16000      5.9327668E-08
   53.22000      6.6980341E-08
   53.28000      7.5644323E-08
   53.34000      8.5425846E-08
   53.40000      9.6433816E-08
   53.46000      1.0877875E-07
   53.52000      1.2257340E-07
   53.58000      1.3793451E-07
   53.64000      1.5498424E-07
   53.70000      1.7384939E-07
   53.76000      1.9465767E-07
   53.82000      2.1753137E-07
   53.88000      2.4257957E-07
   53.94000      2.6989181E-07
   54.00000      2.9953392E-07
   54.06000      3.3154680E-07
   54.12000      3.6594676E-07
   54.18000      4.0272570E-07
   54.24000      4.4184932E-07
   54.30000      4.8325262E-07
   54.36000      5.2683288E-07
   54.42000      5.7244182E-07
   54.48000      6.1987720E-07
   54.54000      6.6887520E-07
   54.60000      7.1910512E-07
   54.66000      7.7016466E-07
   54.72000      8.2157845E-07
   54.78000      8.7279614E-07
   54.84000      9.2319209E-07
   54.90000      9.7206373E-07
   54.96000      1.0186282E-06
   55.02000      1.0620189E-06
   55.08000      1.1012810E-06
   55.14000      1.1353701E-06
   55.20000      1.1631529E-06
   55.26000      1.1834138E-06
   55.32000      1.1948619E-06
   55.38000      1.1961421E-06
   55.44000      1.1858450E-06
   55.50000      1.1625185E-06
   55.56000      1.1246774E-06