 -0.750000000       0.00000000    
 -0.689999998       0.00000000    
 -0.629999995       0.00000000    
 -0.569999993       0.00000000    
 -0.509999990       0.00000000    
 -0.449999988       0.00000000    
 -0.389999986       0.00000000    
 -0.330000013      -1.07430542E-25
 -0.270000011      -8.34821223E-25
 -0.209999993      -2.69047283E-24
 -0.150000006      -2.42150972E-24
  -9.00000036E-02   1.67077963E-23
  -2.99999993E-02   9.91782183E-23
   2.99999993E-02   3.26099422E-22
   9.00000036E-02   7.87914525E-22
  0.150000006       1.43613448E-21
  0.209999993       1.65663234E-21
  0.270000011      -5.24549285E-22
  0.330000013      -9.15230354E-21
  0.389999986      -2.93354693E-20
  0.449999988      -6.17591980E-20
  0.509999990      -9.09511450E-20
  0.569999993      -7.11746395E-20
  0.629999995       7.59026746E-20
  0.689999998       4.28826043E-19
  0.750000000       9.81613992E-19
  0.810000002       1.52066692E-18
  0.870000005       1.53370577E-18
  0.930000007       2.74370717E-19
  0.990000010      -2.89583566E-18
   1.04999995      -7.87441615E-18
   1.11000001      -1.30987681E-17
   1.16999996      -1.51981418E-17
   1.23000002      -9.59662935E-18
   1.28999996       7.54270763E-18
   1.35000002       3.62375121E-17
   1.40999997       6.95586037E-17
   1.47000003       9.23432143E-17
   1.52999997       8.38011715E-17
   1.59000003       2.51070922E-17
   1.64999998      -8.91106851E-17
   1.71000004      -2.39312086E-16
   1.76999998      -3.75773065E-16
   1.83000004      -4.25681040E-16
   1.88999999      -3.15469533E-16
   1.95000005      -4.83555435E-18
   2.00999999       4.78571603E-16
   2.06999993       1.01973704E-15
   2.13000011       1.42698179E-15
   2.19000006       1.47903737E-15
   2.25000000       1.00081347E-15
   2.30999994      -5.37148491E-17
   2.36999989      -1.54059517E-15
   2.43000007      -3.11337717E-15
   2.49000001      -4.27339218E-15
   2.54999995      -4.48093346E-15
   2.60999990      -3.31031297E-15
   2.67000008      -6.20043840E-16
   2.73000002       3.30094881E-15
   2.78999996       7.66113518E-15
   2.84999990       1.12253465E-14
   2.91000009       1.25515959E-14
   2.97000003       1.04082909E-14
   3.02999997       4.29311661E-15
   3.08999991      -5.11876748E-15
   3.15000010      -1.58228601E-14
   3.21000004      -2.48107622E-14
   3.26999998      -2.88891463E-14
   3.32999992      -2.57710045E-14
   3.39000010      -1.50223174E-14
   3.45000005       1.57569960E-15
   3.50999999       2.04751902E-14
   3.56999993       3.74654565E-14
   3.63000011       4.89207030E-14
   3.69000006       5.25792246E-14
   3.75000000       4.75107692E-14
   3.80999994       3.34639068E-14
   3.86999989       1.02757895E-14
   3.93000007      -2.18853595E-14
   3.99000001      -6.11593024E-14
   4.05000019      -1.02103398E-13
   4.11000013      -1.34624367E-13
   4.17000008      -1.45168410E-13
   4.23000002      -1.20744303E-13
   4.28999996      -5.48228658E-14
   4.34999990       4.72773439E-14
   4.40999985       1.66360564E-13
   4.46999979       2.72519502E-13
   4.53000021       3.33168714E-13
   4.59000015       3.23294234E-13
   4.65000010       2.34013004E-13
   4.71000004       7.61048397E-14
   4.76999998      -1.22627413E-13
   4.82999992      -3.24611296E-13
   4.88999987      -4.91049584E-13
   4.94999981      -5.88556114E-13
   5.01000023      -5.92554109E-13
   5.07000017      -4.88533367E-13
   5.13000011      -2.73670870E-13
   5.19000006       3.93190763E-14
   5.25000000       4.16696842E-13
   5.30999994       8.00018038E-13
   5.36999989       1.10907475E-12
   5.42999983       1.25487598E-12
   5.48999977       1.16209169E-12
   5.55000019       7.95434356E-13
   5.61000013       1.80934247E-13
   5.67000008      -5.87068913E-13
   5.73000002      -1.35862805E-12
   5.78999996      -1.95955708E-12
   5.84999990      -2.23378846E-12
   5.90999985      -2.08478265E-12
   5.96999979      -1.50382300E-12
   6.03000021      -5.76846567E-13
   6.09000015       5.32129299E-13
   6.15000010       1.61627244E-12
   6.21000004       2.47041688E-12
   6.26999998       2.93368433E-12
   6.32999992       2.92073332E-12
   6.38999987       2.43585143E-12
   6.44999981       1.56852482E-12
   6.51000023       4.72941510E-13
   6.57000017      -6.63583012E-13
   6.63000011      -1.65707617E-12
   6.69000006      -2.36185941E-12
   6.75000000      -2.69795449E-12
   6.80999994      -2.66576193E-12
   6.86999989      -2.34439031E-12
   6.92999983      -1.87239634E-12
   6.98999977      -1.41301001E-12
   7.05000019      -1.10957988E-12
   7.11000013      -1.04029220E-12
   7.17000008      -1.18303555E-12
   7.23000002      -1.40106438E-12
   7.28999996      -1.45733675E-12
   7.34999990      -1.06048243E-12
   7.40999985       6.12924967E-14
   7.46999979       2.06893487E-12
   7.53000021       4.92021137E-12
   7.59000015       8.29537741E-12
   7.65000010       1.15581789E-11
   7.71000004       1.37631052E-11
   7.76999998       1.37101675E-11
   7.82999992       1.00386192E-11
   7.88999987       1.34496223E-12
   7.94999981      -1.36893595E-11
   8.01000023      -3.61688422E-11
   8.06999969      -6.68539599E-11
   8.13000011      -1.06026118E-10
   8.18999958      -1.53348903E-10
   8.25000000      -2.07740991E-10
   8.31000042      -2.67295158E-10
   8.36999989      -3.29290983E-10
   8.43000031      -3.90344757E-10
   8.48999977      -4.46715220E-10
   8.55000019      -4.94740471E-10
   8.60999966      -5.31334310E-10
   8.67000008      -5.54434776E-10
   8.72999954      -5.63294189E-10
   8.78999996      -5.58527835E-10
   8.85000038      -5.41895306E-10
   8.90999985      -5.15856247E-10
   8.97000027      -4.82995977E-10
   9.02999973      -4.45447457E-10
   9.09000015      -4.04428380E-10
   9.14999962      -3.59981767E-10
   9.21000004      -3.10960480E-10
   9.27000046      -2.55249294E-10
   9.32999992      -1.90180802E-10
   9.39000034      -1.13077346E-10
   9.44999981      -2.18357034E-11
   9.51000023       8.45324435E-11
   9.56999969       2.05491735E-10
   9.63000011       3.38779615E-10
   9.68999958       4.80456286E-10
   9.75000000       6.25215713E-10
   9.81000042       7.66918473E-10
   9.86999989       8.99264496E-10
   9.93000031       1.01650055E-09
   9.98999977       1.11405840E-09
   10.0500002       1.18904664E-09
   10.1099997       1.24055732E-09
   10.1700001       1.26978317E-09
   10.2299995       1.27995803E-09
   10.2900000       1.27613353E-09
   10.3500004       1.26478394E-09
   10.4099998       1.25322597E-09
   10.4700003       1.24884658E-09
   10.5299997       1.25817501E-09
   10.5900002       1.28589195E-09
   10.6499996       1.33393208E-09
   10.7100000       1.40086742E-09
   10.7700005       1.48174251E-09
   10.8299999       1.56845981E-09
   10.8900003       1.65069947E-09
   10.9499998       1.71724224E-09
   11.0100002       1.75746839E-09
   11.0699997       1.76277737E-09
   11.1300001       1.72770154E-09
   11.1899996       1.65056124E-09
   11.2500000       1.53360569E-09
   11.3100004       1.38265632E-09
   11.3699999       1.20632826E-09
   11.4300003       1.01493458E-09
   11.4899998       8.19210533E-10
   11.5500002       6.29022112E-10
   11.6099997       4.52254068E-10
   11.6700001       2.94065966E-10
   11.7299995       1.56647972E-10
   11.7900000       3.94903381E-11
   11.8500004      -5.99588920E-11
   11.9099998      -1.45482335E-10
   11.9700003      -2.21382107E-10
   12.0299997      -2.92035340E-10
   12.0900002      -3.61724956E-10
   12.1499996      -4.34603298E-10
   12.2100000      -5.14583987E-10
   12.2700005      -6.05025530E-10
   12.3299999      -7.08231473E-10
   12.3900003      -8.24962376E-10
   12.4499998      -9.54232138E-10
   12.5100002      -1.09358722E-09
   12.5699997      -1.23987065E-09
   12.6300001      -1.39023604E-09
   12.6899996      -1.54303215E-09
   12.7500000      -1.69818404E-09
   12.8100004      -1.85687388E-09
   12.8699999      -2.02059014E-09
   12.9300003      -2.18985874E-09
   12.9899998      -2.36310460E-09
   13.0500002      -2.53605825E-09
   13.1099997      -2.70196621E-09
   13.1700001      -2.85260682E-09
   13.2299995      -2.97987968E-09
   13.2900000      -3.07754888E-09
   13.3500004      -3.14266124E-09
   13.4099998      -3.17623461E-09
   13.4700003      -3.18300009E-09
   13.5299997      -3.17025384E-09
   13.5900002      -3.14614046E-09
   13.6499996      -3.11785819E-09
   13.7100000      -3.09028536E-09
   13.7700005      -3.06537506E-09
   13.8299999      -3.04240011E-09
   13.8900003      -3.01886782E-09
   13.9499998      -2.99175928E-09
   14.0100002      -2.95871239E-09
   14.0699997      -2.91886204E-09
   14.1300001      -2.87318169E-09
   14.1899996      -2.82428214E-09
   14.2500000      -2.77571144E-09
   14.3100004      -2.73086842E-09
   14.3699999      -2.69173572E-09
   14.4300003      -2.65775801E-09
   14.4899998      -2.62526778E-09
   14.5500002      -2.58779931E-09
   14.6099997      -2.53741050E-09
   14.6700001      -2.46675191E-09
   14.7299995      -2.37127429E-09
   14.7900000      -2.25079022E-09
   14.8500004      -2.10975593E-09
   14.9099998      -1.95607219E-09
   14.9700003      -1.79877135E-09
   15.0299997      -1.64540048E-09
   15.0900002      -1.50004908E-09
   15.1499996      -1.36271905E-09
   15.2100000      -1.23020993E-09
   15.2700005      -1.09811638E-09
   15.3299999      -9.63129798E-10
   15.3900003      -8.24766089E-10
   15.4499998      -6.85898505E-10
   15.5100002      -5.51958146E-10
   15.5699997      -4.29159042E-10
   15.6300001      -3.22453758E-10
   15.6899996      -2.33986747E-10
   15.7500000      -1.62588581E-10
   15.8100004      -1.04432414E-10
   15.8699999      -5.45191600E-11
   15.9300003      -8.35449938E-12
   15.9899998       3.68470011E-11
   16.0499992       8.18373563E-11
   16.1100006       1.25869759E-10
   16.1700001       1.67676331E-10
   16.2299995       2.06304446E-10
   16.2900009       2.41363651E-10
   16.3500004       2.72606271E-10
   16.4099998       2.99167191E-10
   16.4699993       3.19002519E-10
   16.5300007       3.28972655E-10
   16.5900002       3.25661997E-10
   16.6499996       3.06610737E-10
   16.7099991       2.71380862E-10
   16.7700005       2.21932209E-10
   16.8299999       1.62111116E-10
   16.8899994       9.64870336E-11
   16.9500008       2.90840737E-11
   17.0100002      -3.73981748E-11
   17.0699997      -1.01506935E-10
   17.1299992      -1.62115044E-10
   17.1900005      -2.17027979E-10
   17.2500000      -2.61691169E-10
   17.3099995      -2.88558732E-10
   17.3700008      -2.87491808E-10
   17.4300003      -2.47256021E-10
   17.4899998      -1.57861058E-10
   17.5499992      -1.32047333E-11
   17.6100006       1.86684695E-10
   17.6700001       4.34501712E-10
   17.7299995       7.16077531E-10
   17.7900009       1.01239916E-09
   17.8500004       1.30277489E-09
   17.9099998       1.56828706E-09
   17.9699993       1.79454362E-09
   18.0300007       1.97297534E-09
   18.0900002       2.10044715E-09
   18.1499996       2.17756790E-09
   18.2099991       2.20652363E-09
   18.2700005       2.18935536E-09
   18.3299999       2.12731854E-09
   18.3899994       2.02142902E-09
   18.4500008       1.87378157E-09
   18.5100002       1.68891257E-09
   18.5699997       1.47451240E-09
   18.6299992       1.24109278E-09
   18.6900005       1.00066955E-09
   18.7500000       7.64906360E-10
   18.8099995       5.43352030E-10
   18.8700008       3.42350676E-10
   18.9300003       1.64945890E-10
   18.9899998       1.17500254E-11
   19.0499992      -1.17573479E-10
   19.1100006      -2.22764099E-10
   19.1700001      -3.01919850E-10
   19.2299995      -3.51350976E-10
   19.2900009      -3.66419395E-10
   19.3500004      -3.43100215E-10
   19.4099998      -2.79723023E-10
   19.4699993      -1.78255494E-10
   19.5300007      -4.46365479E-11
   19.5900002       1.11993900E-10
   19.6499996       2.80899387E-10
   19.7099991       4.51597038E-10
   19.7700005       6.15289708E-10
   19.8299999       7.65428110E-10
   19.8899994       8.97366403E-10
   19.9500008       1.00749231E-09
   20.0100002       1.09244358E-09
   20.0699997       1.14893328E-09
   20.1299992       1.17435928E-09
   20.1900005       1.16793619E-09
   20.2500000       1.13178145E-09
   20.3099995       1.07138232E-09
   20.3700008       9.95149740E-10
   20.4300003       9.13182197E-10
   20.4899998       8.35705616E-10
   20.5499992       7.71744946E-10
   20.6100006       7.28396066E-10
   20.6700001       7.10723647E-10
   20.7299995       7.22002791E-10
   20.7900009       7.63907271E-10
   20.8500004       8.36363812E-10
   20.9099998       9.37069644E-10
   20.9699993       1.06093556E-09
   21.0300007       1.19985410E-09
   21.0900002       1.34312539E-09
   21.1499996       1.47865697E-09
   21.2099991       1.59477342E-09
   21.2700005       1.68224246E-09
   21.3299999       1.73602099E-09
   21.3899994       1.75625781E-09
   21.4500008       1.74826964E-09
   21.5100002       1.72144665E-09
   21.5699997       1.68732317E-09
   21.6299992       1.65724967E-09
   21.6900005       1.64019975E-09
   21.7500000       1.64119129E-09
   21.8099995       1.66062641E-09
   21.8700008       1.69461478E-09
   21.9300003       1.73611658E-09
   21.9899998       1.77659221E-09
   22.0499992       1.80777915E-09
   22.1100006       1.82323212E-09
   22.1700001       1.81933024E-09
   22.2299995       1.79556570E-09
   22.2900009       1.75408765E-09
   22.3500004       1.69865821E-09
   22.4099998       1.63335401E-09
   22.4699993       1.56142732E-09
   22.5300007       1.48467205E-09
   22.5900002       1.40342027E-09
   22.6499996       1.31701960E-09
   22.7099991       1.22443589E-09
   22.7700005       1.12462650E-09
   22.8299999       1.01652431E-09
   22.8899994       8.98767449E-10
   22.9500008       7.69518671E-10
   23.0100002       6.26704799E-10
   23.0699997       4.68769135E-10
   23.1299992       2.95689528E-10
   23.1900005       1.09779755E-10
   23.2500000      -8.41955741E-11
   23.3099995      -2.79798185E-10
   23.3700008      -4.70403383E-10
   23.4300003      -6.50902277E-10
   23.4899998      -8.19035395E-10
   23.5499992      -9.75931447E-10
   23.6100006      -1.12573562E-09
   23.6700001      -1.27451538E-09
   23.7299995      -1.42881462E-09
   23.7900009      -1.59424074E-09
   23.8500004      -1.77435655E-09
   23.9099998      -1.97000705E-09
   23.9699993      -2.17908824E-09
   24.0300007      -2.39673414E-09
   24.0900002      -2.61590061E-09
   24.1499996      -2.82835844E-09
   24.2099991      -3.02607139E-09
   24.2700005      -3.20283688E-09
   24.3299999      -3.35588868E-09
   24.3899994      -3.48701379E-09
   24.4500008      -3.60269659E-09
   24.5100002      -3.71299547E-09
   24.5699997      -3.82923782E-09
   24.6299992      -3.96109545E-09
   24.6900005      -4.11393541E-09
   24.7500000      -4.28731450E-09
   24.8099995      -4.47512072E-09
   24.8700008      -4.66723105E-09
   24.9300003      -4.85200236E-09
   24.9899998      -5.01867836E-09
   25.0499992      -5.15901322E-09
   25.1100006      -5.26789146E-09
   25.1700001      -5.34318456E-09
   25.2299995      -5.38529354E-09
   25.2900009      -5.39668399E-09
   25.3500004      -5.38142730E-09
   25.4099998      -5.34458033E-09
   25.4699993      -5.29129585E-09
   25.5300007      -5.22585086E-09
   25.5900002      -5.15099963E-09
   25.6499996      -5.06802733E-09
   25.7099991      -4.97750285E-09
   25.7700005      -4.88027263E-09
   25.8299999      -4.77800288E-09
   25.8899994      -4.67277994E-09
   25.9500008      -4.56585170E-09
   26.0100002      -4.45621007E-09
   26.0699997      -4.33992264E-09
   26.1299992      -4.21082325E-09
   26.1900005      -4.06244371E-09
   26.2500000      -3.89038535E-09
   26.3099995      -3.69405728E-09
   26.3700008      -3.47701934E-09
   26.4300003      -3.24586114E-09
   26.4899998      -3.00819281E-09
   26.5499992      -2.77063039E-09
   26.6100006      -2.53747845E-09
   26.6700001      -2.31037456E-09
   26.7299995      -2.08872208E-09
   26.7900009      -1.87056015E-09
   26.8500004      -1.65355618E-09
   26.9099998      -1.43595069E-09
   26.9699993      -1.21735244E-09
   27.0300007      -9.99253458E-10
   27.0900002      -7.85074616E-10
   27.1499996      -5.79616077E-10
   27.2099991      -3.87972654E-10
   27.2700005      -2.14223805E-10
   27.3299999      -6.03447431E-11
   27.3899994       7.42763767E-11
   27.4500008       1.92558774E-10
   27.5100002       2.98804037E-10
   27.5699997       3.97422178E-10
   27.6299992       4.91652608E-10
   27.6900005       5.82579152E-10
   27.7500000       6.68675504E-10
   27.8099995       7.46049722E-10
   27.8700008       8.09440404E-10
   27.9300003       8.53797977E-10
   27.9899998       8.76019701E-10
   28.0499992       8.76224537E-10
   28.1100006       8.58020155E-10
   28.1700001       8.27577284E-10
   28.2299995       7.91834487E-10
   28.2900009       7.56546326E-10
   28.3500004       7.24923954E-10
   28.4099998       6.97273406E-10
   28.4699993       6.71524725E-10
   28.5300007       6.44179210E-10
   28.5900002       6.11187989E-10
   28.6499996       5.68577296E-10
   28.7099991       5.12983156E-10
   28.7700005       4.42370751E-10
   28.8299999       3.56984026E-10
   28.8899994       2.60167388E-10
   28.9500008       1.58455318E-10
   29.0100002       6.04746114E-11
   29.0699997      -2.52586042E-11
   29.1299992      -9.29348404E-11
   29.1900005      -1.41393702E-10
   29.2500000      -1.74552678E-10
   29.3099995      -2.00098479E-10
   29.3700008      -2.26973357E-10
   29.4300003      -2.62673910E-10
   29.4899998      -3.11377230E-10
   29.5499992      -3.73468340E-10
   29.6100006      -4.46426424E-10
   29.6700001      -5.26528432E-10
   29.7299995      -6.10625883E-10
   29.7900009      -6.97356062E-10
   29.8500004      -7.87444887E-10
   29.9099998      -8.83108031E-10
   29.9699993      -9.86848270E-10
   30.0300007      -1.10012099E-09
   30.0900002      -1.22236010E-09
   30.1499996      -1.35070821E-09
   30.2099991      -1.48052237E-09
   30.2700005      -1.60642832E-09
   30.3299999      -1.72349557E-09
   30.3899994      -1.82810966E-09
   30.4500008      -1.91831684E-09
   30.5100002      -1.99367256E-09
   30.5699997      -2.05481299E-09
   30.6299992      -2.10296935E-09
   30.6900005      -2.13952056E-09
   30.7500000      -2.16555485E-09
   30.8099995      -2.18141838E-09
   30.8700008      -2.18635865E-09
   30.9300003      -2.17850471E-09
   30.9899998      -2.15540230E-09
   31.0499992      -2.11508699E-09
   31.1100006      -2.05733697E-09
   31.1700001      -1.98452721E-09
   31.2299995      -1.90159599E-09
   31.2900009      -1.81500770E-09
   31.3500004      -1.73107795E-09
   31.4099998      -1.65433645E-09
   31.4699993      -1.58656466E-09
   31.5300007      -1.52680490E-09
   31.5900002      -1.47219648E-09
   31.6499996      -1.41920276E-09
   31.7099991      -1.36476019E-09
   31.7700005      -1.30704636E-09
   31.8299999      -1.24578070E-09
   31.8899994      -1.18209609E-09
   31.9500008      -1.11805420E-09
   32.0099983      -1.05589049E-09
   32.0699997      -9.97147587E-10
   32.1300011      -9.41963729E-10
   32.1899986      -8.88822571E-10
   32.2500000      -8.34954994E-10
   32.3100014      -7.77314879E-10
   32.3699989      -7.13761328E-10
   32.4300003      -6.43950726E-10
   32.4900017      -5.69554348E-10
   32.5499992      -4.93716790E-10
   32.6100006      -4.19986018E-10
   32.6699982      -3.51111668E-10
   32.7299995      -2.88083418E-10
   32.7900009      -2.29638461E-10
   32.8499985      -1.72328526E-10
   32.9099998      -1.11149076E-10
   32.9700012      -4.06609121E-11
   33.0299988       4.35941144E-11
   33.0900002       1.43770773E-10
   33.1500015       2.59006983E-10
   33.2099991       3.85742382E-10
   33.2700005       5.19122134E-10
   33.3300018       6.55018706E-10
   33.3899994       7.91818777E-10
   33.4500008       9.31133670E-10
   33.5099983       1.07704579E-09
   33.5699997       1.23419130E-09
   33.6300011       1.40550549E-09
   33.6899986       1.59056246E-09
   33.7500000       1.78507098E-09
   33.8100014       1.98152206E-09
   33.8699989       2.17053842E-09
   33.9300003       2.34239628E-09
   33.9900017       2.48837595E-09
   34.0499992       2.60186916E-09
   34.1100006       2.67925615E-09
   34.1699982       2.72044876E-09
   34.2299995       2.72885736E-09
   34.2900009       2.71056377E-09
   34.3499985       2.67276556E-09
   34.4099998       2.62196376E-09
   34.4700012       2.56256683E-09
   34.5299988       2.49645238E-09
   34.5900002       2.42354203E-09
   34.6500015       2.34294317E-09
   34.7099991       2.25397256E-09
   34.7700005       2.15654872E-09
   34.8300018       2.05091344E-09
   34.8899994       1.93707450E-09
   34.9500008       1.81449844E-09
   35.0099983       1.68234737E-09
   35.0699997       1.54015101E-09
   35.1300011       1.38849077E-09
   35.1899986       1.22926391E-09
   35.2500000       1.06534559E-09
   35.3100014       8.99802455E-10
   35.3699989       7.35024375E-10
   35.4300003       5.72137893E-10
   35.4900017       4.10899648E-10
   35.5499992       2.50062249E-10
   35.6100006       8.80638479E-11
   35.6699982      -7.61818664E-11
   35.7299995      -2.42634662E-10
   35.7900009      -4.09833056E-10
   35.8499985      -5.75091974E-10
   35.9099998      -7.35152939E-10
   35.9700012      -8.87037055E-10
   36.0299988      -1.02871811E-09
   36.0900002      -1.15929510E-09
   36.1500015      -1.27861588E-09
   36.2099991      -1.38664835E-09
   36.2700005      -1.48307444E-09
   36.3300018      -1.56746804E-09
   36.3899994      -1.64001690E-09
   36.4500008      -1.70233927E-09
   36.5099983      -1.75778525E-09
   36.5699997      -1.81085091E-09
   36.6300011      -1.86583571E-09
   36.6899986      -1.92534499E-09
   36.7500000      -1.98936401E-09
   36.8100014      -2.05534190E-09
   36.8699989      -2.11920659E-09
   36.9300003      -2.17679297E-09
   36.9900017      -2.22505436E-09
   37.0499992      -2.26266295E-09
   37.1100006      -2.28997044E-09
   37.1699982      -2.30858777E-09
   37.2299995      -2.32088326E-09
   37.2900009      -2.32958097E-09
   37.3499985      -2.33747843E-09
   37.4099998      -2.34723441E-09
   37.4700012      -2.36118192E-09
   37.5299988      -2.38114195E-09
   37.5900002      -2.40818365E-09
   37.6500015      -2.44224774E-09
   37.7099991      -2.48162224E-09
   37.7700005      -2.52244803E-09
   37.8300018      -2.55863197E-09
   37.8899994      -2.58258215E-09
   37.9500008      -2.58685784E-09
   38.0099983      -2.56631671E-09
   38.0699997      -2.51987342E-09
   38.1300011      -2.45095655E-09
   38.1899986      -2.36626141E-09
   38.2500000      -2.27323738E-09
   38.3100014      -2.17742779E-09
   38.3699989      -2.08088013E-09
   38.4300003      -1.98226324E-09
   38.4900017      -1.87841565E-09
   38.5499992      -1.76635817E-09
   38.6100006      -1.64473202E-09
   38.6699982      -1.51415769E-09
   38.7299995      -1.37675482E-09
   38.7900009      -1.23548360E-09
   38.8499985      -1.09383469E-09
   38.9099998      -9.55873047E-10
   38.9700012      -8.26182123E-10
   39.0299988      -7.09248105E-10
   39.0900002      -6.08288475E-10
   39.1500015      -5.24099986E-10
   39.2099991      -4.54715321E-10
   39.2700005      -3.96286920E-10
   39.3300018      -3.44872797E-10
   39.3899994      -2.98186836E-10
   39.4500008      -2.56332011E-10
   39.5099983      -2.21120205E-10
   39.5699997      -1.94424046E-10
   39.6300011      -1.76551260E-10
   39.6899986      -1.65545133E-10
   39.7500000      -1.57678579E-10
   39.8100014      -1.48681970E-10
   39.8699989      -1.34901340E-10
   39.9300003      -1.13808525E-10
   39.9900017      -8.38525430E-11
   40.0499992      -4.41071901E-11
   40.1100006       5.79638724E-12
   40.1699982       6.53418569E-11
   40.2299995       1.32759331E-10
   40.2900009       2.05132175E-10
   40.3499985       2.79207379E-10
   40.4099998       3.52600199E-10
   40.4700012       4.24695834E-10
   40.5299988       4.96616193E-10
   40.5900002       5.70134384E-10
   40.6500015       6.46060705E-10
   40.7099991       7.22985394E-10
   40.7700005       7.97111210E-10
   40.8300018       8.63340899E-10
   40.8899994       9.17134535E-10
   40.9500008       9.56282720E-10
   41.0099983       9.81817960E-10
   41.0699997       9.97707472E-10
   41.1300011       1.00949160E-09
   41.1899986       1.02239817E-09
   41.2500000       1.03957909E-09
   41.3100014       1.06100684E-09
   41.3699989       1.08334131E-09
   41.4300003       1.10080656E-09
   41.4900017       1.10684228E-09
   41.5499992       1.09605469E-09
   41.6100006       1.06585751E-09
   41.6699982       1.01724595E-09
   41.7299995       9.54423540E-10
   41.7900009       8.83420392E-10
   41.8499985       8.10230272E-10
   41.9099998       7.39159511E-10
   41.9700012       6.71943057E-10
   42.0299988       6.07822348E-10
   42.0900002       5.44390144E-10
   42.1500015       4.78774298E-10
   42.2099991       4.08733186E-10
   42.2700005       3.33399669E-10
   42.3300018       2.53594229E-10
   42.3899994       1.71726661E-10
   42.4500008       9.13228312E-11
   42.5099983       1.62212136E-11
   42.5699997      -5.04372585E-11
   42.6300011      -1.07169315E-10
   42.6899986      -1.54706914E-10
   42.7500000      -1.95859329E-10
   42.8100014      -2.34628539E-10
   42.8699989      -2.74855805E-10
   42.9300003      -3.18923166E-10
   42.9900017      -3.67044062E-10
   43.0499992      -4.17431534E-10
   43.1100006      -4.67249073E-10
   43.1699982      -5.13913245E-10
   43.2299995      -5.56194257E-10
   43.2900009      -5.94682692E-10
   43.3499985      -6.31484087E-10
   43.4099998      -6.69314215E-10
   43.4700012      -7.10375370E-10
   43.5299988      -7.55431995E-10
   43.5900002      -8.03395794E-10
   43.6500015      -8.51537119E-10
   43.7099991      -8.96235419E-10
   43.7700005      -9.34021971E-10
   43.8300018      -9.62586011E-10
   43.8899994      -9.81437931E-10
   43.9500008      -9.92030680E-10
   44.0099983      -9.97310567E-10
   44.0699997      -1.00083908E-09
   44.1300011      -1.00574127E-09
   44.1899986      -1.01376763E-09
   44.2500000      -1.02469422E-09
   44.3100014      -1.03618114E-09
   44.3699989      -1.04409614E-09
   44.4300003      -1.04322284E-09
   44.4900017      -1.02820852E-09
   44.5499992      -9.94573868E-10
   44.6100006      -9.39579525E-10
   44.6699982      -8.62754035E-10
   44.7299995      -7.65937092E-10
   44.7900009      -6.52798926E-10
   44.8499985      -5.27934307E-10
   44.9099998      -3.95762367E-10
   44.9700012      -2.59540861E-10
   45.0299988      -1.20789684E-10
   45.0900002       2.06965781E-11
   45.1500015       1.66256425E-10
   45.2099991       3.17402854E-10
   45.2700005       4.74856654E-10
   45.3300018       6.37949915E-10
   45.3899994       8.04634692E-10
   45.4500008       9.72070424E-10
   45.5099983       1.13748377E-09
   45.5699997       1.29884281E-09
   45.6300011       1.45496459E-09
   45.6899986       1.60497871E-09
   45.7500000       1.74745174E-09
   45.8100014       1.87974281E-09
   45.8699989       1.99810035E-09
   45.9300003       2.09866347E-09
   45.9900017       2.17900986E-09
   46.0499992       2.23953367E-09
   46.1100006       2.28392749E-09
   46.1699982       2.31843145E-09
   46.2299995       2.35008879E-09
   46.2900009       2.38470621E-09
   46.3499985       2.42530662E-09
   46.4099998       2.47156118E-09
   46.4700012       2.52020582E-09
   46.5299988       2.56605404E-09
   46.5900002       2.60313193E-09
   46.6500015       2.62565036E-09
   46.7099991       2.62878963E-09
   46.7700005       2.60940469E-09
   46.8300018       2.56665977E-09
   46.8899994       2.50238630E-09
   46.9500008       2.42084330E-09
   47.0099983       2.32770070E-09
   47.0699997       2.22841812E-09
   47.1300011       2.12657114E-09
   47.1899986       2.02280637E-09
   47.2500000       1.91490179E-09
   47.3100014       1.79893056E-09
   47.3699989       1.67105574E-09
   47.4300003       1.52923552E-09
   47.4900017       1.37421985E-09
   47.5499992       1.20956434E-09
   47.6100006       1.04077824E-09
   47.6699982       8.73992489E-10
   47.7299995       7.14586779E-10
   47.7900009       5.66141911E-10
   47.8499985       4.29938030E-10
   47.9099998       3.05084513E-10
   47.9700012       1.89220514E-10
   48.0299988       7.95674152E-11
   48.0900002      -2.60296437E-11
   48.1500015      -1.28483904E-10
   48.2099991      -2.27559152E-10
   48.2700005      -3.22664645E-10
   48.3300018      -4.14003831E-10
   48.3899994      -5.03514175E-10
   48.4500008      -5.95087202E-10
   48.5099983      -6.93867297E-10
   48.5699997      -8.04842415E-10
   48.6300011      -9.31255628E-10
   48.6899986      -1.07343190E-09
   48.7500000      -1.22843713E-09
   48.8100014      -1.39066680E-09
   48.8699989      -1.55316848E-09
   48.9300003      -1.70932746E-09
   48.9900017      -1.85448801E-09
   49.0499992      -1.98711581E-09
   49.1100006      -2.10918905E-09
   49.1699982      -2.22564611E-09
   49.2299995      -2.34295072E-09
   49.2900009      -2.46711718E-09
   49.3499985      -2.60178457E-09
   49.4099998      -2.74698420E-09
   49.4700012      -2.89904412E-09
   49.5299988      -3.05166026E-09
   49.5900002      -3.19771631E-09
   49.6500015      -3.33116379E-09
   49.7099991      -3.44831430E-09
   49.7700005      -3.54820084E-09
   49.8300018      -3.63206998E-09
   49.8899994      -3.70237108E-09
   49.9500008      -3.76169496E-09
   50.0099983      -3.81200804E-09
   50.0699997      -3.85432664E-09
   50.1300011      -3.88881638E-09
   50.1899986      -3.91520372E-09
   50.2500000      -3.93335542E-09
   50.3100014      -3.94383770E-09
   50.3699989      -3.94824795E-09
   50.4300003      -3.94913702E-09
   50.4900017      -3.94944211E-09
   50.5499992      -3.95154398E-09
   50.6100006      -3.95624689E-09