  -2.400000      0.0000000E+00
  -2.340000      0.0000000E+00
  -2.280000      0.0000000E+00
  -2.220000      0.0000000E+00
  -2.160000      0.0000000E+00
  -2.100000      0.0000000E+00
  -2.040000      0.0000000E+00
  -1.980000      2.5877384E-25
  -1.920000      1.8625803E-24
  -1.860000      3.8346012E-24
  -1.800000     -1.4548408E-23
  -1.740000     -1.3272017E-22
  -1.680000     -5.0607313E-22
  -1.620000     -1.2213118E-21
  -1.560000     -1.8086266E-21
  -1.500000     -4.6323245E-22
  -1.440000      6.3202597E-21
  -1.380000      2.2227015E-20
  -1.320000      4.6287580E-20
  -1.260000      6.5287123E-20
  -1.200000      4.7996958E-20
  -1.140000     -5.0247109E-20
  -1.080000     -2.6431737E-19
  -1.020000     -5.7707558E-19
 -0.9600000     -8.7286880E-19
 -0.9000000     -9.1675435E-19
 -0.8400000     -3.9448086E-19
 -0.7800000      9.6503347E-19
 -0.7200000      3.1943807E-18
 -0.6600000      5.8702125E-18
 -0.6000000      7.9638716E-18
 -0.5400000      7.8784933E-18
 -0.4800000      3.7950439E-18
 -0.4200000     -5.5964402E-18
 -0.3600000     -2.0039246E-17
 -0.3000000     -3.6627458E-17
 -0.2400000     -4.9289592E-17
 -0.1800000     -4.9584670E-17
 -0.1200000     -2.9322835E-17
 -5.9999999E-02  1.5261295E-17
  0.0000000E+00  7.9223084E-17
  5.9999999E-02  1.4690395E-16
  0.1200000      1.9449314E-16
  0.1800000      1.9770795E-16
  0.2400000      1.4215471E-16
  0.3000000      3.1217257E-17
  0.3600000     -1.1396513E-16
  0.4200000     -2.6432298E-16
  0.4800000     -3.9784460E-16
  0.5400000     -5.0917475E-16
  0.6000000     -6.0294780E-16
  0.6600000     -6.6840132E-16
  0.7200000     -6.4796956E-16
  0.7800000     -4.2616893E-16
  0.8400000      1.3426536E-16
  0.9000000      1.1019641E-15
  0.9600000      2.3620520E-15
   1.020000      3.5427181E-15
   1.080000      4.0586532E-15
   1.140000      3.3102007E-15
   1.200000      9.9718140E-16
   1.260000     -2.5840364E-15
   1.320000     -6.4392283E-15
   1.380000     -9.1073372E-15
   1.440000     -9.2197529E-15
   1.500000     -6.1948220E-15
   1.560000     -7.3417025E-16
   1.620000      5.2053834E-15
   1.680000      9.0950137E-15
   1.740000      8.9784544E-15
   1.800000      4.5831170E-15
   1.860000     -2.1966537E-15
   1.920000     -7.8323011E-15
   1.980000     -8.6341185E-15
   2.040000     -2.5753334E-15
   2.100000      9.4082008E-15
   2.160000      2.3376881E-14
   2.220000      3.3779074E-14
   2.280000      3.5719386E-14
   2.340000      2.7028230E-14
   2.400000      9.0674996E-15
   2.460000     -1.4192834E-14
   2.520000     -3.8364877E-14
   2.580000     -6.0861553E-14
   2.640000     -8.1733048E-14
   2.700000     -1.0231453E-13
   2.760000     -1.2203689E-13
   2.820000     -1.3492845E-13
   2.880000     -1.2793498E-13
   2.940000     -8.2840886E-14
   3.000000      1.7673861E-14
   3.060000      1.8102958E-13
   3.120000      3.9554124E-13
   3.180000      6.2455753E-13
   3.240000      8.0717534E-13
   3.300000      8.6732113E-13
   3.360000      7.3073481E-13
   3.420000      3.4689184E-13
   3.480000     -2.8913249E-13
   3.540000     -1.1207360E-12
   3.600000     -2.0249991E-12
   3.660000     -2.8220338E-12
   3.720000     -3.2984089E-12
   3.780000     -3.2416621E-12
   3.840000     -2.4810932E-12
   3.900000     -9.2966303E-13
   3.960000      1.3776097E-12
   4.020000      4.2531144E-12
   4.080000      7.3394502E-12
   4.140000      1.0113556E-11
   4.200000      1.1922541E-11
   4.260000      1.2060936E-11
   4.320000      9.8930022E-12
   4.380000      5.0113360E-12
   4.440000     -2.5930694E-12
   4.500000     -1.2388598E-11
   4.560000     -2.3234340E-11
   4.620000     -3.3424142E-11
   4.680000     -4.0862487E-11
   4.740000     -4.3362050E-11
   4.800000     -3.9022178E-11
   4.860000     -2.6625053E-11
   4.920000     -5.9783545E-12
   4.980000      2.1858031E-11
   5.040000      5.4501129E-11
   5.100000      8.8340356E-11
   5.160000      1.1878154E-10
   5.220000      1.4060120E-10
   5.280000      1.4836386E-10
   5.340000      1.3685741E-10
   5.400000      1.0151129E-10
   5.460000      3.8775764E-11
   5.520000     -5.3550425E-11
   5.580000     -1.7605260E-10
   5.640000     -3.2750500E-10
   5.700000     -5.0476795E-10
   5.760000     -7.0280337E-10
   5.820000     -9.1483454E-10
   5.880000     -1.1326659E-09
   5.940000     -1.3471557E-09
   6.000000     -1.5488114E-09
   6.060000     -1.7284508E-09
   6.120000     -1.8778592E-09
   6.180000     -1.9903685E-09
   6.240000     -2.0613007E-09
   6.300000     -2.0882260E-09
   6.360000     -2.0710220E-09
   6.420000     -2.0117332E-09
   6.480000     -1.9142581E-09
   6.540000     -1.7839024E-09
   6.600000     -1.6268722E-09
   6.660000     -1.4497795E-09
   6.720000     -1.2592479E-09
   6.780000     -1.0616831E-09
   6.840000     -8.6323099E-10
   6.900000     -6.6989364E-10
   6.960000     -4.8770044E-10
   7.020000     -3.2280181E-10
   7.080000     -1.8134948E-10
   7.140000     -6.9087763E-11
   7.200000      9.3201679E-12
   7.260000      5.1091700E-11
   7.320000      5.6022530E-11
   7.380000      2.6834951E-11
   7.440000     -3.1007037E-11
   7.500000     -1.1006095E-10
   7.560000     -2.0212040E-10
   7.620000     -2.9960623E-10
   7.680000     -3.9679079E-10
   7.740000     -4.9055193E-10
   7.800000     -5.8049371E-10
   7.860000     -6.6846534E-10
   7.920000     -7.5769113E-10
   7.980000     -8.5182011E-10
   8.040000     -9.5418484E-10
   8.100000     -1.0674182E-09
   8.160000     -1.1933852E-09
   8.220000     -1.3332143E-09
   8.280000     -1.4871474E-09
   8.340000     -1.6540138E-09
   8.400000     -1.8303477E-09
   8.460000     -2.0094355E-09
   8.520000     -2.1807647E-09
   8.580000     -2.3303672E-09
   8.640000     -2.4423308E-09
   8.700000     -2.5013718E-09
   8.760000     -2.4959173E-09
   8.820000     -2.4208557E-09
   8.880000     -2.2790689E-09
   8.940000     -2.0811604E-09
   9.000000     -1.8433222E-09
   9.060000     -1.5838868E-09
   9.120000     -1.3195370E-09
   9.180000     -1.0622739E-09
   9.240000     -8.1796886E-10
   9.300000     -5.8677985E-10
   9.360000     -3.6508657E-10
   9.420000     -1.4811331E-10
   9.480000      6.7750180E-11
   9.540000      2.8371586E-10
   9.600000      4.9875820E-10
   9.660000      7.1090611E-10
   9.720000      9.1896429E-10
   9.780000      1.1238070E-09
   9.840000      1.3285734E-09
   9.900000      1.5375394E-09
   9.960000      1.7539911E-09
   10.02000      1.9778672E-09
   10.08000      2.2041224E-09
   10.14000      2.4225988E-09
   10.20000      2.6197278E-09
   10.26000      2.7817701E-09
   10.32000      2.8987195E-09
   10.38000      2.9676810E-09
   10.44000      2.9945861E-09
   10.50000      2.9935507E-09
   10.56000      2.9838891E-09
   10.62000      2.9855480E-09
   10.68000      3.0142533E-09
   10.74000      3.0777914E-09
   10.80000      3.1745144E-09
   10.86000      3.2944516E-09
   10.92000      3.4225918E-09
   10.98000      3.5432368E-09
   11.04000      3.6440484E-09
   11.10000      3.7185932E-09
   11.16000      3.7667678E-09
   11.22000      3.7931955E-09
   11.28000      3.8043146E-09
   11.34000      3.8052086E-09
   11.40000      3.7971732E-09
   11.46000      3.7766918E-09
   11.52000      3.7359720E-09
   11.58000      3.6647405E-09
   11.64000      3.5526377E-09
   11.70000      3.3914493E-09
   11.76000      3.1765055E-09
   11.82000      2.9068645E-09
   11.88000      2.5842901E-09
   11.94000      2.2114361E-09
   12.00000      1.7899424E-09
   12.06000      1.3192250E-09
   12.12000      7.9652501E-10
   12.18000      2.1834373E-10
   12.24000     -4.1715953E-10
   12.30000     -1.1076521E-09
   12.36000     -1.8449695E-09
   12.42000     -2.6150415E-09
   12.48000     -3.3995851E-09
   12.54000     -4.1791255E-09
   12.60000     -4.9364353E-09
   12.66000     -5.6593552E-09
   12.72000     -6.3421779E-09
   12.78000     -6.9852910E-09
   12.84000     -7.5932878E-09
   12.90000     -8.1722016E-09
   12.96000     -8.7266896E-09
   13.02000     -9.2579251E-09
   13.08000     -9.7626893E-09
   13.14000     -1.0233828E-08
   13.20000     -1.0661857E-08
   13.26000     -1.1037236E-08
   13.32000     -1.1352699E-08
   13.38000     -1.1605006E-08
   13.44000     -1.1795684E-08
   13.50000     -1.1930573E-08
   13.56000     -1.2018337E-08
   13.62000     -1.2068373E-08
   13.68000     -1.2088731E-08
   13.74000     -1.2084642E-08
   13.80000     -1.2058134E-08
   13.86000     -1.2008875E-08
   13.92000     -1.1936077E-08
   13.98000     -1.1840925E-08
   14.04000     -1.1728764E-08
   14.10000     -1.1610275E-08
   14.16000     -1.1501089E-08
   14.22000     -1.1419736E-08
   14.28000     -1.1384379E-08
   14.34000     -1.1409227E-08
   14.40000     -1.1501753E-08
   14.46000     -1.1661582E-08
   14.52000     -1.1881495E-08
   14.58000     -1.2150283E-08
   14.64000     -1.2456608E-08
   14.70000     -1.2792656E-08
   14.76000     -1.3156387E-08
   14.82000     -1.3551569E-08
   14.88000     -1.3985338E-08
   14.94000     -1.4463886E-08
   15.00000     -1.4987496E-08
   15.06000     -1.5546592E-08
   15.12000     -1.6120406E-08
   15.18000     -1.6679193E-08
   15.24000     -1.7189810E-08
   15.30000     -1.7623183E-08
   15.36000     -1.7961302E-08
   15.42000     -1.8201245E-08
   15.48000     -1.8354681E-08
   15.54000     -1.8442915E-08
   15.60000     -1.8489288E-08
   15.66000     -1.8511789E-08
   15.72000     -1.8518692E-08
   15.78000     -1.8508691E-08
   15.84000     -1.8475269E-08
   15.90000     -1.8413145E-08
   15.96000     -1.8324071E-08
   16.02000     -1.8219518E-08
   16.08000     -1.8119280E-08
   16.14000     -1.8046658E-08
   16.20000     -1.8022202E-08
   16.26000     -1.8058442E-08
   16.32000     -1.8157436E-08
   16.38000     -1.8311917E-08
   16.44000     -1.8509384E-08
   16.50000     -1.8737513E-08
   16.56000     -1.8988930E-08
   16.62000     -1.9263615E-08
   16.68000     -1.9568258E-08
   16.74000     -1.9912866E-08
   16.80000     -2.0305967E-08
   16.86000     -2.0750212E-08
   16.92000     -2.1239906E-08
   16.98000     -2.1761229E-08
   17.04000     -2.2294879E-08
   17.10000     -2.2819963E-08
   17.16000     -2.3317742E-08
   17.22000     -2.3774009E-08
   17.28000     -2.4179659E-08
   17.34000     -2.4529795E-08
   17.40000     -2.4822118E-08
   17.46000     -2.5055455E-08
   17.52000     -2.5228967E-08
   17.58000     -2.5342116E-08
   17.64000     -2.5395181E-08
   17.70000     -2.5389911E-08
   17.76000     -2.5329992E-08
   17.82000     -2.5221064E-08
   17.88000     -2.5070150E-08
   17.94000     -2.4884518E-08
   18.00000     -2.4670141E-08
   18.06000     -2.4430111E-08
   18.12000     -2.4163471E-08
   18.18000     -2.3864960E-08
   18.24000     -2.3525953E-08
   18.30000     -2.3136542E-08
   18.36000     -2.2688372E-08
   18.42000     -2.2177566E-08
   18.48000     -2.1607006E-08
   18.54000     -2.0987283E-08
   18.60000     -2.0335934E-08
   18.66000     -1.9674886E-08
   18.72000     -1.9026560E-08
   18.78000     -1.8409493E-08
   18.84000     -1.7834729E-08
   18.90000     -1.7304217E-08
   18.96000     -1.6811878E-08
   19.02000     -1.6347212E-08
   19.08000     -1.5900165E-08
   19.14000     -1.5465435E-08
   19.20000     -1.5044353E-08
   19.26000     -1.4643437E-08
   19.32000     -1.4269999E-08
   19.38000     -1.3926492E-08
   19.44000     -1.3605846E-08
   19.50000     -1.3289741E-08
   19.56000     -1.2950671E-08
   19.62000     -1.2557252E-08
   19.68000     -1.2081063E-08
   19.74000     -1.1502888E-08
   19.80000     -1.0816431E-08
   19.86000     -1.0028510E-08
   19.92000     -9.1558041E-09
   19.98000     -8.2193052E-09
   20.04000     -7.2383028E-09
   20.10000     -6.2257883E-09
   20.16000     -5.1866511E-09
   20.22000     -4.1190522E-09
   20.28000     -3.0181599E-09
   20.34000     -1.8805812E-09
   20.40000     -7.0761791E-10
   20.46000      4.9393695E-10
   20.52000      1.7136152E-09
   20.58000      2.9406704E-09
   20.64000      4.1673514E-09
   20.70000      5.3904796E-09
   20.76000      6.6105978E-09
   20.82000      7.8290707E-09
   20.88000      9.0444336E-09
   20.94000      1.0249598E-08
   21.00000      1.1431171E-08
   21.06000      1.2571427E-08
   21.12000      1.3652510E-08
   21.18000      1.4661687E-08
   21.24000      1.5596033E-08
   21.30000      1.6464865E-08
   21.36000      1.7288768E-08
   21.42000      1.8094971E-08
   21.48000      1.8910178E-08
   21.54000      1.9752944E-08
   21.60000      2.0628198E-08
   21.66000      2.1525986E-08
   21.72000      2.2425054E-08
   21.78000      2.3300080E-08
   21.84000      2.4129973E-08
   21.90000      2.4904269E-08
   21.96000      2.5625527E-08
   22.02000      2.6307179E-08
   22.08000      2.6967991E-08
   22.14000      2.7625253E-08
   22.20000      2.8288891E-08
   22.26000      2.8958064E-08
   22.32000      2.9620866E-08
   22.38000      3.0256928E-08
   22.44000      3.0842187E-08
   22.50000      3.1354656E-08
   22.56000      3.1779862E-08
   22.62000      3.2114414E-08
   22.68000      3.2366536E-08
   22.74000      3.2553185E-08
   22.80000      3.2694562E-08
   22.86000      3.2807808E-08
   22.92000      3.2902275E-08
   22.98000      3.2978065E-08
   23.04000      3.3028254E-08
   23.10000      3.3043627E-08
   23.16000      3.3017734E-08
   23.22000      3.2949970E-08
   23.28000      3.2845403E-08
   23.34000      3.2711519E-08
   23.40000      3.2553274E-08
   23.46000      3.2368437E-08
   23.52000      3.2144971E-08
   23.58000      3.1861305E-08
   23.64000      3.1489432E-08
   23.70000      3.0999882E-08
   23.76000      3.0367197E-08
   23.82000      2.9574512E-08
   23.88000      2.8616231E-08
   23.94000      2.7498235E-08
   24.00000      2.6235860E-08
   24.06000      2.4850360E-08
   24.12000      2.3364862E-08
   24.18000      2.1800792E-08
   24.24000      2.0175410E-08
   24.30000      1.8500641E-08
   24.36000      1.6783034E-08
   24.42000      1.5024577E-08
   24.48000      1.3224020E-08
   24.54000      1.1378351E-08
   24.60000      9.4840882E-09
   24.66000      7.5379862E-09
   24.72000      5.5369278E-09
   24.78000      3.4771672E-09
   24.84000      1.3535464E-09
   24.90000     -8.4045265E-10
   24.96000     -3.1111484E-09
   25.02000     -5.4616498E-09
   25.08000     -7.8883309E-09
   25.14000     -1.0378279E-08
   25.20000     -1.2909037E-08
   25.26000     -1.5451059E-08
   25.32000     -1.7972120E-08
   25.38000     -2.0442108E-08
   25.44000     -2.2836542E-08
   25.50000     -2.5137952E-08
   25.56000     -2.7335348E-08
   25.62000     -2.9422800E-08
   25.68000     -3.1398326E-08
   25.74000     -3.3263696E-08
   25.80000     -3.5024993E-08
   25.86000     -3.6693091E-08
   25.92000     -3.8283201E-08
   25.98000     -3.9812999E-08
   26.04000     -4.1299419E-08
   26.10000     -4.2754866E-08
   26.16000     -4.4183675E-08
   26.22000     -4.5579803E-08
   26.28000     -4.6926417E-08
   26.34000     -4.8197695E-08
   26.40000     -4.9362619E-08
   26.46000     -5.0390025E-08
   26.52000     -5.1253572E-08
   26.58000     -5.1935309E-08
   26.64000     -5.2426763E-08
   26.70000     -5.2727341E-08
   26.76000     -5.2840836E-08
   26.82000     -5.2771508E-08
   26.88000     -5.2521294E-08
   26.94000     -5.2089256E-08
   27.00000     -5.1473279E-08
   27.06000     -5.0673261E-08
   27.12000     -4.9694485E-08
   27.18000     -4.8549687E-08
   27.24000     -4.7259025E-08
   27.30000     -4.5847507E-08
   27.36000     -4.4340503E-08
   27.42000     -4.2758462E-08
   27.48000     -4.1112532E-08
   27.54000     -3.9402636E-08
   27.60000     -3.7619127E-08
   27.66000     -3.5747806E-08
   27.72000     -3.3776949E-08
   27.78000     -3.1703870E-08
   27.84000     -2.9538773E-08
   27.90000     -2.7304297E-08
   27.96000     -2.5031065E-08
   28.02000     -2.2750907E-08
   28.08000     -2.0490235E-08
   28.14000     -1.8265728E-08
   28.20000     -1.6083307E-08
   28.26000     -1.3940048E-08
   28.32000     -1.1827804E-08
   28.38000     -9.7370672E-09
   28.44000     -7.6600388E-09
   28.50000     -5.5924230E-09
   28.56000     -3.5339793E-09
   28.62000     -1.4879974E-09
   28.68000      5.3995464E-10
   28.74000      2.5435598E-09
   28.80000      4.5169042E-09
   28.86000      6.4545604E-09
   28.92000      8.3501890E-09
   28.98000      1.0193848E-08
   29.04000      1.1968907E-08
   29.10000      1.3649855E-08
   29.16000      1.5202204E-08
   29.22000      1.6585030E-08
   29.28000      1.7755834E-08
   29.34000      1.8676641E-08
   29.40000      1.9319842E-08
   29.46000      1.9672379E-08
   29.52000      1.9737088E-08
   29.58000      1.9530736E-08
   29.64000      1.9078914E-08
   29.70000      1.8408926E-08
   29.76000      1.7542490E-08
   29.82000      1.6490555E-08
   29.88000      1.5252059E-08
   29.94000      1.3817253E-08
   30.00000      1.2174537E-08
   30.06000      1.0318321E-08
   30.12000      8.2548910E-09
   30.18000      6.0040866E-09
   30.24000      3.5962977E-09
   30.30000      1.0661978E-09
   30.36000     -1.5542369E-09
   30.42000     -4.2408295E-09
   30.48000     -6.9788624E-09
   30.54000     -9.7611430E-09
   30.60000     -1.2583531E-08
   30.66000     -1.5439534E-08
   30.72000     -1.8315648E-08
   30.78000     -2.1188649E-08
   30.84000     -2.4025670E-08
   30.90000     -2.6787143E-08
   30.96000     -2.9431954E-08
   31.02000     -3.1923371E-08
   31.08000     -3.4233732E-08
   31.14000     -3.6346048E-08
   31.20000     -3.8251756E-08
   31.26000     -3.9945348E-08
   31.32000     -4.1418218E-08
   31.38000     -4.2654346E-08
   31.44000     -4.3630020E-08
   31.50000     -4.4317673E-08
   31.56000     -4.4692364E-08
   31.62000     -4.4738112E-08
   31.68000     -4.4451589E-08
   31.74000     -4.3841876E-08
   31.80000     -4.2926828E-08
   31.86000     -4.1727635E-08
   31.92000     -4.0263661E-08
   31.98000     -3.8549111E-08
   32.04000     -3.6592041E-08
   32.10000     -3.4395502E-08
   32.16000     -3.1959917E-08
   32.22000     -2.9285816E-08
   32.28000     -2.6375950E-08
   32.34000     -2.3236362E-08
   32.40000     -1.9876152E-08
   32.46000     -1.6306302E-08
   32.52000     -1.2538280E-08
   32.58000     -8.5832790E-09
   32.64000     -4.4527204E-09
   32.70000     -1.5996050E-10
   32.76000      4.2774877E-09
   32.82000      8.8363219E-09
   32.88000      1.3487283E-08
   32.94000      1.8196644E-08
   33.00000      2.2928738E-08
   33.06000      2.7648413E-08
   33.12000      3.2322440E-08
   33.18000      3.6919449E-08
   33.24000      4.1408775E-08
   33.30000      4.5759016E-08
   33.36000      4.9937096E-08
   33.42000      5.3908380E-08
   33.48000      5.7637649E-08
   33.54000      6.1090731E-08
   33.60000      6.4236133E-08
   33.66000      6.7046251E-08
   33.72000      6.9497894E-08
   33.78000      7.1572117E-08
   33.84000      7.3253226E-08
   33.90000      7.4527627E-08
   33.96000      7.5382736E-08
   34.02000      7.5806774E-08
   34.08000      7.5789330E-08
   34.14000      7.5322795E-08
   34.20000      7.4403751E-08
   34.26000      7.3033611E-08
   34.32000      7.1218189E-08
   34.38000      6.8966081E-08
   34.44000      6.6287008E-08
   34.50000      6.3190839E-08
   34.56000      5.9688091E-08
   34.62000      5.5791901E-08
   34.68000      5.1520608E-08
   34.74000      4.6899860E-08
   34.80000      4.1963343E-08
   34.86000      3.6751739E-08
   34.92000      3.1310179E-08
   34.98000      2.5685129E-08
   35.04000      1.9921574E-08
   35.10000      1.4061371E-08
   35.16000      8.1430755E-09
   35.22000      2.2031525E-09
   35.28000     -3.7219954E-09
   35.34000     -9.5940882E-09
   35.40000     -1.5372107E-08
   35.46000     -2.1013220E-08
   35.52000     -2.6475623E-08
   35.58000     -3.1722557E-08
   35.64000     -3.6726092E-08
   35.70000     -4.1469004E-08
   35.76000     -4.5943590E-08
   35.82000     -5.0147310E-08
   35.88000     -5.4076480E-08
   35.94000     -5.7720221E-08
   36.00000     -6.1057051E-08
   36.06000     -6.4055698E-08
   36.12000     -6.6680357E-08
   36.18000     -6.8898792E-08
   36.24000     -7.0690859E-08
   36.30000     -7.2054320E-08
   36.36000     -7.3005978E-08
   36.42000     -7.3577446E-08
   36.48000     -7.3806824E-08
   36.54000     -7.3728707E-08
   36.60000     -7.3365896E-08
   36.66000     -7.2725470E-08
   36.72000     -7.1800521E-08
   36.78000     -7.0577151E-08
   36.84000     -6.9044134E-08
   36.90000     -6.7202144E-08
   36.96000     -6.5069059E-08
   37.02000     -6.2679263E-08
   37.08000     -6.0077014E-08
   37.14000     -5.7305972E-08
   37.20000     -5.4398644E-08
   37.26000     -5.1369820E-08
   37.32000     -4.8216801E-08
   37.38000     -4.4926814E-08
   37.44000     -4.1489319E-08
   37.50000     -3.7908720E-08
   37.56000     -3.4212547E-08
   37.62000     -3.0451595E-08
   37.68000     -2.6691399E-08
   37.74000     -2.2997845E-08
   37.80000     -1.9421945E-08
   37.86000     -1.5989416E-08
   37.92000     -1.2699001E-08
   37.98000     -9.5302770E-09
   38.04000     -6.4583370E-09
   38.10000     -3.4702865E-09
   38.16000     -5.7784921E-10
   38.22000      2.1782895E-09
   38.28000      4.7340882E-09
   38.34000      7.0161752E-09
   38.40000      8.9600336E-09
   38.46000      1.0526588E-08
   38.52000      1.1711672E-08
   38.58000      1.2544891E-08
   38.64000      1.3077742E-08
   38.70000      1.3364567E-08
   38.76000      1.3442800E-08
   38.82000      1.3319603E-08
   38.88000      1.2970136E-08
   38.94000      1.2348536E-08
   39.00000      1.1407916E-08
   39.06000      1.0122078E-08
   39.12000      8.5008693E-09
   39.18000      6.5934644E-09
   39.24000      4.4784478E-09
   39.30000      2.2444941E-09
   39.36000     -3.1310187E-11
   39.42000     -2.2999807E-09
   39.48000     -4.5467603E-09
   39.54000     -6.7855432E-09
   39.60000     -9.0442667E-09
   39.66000     -1.1346653E-08
   39.72000     -1.3696453E-08
   39.78000     -1.6069176E-08
   39.84000     -1.8413759E-08
   39.90000     -2.0663467E-08
   39.96000     -2.2752452E-08
   40.02000     -2.4632593E-08
   40.08000     -2.6285104E-08
   40.14000     -2.7723043E-08
   40.20000     -2.8983898E-08
   40.26000     -3.0114840E-08
   40.32000     -3.1155768E-08
   40.38000     -3.2125911E-08
   40.44000     -3.3018377E-08
   40.50000     -3.3804127E-08
   40.56000     -3.4443449E-08
   40.62000     -3.4900804E-08
   40.68000     -3.5158010E-08
   40.74000     -3.5221557E-08
   40.80000     -3.5121960E-08
   40.86000     -3.4905558E-08
   40.92000     -3.4621166E-08
   40.98000     -3.4305710E-08
   41.04000     -3.3973123E-08
   41.10000     -3.3610220E-08
   41.16000     -3.3181134E-08
   41.22000     -3.2639306E-08
   41.28000     -3.1943483E-08
   41.34000     -3.1072521E-08
   41.40000     -3.0033991E-08
   41.46000     -2.8863607E-08
   41.52000     -2.7615535E-08
   41.58000     -2.6346843E-08
   41.64000     -2.5101158E-08
   41.70000     -2.3896639E-08
   41.76000     -2.2721785E-08
   41.82000     -2.1539973E-08
   41.88000     -2.0301075E-08
   41.94000     -1.8956657E-08
   42.00000     -1.7474452E-08
   42.06000     -1.5848048E-08
   42.12000     -1.4098977E-08
   42.18000     -1.2270293E-08
   42.24000     -1.0413207E-08
   42.30000     -8.5705594E-09
   42.36000     -6.7623778E-09
   42.42000     -4.9785545E-09
   42.48000     -3.1816729E-09
   42.54000     -1.3196505E-09
   42.60000      6.5568762E-10
   42.66000      2.7703277E-09
   42.72000      5.0164592E-09
   42.78000      7.3517512E-09
   42.84000      9.7100470E-09
   42.90000      1.2020167E-08
   42.96000      1.4226873E-08
   43.02000      1.6307435E-08
   43.08000      1.8278682E-08
   43.14000      2.0192394E-08
   43.20000      2.2120426E-08
   43.26000      2.4133987E-08
   43.32000      2.6283240E-08
   43.38000      2.8583445E-08
   43.44000      3.1011801E-08
   43.50000      3.3516088E-08
   43.56000      3.6032223E-08
   43.62000      3.8505167E-08
   43.68000      4.0906158E-08
   43.74000      4.3240647E-08
   43.80000      4.5544269E-08
   43.86000      4.7868447E-08
   43.92000      5.0260528E-08
   43.98000      5.2745289E-08
   44.04000      5.5314054E-08
   44.10000      5.7924868E-08
   44.16000      6.0513528E-08
   44.22000      6.3011676E-08
   44.28000      6.5365910E-08
   44.34000      6.7551646E-08
   44.40000      6.9577062E-08
   44.46000      7.1475888E-08
   44.52000      7.3291098E-08
   44.58000      7.5054963E-08
   44.64000      7.6771926E-08
   44.70000      7.8410388E-08
   44.76000      7.9906577E-08
   44.82000      8.1179799E-08
   44.88000      8.2154457E-08
   44.94000      8.2781810E-08
   45.00000      8.3054019E-08
   45.06000      8.3005823E-08
   45.12000      8.2702869E-08
   45.18000      8.2220524E-08
   45.24000      8.1620207E-08
   45.30000      8.0931038E-08
   45.36000      8.0142918E-08
   45.42000      7.9213073E-08
   45.48000      7.8083588E-08
   45.54000      7.6703770E-08
   45.60000      7.5049769E-08
   45.66000      7.3134863E-08
   45.72000      7.1007499E-08
   45.78000      6.8737876E-08
   45.84000      6.6398037E-08
   45.90000      6.4042140E-08
   45.96000      6.1693449E-08
   46.02000      5.9341804E-08
   46.08000      5.6952270E-08
   46.14000      5.4481571E-08
   46.20000      5.1896620E-08
   46.26000      4.9188973E-08
   46.32000      4.6380332E-08
   46.38000      4.3517435E-08
   46.44000      4.0658204E-08
   46.50000      3.7853962E-08
   46.56000      3.5133965E-08
   46.62000      3.2497617E-08
   46.68000      2.9916968E-08
   46.74000      2.7348635E-08
   46.80000      2.4750717E-08
   46.86000      2.2098762E-08
   46.92000      1.9395179E-08
   46.98000      1.6668992E-08
   47.04000      1.3966386E-08
   47.10000      1.1335771E-08
   47.16000      8.8128411E-09
   47.22000      6.4108909E-09
   47.28000      4.1194341E-09
   47.34000      1.9110893E-09
   47.40000     -2.4626026E-10
   47.46000     -2.3767039E-09
   47.52000     -4.4874868E-09
   47.58000     -6.5669625E-09
   47.64000     -8.5894989E-09
   47.70000     -1.0525005E-08
   47.76000     -1.2349222E-08
   47.82000     -1.4050915E-08
   47.88000     -1.5633525E-08
   47.94000     -1.7111025E-08
   48.00000     -1.8499936E-08
   48.06000     -1.9810761E-08
   48.12000     -2.1042185E-08
   48.18000     -2.2180204E-08
   48.24000     -2.3202409E-08
   48.30000     -2.4085731E-08
   48.36000     -2.4814648E-08
   48.42000     -2.5386674E-08
   48.48000     -2.5812914E-08
   48.54000     -2.6113286E-08
   48.60000     -2.6308010E-08
   48.66000     -2.6408424E-08
   48.72000     -2.6410692E-08
   48.78000     -2.6295009E-08
   48.84000     -2.6031019E-08
   48.90000     -2.5587832E-08
   48.96000     -2.4945166E-08
   49.02000     -2.4101540E-08
   49.08000     -2.3076399E-08
   49.14000     -2.1905311E-08
   49.20000     -2.0629869E-08
   49.26000     -1.9286071E-08
   49.32000     -1.7895333E-08
   49.38000     -1.6461401E-08
   49.44000     -1.4974088E-08
   49.50000     -1.3418230E-08
   49.56000     -1.1784443E-08
   49.62000     -1.0077645E-08
   49.68000     -8.3202814E-09
   49.74000     -6.5491026E-09
   49.80000     -4.8066773E-09
   49.86000     -3.1306540E-09
   49.92000     -1.5445649E-09
   49.98000     -5.3466644E-11
   50.04000      1.3539763E-09
   50.10000      2.6975915E-09
   50.16000      3.9947143E-09
   50.22000      5.2500204E-09
   50.28000      6.4498864E-09
   50.34000      7.5634432E-09
   50.40000      8.5500984E-09
   50.46000      9.3709351E-09
   50.52000      9.9999697E-09
   50.58000      1.0431229E-08
   50.64000      1.0679125E-08
   50.70000      1.0771998E-08
   50.76000      1.0741184E-08
   50.82000      1.0609543E-08
   50.88000      1.0383661E-08
   50.94000      1.0052554E-08
   51.00000      9.5934478E-09
   51.06000      8.9826031E-09
   51.12000      8.2072447E-09
   51.18000      7.2741342E-09
   51.24000      6.2113705E-09
   51.30000      5.0623701E-09
   51.36000      3.8738071E-09
   51.42000      2.6816120E-09
   51.48000      1.5000006E-09
   51.54000      3.1761507E-10
   51.60000     -8.9756719E-10
   51.66000     -2.1859605E-09
   51.72000     -3.5807464E-09
   51.78000     -5.0941154E-09
   51.84000     -6.7099868E-09
   51.90000     -8.3856539E-09
   51.96000     -1.0061846E-08
   52.02000     -1.1677996E-08
   52.08000     -1.3187875E-08
   52.14000     -1.4570753E-08
   52.20000     -1.5834758E-08
   52.26000     -1.7011638E-08
   52.32000     -1.8144950E-08
   52.38000     -1.9275717E-08
   52.44000     -2.0430411E-08
   52.50000     -2.1615197E-08
   52.56000     -2.2818123E-08
   52.62000     -2.4018100E-08
   52.68000     -2.5197076E-08
   52.74000     -2.6350721E-08
   52.80000     -2.7493575E-08
   52.86000     -2.8656908E-08
   52.92000     -2.9880223E-08
   52.98000     -3.1199868E-08
   53.04000     -3.2639043E-08
   53.10000     -3.4202913E-08
   53.16000     -3.5880372E-08
   53.22000     -3.7651748E-08
   53.28000     -3.9499621E-08
   53.34000     -4.1419170E-08
   53.40000     -4.3424890E-08
   53.46000     -4.5551754E-08
   53.52000     -4.7850705E-08
   53.58000     -5.0380009E-08
   53.64000     -5.3195031E-08
   53.70000     -5.6339410E-08
   53.76000     -5.9840119E-08
   53.82000     -6.3707532E-08
   53.88000     -6.7940050E-08
   53.94000     -7.2531314E-08
   54.00000     -7.7477090E-08
   54.06000     -8.2779380E-08
   54.12000     -8.8446178E-08
   54.18000     -9.4487248E-08
   54.24000     -1.0090763E-07
   54.30000     -1.0770119E-07
   54.36000     -1.1484637E-07
   54.42000     -1.2230529E-07
   54.48000     -1.3002604E-07
   54.54000     -1.3794684E-07
   54.60000     -1.4600052E-07
   54.66000     -1.5411692E-07
   54.72000     -1.6222205E-07
   54.78000     -1.7023343E-07
   54.84000     -1.7805245E-07
   54.90000     -1.8555612E-07
   54.96000     -1.9259123E-07
   55.02000     -1.9897301E-07
   55.08000     -2.0448984E-07
   55.14000     -2.0891214E-07
   55.20000     -2.1200248E-07
   55.26000     -2.1352334E-07
   55.32000     -2.1323953E-07
   55.38000     -2.1091498E-07
   55.44000     -2.0630590E-07
   55.50000     -1.9915331E-07
   55.56000     -1.8917848E-07