 -0.750000000       0.00000000    
 -0.689999998       0.00000000    
 -0.629999995       0.00000000    
 -0.569999993       0.00000000    
 -0.509999990       0.00000000    
 -0.449999988       0.00000000    
 -0.389999986       0.00000000    
 -0.330000013       0.00000000    
 -0.270000011       0.00000000    
 -0.209999993       0.00000000    
 -0.150000006       0.00000000    
  -9.00000036E-02   0.00000000    
  -2.99999993E-02   0.00000000    
   2.99999993E-02   1.57050135E-35
   9.00000036E-02   3.34548011E-34
  0.150000006       3.29967032E-33
  0.209999993       2.00544391E-32
  0.270000011       8.03164509E-32
  0.330000013       1.96884818E-31
  0.389999986       1.05832484E-31
  0.449999988      -1.49959958E-30
  0.509999990      -7.96203965E-30
  0.569999993      -2.31443591E-29
  0.629999995      -4.02209344E-29
  0.689999998      -1.29886070E-29
  0.750000000       1.78596876E-28
  0.810000002       6.99619282E-28
  0.870000005       1.52389014E-27
  0.930000007       1.87093251E-27
  0.990000010      -4.58115948E-28
   1.04999995      -8.83096272E-27
   1.11000001      -2.47998979E-26
   1.16999996      -4.11301322E-26
   1.23000002      -3.34394163E-26
   1.28999996       3.95546999E-26
   1.35000002       2.11010801E-25
   1.40999997       4.46224792E-25
   1.47000003       5.68552515E-25
   1.52999997       2.42336640E-25
   1.59000003      -8.80035181E-25
   1.64999998      -2.78528425E-24
   1.71000004      -4.61791483E-24
   1.76999998      -4.47735401E-24
   1.83000004      -4.15411811E-26
   1.88999999       9.68310668E-24
   1.95000005       2.20132346E-23
   2.00999999       2.92965175E-23
   2.06999993       2.08882684E-23
   2.13000011      -1.04912773E-23
   2.19000006      -6.00344290E-23
   2.25000000      -1.05582993E-22
   2.30999994      -1.13009058E-22
   2.36999989      -5.51063266E-23
   2.43000007       6.33370804E-23
   2.49000001       1.92336292E-22
   2.54999995       2.54805859E-22
   2.60999990       1.99238333E-22
   2.67000008       5.92962446E-23
   2.73000002      -3.40925804E-23
   2.78999996       6.40671302E-23
   2.84999990       3.45437975E-22
   2.91000009       5.02211067E-22
   2.97000003      -2.56773672E-23
   3.02999997      -1.68414690E-21
   3.08999991      -4.19741574E-21
   3.15000010      -6.09219006E-21
   3.21000004      -4.91297988E-21
   3.26999998       1.48459795E-21
   3.32999992       1.28235217E-20
   3.39000010       2.46459126E-20
   3.45000005       2.86415229E-20
   3.50999999       1.63070257E-20
   3.56999993      -1.46998961E-20
   3.63000011      -5.47782589E-20
   3.69000006      -8.21320167E-20
   3.75000000      -7.17442438E-20
   3.80999994      -1.21906761E-20
   3.86999989       7.82415601E-20
   3.93000007       1.49316208E-19
   3.99000001       1.40493124E-19
   4.05000019       2.32453860E-20
   4.11000013      -1.57745488E-19
   4.17000008      -2.78452440E-19
   4.23000002      -1.90472527E-19
   4.28999996       1.70233434E-19
   4.34999990       6.75346700E-19
   4.40999985       9.83176123E-19
   4.46999979       6.73571984E-19
   4.53000021      -4.72546364E-19
   4.59000015      -2.17673716E-18
   4.65000010      -3.56124746E-18
   4.71000004      -3.42517335E-18
   4.76999998      -9.04751542E-19
   4.82999992       3.74710625E-18
   4.88999987       8.74218817E-18
   4.94999981       1.11595036E-17
   5.01000023       8.28081330E-18
   5.07000017      -6.07917366E-19
   5.13000011      -1.29248716E-17
   5.19000006      -2.30485176E-17
   5.25000000      -2.45560096E-17
   5.30999994      -1.37598724E-17
   5.36999989       7.21826588E-18
   5.42999983       2.99057059E-17
   5.48999977       4.26078318E-17
   5.55000019       3.63817194E-17
   5.61000013       1.09779093E-17
   5.67000008      -2.29482931E-17
   5.73000002      -4.77447822E-17
   5.78999996      -4.79601073E-17
   5.84999990      -2.04112441E-17
   5.90999985       2.10401462E-17
   5.96999979       5.04285962E-17
   6.03000021       4.37294755E-17
   6.09000015      -4.59180573E-18
   6.15000010      -7.24810262E-17
   6.21000004      -1.16513776E-16
   6.26999998      -9.37079763E-17
   6.32999992       1.04894773E-17
   6.38999987       1.63735413E-16
   6.44999981       2.91699777E-16
   6.51000023       3.09512324E-16
   6.57000017       1.67849174E-16
   6.63000011      -1.09568979E-16
   6.69000006      -4.20399366E-16
   6.75000000      -6.19947226E-16
   6.80999994      -5.87555309E-16
   6.86999989      -2.92507291E-16
   6.92999983       1.75981736E-16
   6.98999977       6.35904003E-16
   7.05000019       8.89905626E-16
   7.11000013       8.18226310E-16
   7.17000008       4.40127769E-16
   7.23000002      -9.07868574E-17
   7.28999996      -5.59070703E-16
   7.34999990      -7.92440139E-16
   7.40999985      -7.43479517E-16
   7.46999979      -5.01778347E-16
   7.53000021      -2.27534702E-16
   7.59000015      -4.39065782E-17
   7.65000010       4.58490100E-17
   7.71000004       1.58688102E-16
   7.76999998       4.37351698E-16
   7.82999992       9.09799147E-16
   7.88999987       1.39241470E-15
   7.94999981       1.51972989E-15
   8.01000023       9.22480501E-16
   8.06999969      -5.13380317E-16
   8.13000011      -2.44453539E-15
   8.18999958      -4.06911790E-15
   8.25000000      -4.39465130E-15
   8.31000042      -2.70958217E-15
   8.36999989       9.37729953E-16
   8.43000031       5.50510683E-15
   8.48999977       9.15720458E-15
   8.55000019       9.91579035E-15
   8.60999966       6.55481825E-15
   8.67000008      -6.29872917E-16
   8.72999954      -9.56740824E-15
   8.78999996      -1.69070724E-14
   8.85000038      -1.91966973E-14
   8.90999985      -1.43567782E-14
   8.97000027      -2.85630225E-15
   9.02999973       1.19830115E-14
   9.09000015       2.48500408E-14
   9.14999962       3.03147501E-14
   9.21000004       2.50778402E-14
   9.27000046       9.69509846E-15
   9.32999992      -1.10582913E-14
   9.39000034      -2.95687411E-14
   9.44999981      -3.81953651E-14
   9.51000023      -3.25101714E-14
   9.56999969      -1.36077410E-14
   9.63000011       1.16817880E-14
   9.68999958       3.30836128E-14
   9.75000000       4.10055528E-14
   9.81000042       3.08909155E-14
   9.86999989       5.84251013E-15
   9.93000031      -2.39174508E-14
   9.98999977      -4.49134003E-14
   10.0500002      -4.62370586E-14
   10.1099997      -2.48570238E-14
   10.1700001       1.21138984E-14
   10.2299995       4.95919427E-14
   10.2900000       7.05975737E-14
   10.3500004       6.37926533E-14
   10.4099998       2.90991461E-14
   10.4700003      -2.13979225E-14
   10.5299997      -6.80743575E-14
   10.5900002      -9.21600442E-14
   10.6499996      -8.41858863E-14
   10.7100000      -4.84384736E-14
   10.7700005      -9.97209665E-16
   10.8299999       3.81001349E-14
   10.8900003       5.50243478E-14
   10.9499998       4.95835232E-14
   11.0100002       3.57012393E-14
   11.0699997       3.38365742E-14
   11.1300001       5.83191739E-14
   11.1899996       1.05714062E-13
   11.2500000       1.50829639E-13
   11.3100004       1.54204151E-13
   11.3699999       7.97360021E-14
   11.4300003      -8.42557767E-14
   11.4899998      -3.10247406E-13
   11.5500002      -5.31505124E-13
   11.6099997      -6.59912283E-13
   11.6700001      -6.16968607E-13
   11.7299995      -3.66645896E-13
   11.7900000       6.35648692E-14
   11.8500004       5.83504924E-13
   11.9099998       1.06468447E-12
   11.9700003       1.37969063E-12
   12.0299997       1.44127169E-12
   12.0900002       1.22529569E-12
   12.1499996       7.68690558E-13
   12.2100000       1.45030594E-13
   12.2700005      -5.68626472E-13
   12.3299999      -1.31518429E-12
   12.3900003      -2.05706285E-12
   12.4499998      -2.74998535E-12
   12.5100002      -3.30413626E-12
   12.5699997      -3.55624970E-12
   12.6300001      -3.27609619E-12
   12.6899996      -2.21873344E-12
   12.7500000      -2.14041892E-13
   12.8100004       2.73402416E-12
   12.8699999       6.37519768E-12
   12.9300003       1.01983144E-11
   12.9899998       1.34849510E-11
   13.0500002       1.54158908E-11
   13.1099997       1.51944447E-11
   13.1700001       1.21450783E-11
   13.2299995       5.75837988E-12
   13.2900000      -4.32125473E-12
   13.3500004      -1.83418350E-11
   13.4099998      -3.64847874E-11
   13.4700003      -5.88648505E-11
   13.5299997      -8.54742666E-11
   13.5900002      -1.16087147E-10
   13.6499996      -1.50164894E-10
   13.7100000      -1.86812357E-10
   13.7700005      -2.24820260E-10
   13.8299999      -2.62799699E-10
   13.8900003      -2.99378106E-10
   13.9499998      -3.33402056E-10
   14.0100002      -3.64087066E-10
   14.0699997      -3.91072869E-10
   14.1300001      -4.14378087E-10
   14.1899996      -4.34281971E-10
   14.2500000      -4.51185589E-10
   14.3100004      -4.65504996E-10
   14.3699999      -4.77627771E-10
   14.4300003      -4.87930585E-10
   14.4899998      -4.96823582E-10
   14.5500002      -5.04769393E-10
   14.6099997      -5.12234255E-10
   14.6700001      -5.19555621E-10
   14.7299995      -5.26753474E-10
   14.7900000      -5.33347810E-10
   14.8500004      -5.38261991E-10
   14.9099998      -5.39880030E-10
   14.9700003      -5.36287126E-10
   15.0299997      -5.25669452E-10
   15.0900002      -5.06797826E-10
   15.1499996      -4.79485618E-10
   15.2100000      -4.44910775E-10
   15.2700005      -4.05723233E-10
   15.3299999      -3.65913272E-10
   15.3900003      -3.30476840E-10
   15.4499998      -3.04957476E-10
   15.5100002      -2.94961056E-10
   15.5699997      -3.05719255E-10
   15.6300001      -3.41736611E-10
   15.6899996      -4.06509160E-10
   15.7500000      -5.02275721E-10
   15.8100004      -6.29766794E-10
   15.8699999      -7.87949650E-10
   15.9300003      -9.73819914E-10
   15.9899998      -1.18232257E-09
   16.0499992      -1.40649392E-09
   16.1100006      -1.63787550E-09
   16.1700001      -1.86718063E-09
   16.2299995      -2.08512252E-09
   16.2900009      -2.28326424E-09
   16.3500004      -2.45474108E-09
   16.4099998      -2.59475463E-09
   16.4699993      -2.70080425E-09
   16.5300007      -2.77268386E-09
   16.5900002      -2.81231638E-09
   16.6499996      -2.82349233E-09
   16.7099991      -2.81154100E-09
   16.7700005      -2.78291878E-09
   16.8299999      -2.74467116E-09
   16.8899994      -2.70374034E-09
   16.9500008      -2.66613198E-09
   17.0100002      -2.63604072E-09
   17.0699997      -2.61508215E-09
   17.1299992      -2.60181277E-09
   17.1900005      -2.59168242E-09
   17.2500000      -2.57748090E-09
   17.3099995      -2.55021515E-09
   17.3700008      -2.50026333E-09
   17.4300003      -2.41856823E-09
   17.4899998      -2.29765562E-09
   17.5499992      -2.13231521E-09
   17.6100006      -1.91989824E-09
   17.6700001      -1.66029623E-09
   17.7299995      -1.35573663E-09
   17.7900009      -1.01054576E-09
   17.8500004      -6.30975383E-10
   17.9099998      -2.25102742E-10
   17.9699993       1.97274697E-10
   18.0300007       6.24868879E-10
   18.0900002       1.04535092E-09
   18.1499996       1.44603018E-09
   18.2099991       1.81465687E-09
   18.2700005       2.14016183E-09
   18.3299999       2.41312748E-09
   18.3899994       2.62587085E-09
   18.4500008       2.77215495E-09
   18.5100002       2.84671309E-09
   18.5699997       2.84485857E-09
   18.6299992       2.76244871E-09
   18.6900005       2.59633359E-09
   18.7500000       2.34523867E-09
   18.8099995       2.01083017E-09
   18.8700008       1.59862112E-09
   18.9300003       1.11840948E-09
   18.9899998       5.84086446E-10
   19.0499992       1.28593794E-11
   19.1100006      -5.75899717E-10
   19.1700001      -1.16189636E-09
   19.2299995      -1.72501113E-09
   19.2900009      -2.24615482E-09
   19.3500004      -2.70792566E-09
   19.4099998      -3.09520809E-09
   19.4699993      -3.39583073E-09
   19.5300007      -3.60131103E-09
   19.5900002      -3.70756426E-09
   19.6499996      -3.71535647E-09
   19.7099991      -3.63028185E-09
   19.7700005      -3.46214013E-09
   19.8299999      -3.22377058E-09
   19.8899994      -2.92957236E-09
   19.9500008      -2.59403854E-09
   20.0100002      -2.23060992E-09
   20.0699997      -1.85102567E-09
   20.1299992      -1.46517576E-09
   20.1900005      -1.08130793E-09
   20.2500000      -7.06368575E-10
   20.3099995      -3.46282031E-10
   20.3700008      -6.05055979E-12
   20.4300003       3.10354298E-10
   20.4899998       6.00271444E-10
   20.5499992       8.62727667E-10
   20.6100006       1.09881015E-09
   20.6700001       1.31189482E-09
   20.7299995       1.50755908E-09
   20.7900009       1.69301817E-09
   20.8500004       1.87601912E-09
   20.9099998       2.06330486E-09
   20.9699993       2.25895813E-09
   21.0300007       2.46306930E-09
   21.0900002       2.67113420E-09
   21.1499996       2.87439805E-09
   21.2099991       3.06105274E-09
   21.2700005       3.21793747E-09
   21.3299999       3.33228267E-09
   21.3899994       3.39311335E-09
   21.4500008       3.39215056E-09
   21.5100002       3.32426420E-09
   21.5699997       3.18765947E-09
   21.6299992       2.98396508E-09
   21.6900005       2.71826783E-09
   21.7500000       2.39904563E-09
   21.8099995       2.03788142E-09
   21.8700008       1.64889558E-09
   21.9300003       1.24790112E-09
   21.9899998       8.51366477E-10
   22.0499992       4.75318895E-10
   22.1100006       1.34343328E-10
   22.1700001      -1.59157215E-10
   22.2299995      -3.95289246E-10
   22.2900009      -5.66510616E-10
   22.3500004      -6.67069733E-10
   22.4099998      -6.92319146E-10
   22.4699993      -6.38311293E-10
   22.5300007      -5.02033026E-10
   22.5900002      -2.82365714E-10
   22.6499996       1.85338880E-11
   22.7099991       3.94054317E-10
   22.7700005       8.32809599E-10
   22.8299999       1.31952227E-09
   22.8899994       1.83691728E-09
   22.9500008       2.36794273E-09
   23.0100002       2.89746005E-09
   23.0699997       3.41278072E-09
   23.1299992       3.90296906E-09
   23.1900005       4.35738468E-09
   23.2500000       4.76424811E-09
   23.3099995       5.10997200E-09
   23.3700008       5.37963274E-09
   23.4300003       5.55854029E-09
   23.4899998       5.63447733E-09
   23.5499992       5.60001601E-09
   23.6100006       5.45426637E-09
   23.6700001       5.20350918E-09
   23.7299995       4.86040630E-09
   23.7900009       4.44183357E-09
   23.8500004       3.96587518E-09
   23.9099998       3.44895801E-09
   23.9699993       2.90420843E-09
   24.0300007       2.34177233E-09
   24.0900002       1.77101389E-09
   24.1499996       1.20356636E-09
   24.2099991       6.55636267E-10
   24.2700005       1.48117227E-10
   24.3299999      -2.96010855E-10
   24.3899994      -6.56250221E-10
   24.4500008      -9.19376630E-10
   24.5100002      -1.08250109E-09
   24.5699997      -1.15314058E-09
   24.6299992      -1.14627929E-09
   24.6900005      -1.07958475E-09
   24.7500000      -9.68547686E-10
   24.8099995      -8.23153157E-10
   24.8700008      -6.46967591E-10
   24.9300003      -4.38625192E-10
   24.9899998      -1.94983099E-10
   25.0499992       8.51772888E-11
   25.1100006       3.98091143E-10
   25.1700001       7.33596128E-10
   25.2299995       1.07594356E-09
   25.2900009       1.40676482E-09
   25.3500004       1.70934988E-09
   25.4099998       1.97277661E-09
   25.4699993       2.19430163E-09
   25.5300007       2.37899633E-09
   25.5900002       2.53674193E-09
   25.6499996       2.67788258E-09
   25.7099991       2.80946555E-09
   25.7700005       2.93369218E-09
   25.8299999       3.04910230E-09
   25.8899994       3.15366200E-09
   25.9500008       3.24806670E-09
   26.0100002       3.33758310E-09
   26.0699997       3.43157014E-09
   26.1299992       3.54092644E-09
   26.1900005       3.67449715E-09
   26.2500000       3.83570198E-09
   26.3099995       4.02034628E-09
   26.3700008       4.21612301E-09
   26.4300003       4.40396519E-09
   26.4899998       4.56112348E-09
   26.5499992       4.66557548E-09
   26.6100006       4.70086636E-09
   26.6700001       4.66003680E-09
   26.7299995       4.54719418E-09
   26.7900009       4.37588721E-09
   26.8500004       4.16464463E-09
   26.9099998       3.93132460E-09
   26.9699993       3.68854502E-09
   27.0300007       3.44199491E-09
   27.0900002       3.19203353E-09
   27.1499996       2.93739477E-09
   27.2099991       2.67892908E-09
   27.2700005       2.42157205E-09
   27.3299999       2.17390328E-09
   27.3899994       1.94597805E-09
   27.4500008       1.74680426E-09
   27.5100002       1.58261682E-09
   27.5699997       1.45629664E-09
   27.6299992       1.36756817E-09
   27.6900005       1.31345579E-09
   27.7500000       1.28885547E-09
   27.8099995       1.28751143E-09
   27.8700008       1.30370248E-09
   27.9300003       1.33441902E-09
   27.9899998       1.38116796E-09
   28.0499992       1.45033008E-09
   28.1100006       1.55152613E-09
   28.1700001       1.69446157E-09
   28.2299995       1.88558147E-09
   28.2900009       2.12598494E-09
   28.3500004       2.41135401E-09
   28.4099998       2.73359024E-09
   28.4699993       3.08312753E-09
   28.5300007       3.45089135E-09
   28.5900002       3.82942256E-09
   28.6499996       4.21329371E-09
   28.7099991       4.59908334E-09
   28.7700005       4.98491648E-09
   28.8299999       5.36924549E-09
   28.8899994       5.74877079E-09
   28.9500008       6.11608808E-09
   29.0100002       6.45840537E-09
   29.0699997       6.75868206E-09
   29.1299992       6.99952585E-09
   29.1900005       7.16852133E-09
   29.2500000       7.26243599E-09
   29.3099995       7.28788274E-09
   29.3700008       7.25769667E-09
   29.4300003       7.18461912E-09
   29.4899998       7.07546821E-09
   29.5499992       6.92877711E-09
   29.6100006       6.73696166E-09
   29.6700001       6.49156151E-09
   29.7299995       6.18853679E-09
   29.7900009       5.83083626E-09
   29.8500004       5.42726886E-09
   29.9099998       4.98881292E-09
   29.9699993       4.52464421E-09
   30.0300007       4.03979428E-09
   30.0900002       3.53501584E-09
   30.1499996       3.00816594E-09
   30.2099991       2.45605869E-09
   30.2700005       1.87623361E-09
   30.3299999       1.26877508E-09
   30.3899994       6.38383402E-10
   30.4500008      -3.73635844E-12
   30.5100002      -6.39353182E-10
   30.5699997      -1.24526434E-09
   30.6299992      -1.79806958E-09
   30.6900005      -2.28018848E-09
   30.7500000      -2.68456768E-09
   30.8099995      -3.01584624E-09
   30.8700008      -3.28742367E-09
   30.9300003      -3.51594953E-09
   30.9899998      -3.71590891E-09
   31.0499992      -3.89657684E-09
   31.1100006      -4.06200540E-09
   31.1700001      -4.21304058E-09
   31.2299995      -4.34966818E-09
   31.2900009      -4.47255966E-09
   31.3500004      -4.58374094E-09
   31.4099998      -4.68699923E-09
   31.4699993      -4.78833639E-09
   31.5300007      -4.89597562E-09
   31.5900002      -5.01897190E-09
   31.6499996      -5.16407717E-09
   31.7099991      -5.33188160E-09
   31.7700005      -5.51440138E-09
   31.8299999      -5.69613023E-09
   31.8899994      -5.85887472E-09
   31.9500008      -5.98847016E-09
   32.0099983      -6.08007911E-09
   32.0699997      -6.13935169E-09
   32.1300011      -6.17894536E-09
   32.1899986      -6.21246299E-09
   32.2500000      -6.24911056E-09
   32.3100014      -6.29161034E-09
   32.3699989      -6.33774500E-09
   32.4300003      -6.38384279E-09
   32.4900017      -6.42783782E-09
   32.5499992      -6.47048637E-09
   32.6100006      -6.51490062E-09
   32.6699982      -6.56558763E-09
   32.7299995      -6.62788135E-09
   32.7900009      -6.70759404E-09
   32.8499985      -6.80991441E-09
   32.9099998      -6.93691993E-09
   32.9700012      -7.08440373E-09
   33.0299988      -7.23992155E-09
   33.0900002      -7.38397832E-09
   33.1500015      -7.49474527E-09
   33.2099991      -7.55455787E-09
   33.2700005      -7.55514051E-09
   33.3300018      -7.49899431E-09
   33.3899994      -7.39643813E-09
   33.4500008      -7.26008853E-09
   33.5099983      -7.09965420E-09
   33.5699997      -6.91925628E-09
   33.6300011      -6.71768063E-09
   33.6899986      -6.49041620E-09
   33.7500000      -6.23196428E-09
   33.8100014      -5.93768545E-09
   33.8699989      -5.60542679E-09
   33.9300003      -5.23736787E-09
   33.9900017      -4.84174922E-09
   34.0499992      -4.43317116E-09
   34.1100006      -4.03015177E-09
   34.1699982      -3.64991215E-09
   34.2299995      -3.30235794E-09
   34.2900009      -2.98640090E-09
   34.3499985      -2.69109668E-09
   34.4099998      -2.40167863E-09
   34.4700012      -2.10782702E-09
   34.5299988      -1.81015980E-09
   34.5900002      -1.52185642E-09
   34.6500015      -1.26492417E-09
   34.7099991      -1.06326881E-09
   34.7700005      -9.35880373E-10
   34.8300018      -8.92667940E-10
   34.8899994      -9.33619071E-10
   34.9500008      -1.05040932E-09
   35.0099983      -1.22920152E-09
   35.0699997      -1.45394430E-09
   35.1300011      -1.71003778E-09
   35.1899986      -1.98803307E-09
   35.2500000      -2.28620922E-09
   35.3100014      -2.61036170E-09
   35.3699989      -2.96986524E-09
   35.4300003      -3.37100481E-09
   35.4900017      -3.81058207E-09
   35.5499992      -4.27338165E-09
   35.6100006      -4.73547113E-09
   35.6699982      -5.17226084E-09
   35.7299995      -5.56754465E-09
   35.7900009      -5.91910698E-09
   35.8499985      -6.23831564E-09
   35.9099998      -6.54429044E-09
   35.9700012      -6.85575507E-09
   36.0299988      -7.18418436E-09
   36.0900002      -7.53038520E-09
   36.1500015      -7.88451882E-09
   36.2099991      -8.22825452E-09
   36.2700005      -8.53788151E-09
   36.3300018      -8.78805562E-09
   36.3899994      -8.95638319E-09
   36.4500008      -9.02839581E-09
   36.5099983      -9.00130726E-09
   36.5699997      -8.88438567E-09
   36.6300011      -8.69478889E-09
   36.6899986      -8.45003090E-09
   36.7500000      -8.16040924E-09
   36.8100014      -7.82519116E-09
   36.8699989      -7.43448103E-09
   36.9300003      -6.97566005E-09
   36.9900017      -6.44085585E-09
   37.0499992      -5.83169824E-09
   37.1100006      -5.15960830E-09
   37.1699982      -4.44256987E-09
   37.2299995      -3.70097086E-09
   37.2900009      -2.95469893E-09
   37.3499985      -2.22192931E-09
   37.4099998      -1.51847246E-09
   37.4700012      -8.56456628E-10
   37.5299988      -2.42411730E-10
   37.5900002       3.23748917E-10
   37.6500015       8.47215686E-10
   37.7099991       1.33411338E-09
   37.7700005       1.78667625E-09
   37.8300018       2.20077623E-09
   37.8899994       2.56772448E-09
   37.9500008       2.87961543E-09
   38.0099983       3.13506465E-09
   38.0699997       3.34175088E-09
   38.1300011       3.51410301E-09
   38.1899986       3.66748254E-09
   38.2500000       3.81223497E-09
   38.3100014       3.95072064E-09
   38.3699989       4.07819067E-09
   38.4300003       4.18595159E-09
   38.4900017       4.26430269E-09
   38.5499992       4.30387326E-09
   38.6100006       4.29598801E-09
   38.6699982       4.23381774E-09
   38.7299995       4.11529077E-09
   38.7900009       3.94666344E-09
   38.8499985       3.74399711E-09
   38.9099998       3.53020413E-09
   38.9700012       3.32783423E-09
   39.0299988       3.15074877E-09
   39.0900002       2.99913938E-09
   39.1500015       2.86080915E-09
   39.2099991       2.71810063E-09
   39.2700005       2.55658228E-09
   39.3300018       2.37074738E-09
   39.3899994       2.16404517E-09
   39.4500008       1.94412775E-09
   39.5099983       1.71686076E-09
   39.5699997       1.48279145E-09
   39.6300011       1.23757793E-09
   39.6899986       9.75105996E-10
   39.7500000       6.90615509E-10
   39.8100014       3.81892490E-10
   39.8699989       4.85534564E-11
   39.9300003      -3.09025278E-10
   39.9900017      -6.89683310E-10
   40.0499992      -1.09037823E-09
   40.1100006      -1.50548674E-09
   40.1699982      -1.92804972E-09
   40.2299995      -2.35300779E-09
   40.2900009      -2.78057222E-09
   40.3499985      -3.21716764E-09
   40.4099998      -3.67265929E-09
   40.4700012      -4.15507939E-09
   40.5299988      -4.66602712E-09
   40.5900002      -5.19981169E-09
   40.6500015      -5.74715386E-09
   40.7099991      -6.30128572E-09
   40.7700005      -6.86263757E-09
   40.8300018      -7.43905870E-09
   40.8899994      -8.04124767E-09
   40.9500008      -8.67593464E-09
   41.0099983      -9.34057631E-09
   41.0699997      -1.00222195E-08
   41.1300011      -1.07007407E-08
   41.1899986      -1.13544134E-08
   41.2500000      -1.19650796E-08
   41.3100014      -1.25211059E-08
   41.3699989      -1.30178206E-08
   41.4300003      -1.34561846E-08
   41.4900017      -1.38404701E-08
   41.5499992      -1.41753471E-08
   41.6100006      -1.44625956E-08
   41.6699982      -1.46981805E-08
   41.7299995      -1.48710999E-08
   41.7900009      -1.49653800E-08
   41.8499985      -1.49653960E-08
   41.9099998      -1.48627199E-08
   41.9700012      -1.46613193E-08
   42.0299988      -1.43781111E-08
   42.0900002      -1.40379566E-08
   42.1500015      -1.36650291E-08
   42.2099991      -1.32744695E-08
   42.2700005      -1.28681767E-08
   42.3300018      -1.24364687E-08
   42.3899994      -1.19645174E-08
   42.4500008      -1.14403358E-08
   42.5099983      -1.08608589E-08
   42.5699997      -1.02339524E-08
   42.6300011      -9.57619228E-09
   42.6899986      -8.90779006E-09
   42.7500000      -8.24663093E-09
   42.8100014      -7.60328067E-09
   42.8699989      -6.97833702E-09
   42.9300003      -6.36304609E-09
   42.9900017      -5.74337244E-09
   43.0499992      -5.10666220E-09
   43.1100006      -4.44875914E-09
   43.1699982      -3.77860410E-09
   43.2299995      -3.11780890E-09
   43.2900009      -2.49454124E-09
   43.3499985      -1.93372407E-09
   43.4099998      -1.44755230E-09
   43.4700012      -1.03054054E-09
   43.5299988      -6.61404764E-10
   43.5900002      -3.11017989E-10
   43.6500015       4.69479247E-11
   43.7099991       4.26960217E-10
   43.7700005       8.27291513E-10
   43.8300018       1.23128563E-09
   43.8899994       1.61296387E-09
   43.9500008       1.94464955E-09
   44.0099983       2.20436558E-09
   44.0699997       2.38139553E-09
   44.1300011       2.47899412E-09
   44.1899986       2.51363153E-09
   44.2500000       2.51067167E-09
   44.3100014       2.49732524E-09
   44.3699989       2.49490162E-09
   44.4300003       2.51314236E-09
   44.4900017       2.54897570E-09
   44.5499992       2.59028421E-09
   44.6100006       2.62298050E-09
   44.6699982       2.63811328E-09
   44.7299995       2.63585642E-09
   44.7900009       2.62500577E-09
   44.8499985       2.61897348E-09
   44.9099998       2.63079758E-09
   44.9700012       2.66958078E-09
   45.0299988       2.73932543E-09
   45.0900002       2.83952484E-09
   45.1500015       2.96619418E-09
   45.2099991       3.11257375E-09
   45.2700005       3.26982152E-09
   45.3300018       3.42853035E-09
   45.3899994       3.58131524E-09
   45.4500008       3.72545994E-09
   45.5099983       3.86379950E-09
   45.5699997       4.00256539E-09
   45.6300011       4.14672341E-09
   45.6899986       4.29519220E-09
   45.7500000       4.43891457E-09
   45.8100014       4.56334570E-09
   45.8699989       4.65431071E-09
   45.9300003       4.70407935E-09
   45.9900017       4.71425610E-09
   46.0499992       4.69404204E-09
   46.1100006       4.65521532E-09
   46.1699982       4.60705118E-09
   46.2299995       4.55407712E-09
   46.2900009       4.49738824E-09
   46.3499985       4.43778925E-09
   46.4099998       4.37800551E-09
   46.4700012       4.32223102E-09
   46.5299988       4.27355751E-09
   46.5900002       4.23156354E-09
   46.6500015       4.19230162E-09
   46.7099991       4.15111678E-09
   46.7700005       4.10657108E-09
   46.8300018       4.06279765E-09
   46.8899994       4.02864408E-09
   46.9500008       4.01414813E-09
   47.0099983       4.02669720E-09
   47.0699997       4.06925027E-09
   47.1300011       4.14136503E-09
   47.1899986       4.24163193E-09
   47.2500000       4.36919834E-09
   47.3100014       4.52294868E-09
   47.3699989       4.69898831E-09
   47.4300003       4.88868102E-09
   47.4900017       5.07936981E-09
   47.5499992       5.25811172E-09
   47.6100006       5.41652456E-09
   47.6699982       5.55389734E-09
   47.7299995       5.67675995E-09
   47.7900009       5.79536463E-09
   47.8499985       5.91948268E-09
   47.9099998       6.05603923E-09
   47.9700012       6.20951646E-09
   48.0299988       6.38388808E-09
   48.0900002       6.58382993E-09
   48.1500015       6.81377665E-09
   48.2099991       7.07541226E-09
   48.2700005       7.36573424E-09
   48.3300018       7.67766917E-09
   48.3899994       8.00337485E-09
   48.4500008       8.33819858E-09
   48.5099983       8.68248140E-09
   48.5699997       9.03967035E-09
   48.6300011       9.41170875E-09
   48.6899986       9.79463000E-09
   48.7500000       1.01772422E-08
   48.8100014       1.05437659E-08
   48.8699989       1.08786979E-08
   48.9300003       1.11709042E-08
   48.9900017       1.14147651E-08
   49.0499992       1.16085239E-08
   49.1100006       1.17518768E-08
   49.1699982       1.18451107E-08
   49.2299995       1.18903536E-08
   49.2900009       1.18934489E-08
   49.3499985       1.18640768E-08
   49.4099998       1.18129000E-08
   49.4700012       1.17469066E-08
   49.5299988       1.16658549E-08
   49.5900002       1.15624248E-08
   49.6500015       1.14263834E-08
   49.7099991       1.12503411E-08
   49.7700005       1.10335137E-08
   49.8300018       1.07811413E-08
   49.8899994       1.05001519E-08
   49.9500008       1.01941247E-08
   50.0099983       9.86100446E-09
   50.0699997       9.49499679E-09
   50.1300011       9.09116515E-09
   50.1899986       8.64943939E-09
   50.2500000       8.17528978E-09
   50.3100014       7.67676944E-09
   50.3699989       7.16010717E-09
   50.4300003       6.62691457E-09
   50.4900017       6.07472961E-09
   50.5499992       5.50019719E-09
   50.6100006       4.90245444E-09