  -2.400000      0.0000000E+00
  -2.340000      0.0000000E+00
  -2.280000      0.0000000E+00
  -2.220000      0.0000000E+00
  -2.160000      0.0000000E+00
  -2.100000      0.0000000E+00
  -2.040000      0.0000000E+00
  -1.980000      0.0000000E+00
  -1.920000      0.0000000E+00
  -1.860000      0.0000000E+00
  -1.800000      0.0000000E+00
  -1.740000      0.0000000E+00
  -1.680000      0.0000000E+00
  -1.620000      8.8342920E-36
  -1.560000      1.3729164E-34
  -1.500000      9.3951322E-34
  -1.440000      3.4184996E-33
  -1.380000      3.2802761E-33
  -1.320000     -3.6462377E-32
  -1.260000     -2.4588956E-31
  -1.200000     -8.5660728E-31
  -1.140000     -1.7888081E-30
  -1.080000     -1.1364487E-30
  -1.020000      7.5213034E-30
 -0.9600000      3.5748197E-29
 -0.9000000      8.9092021E-29
 -0.8400000      1.3075662E-28
 -0.7800000      2.2753159E-29
 -0.7200000     -4.9777706E-28
 -0.6600000     -1.6662724E-27
 -0.6000000     -3.1976354E-27
 -0.5400000     -3.4883918E-27
 -0.4800000      8.9929633E-28
 -0.4200000      1.4157337E-26
 -0.3600000      3.7026305E-26
 -0.3000000      5.9304504E-26
 -0.2400000      5.2565968E-26
 -0.1800000     -2.8290139E-26
 -0.1200000     -2.2263913E-25
 -5.9999999E-02 -5.1261153E-25
  0.0000000E+00 -7.5105411E-25
  5.9999999E-02 -6.1040124E-25
  0.1200000      3.6452518E-25
  0.1800000      2.4942944E-24
  0.2400000      5.4402471E-24
  0.3000000      7.5592186E-24
  0.3600000      5.6276797E-24
  0.4200000     -4.2313955E-24
  0.4800000     -2.3654966E-23
  0.5400000     -4.7428003E-23
  0.6000000     -5.9541637E-23
  0.6600000     -3.4722656E-23
  0.7200000      4.9334714E-23
  0.7800000      1.8820368E-22
  0.8400000      3.2485799E-22
  0.9000000      3.4338663E-22
  0.9600000      1.0828753E-22
   1.020000     -4.4036876E-22
   1.080000     -1.1657936E-21
   1.140000     -1.6674740E-21
   1.200000     -1.3723448E-21
   1.260000      1.5773829E-22
   1.320000      2.7771680E-21
   1.380000      5.4167603E-21
   1.440000      6.2057876E-21
   1.500000      3.2989243E-21
   1.560000     -3.7342927E-21
   1.620000     -1.2642355E-20
   1.680000     -1.8403361E-20
   1.740000     -1.5160536E-20
   1.800000     -1.3443119E-23
   1.860000      2.3045425E-20
   1.920000      4.1962698E-20
   1.980000      4.0846922E-20
   2.040000      9.6935705E-21
   2.100000     -4.4454095E-20
   2.160000     -9.2627220E-20
   2.220000     -9.3024389E-20
   2.280000     -1.5774509E-20
   2.340000      1.2596361E-19
   2.400000      2.5861450E-19
   2.460000      2.6655624E-19
   2.520000      5.4704420E-20
   2.580000     -3.6455437E-19
   2.640000     -8.1048211E-19
   2.700000     -9.6071889E-19
   2.760000     -4.9923736E-19
   2.820000      6.4988686E-19
   2.880000      2.1211182E-18
   2.940000      3.1007331E-18
   3.000000      2.6288954E-18
   3.060000      1.6960641E-19
   3.120000     -3.8005392E-18
   3.180000     -7.5752158E-18
   3.240000     -8.7053075E-18
   3.300000     -5.2079353E-18
   3.360000      2.9600389E-18
   3.420000      1.3006705E-17
   3.480000      1.9821775E-17
   3.540000      1.8169982E-17
   3.600000      5.8425458E-18
   3.660000     -1.3861672E-17
   3.720000     -3.2153080E-17
   3.780000     -3.8174713E-17
   3.840000     -2.4887067E-17
   3.900000      5.4407395E-18
   3.960000      3.9722709E-17
   4.020000      5.8788143E-17
   4.080000      4.7380085E-17
   4.140000      4.7807387E-18
   4.200000     -5.0443972E-17
   4.260000     -8.6388427E-17
   4.320000     -7.3962388E-17
   4.380000     -6.1933726E-18
   4.440000      9.0481290E-17
   4.500000      1.6238297E-16
   4.560000      1.5358031E-16
   4.620000      3.9843225E-17
   4.680000     -1.4655369E-16
   4.740000     -3.1875073E-16
   4.800000     -3.7022381E-16
   4.860000     -2.3103308E-16
   4.920000      8.1789475E-17
   4.980000      4.5022078E-16
   5.040000      6.9446230E-16
   5.100000      6.5581161E-16
   5.160000      2.8683971E-16
   5.220000     -2.9931696E-16
   5.280000     -8.5591779E-16
   5.340000     -1.1061107E-15
   5.400000     -8.8132259E-16
   5.460000     -2.2626831E-16
   5.520000      5.9158401E-16
   5.580000      1.1890296E-15
   5.640000      1.2518997E-15
   5.700000      7.1034274E-16
   5.760000     -1.9166036E-16
   5.820000     -9.8697867E-16
   5.880000     -1.2123623E-15
   5.940000     -6.6976441E-16
   6.000000      4.1596909E-16
   6.060000      1.4482448E-15
   6.120000      1.7288453E-15
   6.180000      8.4024477E-16
   6.240000     -1.0470149E-15
   6.300000     -3.1241838E-15
   6.360000     -4.2318507E-15
   6.420000     -3.4032681E-15
   6.480000     -4.3213143E-16
   6.540000      3.8244910E-15
   6.600000      7.6189843E-15
   6.660000      8.9740574E-15
   6.720000      6.6031415E-15
   6.780000      6.8994719E-16
   6.840000     -6.8806519E-15
   6.900000     -1.3059694E-14
   6.960000     -1.4830364E-14
   7.020000     -1.0619222E-14
   7.080000     -1.2931758E-15
   7.140000      9.8070440E-15
   7.200000      1.7990878E-14
   7.260000      1.9179491E-14
   7.320000      1.1926116E-14
   7.380000     -1.4585223E-15
   7.440000     -1.5381095E-14
   7.500000     -2.3109635E-14
   7.560000     -1.9859924E-14
   7.620000     -5.4978753E-15
   7.680000      1.4538765E-14
   7.740000      3.0893982E-14
   7.800000      3.4202777E-14
   7.860000      1.9760025E-14
   7.920000     -9.2120229E-15
   7.980000     -4.1577412E-14
   8.040000     -6.2190528E-14
   8.100000     -5.8487706E-14
   8.160000     -2.7018830E-14
   8.220000      2.3281736E-14
   8.280000      7.3225842E-14
   8.340000      1.0074349E-13
   8.400000      9.0738743E-14
   8.460000      4.3032472E-14
   8.520000     -2.5716022E-14
   8.580000     -8.7849799E-14
   8.640000     -1.1648935E-13
   8.700000     -9.8252752E-14
   8.760000     -4.0816326E-14
   8.820000      2.9017109E-14
   8.880000      7.6914027E-14
   8.940000      7.7650126E-14
   9.000000      2.9070516E-14
   9.060000     -4.3997615E-14
   9.120000     -9.9159762E-14
   9.180000     -9.6221100E-14
   9.240000     -1.8756901E-14
   9.300000      1.1308461E-13
   9.360000      2.4613723E-13
   9.420000      3.1459929E-13
   9.480000      2.6948826E-13
   9.540000      1.0402528E-13
   9.600000     -1.3774222E-13
   9.660000     -3.7504253E-13
   9.720000     -5.2277995E-13
   9.780000     -5.2847727E-13
   9.840000     -3.9643820E-13
   9.900000     -1.8636144E-13
   9.960000      1.5080841E-14
   10.02000      1.3802418E-13
   10.08000      1.6806647E-13
   10.14000      1.5958530E-13
   10.20000      2.1364118E-13
   10.26000      4.2648258E-13
   10.32000      8.2962153E-13
   10.38000      1.3490973E-12
   10.44000      1.8060516E-12
   10.50000      1.9646281E-12
   10.56000      1.6130388E-12
   10.62000      6.4825185E-13
   10.68000     -8.6868062E-13
   10.74000     -2.7089748E-12
   10.80000     -4.5259157E-12
   10.86000     -5.9382802E-12
   10.92000     -6.6146966E-12
   10.98000     -6.3282383E-12
   11.04000     -4.9669856E-12
   11.10000     -2.5098712E-12
   11.16000      1.0031971E-12
   11.22000      5.4723045E-12
   11.28000      1.0687579E-11
   11.34000      1.6233169E-11
   11.40000      2.1379792E-11
   11.46000      2.5019268E-11
   11.52000      2.5691510E-11
   11.58000      2.1727942E-11
   11.64000      1.1493624E-11
   11.70000     -6.3300463E-12
   11.76000     -3.2501855E-11
   11.82000     -6.7087932E-11
   11.88000     -1.0947360E-10
   11.94000     -1.5850120E-10
   12.00000     -2.1266894E-10
   12.06000     -2.7030653E-10
   12.12000     -3.2966130E-10
   12.18000     -3.8887710E-10
   12.24000     -4.4590753E-10
   12.30000     -4.9844689E-10
   12.36000     -5.4396654E-10
   12.42000     -5.7990379E-10
   12.48000     -6.0398225E-10
   12.54000     -6.1457267E-10
   12.60000     -6.1097138E-10
   12.66000     -5.9348654E-10
   12.72000     -5.6329347E-10
   12.78000     -5.2210530E-10
   12.84000     -4.7178228E-10
   12.90000     -4.1402554E-10
   12.96000     -3.5026176E-10
   13.02000     -2.8174074E-10
   13.08000     -2.0976929E-10
   13.14000     -1.3594294E-10
   13.20000     -6.2238048E-11
   13.26000      9.1080728E-12
   13.32000      7.5899467E-11
   13.38000      1.3634491E-10
   13.44000      1.8932379E-10
   13.50000      2.3443125E-10
   13.56000      2.7177441E-10
   13.62000      3.0160438E-10
   13.68000      3.2394676E-10
   13.74000      3.3840117E-10
   13.80000      3.4421016E-10
   13.86000      3.4057915E-10
   13.92000      3.2711608E-10
   13.98000      3.0419975E-10
   14.04000      2.7311003E-10
   14.10000      2.3585353E-10
   14.16000      1.9474806E-10
   14.22000      1.5193637E-10
   14.28000      1.0903100E-10
   14.34000      6.7034912E-11
   14.40000      2.6558594E-11
   14.46000     -1.1781903E-11
   14.52000     -4.6989437E-11
   14.58000     -7.7533910E-11
   14.64000     -1.0153017E-10
   14.70000     -1.1720386E-10
   14.76000     -1.2346624E-10
   14.82000     -1.2035475E-10
   14.88000     -1.0913700E-10
   14.94000     -9.2006833E-11
   15.00000     -7.1468359E-11
   15.06000     -4.9633908E-11
   15.12000     -2.7698557E-11
   15.18000     -5.7793683E-12
   15.24000      1.6845202E-11
   15.30000      4.1224600E-11
   15.36000      6.8186401E-11
   15.42000      9.7978868E-11
   15.48000      1.3023464E-10
   15.54000      1.6422941E-10
   15.60000      1.9927311E-10
   15.66000      2.3501559E-10
   15.72000      2.7149541E-10
   15.78000      3.0889008E-10
   15.84000      3.4707429E-10
   15.90000      3.8519710E-10
   15.96000      4.2149886E-10
   16.02000      4.5349885E-10
   16.08000      4.7853282E-10
   16.14000      4.9446930E-10
   16.20000      5.0034538E-10
   16.26000      4.9668208E-10
   16.32000      4.8535298E-10
   16.38000      4.6905368E-10
   16.44000      4.5057461E-10
   16.50000      4.3215667E-10
   16.56000      4.1516926E-10
   16.62000      4.0020665E-10
   16.68000      3.8751172E-10
   16.74000      3.7748804E-10
   16.80000      3.7102385E-10
   16.86000      3.6944622E-10
   16.92000      3.7411335E-10
   16.98000      3.8584699E-10
   17.04000      4.0450901E-10
   17.10000      4.2897827E-10
   17.16000      4.5759868E-10
   17.22000      4.8893145E-10
   17.28000      5.2247551E-10
   17.34000      5.5900135E-10
   17.40000      6.0030098E-10
   17.46000      6.4841493E-10
   17.52000      7.0463341E-10
   17.58000      7.6867807E-10
   17.64000      8.3839269E-10
   17.70000      9.1005703E-10
   17.76000      9.7918773E-10
   17.82000      1.0415142E-09
   17.88000      1.0937952E-09
   17.94000      1.1342479E-09
   18.00000      1.1625425E-09
   18.06000      1.1794717E-09
   18.12000      1.1864845E-09
   18.18000      1.1852520E-09
   18.24000      1.1773710E-09
   18.30000      1.1642243E-09
   18.36000      1.1469720E-09
   18.42000      1.1266297E-09
   18.48000      1.1041883E-09
   18.54000      1.0807373E-09
   18.60000      1.0575452E-09
   18.66000      1.0360546E-09
   18.72000      1.0177602E-09
   18.78000      1.0039710E-09
   18.84000      9.9550290E-10
   18.90000      9.9237607E-10
   18.96000      9.9361497E-10
   19.02000      9.9722741E-10
   19.08000      1.0004038E-09
   19.14000      9.9991948E-10
   19.20000      9.9266162E-10
   19.26000      9.7615005E-10
   19.32000      9.4890840E-10
   19.38000      9.1057095E-10
   19.44000      8.6169832E-10
   19.50000      8.0338208E-10
   19.56000      7.3681633E-10
   19.62000      6.6303052E-10
   19.68000      5.8291594E-10
   19.74000      4.9753740E-10
   19.80000      4.0857451E-10
   19.86000      3.1865946E-10
   19.92000      2.3139721E-10
   19.98000      1.5097656E-10
   20.04000      8.1437836E-11
   20.10000      2.5786883E-11
   20.16000     -1.4804515E-11
   20.22000     -4.1498072E-11
   20.28000     -5.7844039E-11
   20.34000     -6.9330527E-11
   20.40000     -8.2455008E-11
   20.46000     -1.0345019E-10
   20.52000     -1.3691991E-10
   20.58000     -1.8474232E-10
   20.64000     -2.4561053E-10
   20.70000     -3.1544309E-10
   20.76000     -3.8861367E-10
   20.82000     -4.5961684E-10
   20.88000     -5.2456289E-10
   20.94000     -5.8191924E-10
   21.00000     -6.3221034E-10
   21.06000     -6.7684752E-10
   21.12000     -7.1666034E-10
   21.18000     -7.5084694E-10
   21.24000     -7.7686624E-10
   21.30000     -7.9134765E-10
   21.36000     -7.9161161E-10
   21.42000     -7.7710416E-10
   21.48000     -7.5008355E-10
   21.54000     -7.1523037E-10
   21.60000     -6.7831646E-10
   21.66000     -6.4446054E-10
   21.72000     -6.1665678E-10
   21.78000     -5.9513833E-10
   21.84000     -5.7780114E-10
   21.90000     -5.6149863E-10
   21.96000     -5.4368954E-10
   22.02000     -5.2378751E-10
   22.08000     -5.0368176E-10
   22.14000     -4.8721849E-10
   22.20000     -4.7884646E-10
   22.26000     -4.8196586E-10
   22.32000     -4.9764187E-10
   22.38000     -5.2418664E-10
   22.44000     -5.5774668E-10
   22.50000     -5.9360616E-10
   22.56000     -6.2763461E-10
   22.62000     -6.5728839E-10
   22.68000     -6.8182088E-10
   22.74000     -7.0173428E-10
   22.80000     -7.1784029E-10
   22.86000     -7.3043438E-10
   22.92000     -7.3899525E-10
   22.98000     -7.4255779E-10
   23.04000     -7.4060347E-10
   23.10000     -7.3407908E-10
   23.16000     -7.2607181E-10
   23.22000     -7.2175110E-10
   23.28000     -7.2742345E-10
   23.34000     -7.4887052E-10
   23.40000     -7.8946655E-10
   23.46000     -8.4876273E-10
   23.52000     -9.2216174E-10
   23.58000     -1.0019526E-09
   23.64000     -1.0794251E-09
   23.70000     -1.1472845E-09
   23.76000     -1.2013913E-09
   23.82000     -1.2411192E-09
   23.88000     -1.2682589E-09
   23.94000     -1.2850935E-09
   24.00000     -1.2926665E-09
   24.06000     -1.2901283E-09
   24.12000     -1.2754421E-09
   24.18000     -1.2469927E-09
   24.24000     -1.2051677E-09
   24.30000     -1.1530223E-09
   24.36000     -1.0956661E-09
   24.42000     -1.0386806E-09
   24.48000     -9.8635977E-10
   24.54000     -9.4059971E-10
   24.60000     -9.0089325E-10
   24.66000     -8.6534807E-10
   24.72000     -8.3220719E-10
   24.78000     -8.0119827E-10
   24.84000     -7.7417434E-10
   24.90000     -7.5481499E-10
   24.96000     -7.4751294E-10
   25.02000     -7.5585788E-10
   25.08000     -7.8128815E-10
   25.14000     -8.2245910E-10
   25.20000     -8.7563323E-10
   25.26000     -9.3598651E-10
   25.32000     -9.9928432E-10
   25.38000     -1.0631434E-09
   25.44000     -1.1272426E-09
   25.50000     -1.1923699E-09
   25.56000     -1.2588430E-09
   25.62000     -1.3252449E-09
   25.68000     -1.3882793E-09
   25.74000     -1.4439239E-09
   25.80000     -1.4892726E-09
   25.86000     -1.5240015E-09
   25.92000     -1.5505730E-09
   25.98000     -1.5730046E-09
   26.04000     -1.5948437E-09
   26.10000     -1.6174124E-09
   26.16000     -1.6391630E-09
   26.22000     -1.6563102E-09
   26.28000     -1.6642198E-09
   26.34000     -1.6587676E-09
   26.40000     -1.6371161E-09
   26.46000     -1.5978511E-09
   26.52000     -1.5407694E-09
   26.58000     -1.4666143E-09
   26.64000     -1.3768081E-09
   26.70000     -1.2730519E-09
   26.76000     -1.1567608E-09
   26.82000     -1.0286266E-09
   26.88000     -8.8878954E-10
   26.94000     -7.3788120E-10
   27.00000     -5.7857952E-10
   27.06000     -4.1669670E-10
   27.12000     -2.6075228E-10
   27.18000     -1.1967173E-10
   27.24000      5.9725282E-13
   27.30000      9.9874727E-11
   27.36000      1.8430370E-10
   27.42000      2.6409133E-10
   27.48000      3.4937100E-10
   27.54000      4.4617129E-10
   27.60000      5.5439836E-10
   27.66000      6.6858535E-10
   27.72000      7.8066886E-10
   27.78000      8.8313129E-10
   27.84000      9.7100050E-10
   27.90000      1.0421726E-09
   27.96000      1.0965734E-09
   28.02000      1.1350978E-09
   28.08000      1.1589207E-09
   28.14000      1.1691180E-09
   28.20000      1.1661981E-09
   28.26000      1.1494343E-09
   28.32000      1.1164758E-09
   28.38000      1.0639861E-09
   28.44000      9.8957342E-10
   28.50000      8.9427676E-10
   28.56000      7.8408624E-10
   28.62000      6.6915629E-10
   28.68000      5.6060201E-10
   28.74000      4.6634074E-10
   28.80000      3.8826947E-10
   28.86000      3.2247416E-10
   28.92000      2.6242111E-10
   28.98000      2.0328093E-10
   29.04000      1.4488080E-10
   29.10000      9.1724600E-11
   29.16000      5.0419762E-11
   29.22000      2.6421147E-11
   29.28000      2.2192940E-11
   29.34000      3.7652700E-11
   29.40000      7.2043461E-11
   29.46000      1.2544409E-10
   29.52000      1.9861202E-10
   29.58000      2.9132721E-10
   29.64000      4.0069792E-10
   29.70000      5.2099464E-10
   29.76000      6.4540623E-10
   29.82000      7.6857160E-10
   29.88000      8.8803354E-10
   29.94000      1.0034814E-09
   30.00000      1.1142859E-09
   30.06000      1.2171624E-09
   30.12000      1.3057934E-09
   30.18000      1.3728620E-09
   30.24000      1.4131846E-09
   30.30000      1.4258076E-09
   30.36000      1.4136698E-09
   30.42000      1.3811956E-09
   30.48000      1.3316671E-09
   30.54000      1.2663101E-09
   30.60000      1.1856405E-09
   30.66000      1.0918098E-09
   30.72000      9.8983854E-10
   30.78000      8.8640384E-10
   30.84000      7.8671314E-10
   30.90000      6.9155615E-10
   30.96000      5.9669897E-10
   31.02000      4.9525772E-10
   31.08000      3.8165998E-10
   31.14000      2.5472016E-10
   31.20000      1.1800654E-10
   31.26000     -2.2450321E-11
   31.32000     -1.6132368E-10
   31.38000     -2.9589720E-10
   31.44000     -4.2576756E-10
   31.50000     -5.5114674E-10
   31.56000     -6.7150541E-10
   31.62000     -7.8573731E-10
   31.68000     -8.9348967E-10
   31.74000     -9.9609609E-10
   31.80000     -1.0957261E-09
   31.86000     -1.1928764E-09
   31.92000     -1.2839868E-09
   31.98000     -1.3613937E-09
   32.04000     -1.4164867E-09
   32.10000     -1.4446664E-09
   32.16000     -1.4491228E-09
   32.22000     -1.4408348E-09
   32.28000     -1.4343997E-09
   32.34000     -1.4419171E-09
   32.40000     -1.4683719E-09
   32.46000     -1.5109479E-09
   32.52000     -1.5621675E-09
   32.58000     -1.6144466E-09
   32.64000     -1.6631273E-09
   32.70000     -1.7065440E-09
   32.76000     -1.7439954E-09
   32.82000     -1.7738976E-09
   32.88000     -1.7939167E-09
   32.94000     -1.8029905E-09
   33.00000     -1.8033752E-09
   33.06000     -1.8006102E-09
   33.12000     -1.8008215E-09
   33.18000     -1.8069145E-09
   33.24000     -1.8163349E-09
   33.30000     -1.8222487E-09
   33.36000     -1.8177333E-09
   33.42000     -1.8004428E-09
   33.48000     -1.7747314E-09
   33.54000     -1.7497617E-09
   33.60000     -1.7346403E-09
   33.66000     -1.7334416E-09
   33.72000     -1.7429274E-09
   33.78000     -1.7540008E-09
   33.84000     -1.7556934E-09
   33.90000     -1.7392381E-09
   33.96000     -1.7001687E-09
   34.02000     -1.6379056E-09
   34.08000     -1.5537858E-09
   34.14000     -1.4490356E-09
   34.20000     -1.3236739E-09
   34.26000     -1.1764216E-09
   34.32000     -1.0051553E-09
   34.38000     -8.0756207E-10
   34.44000     -5.8205157E-10
   34.50000     -3.2909833E-10
   34.56000     -5.2771384E-11
   34.62000      2.3837674E-10
   34.68000      5.3200638E-10
   34.74000      8.1454937E-10
   34.80000      1.0747665E-09
   34.86000      1.3066344E-09
   34.92000      1.5100817E-09
   34.98000      1.6892613E-09
   35.04000      1.8494329E-09
   35.10000      1.9942348E-09
   35.16000      2.1246402E-09
   35.22000      2.2396811E-09
   35.28000      2.3379023E-09
   35.34000      2.4183258E-09
   35.40000      2.4804205E-09
   35.46000      2.5235616E-09
   35.52000      2.5468796E-09
   35.58000      2.5499376E-09
   35.64000      2.5337608E-09
   35.70000      2.5012161E-09
   35.76000      2.4560971E-09
   35.82000      2.4013165E-09
   35.88000      2.3374904E-09
   35.94000      2.2631559E-09
   36.00000      2.1768094E-09
   36.06000      2.0795887E-09
   36.12000      1.9767652E-09
   36.18000      1.8768302E-09
   36.24000      1.7884495E-09
   36.30000      1.7169345E-09
   36.36000      1.6621973E-09
   36.42000      1.6192039E-09
   36.48000      1.5804320E-09
   36.54000      1.5388090E-09
   36.60000      1.4896597E-09
   36.66000      1.4311458E-09
   36.72000      1.3636918E-09
   36.78000      1.2892488E-09
   36.84000      1.2107972E-09
   36.90000      1.1318283E-09
   36.96000      1.0553487E-09
   37.02000      9.8246822E-10
   37.08000      9.1138352E-10
   37.14000      8.3780188E-10
   37.20000      7.5713275E-10
   37.26000      6.6750205E-10
   37.32000      5.7175820E-10
   37.38000      4.7693788E-10
   37.44000      3.9113662E-10
   37.50000      3.1946770E-10
   37.56000      2.6157188E-10
   37.62000      2.1233418E-10
   37.68000      1.6551083E-10
   37.74000      1.1812575E-10
   37.80000      7.2982398E-11
   37.86000      3.7769905E-11
   37.92000      2.1268150E-11
   37.98000      2.8764591E-11
   38.04000      5.9043721E-11
   38.10000      1.0421678E-10
   38.16000      1.5207892E-10
   38.22000      1.8963965E-10
   38.28000      2.0642131E-10
   38.34000      1.9675131E-10
   38.40000      1.6088626E-10
   38.46000      1.0496842E-10
   38.52000      3.9665847E-11
   38.58000     -2.2596676E-11
   38.64000     -7.1335111E-11
   38.70000     -1.0132910E-10
   38.76000     -1.1392282E-10
   38.82000     -1.1534781E-10
   38.88000     -1.1268073E-10
   38.94000     -1.0956566E-10
   39.00000     -1.0420380E-10
   39.06000     -9.0913825E-11
   39.12000     -6.4427762E-11
   39.18000     -2.4367380E-11
   39.24000      2.2804413E-11
   39.30000      6.5519284E-11
   39.36000      9.1459375E-11
   39.42000      9.2009671E-11
   39.48000      6.4485327E-11
   39.54000      1.1399777E-11
   39.60000     -6.2172385E-11
   39.66000     -1.5129609E-10
   39.72000     -2.5265776E-10
   39.78000     -3.6479372E-10
   39.84000     -4.8786825E-10
   39.90000     -6.2361666E-10
   39.96000     -7.7519496E-10
   40.02000     -9.4607744E-10
   40.08000     -1.1375741E-09
   40.14000     -1.3458175E-09
   40.20000     -1.5601700E-09
   40.26000     -1.7648198E-09
   40.32000     -1.9436350E-09
   40.38000     -2.0861362E-09
   40.44000     -2.1912727E-09
   40.50000     -2.2665962E-09
   40.56000     -2.3230362E-09
   40.62000     -2.3681930E-09
   40.68000     -2.4020543E-09
   40.74000     -2.4175959E-09
   40.80000     -2.4057405E-09
   40.86000     -2.3615567E-09
   40.92000     -2.2880311E-09
   40.98000     -2.1954771E-09
   41.04000     -2.0973927E-09
   41.10000     -2.0054836E-09
   41.16000     -1.9265096E-09
   41.22000     -1.8619269E-09
   41.28000     -1.8094032E-09
   41.34000     -1.7645324E-09
   41.40000     -1.7218194E-09
   41.46000     -1.6752971E-09
   41.52000     -1.6197603E-09
   41.58000     -1.5529238E-09
   41.64000     -1.4774546E-09
   41.70000     -1.4010993E-09
   41.76000     -1.3338974E-09
   41.82000     -1.2834308E-09
   41.88000     -1.2507643E-09
   41.94000     -1.2297582E-09
   42.00000     -1.2104778E-09
   42.06000     -1.1847114E-09
   42.12000     -1.1500632E-09
   42.18000     -1.1099354E-09
   42.24000     -1.0695058E-09
   42.30000     -1.0306143E-09
   42.36000     -9.8929021E-10
   42.42000     -9.3781483E-10
   42.48000     -8.6997104E-10
   42.54000     -7.8580953E-10
   42.60000     -6.9253392E-10
   42.66000     -6.0082816E-10
   42.72000     -5.1916077E-10
   42.78000     -4.4998005E-10
   42.84000     -3.9026102E-10
   42.90000     -3.3564201E-10
   42.96000     -2.8477626E-10
   43.02000     -2.4045552E-10
   43.08000     -2.0659746E-10
   43.14000     -1.8344079E-10
   43.20000     -1.6482356E-10
   43.26000     -1.4003644E-10
   43.32000     -9.9408787E-11
   43.38000     -3.9945332E-11
   43.44000      3.2900963E-11
   43.50000      1.0863183E-10
   43.56000      1.7801044E-10
   43.62000      2.3802774E-10
   43.68000      2.9233935E-10
   43.74000      3.4727568E-10
   43.80000      4.0663309E-10
   43.86000      4.6911525E-10
   43.92000      5.3009602E-10
   43.98000      5.8601413E-10
   44.04000      6.3774797E-10
   44.10000      6.9022166E-10
   44.16000      7.4854312E-10
   44.22000      8.1380619E-10
   44.28000      8.8207636E-10
   44.34000      9.4764996E-10
   44.40000      1.0082346E-09
   44.46000      1.0678967E-09
   44.52000      1.1349678E-09
   44.58000      1.2157616E-09
   44.64000      1.3082919E-09
   44.70000      1.4006765E-09
   44.76000      1.4760172E-09
   44.82000      1.5211710E-09
   44.88000      1.5340136E-09
   44.94000      1.5245537E-09
   45.00000      1.5091312E-09
   45.06000      1.5013017E-09
   45.12000      1.5049535E-09
   45.18000      1.5135084E-09
   45.24000      1.5150403E-09
   45.30000      1.4995784E-09
   45.36000      1.4640679E-09
   45.42000      1.4126412E-09
   45.48000      1.3531974E-09
   45.54000      1.2933729E-09
   45.60000      1.2385365E-09
   45.66000      1.1922047E-09
   45.72000      1.1571986E-09
   45.78000      1.1355923E-09
   45.84000      1.1270499E-09
   45.90000      1.1270761E-09
   45.96000      1.1272698E-09
   46.02000      1.1183103E-09
   46.08000      1.0941639E-09
   46.14000      1.0547144E-09
   46.20000      1.0048348E-09
   46.26000      9.5034747E-10
   46.32000      8.9359242E-10
   46.38000      8.3168478E-10
   46.44000      7.5868456E-10
   46.50000      6.7012090E-10
   46.56000      5.6665528E-10
   46.62000      4.5432749E-10
   46.68000      3.4130027E-10
   46.74000      2.3346644E-10
   46.80000      1.3195370E-10
   46.86000      3.4037075E-11
   46.92000     -6.3535052E-11
   46.98000     -1.6140266E-10
   47.04000     -2.5684416E-10
   47.10000     -3.4563716E-10
   47.16000     -4.2478990E-10
   47.22000     -4.9393484E-10
   47.28000     -5.5446614E-10
   47.34000     -6.0742306E-10
   47.40000     -6.5211864E-10
   47.46000     -6.8680472E-10
   47.52000     -7.1088052E-10
   47.58000     -7.2674045E-10
   47.64000     -7.3949241E-10
   47.70000     -7.5436979E-10
   47.76000     -7.7347839E-10
   47.82000     -7.9412965E-10
   47.88000     -8.0992735E-10
   47.94000     -8.1383739E-10
   48.00000     -8.0114393E-10
   48.06000     -7.7047324E-10
   48.12000     -7.2266382E-10
   48.18000     -6.5887923E-10
   48.24000     -5.7973831E-10
   48.30000     -4.8611670E-10
   48.36000     -3.8064946E-10
   48.42000     -2.6820329E-10
   48.48000     -1.5437496E-10
   48.54000     -4.2807754E-11
   48.60000      6.6636641E-11
   48.66000      1.7715335E-10
   48.72000      2.9182481E-10
   48.78000      4.1006398E-10
   48.84000      5.2628407E-10
   48.90000      6.3202665E-10
   48.96000      7.2038370E-10
   49.02000      7.8986234E-10
   49.08000      8.4512697E-10
   49.14000      8.9414376E-10
   49.20000      9.4365693E-10
   49.26000      9.9593600E-10
   49.32000      1.0486739E-09
   49.38000      1.0976453E-09
   49.44000      1.1399331E-09
   49.50000      1.1754835E-09
   49.56000      1.2063254E-09
   49.62000      1.2346754E-09
   49.68000      1.2618441E-09
   49.74000      1.2888729E-09
   49.80000      1.3180648E-09
   49.86000      1.3535351E-09
   49.92000      1.3995487E-09
   49.98000      1.4572814E-09
   50.04000      1.5222700E-09
   50.10000      1.5848031E-09
   50.16000      1.6336822E-09
   50.22000      1.6614080E-09
   50.28000      1.6676618E-09
   50.34000      1.6589199E-09
   50.40000      1.6445199E-09
   50.46000      1.6317635E-09
   50.52000      1.6230824E-09
   50.58000      1.6166417E-09
   50.64000      1.6092788E-09
   50.70000      1.5991961E-09
   50.76000      1.5863758E-09
   50.82000      1.5707621E-09
   50.88000      1.5501765E-09
   50.94000      1.5202101E-09
   51.00000      1.4767292E-09
   51.06000      1.4193920E-09
   51.12000      1.3534525E-09
   51.18000      1.2880631E-09
   51.24000      1.2316582E-09
   51.30000      1.1871234E-09
   51.36000      1.1497624E-09
   51.42000      1.1093427E-09
   51.48000      1.0549260E-09
   51.54000      9.7955832E-10
   51.60000      8.8225405E-10
   51.66000      7.6667189E-10
   51.72000      6.3797356E-10
   51.78000      5.0015619E-10
   51.84000      3.5528694E-10
   51.90000      2.0437287E-10
   51.96000      4.8453262E-11
   52.02000     -1.1132204E-10
   52.08000     -2.7468153E-10
   52.14000     -4.4317758E-10
   52.20000     -6.1988747E-10
   52.26000     -8.0761375E-10
   52.32000     -1.0066019E-09
   52.38000     -1.2133536E-09
   52.44000     -1.4214840E-09
   52.50000     -1.6242430E-09
   52.56000     -1.8172397E-09
   52.62000     -1.9998778E-09
   52.68000     -2.1748197E-09
   52.74000     -2.3460927E-09
   52.80000     -2.5170528E-09
   52.86000     -2.6892462E-09
   52.92000     -2.8625249E-09
   52.98000     -3.0360354E-09
   53.04000     -3.2094560E-09
   53.10000     -3.3840719E-09
   53.16000     -3.5632999E-09
   53.22000     -3.7525552E-09
   53.28000     -3.9582972E-09
   53.34000     -4.1862833E-09
   53.40000     -4.4395918E-09
   53.46000     -4.7172453E-09
   53.52000     -5.0143161E-09
   53.58000     -5.3235607E-09
   53.64000     -5.6376823E-09
   53.70000     -5.9510703E-09
   53.76000     -6.2600347E-09
   53.82000     -6.5617418E-09
   53.88000     -6.8530204E-09
   53.94000     -7.1302666E-09
   54.00000     -7.3907334E-09
   54.06000     -7.6342630E-09
   54.12000     -7.8637949E-09
   54.18000     -8.0838705E-09
   54.24000     -8.2974410E-09
   54.30000     -8.5029122E-09
   54.36000     -8.6929468E-09
   54.42000     -8.8554701E-09
   54.48000     -8.9759027E-09
   54.54000     -9.0390939E-09
   54.60000     -9.0301064E-09
   54.66000     -8.9342391E-09
   54.72000     -8.7375795E-09
   54.78000     -8.4285166E-09
   54.84000     -7.9994713E-09
   54.90000     -7.4471722E-09
   54.96000     -6.7699797E-09
   55.02000     -5.9631611E-09
   55.08000     -5.0145323E-09
   55.14000     -3.9035633E-09
   55.20000     -2.6048381E-09
   55.26000     -1.0943602E-09
   55.32000      6.4503819E-10
   55.38000      2.6220801E-09
   55.44000      4.8396012E-09
   55.50000      7.2994681E-09
   55.56000      1.0006679E-08