 -0.750000000       0.00000000    
 -0.689999998       0.00000000    
 -0.629999995       0.00000000    
 -0.569999993       0.00000000    
 -0.509999990       0.00000000    
 -0.449999988       0.00000000    
 -0.389999986       0.00000000    
 -0.330000013       0.00000000    
 -0.270000011       0.00000000    
 -0.209999993       0.00000000    
 -0.150000006       0.00000000    
  -9.00000036E-02   0.00000000    
  -2.99999993E-02   0.00000000    
   2.99999993E-02   8.81852074E-36
   9.00000036E-02   1.36360811E-34
  0.150000006       9.29676625E-34
  0.209999993       3.36198327E-33
  0.270000011       3.07943227E-33
  0.330000013      -3.68689101E-32
  0.389999986      -2.46032378E-31
  0.449999988      -8.54942119E-31
  0.509999990      -1.78499175E-30
  0.569999993      -1.14100177E-30
  0.629999995       7.47839124E-30
  0.689999998       3.56629503E-29
  0.750000000       8.91778027E-29
  0.810000002       1.31723822E-28
  0.870000005       2.55217164E-29
  0.930000007      -4.94416695E-28
  0.990000010      -1.67091159E-27
   1.04999995      -3.23002699E-27
   1.11000001      -3.56660116E-27
   1.16999996       8.09843527E-28
   1.23000002       1.42292080E-26
   1.28999996       3.76009996E-26
   1.35000002       6.06601496E-26
   1.40999997       5.42108049E-26
   1.47000003      -2.86222587E-26
   1.52999997      -2.29187783E-25
   1.59000003      -5.28894604E-25
   1.64999998      -7.72671803E-25
   1.71000004      -6.15722207E-25
   1.76999998       4.15689810E-25
   1.83000004       2.63757596E-24
   1.88999999       5.64939818E-24
   1.95000005       7.67637470E-24
   2.00999999       5.35448648E-24
   2.06999993      -5.17701447E-24
   2.13000011      -2.51711142E-23
   2.19000006      -4.86059140E-23
   2.25000000      -5.86213583E-23
   2.30999994      -2.99699050E-23
   2.36999989       5.76924966E-23
   2.43000007       1.95898523E-22
   2.49000001       3.23495474E-22
   2.54999995       3.24648196E-22
   2.60999990       7.24819031E-23
   2.67000008      -4.75982514E-22
   2.73000002      -1.16784675E-21
   2.78999996      -1.60446260E-21
   2.84999990      -1.24733333E-21
   2.91000009       2.79624180E-22
   2.97000003       2.77911744E-21
   3.02999997       5.20146840E-21
   3.08999991       5.80863473E-21
   3.15000010       2.96564202E-21
   3.21000004      -3.61334665E-21
   3.26999998      -1.17974583E-20
   3.32999992      -1.70569780E-20
   3.39000010      -1.42325019E-20
   3.45000005      -8.27160923E-22
   3.50999999       1.96811019E-20
   3.56999993       3.69393626E-20
   3.63000011       3.73393077E-20
   3.69000006       1.21628233E-20
   3.75000000      -3.31294204E-20
   3.80999994      -7.47765975E-20
   3.86999989      -7.80503392E-20
   3.93000007      -1.75409513E-20
   3.99000001       9.70174097E-20
   4.05000019       2.05690970E-19
   4.11000013       2.12503940E-19
   4.17000008       3.67698520E-20
   4.23000002      -3.13553151E-19
   4.28999996      -6.87846278E-19
   4.34999990      -8.11092673E-19
   4.40999985      -4.06647624E-19
   4.46999979       6.01441834E-19
   4.53000021       1.90474652E-18
   4.59000015       2.78852366E-18
   4.65000010       2.38228037E-18
   4.71000004       1.63602935E-19
   4.76999998      -3.49208068E-18
   4.82999992      -7.06676445E-18
   4.88999987      -8.28544054E-18
   4.94999981      -5.19391546E-18
   5.01000023       2.44489691E-18
   5.07000017       1.22002266E-17
   5.13000011       1.92882984E-17
   5.19000006       1.85051850E-17
   5.25000000       7.22531925E-18
   5.30999994      -1.20061221E-17
   5.36999989      -3.10844548E-17
   5.42999983      -3.92363363E-17
   5.48999977      -2.85699449E-17
   5.55000019       2.55728470E-19
   5.61000013       3.57484730E-17
   5.67000008       5.92370374E-17
   5.73000002       5.40933372E-17
   5.78999996       1.65066819E-17
   5.84999990      -3.84650532E-17
   5.90999985      -8.08175774E-17
   5.96999979      -8.00654916E-17
   6.03000021      -2.43508754E-17
   6.09000015       6.63946511E-17
   6.15000010       1.43250159E-16
   6.21000004       1.50087938E-16
   6.26999998       5.64859009E-17
   6.32999992      -1.15173002E-16
   6.38999987      -2.86598468E-16
   6.44999981      -3.53222639E-16
   6.51000023      -2.38097944E-16
   6.57000017       5.50104687E-17
   6.63000011       4.20420065E-16
   6.69000006       6.81630388E-16
   6.75000000       6.70128634E-16
   6.80999994       3.19147536E-16
   6.86999989      -2.76224009E-16
   6.92999983      -8.73080957E-16
   6.98999977      -1.17696361E-15
   7.05000019      -9.84926311E-16
   7.11000013      -3.07511897E-16
   7.17000008       5.99682068E-16
   7.23000002       1.32794321E-15
   7.28999996       1.50320851E-15
   7.34999990       9.85466930E-16
   7.40999985      -2.50467361E-17
   7.46999979      -1.04712754E-15
   7.53000021      -1.53831464E-15
   7.59000015      -1.18227811E-15
   7.65000010      -9.86086045E-17
   7.71000004       1.15317141E-15
   7.76999998       1.81414912E-15
   7.82999992       1.32374553E-15
   7.88999987      -3.14352932E-16
   7.94999981      -2.40548823E-15
   8.01000023      -3.79469532E-15
   8.06999969      -3.40393764E-15
   8.13000011      -8.51189285E-16
   8.18999958       3.16203201E-15
   8.25000000       6.94980750E-15
   8.31000042       8.48089197E-15
   8.36999989       6.34286519E-15
   8.43000031       6.06673214E-16
   8.48999977      -6.86775584E-15
   8.55000019      -1.29540797E-14
   8.60999966      -1.45184632E-14
   8.67000008      -9.93896094E-15
   8.72999954      -1.88207320E-16
   8.78999996       1.11371204E-14
   8.85000038       1.90572029E-14
   8.90999985       1.93558260E-14
   8.97000027       1.07548434E-14
   9.02999973      -3.94239796E-15
   9.09000015      -1.84930179E-14
   9.14999962      -2.56627707E-14
   9.21000004      -2.06165905E-14
   9.27000046      -3.75870235E-15
   9.32999992       1.84834583E-14
   9.39000034       3.57079715E-14
   9.44999981       3.79435795E-14
   9.51000023       2.06806940E-14
   9.56999969      -1.18340498E-14
   9.63000011      -4.69797134E-14
   9.68999958      -6.82993701E-14
   9.75000000      -6.27161693E-14
   9.81000042      -2.73791694E-14
   9.86999989       2.72407388E-14
   9.93000031       8.01049155E-14
   9.98999977       1.07792261E-13
   10.0500002       9.49919329E-14
   10.1099997       4.26004480E-14
   10.1700001      -3.07813941E-14
   10.2299995      -9.55247302E-14
   10.2900000      -1.23628172E-13
   10.3500004      -1.01963834E-13
   10.4099998      -3.97579715E-14
   10.4700003       3.40120219E-14
   10.5299997       8.31943496E-14
   10.5900002       8.19661586E-14
   10.6499996       2.91477386E-14
   10.7100000      -4.82268373E-14
   10.7700005      -1.05259795E-13
   10.8299999      -1.00124702E-13
   10.8900003      -1.65531024E-14
   10.9499998       1.23121958E-13
   11.0100002       2.62145693E-13
   11.0699997       3.31072897E-13
   11.1300001       2.78837635E-13
   11.1899996       9.93829517E-14
   11.2500000      -1.59425682E-13
   11.3100004      -4.10850797E-13
   11.3699999      -5.63682998E-13
   11.4300003      -5.61572002E-13
   11.4899998      -4.09038146E-13
   11.5500002      -1.70564666E-13
   11.6099997       5.90645696E-14
   11.6700001       2.01154306E-13
   11.7299995       2.34761456E-13
   11.7900000       2.12230637E-13
   11.8500004       2.37648930E-13
   11.9099998       4.14099473E-13
   11.9700003       7.81363689E-13
   12.0299997       1.27284283E-12
   12.0900002       1.71482425E-12
   12.1499996       1.87441404E-12
   12.2100000       1.54140611E-12
   12.2700005       6.13447878E-13
   12.3299999      -8.49375095E-13
   12.3900003      -2.62287869E-12
   12.4499998      -4.37073251E-12
   12.5100002      -5.72847195E-12
   12.5699997      -6.38543081E-12
   12.6300001      -6.13371897E-12
   12.6899996      -4.87144526E-12
   12.7500000      -2.57222867E-12
   12.8100004       7.47232463E-13
   12.8699999       5.02534256E-12
   12.9300003       1.00980266E-11
   12.9899998       1.55925464E-11
   13.0500002       2.08104783E-11
   13.1099997       2.46556907E-11
   13.1700001       2.56586367E-11
   13.2299995       2.21201269E-11
   13.2900000       1.23553711E-11
   13.3500004      -5.02074163E-12
   13.4099998      -3.08464747E-11
   13.4700003      -6.52740362E-11
   13.5299997      -1.07771014E-10
   13.5900002      -1.57243968E-10
   13.6499996      -2.12222212E-10
   13.7100000      -2.71022066E-10
   13.7700005      -3.31830008E-10
   13.8299999      -3.92689825E-10
   13.8900003      -4.51432891E-10
   13.9499998      -5.05631148E-10
   14.0100002      -5.52652590E-10
   14.0699997      -5.89862492E-10
   14.1300001      -6.14945039E-10
   14.1899996      -6.26261043E-10
   14.2500000      -6.23120389E-10
   14.3100004      -6.05866246E-10
   14.3699999      -5.75733350E-10
   14.4300003      -5.34522648E-10
   14.4899998      -4.84210505E-10
   14.5500002      -4.26630870E-10
   14.6099997      -3.63336777E-10
   14.6700001      -2.95665714E-10
   14.7299995      -2.24942009E-10
   14.7900000      -1.52688986E-10
   14.8500004      -8.07201458E-11
   14.9099998      -1.10397151E-11
   14.9700003       5.44239480E-11
   15.0299997       1.14140621E-10
   15.0900002       1.67208067E-10
   15.1499996       2.13372903E-10
   15.2100000       2.52815741E-10
   15.2700005       2.85781510E-10
   15.3299999       3.12213005E-10
   15.3900003       3.31554673E-10
   15.4499998       3.42826240E-10
   15.5100002       3.44950901E-10
   15.5699997       3.37209288E-10
   15.6300001       3.19629934E-10
   15.6899996       2.93148894E-10
   15.7500000       2.59468003E-10
   15.8100004       2.20672411E-10
   15.8699999       1.78772303E-10
   15.9300003       1.35367759E-10
   15.9899998       9.15761147E-11
   16.0499992       4.82390829E-11
   16.1100006       6.29191360E-12
   16.1700001      -3.29059731E-11
   16.2299995      -6.74712161E-11
   16.2900009      -9.52211365E-11
   16.3500004      -1.14168522E-10
   16.4099998      -1.23101196E-10
   16.4699993      -1.22007821E-10
   16.5300007      -1.12159469E-10
   16.5900002      -9.57902230E-11
   16.6499996      -7.54800319E-11
   16.7099991      -5.34616934E-11
   16.7700005      -3.11002890E-11
   16.8299999      -8.71766895E-12
   16.8899994       1.42089231E-11
   16.9500008       3.85930420E-11
   17.0100002       6.52386409E-11
   17.0699997       9.44997483E-11
   17.1299992       1.26216496E-10
   17.1900005       1.59910266E-10
   17.2500000       1.95104072E-10
   17.3099995       2.31582808E-10
   17.3700008       2.69443773E-10
   17.4300003       3.08889997E-10
   17.4899998       3.49845986E-10
   17.5499992       3.91565086E-10
   17.6100006       4.32420044E-10
   17.6700001       4.70004480E-10
   17.7299995       5.01553687E-10
   17.7900009       5.24564781E-10
   17.8500004       5.37409783E-10
   17.9099998       5.39730816E-10
   17.9699993       5.32481836E-10
   18.0300007       5.17619281E-10
   18.0900002       4.97572428E-10
   18.1499996       4.74707718E-10
   18.2099991       4.50988774E-10
   18.2700005       4.27934910E-10
   18.3299999       4.06837508E-10
   18.3899994       3.89068916E-10
   18.4500008       3.76273540E-10
   18.5100002       3.70289605E-10
   18.5699997       3.72791575E-10
   18.6299992       3.84798970E-10
   18.6900005       4.06289336E-10
   18.7500000       4.36132297E-10
   18.8099995       4.72425321E-10
   18.8700008       5.13123821E-10
   18.9300003       5.56707069E-10
   18.9899998       6.02589034E-10
   19.0499992       6.51086962E-10
   19.1100006       7.02957581E-10
   19.1700001       7.58708874E-10
   19.2299995       8.17994561E-10
   19.2900009       8.79352258E-10
   19.3500004       9.40387768E-10
   19.4099998       9.98303773E-10
   19.4699993       1.05054088E-09
   19.5300007       1.09527554E-09
   19.5900002       1.13162435E-09
   19.6499996       1.15954868E-09
   19.7099991       1.17957744E-09
   19.7700005       1.19250410E-09
   19.8299999       1.19916488E-09
   19.8899994       1.20032639E-09
   19.9500008       1.19664711E-09
   20.0100002       1.18866539E-09
   20.0699997       1.17680654E-09
   20.1299992       1.16143384E-09
   20.1900005       1.14297660E-09
   20.2500000       1.12212095E-09
   20.3099995       1.09998533E-09
   20.3700008       1.07816411E-09
   20.4300003       1.05854392E-09
   20.4899998       1.04288267E-09
   20.5499992       1.03225684E-09
   20.6100006       1.02656417E-09
   20.6700001       1.02428876E-09
   20.7299995       1.02264985E-09
   20.7900009       1.01813202E-09
   20.8500004       1.00724140E-09
   20.9099998       9.87247284E-10
   20.9699993       9.56666413E-10
   21.0300007       9.15338916E-10
   21.0900002       8.64103844E-10
   21.1499996       8.04240397E-10
   21.2099991       7.36933015E-10
   21.2700005       6.63004152E-10
   21.3299999       5.83037785E-10
   21.3899994       4.97831609E-10
   21.4500008       4.08956868E-10
   21.5100002       3.19136800E-10
   21.5699997       2.32215400E-10
   21.6299992       1.52648866E-10
   21.6900005       8.46355833E-11
   21.7500000       3.11348690E-11
   21.8099995      -6.94581762E-12
   21.8700008      -3.11734354E-11
   21.9300003      -4.55085206E-11
   21.9899998      -5.57160290E-11
   22.0499992      -6.83526569E-11
   22.1100006      -8.94974095E-11
   22.1700001      -1.23475286E-10
   22.2299995      -1.71891348E-10
   22.2900009      -2.33288638E-10
   22.3500004      -3.03616160E-10
   22.4099998      -3.77436749E-10
   22.4699993      -4.49503740E-10
   22.5300007      -5.16133969E-10
   22.5900002      -5.75831438E-10
   22.6499996      -6.28910590E-10
   22.7099991      -6.76312728E-10
   22.7700005      -7.18200222E-10
   22.8299999      -7.53044016E-10
   22.8899994      -7.77700571E-10
   22.9500008      -7.88506316E-10
   23.0100002      -7.82918508E-10
   23.0699997      -7.60953967E-10
   23.1299992      -7.25747185E-10
   23.1900005      -6.82935986E-10
   23.2500000      -6.39090447E-10
   23.3099995      -5.99802708E-10
   23.3700008      -5.68179392E-10
   23.4300003      -5.44294665E-10
   23.4899998      -5.25768096E-10
   23.5499992      -5.09194797E-10
   23.6100006      -4.91848173E-10
   23.6700001      -4.72996420E-10
   23.7299995      -4.54345284E-10
   23.7900009      -4.39465075E-10
   23.8500004      -4.32457320E-10
   23.9099998      -4.36405162E-10
   23.9699993      -4.52223370E-10
   24.0300007      -4.78341422E-10
   24.0900002      -5.11292508E-10
   24.1499996      -5.46903689E-10
   24.2099991      -5.81553694E-10
   24.2700005      -6.12990936E-10
   24.3299999      -6.40452469E-10
   24.3899994      -6.64166000E-10
   24.4500008      -6.84578783E-10
   24.5100002      -7.01730063E-10
   24.5699997      -7.15063397E-10
   24.6299992      -7.23751392E-10
   24.6900005      -7.27387983E-10
   24.7500000      -7.26768201E-10
   24.8099995      -7.24436400E-10
   24.8700008      -7.24726223E-10
   24.9300003      -7.33130445E-10
   24.9899998      -7.55031149E-10
   25.0499992      -7.94077359E-10
   25.1100006      -8.50734705E-10
   25.1700001      -9.21613175E-10
   25.2299995      -9.99995420E-10
   25.2900009      -1.07753240E-09
   25.3500004      -1.14653609E-09
   25.4099998      -1.20195465E-09
   25.4699993      -1.24220123E-09
   25.5300007      -1.26853472E-09
   25.5900002      -1.28339928E-09
   25.6499996      -1.28864930E-09
   25.7099991      -1.28458766E-09
   25.7700005      -1.27025113E-09
   25.8299999      -1.24464028E-09
   25.8899994      -1.20807342E-09
   25.9500008      -1.16282584E-09
   26.0100002      -1.11268372E-09
   26.0699997      -1.06170206E-09
   26.1299992      -1.01288788E-09
   26.1900005      -9.67517289E-10
   26.2500000      -9.25382770E-10
   26.3099995      -8.85744256E-10
   26.3700008      -8.48431325E-10
   26.4300003      -8.14555423E-10
   26.4899998      -7.86565035E-10
   26.5499992      -7.67694019E-10
   26.6100006      -7.61062657E-10
   26.6700001      -7.68740516E-10
   26.7299995      -7.91051058E-10
   26.7900009      -8.26338553E-10
   26.8500004      -8.71333949E-10
   26.9099998      -9.22085408E-10
   26.9699993      -9.75166947E-10
   27.0300007      -1.02866105E-09
   27.0900002      -1.08241183E-09
   27.1499996      -1.13735465E-09
   27.2099991      -1.19424937E-09
   27.2700005      -1.25254884E-09
   27.3299999      -1.31014044E-09
   27.3899994      -1.36420830E-09
   27.4500008      -1.41275192E-09
   27.5100002      -1.45581225E-09
   27.5699997      -1.49555346E-09
   27.6299992      -1.53501611E-09
   27.6900005      -1.57618252E-09
   27.7500000      -1.61844449E-09
   27.8099995      -1.65833047E-09
   27.8700008      -1.69058467E-09
   27.9300003      -1.70991155E-09
   27.9899998      -1.71239700E-09
   28.0499992      -1.69597592E-09
   28.1100006      -1.66000547E-09
   28.1700001      -1.60453595E-09
   28.2299995      -1.52988089E-09
   28.2900009      -1.43665080E-09
   28.3500004      -1.32594324E-09
   28.4099998      -1.19929200E-09
   28.4699993      -1.05832609E-09
   28.5300007      -9.04542163E-10
   28.5900002      -7.39687034E-10
   28.6499996      -5.66797331E-10
   28.7099991      -3.91234239E-10
   28.7700005      -2.20686400E-10
   28.8299999      -6.35061240E-11
   28.8899994       7.42118381E-11
   28.9500008       1.91376387E-10
   29.0100002       2.92790292E-10
   29.0699997       3.87345989E-10
   29.1299992       4.84183693E-10
   29.1900005       5.88687210E-10
   29.2500000       7.00333180E-10
   29.3099995       8.13350554E-10
   29.3700008       9.19567034E-10
   29.4300003       1.01171782E-09
   29.4899998       1.08552178E-09
   29.5499992       1.13985021E-09
   29.6100006       1.17554710E-09
   29.6700001       1.19404997E-09
   29.7299995       1.19664068E-09
   29.7900009       1.18432875E-09
   29.8500004       1.15781340E-09
   29.9099998       1.11711784E-09
   29.9699993       1.06116782E-09
   30.0300007       9.88075621E-10
   30.0900002       8.96632046E-10
   30.1499996       7.88549337E-10
   30.2099991       6.70059008E-10
   30.2700005       5.51404478E-10
   30.3299999       4.43856535E-10
   30.3899994       3.55512925E-10
   30.4500008       2.88196439E-10
   30.5100002       2.37379866E-10
   30.5699997       1.95353317E-10
   30.6299992       1.55871718E-10
   30.6900005       1.17602525E-10
   30.7500000       8.44843362E-11
   30.8099995       6.30890271E-11
   30.8700008       5.89154420E-11
   30.9300003       7.40055239E-11
   30.9899998       1.07116545E-10
   31.0499992       1.55799068E-10
   31.1100006       2.18488602E-10
   31.1700001       2.94969049E-10
   31.2299995       3.85031007E-10
   31.2900009       4.86649498E-10
   31.3500004       5.95391014E-10
   31.4099998       7.05739744E-10
   31.4699993       8.13430767E-10
   31.5300007       9.16958010E-10
   31.5900002       1.01694564E-09
   31.6499996       1.11367826E-09
   31.7099991       1.20456045E-09
   31.7700005       1.28347633E-09
   31.8299999       1.34273825E-09
   31.8899994       1.37645639E-09
   31.9500008       1.38311596E-09
   32.0099983       1.36568379E-09
   32.0699997       1.32931621E-09
   32.1300011       1.27840571E-09
   32.1899986       1.21505939E-09
   32.2500000       1.13990628E-09
   32.3100014       1.05429143E-09
   32.3699989       9.61836499E-10
   32.4300003       8.67849625E-10
   32.4900017       7.76774034E-10
   32.5499992       6.89473811E-10
   32.6100006       6.02448924E-10
   32.6699982       5.09781994E-10
   32.7299995       4.06698702E-10
   32.7900009       2.92468216E-10
   32.8499985       1.70836248E-10
   32.9099998       4.78985601E-11
   32.9700012      -7.09796388E-11
   33.0299988      -1.83131205E-10
   33.0900002      -2.88417318E-10
   33.1500015      -3.87571142E-10
   33.2099991      -4.80705198E-10
   33.2700005      -5.67227376E-10
   33.3300018      -6.46999843E-10
   33.3899994      -7.21359583E-10
   33.4500008      -7.92638455E-10
   33.5099983      -8.62110106E-10
   33.5699997      -9.27838584E-10
   33.6300011      -9.84400339E-10
   33.6899986      -1.02536302E-09
   33.7500000      -1.04740605E-09
   33.8100014      -1.05352604E-09
   33.8699989      -1.05304210E-09
   33.9300003      -1.05802944E-09
   33.9900017      -1.07811815E-09
   34.0499992      -1.11666743E-09
   34.1100006      -1.17041155E-09
   34.1699982      -1.23240407E-09
   34.2299995      -1.29604549E-09
   34.2900009      -1.35756062E-09
   34.3499985      -1.41571788E-09
   34.4099998      -1.46971557E-09
   34.4700012      -1.51743440E-09
   34.5299988      -1.55575808E-09
   34.5900002      -1.58283475E-09
   34.6500015      -1.60043157E-09
   34.7099991      -1.61424574E-09
   34.7700005      -1.63143710E-09
   34.8300018      -1.65673086E-09
   34.8899994      -1.68964875E-09
   34.9500008      -1.72485504E-09
   35.0099983      -1.75558756E-09
   35.0699997      -1.77807846E-09
   35.1300011      -1.79416404E-09
   35.1899986      -1.81041482E-09
   35.2500000      -1.83429838E-09
   35.3100014      -1.86966354E-09
   35.3699989      -1.91411420E-09
   35.4300003      -1.95955052E-09
   35.4900017      -1.99525774E-09
   35.5499992      -2.01162775E-09
   35.6100006      -2.00259853E-09
   35.6699982      -1.96595318E-09
   35.7299995      -1.90190774E-09
   35.7900009      -1.81114035E-09
   35.8499985      -1.69332270E-09
   35.9099998      -1.54665158E-09
   35.9700012      -1.36832645E-09
   36.0299988      -1.15568766E-09
   36.0900002      -9.07704911E-10
   36.1500015      -6.26453944E-10
   36.2099991      -3.18076260E-10
   36.2700005       7.35203912E-12
   36.3300018       3.37343153E-10
   36.3899994       6.59583610E-10
   36.4500008       9.64601288E-10
   36.5099983       1.24733535E-09
   36.5699997       1.50692192E-09
   36.6300011       1.74495052E-09
   36.6899986       1.96324890E-09
   36.7500000       2.16237828E-09
   36.8100014       2.34142217E-09
   36.8699989       2.49876897E-09
   36.9300003       2.63305910E-09
   36.9900017       2.74361356E-09
   37.0499992       2.83028312E-09
   37.1100006       2.89318614E-09
   37.1699982       2.93281244E-09
   37.2299995       2.95048319E-09
   37.2900009       2.94864955E-09
   37.3499985       2.93048030E-09
   37.4099998       2.89875923E-09
   37.4700012       2.85479440E-09
   37.5299988       2.79828538E-09
   37.5900002       2.72854872E-09
   37.6500015       2.64649924E-09
   37.7099991       2.55608046E-09
   37.7700005       2.46399456E-09
   37.8300018       2.37760478E-09
   37.8899994       2.30208230E-09
   37.9500008       2.23841146E-09
   38.0099983       2.18333551E-09
   38.0699997       2.13111861E-09
   38.1300011       2.07593254E-09
   38.1899986       2.01351691E-09
   38.2500000       1.94149852E-09
   38.3100014       1.85879734E-09
   38.3699989       1.76505888E-09
   38.4300003       1.66069902E-09
   38.4900017       1.54732216E-09
   38.5499992       1.42771428E-09
   38.6100006       1.30489142E-09
   38.6699982       1.18056831E-09
   38.7299995       1.05418063E-09
   38.7900009       9.23486121E-10
   38.8499985       7.86726351E-10
   38.9099998       6.45057285E-10
   38.9700012       5.03472375E-10
   39.0299988       3.69240083E-10
   39.0900002       2.48533083E-10
   39.1500015       1.43303494E-10
   39.2099991       5.05208549E-11
   39.2700005      -3.55078571E-11
   39.3300018      -1.18995744E-10
   39.3899994      -1.99204847E-10
   39.4500008      -2.69789358E-10
   39.5099983      -3.21396409E-10
   39.5699997      -3.46060403E-10
   39.6300011      -3.41029288E-10
   39.6899986      -3.10239362E-10
   39.7500000      -2.63158412E-10
   39.8100014      -2.12046339E-10
   39.8699989      -1.69035744E-10
   39.9300003      -1.43853818E-10
   39.9900017      -1.42209161E-10
   40.0499992      -1.64610700E-10
   40.1100006      -2.05803610E-10
   40.1699982      -2.55516996E-10
   40.2299995      -3.01080799E-10
   40.2900009      -3.31476901E-10
   40.3499985      -3.41163903E-10
   40.4099998      -3.31589145E-10
   40.4700012      -3.09278103E-10
   40.5299988      -2.81364682E-10
   40.5900002      -2.51132726E-10
   40.6500015      -2.16334811E-10
   40.7099991      -1.71434006E-10
   40.7700005      -1.12438135E-10
   40.8300018      -4.12969277E-11
   40.8899994       3.29351615E-11
   40.9500008       9.69250791E-11
   41.0099983       1.38150949E-10
   41.0699997       1.49250959E-10
   41.1300011       1.29336028E-10
   41.1899986       8.20686158E-11
   41.2500000       1.22748730E-11
   41.3100014      -7.66182257E-11
   41.3699989      -1.83134299E-10
   41.4300003      -3.06815268E-10
   41.4900017      -4.47291593E-10
   41.5499992      -6.04361838E-10
   41.6100006      -7.78713427E-10
   41.6699982      -9.71911773E-10
   41.7299995      -1.18463150E-09
   41.7900009      -1.41364442E-09
   41.8499985      -1.64959157E-09
   41.9099998      -1.87770044E-09
   41.9700012      -2.08198947E-09
   42.0299988      -2.25108820E-09
   42.0900002      -2.38233944E-09
   42.1500015      -2.48152365E-09
   42.2099991      -2.55812149E-09
   42.2700005      -2.61884958E-09
   42.3300018      -2.66338374E-09
   42.3899994      -2.68485145E-09
   42.4500008      -2.67468003E-09
   42.5099983      -2.62872146E-09
   42.5699997      -2.55092680E-09
   42.6300011      -2.45258902E-09
   42.6899986      -2.34797004E-09
   42.7500000      -2.24913355E-09
   42.8100014      -2.16276597E-09
   42.8699989      -2.09000861E-09
   42.9300003      -2.02828554E-09
   42.9900017      -1.97327377E-09
   43.0499992      -1.91990424E-09
   43.1100006      -1.86273885E-09
   43.1699982      -1.79685167E-09
   43.2299995      -1.71977066E-09
   43.2900009      -1.63360270E-09
   43.3499985      -1.54553570E-09
   43.4099998      -1.46547308E-09
   43.4700012      -1.40145673E-09
   43.5299988      -1.35537848E-09
   43.5900002      -1.32177025E-09
   43.6500015      -1.29072941E-09
   43.7099991      -1.25333022E-09
   43.7700005      -1.20611776E-09
   43.8300018      -1.15180776E-09
   43.8899994      -1.09588527E-09
   43.9500008      -1.04163667E-09
   44.0099983      -9.87224635E-10
   44.0699997      -9.26915655E-10
   44.1300011      -8.55538973E-10
   44.1899986      -7.72884534E-10
   44.2500000      -6.84776069E-10
   44.3100014      -5.99973182E-10
   44.3699989      -5.25112176E-10
   44.4300003      -4.61315569E-10
   44.4900017      -4.04829004E-10
   44.5499992      -3.51006973E-10
   44.6100006      -2.98433028E-10
   44.6699982      -2.49851140E-10
   44.7299995      -2.09031653E-10
   44.7900009      -1.75906387E-10
   44.8499985      -1.43855580E-10
   44.9099998      -1.01679283E-10
   44.9700012      -3.94357116E-11
   45.0299988       4.55990315E-11
   45.0900002       1.46925722E-10
   45.1500015       2.52256410E-10
   45.2099991       3.50178359E-10
   45.2700005       4.35678216E-10
   45.3300018       5.11074405E-10
   45.3899994       5.82210280E-10
   45.4500008       6.53041177E-10
   45.5099983       7.22637228E-10
   45.5699997       7.86555931E-10
   45.6300011       8.41126058E-10
   45.6899986       8.87020235E-10
   45.7500000       9.29193056E-10
   45.8100014       9.73237713E-10
   45.8699989       1.02114683E-09
   45.9300003       1.07005105E-09
   45.9900017       1.11521903E-09
   46.0499992       1.15514986E-09
   46.1100006       1.19463450E-09
   46.1699982       1.24283794E-09
   46.2299995       1.30704536E-09
   46.2900009       1.38615852E-09
   46.3499985       1.46871015E-09
   46.4099998       1.53742108E-09
   46.4700012       1.57794489E-09
   46.5299988       1.58647762E-09
   46.5900002       1.57145508E-09
   46.6500015       1.54829882E-09
   46.7099991       1.53056490E-09
   46.7700005       1.52294888E-09
   46.8300018       1.52008872E-09
   46.8899994       1.51120183E-09
   46.9500008       1.48702417E-09
   47.0099983       1.44462220E-09
   47.0699997       1.38772249E-09
   47.1300011       1.32347933E-09
   47.1899986       1.25866972E-09
   47.2500000       1.19787769E-09
   47.3100014       1.14402032E-09
   47.3699989       1.09951936E-09
   47.4300003       1.06617071E-09
   47.4900017       1.04336051E-09
   47.5499992       1.02623399E-09
   47.6100006       1.00598518E-09
   47.6699982       9.73021330E-10
   47.7299995       9.21425880E-10
   47.7900009       8.51788917E-10
   47.8499985       7.70294384E-10
   47.9099998       6.84465262E-10
   47.9700012       5.98366301E-10
   48.0299988       5.10513520E-10
   48.0900002       4.15859819E-10
   48.1500015       3.10351050E-10
   48.2099991       1.94756933E-10
   48.2700005       7.50798659E-11
   48.3300018      -4.06489079E-11
   48.3899994      -1.46821805E-10
   48.4500008      -2.42828979E-10
   48.5099983      -3.32134792E-10
   48.5699997      -4.18825752E-10
   48.6300011      -5.04299880E-10
   48.6899986      -5.86418913E-10
   48.7500000      -6.61408928E-10
   48.8100014      -7.26717353E-10
   48.8699989      -7.82486742E-10
   48.9300003      -8.30612579E-10
   48.9900017      -8.72402373E-10
   49.0499992      -9.06978659E-10
   49.1100006      -9.31915989E-10
   49.1699982      -9.45704293E-10
   49.2299995      -9.50031942E-10
   49.2900009      -9.49859635E-10
   49.3499985      -9.50866386E-10
   49.4099998      -9.55851509E-10
   49.4700012      -9.62540603E-10
   49.5299988      -9.64313629E-10
   49.5900002      -9.53358503E-10
   49.6500015      -9.24155974E-10
   49.7099991      -8.75173323E-10
   49.7700005      -8.08106582E-10
   49.8300018      -7.25766114E-10
   49.8899994      -6.30430486E-10
   49.9500008      -5.23729227E-10
   50.0099983      -4.07617606E-10
   50.0699997      -2.85059976E-10
   50.1300011      -1.59417299E-10
   50.1899986      -3.28759589E-11
   50.2500000       9.46285689E-11
   50.3100014       2.24683036E-10
   50.3699989       3.57939955E-10
   50.4300003       4.91576557E-10
   50.4900017       6.18741058E-10
   50.5499992       7.30874861E-10
   50.6100006       8.21775648E-10