  -2.400000      0.0000000E+00
  -2.340000      0.0000000E+00
  -2.280000      0.0000000E+00
  -2.220000      0.0000000E+00
  -2.160000      0.0000000E+00
  -2.100000      0.0000000E+00
  -2.040000      0.0000000E+00
  -1.980000      0.0000000E+00
  -1.920000      0.0000000E+00
  -1.860000      0.0000000E+00
  -1.800000      0.0000000E+00
  -1.740000      0.0000000E+00
  -1.680000      0.0000000E+00
  -1.620000      9.1968830E-36
  -1.560000      1.6851558E-34
  -1.500000      1.4828428E-33
  -1.440000      8.1949126E-33
  -1.380000      3.0227393E-32
  -1.320000      6.7861935E-32
  -1.260000      2.0615097E-32
  -1.200000     -5.6022415E-31
  -1.140000     -2.7637366E-30
  -1.080000     -7.7838881E-30
  -1.020000     -1.3370903E-29
 -0.9600000     -5.0034689E-30
 -0.9000000      5.4512568E-29
 -0.8400000      2.1611686E-28
 -0.7800000      4.7302481E-28
 -0.7200000      5.9153763E-28
 -0.6600000     -8.6692607E-29
 -0.6000000     -2.5640025E-27
 -0.5400000     -7.2815444E-27
 -0.4800000     -1.2032922E-26
 -0.4200000     -9.5448179E-27
 -0.3600000      1.2153854E-26
 -0.3000000      6.1685151E-26
 -0.2400000      1.2607320E-25
 -0.1800000      1.4990082E-25
 -0.1200000      3.5642840E-26
 -5.9999999E-02 -3.0186004E-25
  0.0000000E+00 -8.1452270E-25
  5.9999999E-02 -1.1878305E-24
  0.1200000     -8.3910612E-25
  0.1800000      7.7831255E-25
  0.2400000      3.5328315E-24
  0.3000000      5.9595187E-24
  0.3600000      5.3201951E-24
  0.4200000     -8.7005303E-25
  0.4800000     -1.1919333E-23
  0.5400000     -2.1370199E-23
  0.6000000     -1.8001230E-23
  0.6600000      6.8260600E-24
  0.7200000      4.6847874E-23
  0.7800000      7.1962845E-23
  0.8400000      3.6156638E-23
  0.9000000     -8.8454109E-23
  0.9600000     -2.6064434E-22
   1.020000     -3.3866864E-22
   1.080000     -1.2136359E-22
   1.140000      5.0684634E-22
   1.200000      1.3690745E-21
   1.260000      1.8695294E-21
   1.320000      1.1438343E-21
   1.380000     -1.4011158E-21
   1.440000     -5.3042387E-21
   1.500000     -8.5122685E-21
   1.560000     -7.7566342E-21
   1.620000     -2.5365488E-22
   1.680000      1.3672284E-20
   1.740000      2.8502243E-20
   1.800000      3.4024113E-20
   1.860000      1.9788219E-20
   1.920000     -1.7350525E-20
   1.980000     -6.6421634E-20
   2.040000     -1.0181283E-19
   2.100000     -9.3006450E-20
   2.160000     -2.3018926E-20
   2.220000      9.3368348E-20
   2.280000      2.0490729E-19
   2.340000      2.4253577E-19
   2.400000      1.5850741E-19
   2.460000     -3.3503859E-20
   2.520000     -2.4637195E-19
   2.580000     -3.5623513E-19
   2.640000     -2.8037163E-19
   2.700000     -5.3251746E-20
   2.760000      1.6023192E-19
   2.820000      1.5350603E-19
   2.880000     -1.5527329E-19
   2.940000     -5.7831278E-19
   3.000000     -6.6673384E-19
   3.060000      5.0767864E-20
   3.120000      1.6654265E-18
   3.180000      3.5510504E-18
   3.240000      4.3892817E-18
   3.300000      2.7342985E-18
   3.360000     -2.0133779E-18
   3.420000     -8.7084458E-18
   3.480000     -1.4292045E-17
   3.540000     -1.4797813E-17
   3.600000     -7.3834696E-18
   3.660000      7.4857232E-18
   3.720000      2.4994885E-17
   3.780000      3.7108285E-17
   3.840000      3.5901223E-17
   3.900000      1.7810944E-17
   3.960000     -1.3372240E-17
   4.020000     -4.6753016E-17
   4.080000     -6.8357306E-17
   4.140000     -6.7402336E-17
   4.200000     -4.1719278E-17
   4.260000      7.3413143E-19
   4.320000      4.5441726E-17
   4.380000      7.8259677E-17
   4.440000      9.1780778E-17
   4.500000      8.7219605E-17
   4.560000      7.0516744E-17
   4.620000      4.5268465E-17
   4.680000      7.8565069E-18
   4.740000     -5.0385010E-17
   4.800000     -1.3334907E-16
   4.860000     -2.2789826E-16
   4.920000     -2.9816423E-16
   4.980000     -2.9395368E-16
   5.040000     -1.7370299E-16
   5.100000      6.7128393E-17
   5.160000      3.7774607E-16
   5.220000      6.5769652E-16
   5.280000      7.8991693E-16
   5.340000      6.8963919E-16
   5.400000      3.4651165E-16
   5.460000     -1.6259793E-16
   5.520000     -6.9944762E-16
   5.580000     -1.1177758E-15
   5.640000     -1.3166542E-15
   5.700000     -1.2647962E-15
   5.760000     -9.8335411E-16
   5.820000     -5.0173642E-16
   5.880000      1.7745962E-16
   5.940000      1.0678226E-15
   6.000000      2.1322176E-15
   6.060000      3.1909603E-15
   6.120000      3.8709016E-15
   6.180000      3.6632701E-15
   6.240000      2.1160778E-15
   6.300000     -8.8721428E-16
   6.360000     -4.8832741E-15
   6.420000     -8.7674813E-15
   6.480000     -1.1020251E-14
   6.540000     -1.0213165E-14
   6.600000     -5.6461526E-15
   6.660000      2.1380784E-15
   6.720000      1.1225856E-14
   6.780000      1.8742891E-14
   6.840000      2.1750842E-14
   6.900000      1.8355578E-14
   6.960000      8.6095563E-15
   7.020000     -5.1954689E-15
   7.080000     -1.9059485E-14
   7.140000     -2.8532413E-14
   7.200000     -3.0288214E-14
   7.260000     -2.3420324E-14
   7.320000     -9.9096688E-15
   7.380000      5.9976556E-15
   7.440000      1.9333170E-14
   7.500000      2.6291018E-14
   7.560000      2.5677355E-14
   7.620000      1.9271460E-14
   7.680000      1.0879429E-14
   7.740000      4.4423994E-15
   7.800000      2.0371060E-15
   7.860000      2.7385274E-15
   7.920000      2.9948982E-15
   7.980000     -1.5105947E-15
   8.040000     -1.3285950E-14
   8.100000     -3.0980904E-14
   8.160000     -4.9003699E-14
   8.220000     -5.9264890E-14
   8.280000     -5.4503348E-14
   8.340000     -3.1782936E-14
   8.400000      5.5175442E-15
   8.460000      4.8346845E-14
   8.520000      8.5184952E-14
   8.580000      1.0643277E-13
   8.640000      1.0787594E-13
   8.700000      9.1418992E-14
   8.760000      6.2627312E-14
   8.820000      2.6412300E-14
   8.880000     -1.6485682E-14
   8.940000     -6.9569750E-14
   9.000000     -1.3618016E-13
   9.060000     -2.1222801E-13
   9.120000     -2.8010152E-13
   9.180000     -3.0850100E-13
   9.240000     -2.6112589E-13
   9.300000     -1.1306830E-13
   9.360000      1.3092153E-13
   9.420000      4.2510093E-13
   9.480000      6.8637863E-13
   9.540000      8.1595679E-13
   9.600000      7.3420024E-13
   9.660000      4.1662751E-13
   9.720000     -8.4318206E-14
   9.780000     -6.4383454E-13
   9.840000     -1.0984409E-12
   9.900000     -1.2994191E-12
   9.960000     -1.1668918E-12
   10.02000     -7.2281845E-13
   10.08000     -8.7864693E-14
   10.14000      5.5893511E-13
   10.20000      1.0431069E-12
   10.26000      1.2552045E-12
   10.32000      1.1837803E-12
   10.38000      9.0708658E-13
   10.44000      5.4786053E-13
   10.50000      2.1254531E-13
   10.56000     -5.5896829E-14
   10.62000     -2.8812591E-13
   10.68000     -5.5548242E-13
   10.74000     -9.0946884E-13
   10.80000     -1.3246801E-12
   10.86000     -1.6776058E-12
   10.92000     -1.7790830E-12
   10.98000     -1.4531181E-12
   11.04000     -6.3049257E-13
   11.10000      5.8619521E-13
   11.16000      1.9217731E-12
   11.22000      3.0024442E-12
   11.28000      3.4820710E-12
   11.34000      3.1726232E-12
   11.40000      2.1241986E-12
   11.46000      6.1738185E-13
   11.52000     -9.3436673E-13
   11.58000     -2.1365672E-12
   11.64000     -2.7597492E-12
   11.70000     -2.8203538E-12
   11.76000     -2.5637240E-12
   11.82000     -2.3578626E-12
   11.88000     -2.5449955E-12
   11.94000     -3.3160180E-12
   12.00000     -4.6621118E-12
   12.06000     -6.4224216E-12
   12.12000     -8.4023465E-12
   12.18000     -1.0503929E-11
   12.24000     -1.2803612E-11
   12.30000     -1.5537018E-11
   12.36000     -1.8994945E-11
   12.42000     -2.3379231E-11
   12.48000     -2.8690586E-11
   12.54000     -3.4710797E-11
   12.60000     -4.1101417E-11
   12.66000     -4.7587254E-11
   12.72000     -5.4149019E-11
   12.78000     -6.1136055E-11
   12.84000     -6.9234125E-11
   12.90000     -7.9276363E-11
   12.96000     -9.1946242E-11
   13.02000     -1.0746513E-10
   13.08000     -1.2536663E-10
   13.14000     -1.4443347E-10
   13.20000     -1.6282158E-10
   13.26000     -1.7834356E-10
   13.32000     -1.8884810E-10
   13.38000     -1.9262546E-10
   13.44000     -1.8878547E-10
   13.50000     -1.7758117E-10
   13.56000     -1.6066752E-10
   13.62000     -1.4128271E-10
   13.68000     -1.2431801E-10
   13.74000     -1.1621839E-10
   13.80000     -1.2464813E-10
   13.86000     -1.5788069E-10
   13.92000     -2.2393078E-10
   13.98000     -3.2952388E-10
   14.04000     -4.7906873E-10
   14.10000     -6.7382933E-10
   14.16000     -9.1147118E-10
   14.22000     -1.1860806E-09
   14.28000     -1.4886518E-09
   14.34000     -1.8079341E-09
   14.40000     -2.1314699E-09
   14.46000     -2.4466429E-09
   14.52000     -2.7416065E-09
   14.58000     -3.0060321E-09
   14.64000     -3.2316885E-09
   14.70000     -3.4128991E-09
   14.76000     -3.5469232E-09
   14.82000     -3.6342453E-09
   14.88000     -3.6787091E-09
   14.94000     -3.6873760E-09
   15.00000     -3.6699941E-09
   15.06000     -3.6380199E-09
   15.12000     -3.6032357E-09
   15.18000     -3.5761349E-09
   15.24000     -3.5643379E-09
   15.30000     -3.5713463E-09
   15.36000     -3.5958958E-09
   15.42000     -3.6320482E-09
   15.48000     -3.6699914E-09
   15.54000     -3.6973653E-09
   15.60000     -3.7008183E-09
   15.66000     -3.6674894E-09
   15.72000     -3.5861845E-09
   15.78000     -3.4481475E-09
   15.84000     -3.2474692E-09
   15.90000     -2.9812668E-09
   15.96000     -2.6497926E-09
   16.02000     -2.2565698E-09
   16.08000     -1.8085440E-09
   16.14000     -1.3161382E-09
   16.20000     -7.9303702E-10
   16.26000     -2.5553393E-10
   16.32000      2.7862371E-10
   16.38000      7.9180590E-10
   16.44000      1.2682424E-09
   16.50000      1.6955748E-09
   16.56000      2.0658490E-09
   16.62000      2.3756921E-09
   16.68000      2.6256379E-09
   16.74000      2.8188363E-09
   16.80000      2.9595746E-09
   16.86000      3.0521234E-09
   16.92000      3.1002905E-09
   16.98000      3.1077967E-09
   17.04000      3.0792562E-09
   17.10000      3.0212908E-09
   17.16000      2.9432223E-09
   17.22000      2.8569171E-09
   17.28000      2.7756646E-09
   17.34000      2.7122993E-09
   17.40000      2.6770577E-09
   17.46000      2.6757445E-09
   17.52000      2.7086913E-09
   17.58000      2.7707572E-09
   17.64000      2.8523390E-09
   17.70000      2.9411074E-09
   17.76000      3.0240521E-09
   17.82000      3.0894169E-09
   17.88000      3.1281977E-09
   17.94000      3.1350695E-09
   18.00000      3.1087766E-09
   18.06000      3.0521510E-09
   18.12000      2.9719420E-09
   18.18000      2.8785594E-09
   18.24000      2.7856915E-09
   18.30000      2.7096327E-09
   18.36000      2.6681368E-09
   18.42000      2.6786982E-09
   18.48000      2.7563829E-09
   18.54000      2.9115186E-09
   18.60000      3.1476826E-09
   18.66000      3.4604073E-09
   18.72000      3.8368762E-09
   18.78000      4.2566755E-09
   18.84000      4.6935025E-09
   18.90000      5.1175912E-09
   18.96000      5.4985843E-09
   19.02000      5.8084995E-09
   19.08000      6.0244192E-09
   19.14000      6.1304792E-09
   19.20000      6.1188041E-09
   19.26000      5.9892127E-09
   19.32000      5.7478067E-09
   19.38000      5.4048601E-09
   19.44000      4.9726134E-09
   19.50000      4.4635753E-09
   19.56000      3.8897046E-09
   19.62000      3.2625382E-09
   19.68000      2.5940274E-09
   19.74000      1.8976707E-09
   19.80000      1.1895029E-09
   19.86000      4.8857274E-10
   19.92000     -1.8334437E-10
   19.98000     -8.0290014E-10
   20.04000     -1.3471442E-09
   20.10000     -1.7960513E-09
   20.16000     -2.1351487E-09
   20.22000     -2.3576585E-09
   20.28000     -2.4656099E-09
   20.34000     -2.4696027E-09
   20.40000     -2.3872533E-09
   20.46000     -2.2406816E-09
   20.52000     -2.0536031E-09
   20.58000     -1.8485671E-09
   20.64000     -1.6447634E-09
   20.70000     -1.4566246E-09
   20.76000     -1.2933159E-09
   20.82000     -1.1590991E-09
   20.88000     -1.0544383E-09
   20.94000     -9.7754771E-10
   21.00000     -9.2592639E-10
   21.06000     -8.9738994E-10
   21.12000     -8.9029689E-10
   21.18000     -9.0306312E-10
   21.24000     -9.3347219E-10
   21.30000     -9.7847730E-10
   21.36000     -1.0349901E-09
   21.42000     -1.1016099E-09
   21.48000     -1.1806345E-09
   21.54000     -1.2793601E-09
   21.60000     -1.4098230E-09
   21.66000     -1.5867369E-09
   21.72000     -1.8241111E-09
   21.78000     -2.1315769E-09
   21.84000     -2.5115376E-09
   21.90000     -2.9579330E-09
   21.96000     -3.4568692E-09
   22.02000     -3.9888550E-09
   22.08000     -4.5320463E-09
   22.14000     -5.0657376E-09
   22.20000     -5.5732960E-09
   22.26000     -6.0437917E-09
   22.32000     -6.4718111E-09
   22.38000     -6.8554189E-09
   22.44000     -7.1928801E-09
   22.50000     -7.4793505E-09
   22.56000     -7.7049558E-09
   22.62000     -7.8552835E-09
   22.68000     -7.9144158E-09
   22.74000     -7.8695717E-09
   22.80000     -7.7157187E-09
   22.86000     -7.4584907E-09
   22.92000     -7.1143913E-09
   22.98000     -6.7082353E-09
   23.04000     -6.2687056E-09
   23.10000     -5.8233316E-09
   23.16000     -5.3942060E-09
   23.22000     -4.9954130E-09
   23.28000     -4.6326702E-09
   23.34000     -4.3052122E-09
   23.40000     -4.0094115E-09
   23.46000     -3.7431396E-09
   23.52000     -3.5094443E-09
   23.58000     -3.3181213E-09
   23.64000     -3.1842733E-09
   23.70000     -3.1240075E-09
   23.76000     -3.1486047E-09
   23.82000     -3.2592611E-09
   23.88000     -3.4444583E-09
   23.94000     -3.6810845E-09
   24.00000     -3.9390340E-09
   24.06000     -4.1877422E-09
   24.12000     -4.4024957E-09
   24.18000     -4.5685815E-09
   24.24000     -4.6821791E-09
   24.30000     -4.7479922E-09
   24.36000     -4.7745559E-09
   24.42000     -4.7688022E-09
   24.48000     -4.7316657E-09
   24.54000     -4.6563016E-09
   24.60000     -4.5297934E-09
   24.66000     -4.3381299E-09
   24.72000     -4.0729518E-09
   24.78000     -3.7376524E-09
   24.84000     -3.3502574E-09
   24.90000     -2.9414990E-09
   24.96000     -2.5482234E-09
   25.02000     -2.2041622E-09
   25.08000     -1.9311910E-09
   25.14000     -1.7340657E-09
   25.20000     -1.6002870E-09
   25.26000     -1.5048724E-09
   25.32000     -1.4182336E-09
   25.38000     -1.3146220E-09
   25.44000     -1.1788165E-09
   25.50000     -1.0095308E-09
   25.56000     -8.1898366E-10
   25.62000     -6.2892047E-10
   25.68000     -4.6408027E-10
   25.74000     -3.4469400E-10
   25.80000     -2.8001454E-10
   25.86000     -2.6485189E-10
   25.92000     -2.8038394E-10
   25.98000     -2.9916378E-10
   26.04000     -2.9269404E-10
   26.10000     -2.3887653E-10
   26.16000     -1.2663821E-10
   26.22000      4.3840258E-11
   26.28000      2.6509059E-10
   26.34000      5.2869092E-10
   26.40000      8.3135748E-10
   26.46000      1.1784718E-09
   26.52000      1.5838191E-09
   26.58000      2.0656878E-09
   26.64000      2.6406337E-09
   26.70000      3.3168781E-09
   26.76000      4.0894554E-09
   26.82000      4.9388120E-09
   26.88000      5.8336895E-09
   26.94000      6.7378134E-09
   27.00000      7.6185573E-09
   27.06000      8.4547578E-09
   27.12000      9.2408987E-09
   27.18000      9.9859996E-09
   27.24000      1.0707540E-08
   27.30000      1.1422675E-08
   27.36000      1.2140013E-08
   27.42000      1.2854796E-08
   27.48000      1.3548780E-08
   27.54000      1.4194154E-08
   27.60000      1.4759574E-08
   27.66000      1.5216047E-08
   27.72000      1.5541202E-08
   27.78000      1.5721385E-08
   27.84000      1.5751864E-08
   27.90000      1.5635583E-08
   27.96000      1.5380841E-08
   28.02000      1.4998292E-08
   28.08000      1.4497777E-08
   28.14000      1.3885910E-08
   28.20000      1.3165294E-08
   28.26000      1.2335816E-08
   28.32000      1.1397598E-08
   28.38000      1.0354412E-08
   28.44000      9.2160732E-09
   28.50000      7.9988016E-09
   28.56000      6.7234338E-09
   28.62000      5.4122151E-09
   28.68000      4.0853196E-09
   28.74000      2.7580738E-09
   28.80000      1.4393832E-09
   28.86000      1.3143527E-10
   28.92000     -1.1694401E-09
   28.98000     -2.4708573E-09
   29.04000     -3.7815147E-09
   29.10000     -5.1076610E-09
   29.16000     -6.4494952E-09
   29.22000     -7.7983646E-09
   29.28000     -9.1356664E-09
   29.34000     -1.0434054E-08
   29.40000     -1.1661004E-08
   29.46000     -1.2784253E-08
   29.52000     -1.3778054E-08
   29.58000     -1.4628868E-08
   29.64000     -1.5338959E-08
   29.70000     -1.5926586E-08
   29.76000     -1.6422119E-08
   29.82000     -1.6860584E-08
   29.88000     -1.7272409E-08
   29.94000     -1.7675186E-08
   30.00000     -1.8069214E-08
   30.06000     -1.8438604E-08
   30.12000     -1.8757691E-08
   30.18000     -1.9000518E-08
   30.24000     -1.9149855E-08
   30.30000     -1.9202368E-08
   30.36000     -1.9168017E-08
   30.42000     -1.9064011E-08
   30.48000     -1.8905677E-08
   30.54000     -1.8697849E-08
   30.60000     -1.8430157E-08
   30.66000     -1.8078310E-08
   30.72000     -1.7611358E-08
   30.78000     -1.7002789E-08
   30.84000     -1.6241843E-08
   30.90000     -1.5341064E-08
   30.96000     -1.4337163E-08
   31.02000     -1.3284485E-08
   31.08000     -1.2242854E-08
   31.14000     -1.1263694E-08
   31.20000     -1.0378933E-08
   31.26000     -9.5962527E-09
   31.32000     -8.9020160E-09
   31.38000     -8.2706153E-09
   31.44000     -7.6770466E-09
   31.50000     -7.1087398E-09
   31.56000     -6.5732269E-09
   31.62000     -6.0995706E-09
   31.68000     -5.7331864E-09
   31.74000     -5.5253624E-09
   31.80000     -5.5201967E-09
   31.86000     -5.7426122E-09
   31.92000     -6.1912453E-09
   31.98000     -6.8389774E-09
   32.04000     -7.6416393E-09
   32.10000     -8.5525036E-09
   32.16000     -9.5377102E-09
   32.22000     -1.0586884E-08
   32.28000     -1.1714687E-08
   32.34000     -1.2952322E-08
   32.40000     -1.4331967E-08
   32.46000     -1.5869901E-08
   32.52000     -1.7554598E-08
   32.58000     -1.9344146E-08
   32.64000     -2.1173893E-08
   32.70000     -2.2971621E-08
   32.76000     -2.4675183E-08
   32.82000     -2.6246898E-08
   32.88000     -2.7680272E-08
   32.94000     -2.8996894E-08
   33.00000     -3.0234457E-08
   33.06000     -3.1429540E-08
   33.12000     -3.2600507E-08
   33.18000     -3.3736253E-08
   33.24000     -3.4794684E-08
   33.30000     -3.5711849E-08
   33.36000     -3.6418886E-08
   33.42000     -3.6861110E-08
   33.48000     -3.7012917E-08
   33.54000     -3.6883652E-08
   33.60000     -3.6512862E-08
   33.66000     -3.5956980E-08
   33.72000     -3.5271910E-08
   33.78000     -3.4496900E-08
   33.84000     -3.3644131E-08
   33.90000     -3.2696477E-08
   33.96000     -3.1613762E-08
   34.02000     -3.0345682E-08
   34.08000     -2.8847850E-08
   34.14000     -2.7096560E-08
   34.20000     -2.5097741E-08
   34.26000     -2.2887084E-08
   34.32000     -2.0520865E-08
   34.38000     -1.8060170E-08
   34.44000     -1.5553749E-08
   34.50000     -1.3025400E-08
   34.56000     -1.0470276E-08
   34.62000     -7.8612583E-09
   34.68000     -5.1630464E-09
   34.74000     -2.3490292E-09
   34.80000      5.8459954E-10
   34.86000      3.6118537E-09
   34.92000      6.6790884E-09
   34.98000      9.7155883E-09
   35.04000      1.2649607E-08
   35.10000      1.5425250E-08
   35.16000      1.8015108E-08
   35.22000      2.0424261E-08
   35.28000      2.2683688E-08
   35.34000      2.4834314E-08
   35.40000      2.6906539E-08
   35.46000      2.8902123E-08
   35.52000      3.0785078E-08
   35.58000      3.2485211E-08
   35.64000      3.3913519E-08
   35.70000      3.4984215E-08
   35.76000      3.5635978E-08
   35.82000      3.5845503E-08
   35.88000      3.5629331E-08
   35.94000      3.5034272E-08
   36.00000      3.4120117E-08
   36.06000      3.2940623E-08
   36.12000      3.1528824E-08
   36.18000      2.9891059E-08
   36.24000      2.8011378E-08
   36.30000      2.5864663E-08
   36.36000      2.3433898E-08
   36.42000      2.0725546E-08
   36.48000      1.7777293E-08
   36.54000      1.4655055E-08
   36.60000      1.1439995E-08
   36.66000      8.2101117E-09
   36.72000      5.0230460E-09
   36.78000      1.9062227E-09
   36.84000     -1.1424088E-09
   36.90000     -4.1437711E-09
   36.96000     -7.1213040E-09
   37.02000     -1.0084611E-08
   37.08000     -1.3018399E-08
   37.14000     -1.5879960E-08
   37.20000     -1.8605745E-08
   37.26000     -2.1124862E-08
   37.32000     -2.3375510E-08
   37.38000     -2.5319213E-08
   37.44000     -2.6948349E-08
   37.50000     -2.8284331E-08
   37.56000     -2.9367001E-08
   37.62000     -3.0239061E-08
   37.68000     -3.0931396E-08
   37.74000     -3.1454789E-08
   37.80000     -3.1800717E-08
   37.86000     -3.1949916E-08
   37.92000     -3.1884163E-08
   37.98000     -3.1595860E-08
   38.04000     -3.1091652E-08
   38.10000     -3.0389764E-08
   38.16000     -2.9513618E-08
   38.22000     -2.8485470E-08
   38.28000     -2.7322873E-08
   38.34000     -2.6038716E-08
   38.40000     -2.4643732E-08
   38.46000     -2.3149608E-08
   38.52000     -2.1571317E-08
   38.58000     -1.9928027E-08
   38.64000     -1.8242584E-08
   38.70000     -1.6539760E-08
   38.76000     -1.4843605E-08
   38.82000     -1.3174693E-08
   38.88000     -1.1548436E-08
   38.94000     -9.9757340E-09
   39.00000     -8.4662748E-09
   39.06000     -7.0331696E-09
   39.12000     -5.6962302E-09
   39.18000     -4.4812145E-09
   39.24000     -3.4141880E-09
   39.30000     -2.5130016E-09
   39.36000     -1.7800809E-09
   39.42000     -1.2007884E-09
   39.48000     -7.4919315E-10
   39.54000     -3.9937703E-10
   39.60000     -1.3743295E-10
   39.66000      3.1264408E-11
   39.72000      8.2851233E-11
   39.78000     -1.6427519E-11
   39.84000     -2.9729624E-10
   39.90000     -7.7513068E-10
   39.96000     -1.4425251E-09
   40.02000     -2.2690037E-09
   40.08000     -3.2077794E-09
   40.14000     -4.2075254E-09
   40.20000     -5.2258313E-09
   40.26000     -6.2403700E-09
   40.32000     -7.2539947E-09
   40.38000     -8.2913036E-09
   40.44000     -9.3867918E-09
   40.50000     -1.0567939E-08
   40.56000     -1.1839191E-08
   40.62000     -1.3173246E-08
   40.68000     -1.4513867E-08
   40.74000     -1.5790013E-08
   40.80000     -1.6936587E-08
   40.86000     -1.7914280E-08
   40.92000     -1.8721300E-08
   40.98000     -1.9392893E-08
   41.04000     -1.9988967E-08
   41.10000     -2.0574067E-08
   41.16000     -2.1196218E-08
   41.22000     -2.1871138E-08
   41.28000     -2.2576709E-08
   41.34000     -2.3259538E-08
   41.40000     -2.3852024E-08
   41.46000     -2.4294978E-08
   41.52000     -2.4558569E-08
   41.58000     -2.4654149E-08
   41.64000     -2.4632138E-08
   41.70000     -2.4565788E-08
   41.76000     -2.4526280E-08
   41.82000     -2.4558142E-08
   41.88000     -2.4664340E-08
   41.94000     -2.4806623E-08
   42.00000     -2.4920757E-08
   42.06000     -2.4940601E-08
   42.12000     -2.4821928E-08
   42.18000     -2.4557647E-08
   42.24000     -2.4179856E-08
   42.30000     -2.3748990E-08
   42.36000     -2.3334414E-08
   42.42000     -2.2993001E-08
   42.48000     -2.2752177E-08
   42.54000     -2.2602240E-08
   42.60000     -2.2500085E-08
   42.66000     -2.2383189E-08
   42.72000     -2.2189720E-08
   42.78000     -2.1878437E-08
   42.84000     -2.1441700E-08
   42.90000     -2.0907027E-08
   42.96000     -2.0326340E-08
   43.02000     -1.9756733E-08
   43.08000     -1.9239645E-08
   43.14000     -1.8785949E-08
   43.20000     -1.8372091E-08
   43.26000     -1.7948210E-08
   43.32000     -1.7454855E-08
   43.38000     -1.6842302E-08
   43.44000     -1.6086011E-08
   43.50000     -1.5193567E-08
   43.56000     -1.4201342E-08
   43.62000     -1.3162262E-08
   43.68000     -1.2128634E-08
   43.74000     -1.1135366E-08
   43.80000     -1.0188936E-08
   43.86000     -9.2658086E-09
   43.92000     -8.3210239E-09
   43.98000     -7.3041897E-09
   44.04000     -6.1773009E-09
   44.10000     -4.9279869E-09
   44.16000     -3.5734218E-09
   44.22000     -2.1537303E-09
   44.28000     -7.1775058E-10
   44.34000      6.9321021E-10
   44.40000      2.0576214E-09
   44.46000      3.3779837E-09
   44.52000      4.6764437E-09
   44.58000      5.9843126E-09
   44.64000      7.3298265E-09
   44.70000      8.7285077E-09
   44.76000      1.0178964E-08
   44.82000      1.1664786E-08
   44.88000      1.3161124E-08
   44.94000      1.4643192E-08
   45.00000      1.6093649E-08
   45.06000      1.7506537E-08
   45.12000      1.8886860E-08
   45.18000      2.0246597E-08
   45.24000      2.1599039E-08
   45.30000      2.2953740E-08
   45.36000      2.4313641E-08
   45.42000      2.5674693E-08
   45.48000      2.7027195E-08
   45.54000      2.8357666E-08
   45.60000      2.9650401E-08
   45.66000      3.0888696E-08
   45.72000      3.2056192E-08
   45.78000      3.3138868E-08
   45.84000      3.4127339E-08
   45.90000      3.5018704E-08
   45.96000      3.5816740E-08
   46.02000      3.6530086E-08
   46.08000      3.7168725E-08
   46.14000      3.7740101E-08
   46.20000      3.8246274E-08
   46.26000      3.8682977E-08
   46.32000      3.9040728E-08
   46.38000      3.9307441E-08
   46.44000      3.9471843E-08
   46.50000      3.9527048E-08
   46.56000      3.9473669E-08
   46.62000      3.9321812E-08
   46.68000      3.9090970E-08
   46.74000      3.8807070E-08
   46.80000      3.8496616E-08
   46.86000      3.8179138E-08
   46.92000      3.7860346E-08
   46.98000      3.7528743E-08
   47.04000      3.7157807E-08
   47.10000      3.6713850E-08
   47.16000      3.6167528E-08
   47.22000      3.5505227E-08
   47.28000      3.4736242E-08
   47.34000      3.3892835E-08
   47.40000      3.3022559E-08
   47.46000      3.2175045E-08
   47.52000      3.1387504E-08
   47.58000      3.0673814E-08
   47.64000      3.0021148E-08
   47.70000      2.9395570E-08
   47.76000      2.8754863E-08
   47.82000      2.8064340E-08
   47.88000      2.7310172E-08
   47.94000      2.6505653E-08
   48.00000      2.5688387E-08
   48.06000      2.4909506E-08
   48.12000      2.4218723E-08
   48.18000      2.3650154E-08
   48.24000      2.3213277E-08
   48.30000      2.2891511E-08
   48.36000      2.2648457E-08
   48.42000      2.2439634E-08
   48.48000      2.2226162E-08
   48.54000      2.1986425E-08
   48.60000      2.1722304E-08
   48.66000      2.1458124E-08
   48.72000      2.1232676E-08
   48.78000      2.1086779E-08
   48.84000      2.1050493E-08
   48.90000      2.1134150E-08
   48.96000      2.1326002E-08
   49.02000      2.1596865E-08
   49.08000      2.1909683E-08
   49.14000      2.2230536E-08
   49.20000      2.2537570E-08
   49.26000      2.2825553E-08
   49.32000      2.3105407E-08
   49.38000      2.3399377E-08
   49.44000      2.3733387E-08
   49.50000      2.4128541E-08
   49.56000      2.4593835E-08
   49.62000      2.5122201E-08
   49.68000      2.5691312E-08
   49.74000      2.6269239E-08
   49.80000      2.6823365E-08
   49.86000      2.7329445E-08
   49.92000      2.7777544E-08
   49.98000      2.8172719E-08
   50.04000      2.8530495E-08
   50.10000      2.8869135E-08
   50.16000      2.9201578E-08
   50.22000      2.9529467E-08
   50.28000      2.9840457E-08
   50.34000      3.0109053E-08
   50.40000      3.0300551E-08
   50.46000      3.0377613E-08
   50.52000      3.0308495E-08
   50.58000      3.0075068E-08
   50.64000      2.9678056E-08
   50.70000      2.9136974E-08
   50.76000      2.8483846E-08
   50.82000      2.7752428E-08
   50.88000      2.6966813E-08
   50.94000      2.6133760E-08
   51.00000      2.5241512E-08
   51.06000      2.4264853E-08
   51.12000      2.3173737E-08
   51.18000      2.1941890E-08
   51.24000      2.0552715E-08
   51.30000      1.9001423E-08
   51.36000      1.7293635E-08
   51.42000      1.5441232E-08
   51.48000      1.3456218E-08
   51.54000      1.1343939E-08
   51.60000      9.0976515E-09
   51.66000      6.6969719E-09
   51.72000      4.1117354E-09
   51.78000      1.3105280E-09
   51.84000     -1.7295440E-09
   51.90000     -5.0163775E-09
   51.96000     -8.5427914E-09
   52.02000     -1.2292519E-08
   52.08000     -1.6248714E-08
   52.14000     -2.0400440E-08
   52.20000     -2.4744498E-08
   52.26000     -2.9283260E-08
   52.32000     -3.4021483E-08
   52.38000     -3.8964664E-08
   52.44000     -4.4119183E-08
   52.50000     -4.9492002E-08
   52.56000     -5.5087558E-08
   52.62000     -6.0901719E-08
   52.68000     -6.6915561E-08
   52.74000     -7.3092735E-08
   52.80000     -7.9382446E-08
   52.86000     -8.5726441E-08
   52.92000     -9.2065640E-08
   52.98000     -9.8342547E-08
   53.04000     -1.0449858E-07
   53.10000     -1.1046876E-07
   53.16000     -1.1617748E-07
   53.22000     -1.2153707E-07
   53.28000     -1.2644787E-07
   53.34000     -1.3079654E-07
   53.40000     -1.3445118E-07
   53.46000     -1.3725496E-07
   53.52000     -1.3902300E-07
   53.58000     -1.3954640E-07
   53.64000     -1.3860314E-07
   53.70000     -1.3597133E-07
   53.76000     -1.3143807E-07
   53.82000     -1.2479977E-07
   53.88000     -1.1585472E-07
   53.94000     -1.0439349E-07
   54.00000     -9.0192671E-08
   54.06000     -7.3015251E-08
   54.12000     -5.2616201E-08
   54.18000     -2.8750383E-08
   54.24000     -1.1806692E-09
   54.30000      3.0313327E-08
   54.36000      6.5924461E-08
   54.42000      1.0580544E-07
   54.48000      1.5005766E-07
   54.54000      1.9872637E-07
   54.60000      2.5180481E-07
   54.66000      3.0924494E-07
   54.72000      3.7096811E-07
   54.78000      4.3686782E-07
   54.84000      5.0680148E-07
   54.90000      5.8057395E-07
   54.96000      6.5791983E-07
   55.02000      7.3849088E-07
   55.08000      8.2185159E-07
   55.14000      9.0748051E-07
   55.20000      9.9477404E-07
   55.26000      1.0830511E-06
   55.32000      1.1715595E-06
   55.38000      1.2594863E-06
   55.44000      1.3459706E-06
   55.50000      1.4301148E-06
   55.56000      1.5109888E-06