  -2.400000      0.0000000E+00
  -2.340000      0.0000000E+00
  -2.280000      0.0000000E+00
  -2.220000      0.0000000E+00
  -2.160000      0.0000000E+00
  -2.100000      0.0000000E+00
  -2.040000      0.0000000E+00
  -1.980000      0.0000000E+00
  -1.920000      0.0000000E+00
  -1.860000      0.0000000E+00
  -1.800000      0.0000000E+00
  -1.740000      0.0000000E+00
  -1.680000      0.0000000E+00
  -1.620000      1.5859039E-35
  -1.560000      3.4036946E-34
  -1.500000      3.3704413E-33
  -1.440000      2.0536020E-32
  -1.380000      8.2353012E-32
  -1.320000      2.0179396E-31
  -1.260000      1.0639232E-31
  -1.200000     -1.5499964E-30
  -1.140000     -8.1984302E-30
  -1.080000     -2.3746056E-29
  -1.020000     -4.0935954E-29
 -0.9600000     -1.1808639E-29
 -0.9000000      1.8707853E-28
 -0.8400000      7.2253905E-28
 -0.7800000      1.5572514E-27
 -0.7200000      1.8694316E-27
 -0.6600000     -6.1265420E-28
 -0.6000000     -9.2960070E-27
 -0.5400000     -2.5558905E-26
 -0.4800000     -4.1543252E-26
 -0.4200000     -3.1810437E-26
 -0.3600000      4.5578873E-26
 -0.3000000      2.2200429E-25
 -0.2400000      4.5610735E-25
 -0.1800000      5.5990823E-25
 -0.1200000      1.8934660E-25
 -5.9999999E-02 -9.9107357E-25
  0.0000000E+00 -2.9150523E-24
  5.9999999E-02 -4.6329880E-24
  0.1200000     -4.1621003E-24
  0.1800000      7.6878849E-25
  0.2400000      1.0828179E-23
  0.3000000      2.2713737E-23
  0.3600000      2.8152669E-23
  0.4200000      1.6563055E-23
  0.4800000     -1.7773924E-23
  0.5400000     -6.6773649E-23
  0.6000000     -1.0460278E-22
  0.6600000     -9.6288867E-23
  0.7200000     -2.0550961E-23
  0.7800000      1.0367048E-22
  0.8400000      2.0898686E-22
  0.9000000      2.1055059E-22
  0.9600000      7.4763245E-23
   1.020000     -1.1408438E-22
   1.080000     -1.5794860E-22
   1.140000      1.2744318E-22
   1.200000      6.8972030E-22
   1.260000      1.0674538E-21
   1.320000      4.8519232E-22
   1.380000     -1.6458769E-21
   1.440000     -4.9542852E-21
   1.500000     -7.5544644E-21
   1.560000     -6.3962747E-21
   1.620000      1.0721602E-21
   1.680000      1.4351894E-20
   1.740000      2.7943350E-20
   1.800000      3.2045316E-20
   1.860000      1.7168201E-20
   1.920000     -1.8423694E-20
   1.980000     -6.2522744E-20
   2.040000     -8.9711311E-20
   2.100000     -7.2681090E-20
   2.160000     -1.6074637E-21
   2.220000      9.8868679E-20
   2.280000      1.6978512E-19
   2.340000      1.4491260E-19
   2.400000     -1.1469569E-21
   2.460000     -2.0978224E-19
   2.520000     -3.3722422E-19
   2.580000     -2.2081610E-19
   2.640000      2.0022409E-19
   2.700000      7.7238533E-19
   2.760000      1.1159342E-18
   2.820000      7.8063681E-19
   2.880000     -4.5310726E-19
   2.940000     -2.2705231E-18
   3.000000     -3.7370680E-18
   3.060000     -3.6092285E-18
   3.120000     -1.0265394E-18
   3.180000      3.7058283E-18
   3.240000      8.7356617E-18
   3.300000      1.1126364E-17
   3.360000      8.2318599E-18
   3.420000     -5.2860351E-19
   3.480000     -1.2481868E-17
   3.540000     -2.2087504E-17
   3.600000     -2.3237590E-17
   3.660000     -1.2695484E-17
   3.720000      7.0986183E-18
   3.780000      2.7810739E-17
   3.840000      3.8514118E-17
   3.900000      3.1484175E-17
   3.960000      7.5718178E-18
   4.020000     -2.2332839E-17
   4.080000     -4.1719529E-17
   4.140000     -3.7510795E-17
   4.200000     -9.1828240E-18
   4.260000      2.7892765E-17
   4.320000      4.8585462E-17
   4.380000      3.2206297E-17
   4.440000     -2.2214794E-17
   4.500000     -8.9134998E-17
   4.560000     -1.2490691E-16
   4.620000     -9.0285871E-17
   4.680000      2.3175592E-17
   4.740000      1.7807609E-16
   4.800000      2.9955172E-16
   4.860000      3.0798769E-16
   4.920000      1.6270936E-16
   4.980000     -1.0601611E-16
   5.040000     -3.9721539E-16
   5.100000     -5.7775053E-16
   5.160000     -5.4468242E-16
   5.220000     -2.8130618E-16
   5.280000      1.2420032E-16
   5.340000      5.1199356E-16
   5.400000      7.2316963E-16
   5.460000      6.7615024E-16
   5.520000      4.0582844E-16
   5.580000      4.2048390E-17
   5.640000     -2.6300722E-16
   5.700000     -4.1829102E-16
   5.760000     -4.3831522E-16
   5.820000     -4.1840257E-16
   5.880000     -4.5167259E-16
   5.940000     -5.3855620E-16
   6.000000     -5.5322856E-16
   6.060000     -3.0556197E-16
   6.120000      3.1905561E-16
   6.180000      1.2171840E-15
   6.240000      2.0203432E-15
   6.300000      2.2088010E-15
   6.360000      1.3695552E-15
   6.420000     -5.1092482E-16
   6.480000     -2.8807576E-15
   6.540000     -4.7175360E-15
   6.600000     -4.9089646E-15
   6.660000     -2.7960676E-15
   6.720000      1.3598522E-15
   6.780000      6.2417112E-15
   6.840000      9.8183002E-15
   6.900000      1.0106305E-14
   6.960000      6.0842885E-15
   7.020000     -1.6308154E-15
   7.080000     -1.0694840E-14
   7.140000     -1.7681826E-14
   7.200000     -1.9312233E-14
   7.260000     -1.3838125E-14
   7.320000     -2.0291672E-15
   7.380000      1.2711549E-14
   7.440000      2.5281541E-14
   7.500000      3.0638703E-14
   7.560000      2.5794381E-14
   7.620000      1.1267238E-14
   7.680000     -8.6673781E-15
   7.740000     -2.7202480E-14
   7.800000     -3.7400936E-14
   7.860000     -3.4941596E-14
   7.920000     -2.0110338E-14
   7.980000      1.9023543E-15
   8.040000      2.2738425E-14
   8.100000      3.4140744E-14
   8.160000      3.1498113E-14
   8.220000      1.6116135E-14
   8.280000     -4.9609305E-15
   8.340000     -2.1772116E-14
   8.400000     -2.5887919E-14
   8.460000     -1.4570839E-14
   8.520000      7.3644670E-15
   8.580000      2.9143510E-14
   8.640000      3.8697994E-14
   8.700000      2.8488666E-14
   8.760000     -2.2001940E-16
   8.820000     -3.6892581E-14
   8.880000     -6.5711210E-14
   8.940000     -7.2551198E-14
   9.000000     -5.1839921E-14
   9.060000     -9.9158835E-15
   9.120000      3.7122791E-14
   9.180000      7.0553955E-14
   9.240000      7.8053104E-14
   9.300000      6.0183365E-14
   9.360000      3.0692025E-14
   9.420000      9.6744732E-15
   9.480000      1.2249978E-14
   9.540000      3.8148680E-14
   9.600000      6.8025202E-14
   9.660000      6.9829688E-14
   9.720000      1.3982429E-14
   9.780000     -1.0862866E-13
   9.840000     -2.7435853E-13
   9.900000     -4.2753908E-13
   9.960000     -4.9659083E-13
   10.02000     -4.2100102E-13
   10.08000     -1.7890649E-13
   10.14000      1.9672089E-13
   10.20000      6.2168874E-13
   10.26000      9.8450133E-13
   10.32000      1.1821312E-12
   10.38000      1.1533093E-12
   10.44000      8.9529632E-13
   10.50000      4.5705480E-13
   10.56000     -8.7342819E-14
   10.62000     -6.7130703E-13
   10.68000     -1.2566403E-12
   10.74000     -1.8298123E-12
   10.80000     -2.3727240E-12
   10.86000     -2.8213777E-12
   10.92000     -3.0355464E-12
   10.98000     -2.8021140E-12
   11.04000     -1.8830809E-12
   11.10000     -1.0037539E-13
   11.16000      2.5683498E-12
   11.22000      5.9173989E-12
   11.28000      9.4930270E-12
   11.34000      1.2636120E-11
   11.40000      1.4574080E-11
   11.46000      1.4529764E-11
   11.52000      1.1810502E-11
   11.58000      5.8518928E-12
   11.64000     -3.7856636E-12
   11.70000     -1.7445824E-11
   11.76000     -3.5395450E-11
   11.82000     -5.7803512E-11
   11.88000     -8.4670361E-11
   11.94000     -1.1572651E-10
   12.00000     -1.5034289E-10
   12.06000     -1.8750058E-10
   12.12000     -2.2585279E-10
   12.18000     -2.6388075E-10
   12.24000     -3.0011080E-10
   12.30000     -3.3333530E-10
   12.36000     -3.6277609E-10
   12.42000     -3.8814851E-10
   12.48000     -4.0961667E-10
   12.54000     -4.2766629E-10
   12.60000     -4.4294457E-10
   12.66000     -4.5611939E-10
   12.72000     -4.6779147E-10
   12.78000     -4.7846505E-10
   12.84000     -4.8855275E-10
   12.90000     -4.9837484E-10
   12.96000     -5.0811888E-10
   13.02000     -5.1774773E-10
   13.08000     -5.2687704E-10
   13.14000     -5.3467053E-10
   13.20000     -5.3981442E-10
   13.26000     -5.4062022E-10
   13.32000     -5.3527516E-10
   13.38000     -5.2221460E-10
   13.44000     -5.0055143E-10
   13.50000     -4.7047000E-10
   13.56000     -4.3349474E-10
   13.62000     -3.9256598E-10
   13.68000     -3.5190187E-10
   13.74000     -3.1667288E-10
   13.80000     -2.9255512E-10
   13.86000     -2.8524400E-10
   13.92000     -3.0000016E-10
   13.98000     -3.4126846E-10
   14.04000     -4.1237333E-10
   14.10000     -5.1526822E-10
   14.16000     -6.5031192E-10
   14.22000     -8.1606655E-10
   14.28000     -1.0091472E-09
   14.34000     -1.2241851E-09
   14.40000     -1.4539751E-09
   14.46000     -1.6898568E-09
   14.52000     -1.9223272E-09
   14.58000     -2.1418201E-09
   14.64000     -2.3395441E-09
   14.70000     -2.5082501E-09
   14.76000     -2.6428209E-09
   14.82000     -2.7406262E-09
   14.88000     -2.8016329E-09
   14.94000     -2.8283045E-09
   15.00000     -2.8253300E-09
   15.06000     -2.7992071E-09
   15.12000     -2.7576841E-09
   15.18000     -2.7090492E-09
   15.24000     -2.6612788E-09
   15.30000     -2.6210856E-09
   15.36000     -2.5929812E-09
   15.42000     -2.5784943E-09
   15.48000     -2.5757141E-09
   15.54000     -2.5792815E-09
   15.60000     -2.5808780E-09
   15.66000     -2.5701565E-09
   15.72000     -2.5359643E-09
   15.78000     -2.4676434E-09
   15.84000     -2.3561961E-09
   15.90000     -2.1951456E-09
   15.96000     -1.9810189E-09
   16.02000     -1.7134811E-09
   16.08000     -1.3952163E-09
   16.14000     -1.0316821E-09
   16.20000     -6.3083061E-10
   16.26000     -2.0281946E-10
   16.32000      2.4033489E-10
   16.38000      6.8524342E-10
   16.44000      1.1178291E-09
   16.50000      1.5241869E-09
   16.56000      1.8914974E-09
   16.62000      2.2087963E-09
   16.68000      2.4674007E-09
   16.74000      2.6608866E-09
   16.80000      2.7846552E-09
   16.86000      2.8352871E-09
   16.92000      2.8099778E-09
   16.98000      2.7063247E-09
   17.04000      2.5226174E-09
   17.10000      2.2585831E-09
   17.16000      1.9163626E-09
   17.22000      1.5013916E-09
   17.28000      1.0228892E-09
   17.34000      4.9379023E-10
   17.40000     -6.9863504E-11
   17.46000     -6.4988848E-10
   17.52000     -1.2270360E-09
   17.58000     -1.7819649E-09
   17.64000     -2.2960192E-09
   17.70000     -2.7518534E-09
   17.76000     -3.1340393E-09
   17.82000     -3.4297816E-09
   17.88000     -3.6297672E-09
   17.94000     -3.7290278E-09
   18.00000     -3.7275787E-09
   18.06000     -3.6305681E-09
   18.12000     -3.4477667E-09
   18.18000     -3.1924230E-09
   18.24000     -2.8796914E-09
   18.30000     -2.5249993E-09
   18.36000     -2.1427009E-09
   18.42000     -1.7452614E-09
   18.48000     -1.3430168E-09
   18.54000     -9.4438046E-10
   18.60000     -5.5626875E-10
   18.66000     -1.8451839E-10
   18.72000      1.6586189E-10
   18.78000      4.9067600E-10
   18.84000      7.8676016E-10
   18.90000      1.0523900E-09
   18.96000      1.2877742E-09
   19.02000      1.4954744E-09
   19.08000      1.6805256E-09
   19.14000      1.8500389E-09
   19.20000      2.0121658E-09
   19.26000      2.1745159E-09
   19.32000      2.3423739E-09
   19.38000      2.5172087E-09
   19.44000      2.6959572E-09
   19.50000      2.8713261E-09
   19.56000      3.0330043E-09
   19.62000      3.1693728E-09
   19.68000      3.2691683E-09
   19.74000      3.3226810E-09
   19.80000      3.3223468E-09
   19.86000      3.2628835E-09
   19.92000      3.1412950E-09
   19.98000      2.9570131E-09
   20.04000      2.7122729E-09
   20.10000      2.4125837E-09
   20.16000      2.0670414E-09
   20.22000      1.6882221E-09
   20.28000      1.2915338E-09
   20.34000      8.9407820E-10
   20.40000      5.1322685E-10
   20.46000      1.6521126E-10
   20.52000     -1.3596203E-10
   20.58000     -3.7903580E-10
   20.64000     -5.5539351E-10
   20.70000     -6.5846589E-10
   20.76000     -6.8301531E-10
   20.82000     -6.2475441E-10
   20.88000     -4.8065185E-10
   20.94000     -2.4996091E-10
   21.00000      6.4393331E-11
   21.06000      4.5472223E-10
   21.12000      9.0842328E-10
   21.18000      1.4090694E-09
   21.24000      1.9384849E-09
   21.30000      2.4790834E-09
   21.36000      3.0155822E-09
   21.42000      3.5354795E-09
   21.48000      4.0282289E-09
   21.54000      4.4836228E-09
   21.60000      4.8902185E-09
   21.66000      5.2345803E-09
   21.72000      5.5017639E-09
   21.78000      5.6769798E-09
   21.84000      5.7479799E-09
   21.90000      5.7074900E-09
   21.96000      5.5549991E-09
   22.02000      5.2973421E-09
   22.08000      4.9477875E-09
   22.14000      4.5237667E-09
   22.20000      4.0438142E-09
   22.26000      3.5246965E-09
   22.32000      2.9797766E-09
   22.38000      2.4192859E-09
   22.44000      1.8524121E-09
   22.50000      1.2902243E-09
   22.56000      7.4792977E-10
   22.62000      2.4508898E-10
   22.68000     -1.9673221E-10
   22.74000     -5.5820942E-10
   22.80000     -8.2678236E-10
   22.86000     -9.9959141E-10
   22.92000     -1.0835824E-09
   22.98000     -1.0927040E-09
   23.04000     -1.0432868E-09
   23.10000     -9.4933794E-10
   23.16000     -8.1937529E-10
   23.22000     -6.5571631E-10
   23.28000     -4.5618784E-10
   23.34000     -2.1743822E-10
   23.40000      6.1386916E-11
   23.46000      3.7584491E-10
   23.52000      7.1518808E-10
   23.58000      1.0635161E-09
   23.64000      1.4027912E-09
   23.70000      1.7167846E-09
   23.76000      1.9946256E-09
   23.82000      2.2326807E-09
   23.88000      2.4340754E-09
   23.94000      2.6061084E-09
   24.00000      2.7567175E-09
   24.06000      2.8915403E-09
   24.12000      3.0128064E-09
   24.18000      3.1203622E-09
   24.24000      3.2141008E-09
   24.30000      3.2964311E-09
   24.36000      3.3735004E-09
   24.42000      3.4545444E-09
   24.48000      3.5496088E-09
   24.54000      3.6665009E-09
   24.60000      3.8079739E-09
   24.66000      3.9699146E-09
   24.72000      4.1409653E-09
   24.78000      4.3037196E-09
   24.84000      4.4374233E-09
   24.90000      4.5218393E-09
   24.96000      4.5415161E-09
   25.02000      4.4893183E-09
   25.08000      4.3679891E-09
   25.14000      4.1890074E-09
   25.20000      3.9689816E-09
   25.26000      3.7248842E-09
   25.32000      3.4699636E-09
   25.38000      3.2118599E-09
   25.44000      2.9533687E-09
   25.50000      2.6950682E-09
   25.56000      2.4382751E-09
   25.62000      2.1869060E-09
   25.68000      1.9476287E-09
   25.74000      1.7286405E-09
   25.80000      1.5379343E-09
   25.86000      1.3818330E-09
   25.92000      1.2640945E-09
   25.98000      1.1854970E-09
   26.04000      1.1437715E-09
   26.10000      1.1339926E-09
   26.16000      1.1497240E-09
   26.22000      1.1850142E-09
   26.28000      1.2367998E-09
   26.34000      1.3067462E-09
   26.40000      1.4015137E-09
   26.46000      1.5310258E-09
   26.52000      1.7052654E-09
   26.58000      1.9308701E-09
   26.64000      2.2088744E-09
   26.70000      2.5343341E-09
   26.76000      2.8976817E-09
   26.82000      3.2870200E-09
   26.88000      3.6904884E-09
   26.94000      4.0981609E-09
   27.00000      4.5032711E-09
   27.06000      4.9026290E-09
   27.12000      5.2959566E-09
   27.18000      5.6839116E-09
   27.24000      6.0650436E-09
   27.30000      6.4327623E-09
   27.36000      6.7739561E-09
   27.42000      7.0705921E-09
   27.48000      7.3043251E-09
   27.54000      7.4623996E-09
   27.60000      7.5420328E-09
   27.66000      7.5508542E-09
   27.72000      7.5028552E-09
   27.78000      7.4116757E-09
   27.84000      7.2845570E-09
   27.90000      7.1199500E-09
   27.96000      6.9097861E-09
   28.02000      6.6449255E-09
   28.08000      6.3207373E-09
   28.14000      5.9400209E-09
   28.20000      5.5121916E-09
   28.26000      5.0496927E-09
   28.32000      4.5637756E-09
   28.38000      4.0615733E-09
   28.44000      3.5452654E-09
   28.50000      3.0129865E-09
   28.56000      2.4606872E-09
   28.62000      1.8844211E-09
   28.68000      1.2829040E-09
   28.74000      6.6012934E-10
   28.80000      2.7302259E-11
   28.86000     -5.9710198E-10
   28.92000     -1.1900426E-09
   28.98000     -1.7290859E-09
   29.04000     -2.1982725E-09
   29.10000     -2.5921700E-09
   29.16000     -2.9162257E-09
   29.22000     -3.1833454E-09
   29.28000     -3.4085068E-09
   29.34000     -3.6040708E-09
   29.40000     -3.7777150E-09
   29.46000     -3.9332027E-09
   29.52000     -4.0726200E-09
   29.58000     -4.1983088E-09
   29.64000     -4.3135353E-09
   29.70000     -4.4222062E-09
   29.76000     -4.5285957E-09
   29.82000     -4.6376600E-09
   29.88000     -4.7554685E-09
   29.94000     -4.8886557E-09
   30.00000     -5.0422377E-09
   30.06000     -5.2164513E-09
   30.12000     -5.4045057E-09
   30.18000     -5.5931637E-09
   30.24000     -5.7666401E-09
   30.30000     -5.9122689E-09
   30.36000     -6.0250751E-09
   30.42000     -6.1088179E-09
   30.48000     -6.1730567E-09
   30.54000     -6.2280305E-09
   30.60000     -6.2802821E-09
   30.66000     -6.3311907E-09
   30.72000     -6.3786265E-09
   30.78000     -6.4201067E-09
   30.84000     -6.4552745E-09
   30.90000     -6.4865326E-09
   30.96000     -6.5181518E-09
   31.02000     -6.5551089E-09
   31.08000     -6.6025776E-09
   31.14000     -6.6658639E-09
   31.20000     -6.7497576E-09
   31.26000     -6.8565158E-09
   31.32000     -6.9829711E-09
   31.38000     -7.1185062E-09
   31.44000     -7.2457707E-09
   31.50000     -7.3447142E-09
   31.56000     -7.3985302E-09
   31.62000     -7.3987558E-09
   31.68000     -7.3470532E-09
   31.74000     -7.2529307E-09
   31.80000     -7.1287789E-09
   31.86000     -6.9847292E-09
   31.92000     -6.8254793E-09
   31.98000     -6.6497852E-09
   32.04000     -6.4519532E-09
   32.10000     -6.2241883E-09
   32.16000     -5.9591097E-09
   32.22000     -5.6523497E-09
   32.28000     -5.3051750E-09
   32.34000     -4.9264215E-09
   32.40000     -4.5323842E-09
   32.46000     -4.1435748E-09
   32.52000     -3.7787058E-09
   32.58000     -3.4481427E-09
   32.64000     -3.1500598E-09
   32.70000     -2.8717260E-09
   32.76000     -2.5959064E-09
   32.82000     -2.3096789E-09
   32.88000     -2.0116113E-09
   32.94000     -1.7140811E-09
   33.00000     -1.4400078E-09
   33.06000     -1.2158791E-09
   33.12000     -1.0642738E-09
   33.18000     -9.9860431E-10
   33.24000     -1.0212017E-09
   33.30000     -1.1243660E-09
   33.36000     -1.2933739E-09
   33.42000     -1.5105913E-09
   33.48000     -1.7600921E-09
   33.54000     -2.0319288E-09
   33.60000     -2.3246618E-09
   33.66000     -2.6446192E-09
   33.72000     -3.0013574E-09
   33.78000     -3.4006953E-09
   33.84000     -3.8384611E-09
   33.90000     -4.2983679E-09
   33.96000     -4.7557065E-09
   34.02000     -5.1855951E-09
   34.08000     -5.5719900E-09
   34.14000     -5.9131904E-09
   34.20000     -6.2213563E-09
   34.26000     -6.5166010E-09
   34.32000     -6.8186554E-09
   34.38000     -7.1396711E-09
   34.44000     -7.4804616E-09
   34.50000     -7.8304536E-09
   34.56000     -8.1702582E-09
   34.62000     -8.4755438E-09
   34.68000     -8.7215390E-09
   34.74000     -8.8877945E-09
   34.80000     -8.9625480E-09
   34.86000     -8.9453023E-09
   34.92000     -8.8460936E-09
   34.98000     -8.6809671E-09
   35.04000     -8.4650873E-09
   35.10000     -8.2064986E-09
   35.16000     -7.9035258E-09
   35.22000     -7.5470519E-09
   35.28000     -7.1262907E-09
   35.34000     -6.6349077E-09
   35.40000     -6.0745271E-09
   35.46000     -5.4545506E-09
   35.52000     -4.7894666E-09
   35.58000     -4.0959094E-09
   35.64000     -3.3909948E-09
   35.70000     -2.6918194E-09
   35.76000     -2.0147866E-09
   35.82000     -1.3736828E-09
   35.88000     -7.7695245E-10
   35.94000     -2.2597559E-10
   36.00000      2.8382852E-10
   36.06000      7.5891099E-10
   36.12000      1.2025380E-09
   36.18000      1.6118445E-09
   36.24000      1.9790567E-09
   36.30000      2.2963760E-09
   36.36000      2.5616196E-09
   36.42000      2.7811371E-09
   36.48000      2.9681848E-09
   36.54000      3.1377172E-09
   36.60000      3.3005796E-09
   36.66000      3.4600582E-09
   36.72000      3.6119296E-09
   36.78000      3.7469645E-09
   36.84000      3.8538581E-09
   36.90000      3.9212731E-09
   36.96000      3.9392227E-09
   37.02000      3.9009369E-09
   37.08000      3.8057433E-09
   37.14000      3.6618835E-09
   37.20000      3.4870102E-09
   37.26000      3.3045993E-09
   37.32000      3.1367571E-09
   37.38000      2.9964171E-09
   37.44000      2.8829172E-09
   37.50000      2.7834823E-09
   37.56000      2.6799516E-09
   37.62000      2.5571605E-09
   37.68000      2.4085898E-09
   37.74000      2.2367161E-09
   37.80000      2.0486846E-09
   37.86000      1.8504402E-09
   37.92000      1.6428181E-09
   37.98000      1.4213073E-09
   38.04000      1.1787451E-09
   38.10000      9.0870406E-10
   38.16000      6.0760486E-10
   38.22000      2.7505259E-10
   38.28000     -8.6775337E-11
   38.34000     -4.7365195E-10
   38.40000     -8.7953711E-10
   38.46000     -1.2972644E-09
   38.52000     -1.7204272E-09
   38.58000     -2.1461783E-09
   38.64000     -2.5773925E-09
   38.70000     -3.0223644E-09
   38.76000     -3.4913890E-09
   38.82000     -3.9916213E-09
   38.88000     -4.5230624E-09
   38.94000     -5.0782418E-09
   39.00000     -5.6461320E-09
   39.06000     -6.2182366E-09
   39.12000     -6.7933712E-09
   39.18000     -7.3782656E-09
   39.24000     -7.9835267E-09
   39.30000     -8.6170893E-09
   39.36000     -9.2785886E-09
   39.42000     -9.9573967E-09
   39.48000     -1.0634991E-08
   39.54000     -1.1290163E-08
   39.60000     -1.1904572E-08
   39.66000     -1.2466507E-08
   39.72000     -1.2971952E-08
   39.78000     -1.3423187E-08
   39.84000     -1.3825733E-08
   39.90000     -1.4184517E-08
   39.96000     -1.4500135E-08
   40.02000     -1.4766282E-08
   40.08000     -1.4969498E-08
   40.14000     -1.5092009E-08
   40.20000     -1.5117326E-08
   40.26000     -1.5036729E-08
   40.32000     -1.4853907E-08
   40.38000     -1.4585281E-08
   40.44000     -1.4255312E-08
   40.50000     -1.3888441E-08
   40.56000     -1.3501030E-08
   40.62000     -1.3096738E-08
   40.68000     -1.2667274E-08
   40.74000     -1.2197972E-08
   40.80000     -1.1675615E-08
   40.86000     -1.1095197E-08
   40.92000     -1.0463002E-08
   40.98000     -9.7951283E-09
   41.04000     -9.1122985E-09
   41.10000     -8.4330969E-09
   41.16000     -7.7680991E-09
   41.22000     -7.1170163E-09
   41.28000     -6.4699592E-09
   41.34000     -5.8125824E-09
   41.40000     -5.1334421E-09
   41.46000     -4.4308472E-09
   41.52000     -3.7163388E-09
   41.58000     -3.0129719E-09
   41.64000     -2.3485782E-09
   41.70000     -1.7463865E-09
   41.76000     -1.2167000E-09
   41.82000     -7.5307205E-10
   41.88000     -3.3460540E-10
   41.94000      6.6527013E-11
   42.00000      4.7528770E-10
   42.06000      9.0532243E-10
   42.12000      1.3546132E-09
   42.18000      1.8062307E-09
   42.24000      2.2334010E-09
   42.30000      2.6069962E-09
   42.36000      2.9032698E-09
   42.42000      3.1099385E-09
   42.48000      3.2292229E-09
   42.54000      3.2770913E-09
   42.60000      3.2787868E-09
   42.66000      3.2617551E-09
   42.72000      3.2481031E-09
   42.78000      3.2491341E-09
   42.84000      3.2639531E-09
   42.90000      3.2825815E-09
   42.96000      3.2921545E-09
   43.02000      3.2834999E-09
   43.08000      3.2554024E-09
   43.14000      3.2151302E-09
   43.20000      3.1756002E-09
   43.26000      3.1509122E-09
   43.32000      3.1522480E-09
   43.38000      3.1854064E-09
   43.44000      3.2501757E-09
   43.50000      3.3410554E-09
   43.56000      3.4488061E-09
   43.62000      3.5626091E-09
   43.68000      3.6727368E-09
   43.74000      3.7732795E-09
   43.80000      3.8639181E-09
   43.86000      3.9496011E-09
   43.92000      4.0376715E-09
   43.98000      4.1333617E-09
   44.04000      4.2357575E-09
   44.10000      4.3364676E-09
   44.16000      4.4220112E-09
   44.22000      4.4789368E-09
   44.28000      4.4991184E-09
   44.34000      4.4825423E-09
   44.40000      4.4363553E-09
   44.46000      4.3710791E-09
   44.52000      4.2963553E-09
   44.58000      4.2185135E-09
   44.64000      4.1407442E-09
   44.70000      4.0648911E-09
   44.76000      3.9929726E-09
   44.82000      3.9271568E-09
   44.88000      3.8684171E-09
   44.94000      3.8153205E-09
   45.00000      3.7644430E-09
   45.06000      3.7126537E-09
   45.12000      3.6599972E-09
   45.18000      3.6112306E-09
   45.24000      3.5748311E-09
   45.30000      3.5599466E-09
   45.36000      3.5731422E-09
   45.42000      3.6168648E-09
   45.48000      3.6902692E-09
   45.54000      3.7913659E-09
   45.60000      3.9185779E-09
   45.66000      4.0704120E-09
   45.72000      4.2435646E-09
   45.78000      4.4311781E-09
   45.84000      4.6230610E-09
   45.90000      4.8083972E-09
   45.96000      4.9796451E-09
   46.02000      5.1354054E-09
   46.08000      5.2805778E-09
   46.14000      5.4238702E-09
   46.20000      5.5743121E-09
   46.26000      5.7388436E-09
   46.32000      5.9219700E-09
   46.38000      6.1268746E-09
   46.44000      6.3564070E-09
   46.50000      6.6127632E-09
   46.56000      6.8960491E-09
   46.62000      7.2031048E-09
   46.68000      7.5279942E-09
   46.74000      7.8643145E-09
   46.80000      8.2079419E-09
   46.86000      8.5582448E-09
   46.92000      8.9166479E-09
   46.98000      9.2832861E-09
   47.04000      9.6538662E-09
   47.10000      1.0018824E-08
   47.16000      1.0365332E-08
   47.22000      1.0680845E-08
   47.28000      1.0955970E-08
   47.34000      1.1185204E-08
   47.40000      1.1365782E-08
   47.46000      1.1496316E-08
   47.52000      1.1576763E-08
   47.58000      1.1609868E-08
   47.64000      1.1602586E-08
   47.70000      1.1565515E-08
   47.76000      1.1509626E-08
   47.82000      1.1441701E-08
   47.88000      1.1361188E-08
   47.94000      1.1260715E-08
   48.00000      1.1130250E-08
   48.06000      1.0962516E-08
   48.12000      1.0756349E-08
   48.18000      1.0516031E-08
   48.24000      1.0247312E-08
   48.30000      9.9529798E-09
   48.36000      9.6310160E-09
   48.42000      9.2764418E-09
   48.48000      8.8853600E-09
   48.54000      8.4582137E-09
   48.60000      8.0000389E-09
   48.66000      7.5176914E-09
   48.72000      7.0161814E-09
   48.78000      6.4967427E-09
   48.84000      5.9578067E-09
   48.90000      5.3979199E-09
   48.96000      4.8182782E-09
   49.02000      4.2230792E-09
   49.08000      3.6176506E-09
   49.14000      3.0060090E-09
   49.20000      2.3897877E-09
   49.26000      1.7692291E-09
   49.32000      1.1452093E-09
   49.38000      5.2045196E-10
   49.44000     -1.0118147E-10
   49.50000     -7.1676221E-10
   49.56000     -1.3259118E-09
   49.62000     -1.9303419E-09
   49.68000     -2.5312126E-09
   49.74000     -3.1258878E-09
   49.80000     -3.7062056E-09
   49.86000     -4.2593782E-09
   49.92000     -4.7708340E-09
   49.98000     -5.2271427E-09
   50.04000     -5.6174310E-09
   50.10000     -5.9331335E-09
   50.16000     -6.1672831E-09
   50.22000     -6.3147216E-09
   50.28000     -6.3734236E-09
   50.34000     -6.3456302E-09
   50.40000     -6.2369723E-09
   50.46000     -6.0528653E-09
   50.52000     -5.7934373E-09
   50.58000     -5.4496581E-09
   50.64000     -5.0029789E-09
   50.70000     -4.4287902E-09
   50.76000     -3.7017098E-09
   50.82000     -2.7996536E-09
   50.88000     -1.7045819E-09
   50.94000     -4.0000428E-10
   51.00000      1.1327699E-09
   51.06000      2.9172922E-09
   51.12000      4.9824425E-09
   51.18000      7.3613537E-09
   51.24000      1.0090380E-08
   51.30000      1.3209206E-08
   51.36000      1.6761870E-08
   51.42000      2.0797458E-08
   51.48000      2.5369395E-08
   51.54000      3.0533378E-08
   51.60000      3.6345366E-08
   51.66000      4.2861291E-08
   51.72000      5.0139271E-08
   51.78000      5.8243717E-08
   51.84000      6.7249402E-08
   51.90000      7.7243598E-08
   51.96000      8.8325166E-08
   52.02000      1.0060067E-07
   52.08000      1.1417903E-07
   52.14000      1.2916587E-07
   52.20000      1.4565954E-07
   52.26000      1.6374919E-07
   52.32000      1.8351497E-07
   52.38000      2.0502932E-07
   52.44000      2.2835742E-07
   52.50000      2.5355544E-07
   52.56000      2.8066600E-07
   52.62000      3.0971160E-07
   52.68000      3.4068836E-07
   52.74000      3.7356136E-07
   52.80000      4.0826228E-07
   52.86000      4.4468740E-07
   52.92000      4.8269453E-07
   52.98000      5.2209737E-07
   53.04000      5.6265839E-07
   53.10000      6.0408189E-07
   53.16000      6.4600948E-07
   53.22000      6.8801762E-07
   53.28000      7.2961393E-07
   53.34000      7.7023225E-07
   53.40000      8.0922501E-07
   53.46000      8.4585656E-07
   53.52000      8.7930118E-07
   53.58000      9.0864842E-07
   53.64000      9.3291163E-07
   53.70000      9.5103570E-07
   53.76000      9.6189967E-07
   53.82000      9.6431268E-07
   53.88000      9.5701159E-07
   53.94000      9.3866299E-07
   54.00000      9.0787756E-07
   54.06000      8.6323155E-07
   54.12000      8.0329056E-07
   54.18000      7.2662885E-07
   54.24000      6.3184177E-07
   54.30000      5.1755791E-07
   54.36000      3.8245631E-07
   54.42000      2.2529179E-07
   54.48000      4.4925905E-08
   54.54000     -1.5964392E-07
   54.60000     -3.8926274E-07
   54.66000     -6.4460221E-07
   54.72000     -9.2614431E-07
   54.78000     -1.2341562E-06
   54.84000     -1.5686572E-06
   54.90000     -1.9293830E-06
   54.96000     -2.3157575E-06
   55.02000     -2.7268811E-06
   55.08000     -3.1615293E-06
   55.14000     -3.6181509E-06
   55.20000     -4.0948630E-06
   55.26000     -4.5894321E-06
   55.32000     -5.0992589E-06
   55.38000     -5.6213744E-06
   55.44000     -6.1524547E-06
   55.50000     -6.6888529E-06
   55.56000     -7.2266316E-06