 -0.750000000       0.00000000    
 -0.689999998       0.00000000    
 -0.629999995       0.00000000    
 -0.569999993       0.00000000    
 -0.509999990       0.00000000    
 -0.449999988       0.00000000    
 -0.389999986       0.00000000    
 -0.330000013       0.00000000    
 -0.270000011       0.00000000    
 -0.209999993       0.00000000    
 -0.150000006       0.00000000    
  -9.00000036E-02   0.00000000    
  -2.99999993E-02   0.00000000    
   2.99999993E-02   9.20627460E-36
   9.00000036E-02   1.69370553E-34
  0.150000006       1.49687083E-33
  0.209999993       8.30316092E-33
  0.270000011       3.07423658E-32
  0.330000013       6.94475127E-32
  0.389999986       2.32951668E-32
  0.449999988      -5.61959651E-31
  0.509999990      -2.79309156E-30
  0.569999993      -7.89928066E-30
  0.629999995      -1.36709925E-29
  0.689999998      -5.56920222E-30
  0.750000000       5.38670087E-29
  0.810000002       2.16596630E-28
  0.870000005       4.78629606E-28
  0.930000007       6.11761873E-28
  0.990000010      -3.70652109E-29
   1.04999995      -2.48102147E-27
   1.11000001      -7.22712838E-27
   1.16999996      -1.22386646E-26
   1.23000002      -1.04925056E-26
   1.28999996       9.92418065E-27
   1.35000002       5.84577177E-26
   1.40999997       1.24751561E-25
   1.47000003       1.57837718E-25
   1.52999997       6.34680568E-26
   1.59000003      -2.49351734E-25
   1.64999998      -7.58405993E-25
   1.71000004      -1.19859210E-24
   1.76999998      -1.03703349E-24
   1.83000004       2.88995717E-25
   1.88999999       2.82545936E-24
   1.95000005       5.49682223E-24
   2.00999999       6.03693597E-24
   2.06999993       2.09142862E-24
   2.13000011      -6.50807525E-24
   2.19000006      -1.56043708E-23
   2.25000000      -1.72042091E-23
   2.30999994      -4.67918131E-24
   2.36999989       1.84453334E-23
   2.43000007       3.24933416E-23
   2.49000001       8.32350965E-24
   2.54999995      -6.73466269E-23
   2.60999990      -1.56636436E-22
   2.67000008      -1.54083480E-22
   2.73000002       7.22161201E-23
   2.78999996       5.64264405E-22
   2.84999990       1.12487233E-21
   2.91000009       1.25276716E-21
   2.97000003       3.09748898E-22
   3.02999997      -2.01611501E-21
   3.08999991      -5.10493828E-21
   3.15000010      -7.07434183E-21
   3.21000004      -5.24915286E-21
   3.26999998       2.30881922E-21
   3.32999992       1.46453555E-20
   3.39000010       2.64114828E-20
   3.45000005       2.86836445E-20
   3.50999999       1.30772101E-20
   3.56999993      -2.18149322E-20
   3.63000011      -6.50349883E-20
   3.69000006      -9.35466051E-20
   3.75000000      -8.12278695E-20
   3.80999994      -1.47985503E-20
   3.86999989       9.11545409E-20
   3.93000007       1.91190417E-19
   3.99000001       2.25756252E-19
   4.05000019       1.54413837E-19
   4.11000013      -1.13587658E-20
   4.17000008      -1.99802220E-19
   4.23000002      -3.10817277E-19
   4.28999996      -2.79839777E-19
   4.34999990      -1.36450163E-19
   4.40999985      -7.89026422E-21
   4.46999979      -3.92112303E-20
   4.53000021      -2.56999872E-19
   4.59000015      -4.64887912E-19
   4.65000010      -2.80250549E-19
   4.71000004       6.34611984E-19
   4.76999998       2.22202281E-18
   4.82999992       3.77199653E-18
   4.88999987       4.01742557E-18
   4.94999981       1.71447451E-18
   5.01000023      -3.44506022E-18
   5.07000017      -1.00573723E-17
   5.13000011      -1.49666884E-17
   5.19000006      -1.43415317E-17
   5.25000000      -5.67767673E-18
   5.30999994       1.01353514E-17
   5.36999989       2.79206114E-17
   5.42999983       3.94535241E-17
   5.48999977       3.68301175E-17
   5.55000019       1.66958532E-17
   5.61000013      -1.67940279E-17
   5.67000008      -5.22285578E-17
   5.73000002      -7.49749427E-17
   5.78999996      -7.35383682E-17
   5.84999990      -4.52247070E-17
   5.90999985       1.98888982E-18
   5.96999979       5.27191090E-17
   6.03000021       9.11058646E-17
   6.09000015       1.07635679E-16
   6.15000010       1.01854382E-16
   6.21000004       7.92892984E-17
   6.26999998       4.46959566E-17
   6.32999992      -3.27970537E-18
   6.38999987      -7.09882365E-17
   6.44999981      -1.60917969E-16
   6.51000023      -2.59527454E-16
   6.57000017      -3.30482266E-16
   6.63000011      -3.21499190E-16
   6.69000006      -1.86699799E-16
   6.75000000       8.32062699E-17
   6.80999994       4.38218160E-16
   6.86999989       7.69551985E-16
   6.92999983       9.40285663E-16
   6.98999977       8.38175259E-16
   7.05000019       4.29115626E-16
   7.11000013      -2.14494683E-16
   7.17000008      -9.27144688E-16
   7.23000002      -1.50283010E-15
   7.28999996      -1.76460362E-15
   7.34999990      -1.61959560E-15
   7.40999985      -1.07585043E-15
   7.46999979      -2.19094694E-16
   7.53000021       8.28654873E-16
   7.59000015       1.93584128E-15
   7.65000010       2.95177811E-15
   7.71000004       3.66867969E-15
   7.76999998       3.79509427E-15
   7.82999992       2.99288292E-15
   7.88999987       1.00789837E-15
   7.94999981      -2.12889746E-15
   8.01000023      -5.91497845E-15
   8.06999969      -9.32482139E-15
   8.13000011      -1.09926860E-14
   8.18999958      -9.64426377E-15
   8.25000000      -4.66921406E-15
   8.31000042       3.38190843E-15
   8.36999989       1.26286183E-14
   8.43000031       2.01971296E-14
   8.48999977       2.30623372E-14
   8.55000019       1.91707103E-14
   8.60999966       8.44173703E-15
   8.67000008      -6.79475346E-15
   8.72999954      -2.22224176E-14
   8.78999996      -3.28145917E-14
   8.85000038      -3.45919853E-14
   8.90999985      -2.62225171E-14
   8.97000027      -9.78630612E-15
   9.02999973       9.71944727E-15
   9.09000015       2.60820333E-14
   9.14999962       3.41993178E-14
   9.21000004       3.21025385E-14
   9.27000046       2.17717266E-14
   9.32999992       8.27847905E-15
   9.39000034      -2.49798614E-15
   9.44999981      -6.64637192E-15
   9.51000023      -4.21816479E-15
   9.56999969       6.05056757E-16
   9.63000011       1.46058571E-15
   9.68999958      -6.83887795E-15
   9.75000000      -2.50344298E-14
   9.81000042      -4.78893082E-14
   9.86999989      -6.54231985E-14
   9.93000031      -6.67291878E-14
   9.98999977      -4.49143320E-14
   10.0500002      -9.81266599E-16
   10.1099997       5.52797181E-14
   10.1700001       1.08101231E-13
   10.2299995       1.41275460E-13
   10.2900000       1.44070858E-13
   10.3500004       1.14858901E-13
   10.4099998       6.07796623E-14
   10.4700003      -6.27910606E-15
   10.5299997      -7.51487021E-14
   10.5900002      -1.39130894E-13
   10.6499996      -1.95657252E-13
   10.7100000      -2.41792697E-13
   10.7700005      -2.68303175E-13
   10.8299999      -2.56731919E-13
   10.8900003      -1.83349104E-13
   10.9499998      -3.07279260E-14
   11.0100002       1.96801519E-13
   11.0699997       4.61292896E-13
   11.1300001       6.91075235E-13
   11.1899996       7.97042987E-13
   11.2500000       7.03079088E-13
   11.3100004       3.80757058E-13
   11.3699999      -1.26142938E-13
   11.4300003      -7.00503457E-13
   11.4899998      -1.17962476E-12
   11.5500002      -1.40570173E-12
   11.6099997      -1.28202494E-12
   11.6700001      -8.13028356E-13
   11.7299995      -1.10462752E-13
   11.7900000       6.39617374E-13
   11.8500004       1.23836911E-12
   11.9099998       1.54081500E-12
   11.9700003       1.50094423E-12
   12.0299997       1.17688086E-12
   12.0900002       6.94750843E-13
   12.1499996       1.88338982E-13
   12.2100000      -2.56976921E-13
   12.2700005      -6.29064184E-13
   12.3299999      -9.70309770E-13
   12.3900003      -1.32461392E-12
   12.4499998      -1.67800984E-12
   12.5100002      -1.92706333E-12
   12.5699997      -1.89878235E-12
   12.6300001      -1.42210592E-12
   12.6899996      -4.24262486E-13
   12.7500000       9.91914125E-13
   12.8100004       2.53188507E-12
   12.8699999       3.77462991E-12
   12.9300003       4.30498042E-12
   12.9899998       3.86677973E-12
   13.0500002       2.47565813E-12
   13.1099997       4.40662453E-13
   13.1700001      -1.72253943E-12
   13.2299995      -3.46072801E-12
   13.2900000      -4.37313900E-12
   13.3500004      -4.34989891E-12
   13.4099998      -3.60521704E-12
   13.4700003      -2.59355428E-12
   13.5299997      -1.84463751E-12
   13.5900002      -1.78604245E-12
   13.6499996      -2.62553802E-12
   13.7100000      -4.33746528E-12
   13.7700005      -6.75014428E-12
   13.8299999      -9.68558653E-12
   13.8900003      -1.30796745E-11
   13.9499998      -1.70214173E-11
   14.0100002      -2.16901792E-11
   14.0699997      -2.72217630E-11
   14.1300001      -3.35740290E-11
   14.1899996      -4.04703840E-11
   14.2500000      -4.74694832E-11
   14.3100004      -5.41526685E-11
   14.3699999      -6.03617573E-11
   14.4300003      -6.63844257E-11
   14.4899998      -7.29912034E-11
   14.5500002      -8.12761178E-11
   14.6099997      -9.23257581E-11
   14.6700001      -1.06809853E-10
   14.7299995      -1.24623686E-10
   14.7900000      -1.44704568E-10
   14.8500004      -1.65093994E-10
   14.9099998      -1.83244600E-10
   14.9700003      -1.96504160E-10
   15.0299997      -2.02669492E-10
   15.0900002      -2.00502337E-10
   15.1499996      -1.90128524E-10
   15.2100000      -1.73283721E-10
   15.2700005      -1.53402610E-10
   15.3299999      -1.35559466E-10
   15.3900003      -1.26258837E-10
   15.4499998      -1.33058328E-10
   15.5100002      -1.63999772E-10
   15.5699997      -2.26846431E-10
   15.6300001      -3.28172545E-10
   15.6899996      -4.72414108E-10
   15.7500000      -6.61041444E-10
   15.8100004      -8.92028174E-10
   15.8699999      -1.15975418E-09
   15.9300003      -1.45539725E-09
   15.9899998      -1.76775827E-09
   16.0499992      -2.08436979E-09
   16.1100006      -2.39268516E-09
   16.1700001      -2.68114886E-09
   16.2299995      -2.94001778E-09
   16.2900009      -3.16189142E-09
   16.3500004      -3.34199401E-09
   16.4099998      -3.47830498E-09
   16.4699993      -3.57160368E-09
   16.5300007      -3.62545438E-09
   16.5900002      -3.64606212E-09
   16.6499996      -3.64188746E-09
   16.7099991      -3.62290820E-09
   16.7700005      -3.59949337E-09
   16.8299999      -3.58098595E-09
   16.8899994      -3.57421848E-09
   16.9500008      -3.58227825E-09
   17.0100002      -3.60382746E-09
   17.0699997      -3.63316977E-09
   17.1299992      -3.66107233E-09
   17.1900005      -3.67614472E-09
   17.2500000      -3.66643294E-09
   17.3099995      -3.62085983E-09
   17.3700008      -3.53022478E-09
   17.4300003      -3.38766859E-09
   17.4899998      -3.18870019E-09
   17.5499992      -2.93102409E-09
   17.6100006      -2.61443756E-09
   17.6700001      -2.24096719E-09
   17.7299995      -1.81524396E-09
   17.7900009      -1.34494327E-09
   17.8500004      -8.40997216E-10
   17.9099998      -3.17313315E-10
   17.9699993       2.10140974E-10
   18.0300007       7.24805271E-10
   18.0900002       1.21124966E-09
   18.1499996       1.65672920E-09
   18.2099991       2.05215533E-09
   18.2700005       2.39224041E-09
   18.3299999       2.67484546E-09
   18.3899994       2.89983970E-09
   18.4500008       3.06796544E-09
   18.5100002       3.18019744E-09
   18.5699997       3.23788973E-09
   18.6299992       3.24366978E-09
   18.6900005       3.20270344E-09
   18.7500000       3.12375259E-09
   18.8099995       3.01945557E-09
   18.8700008       2.90550961E-09
   18.9300003       2.79880608E-09
   18.9899998       2.71494205E-09
   19.0499992       2.66574829E-09
   19.1100006       2.65747402E-09
   19.1700001       2.69005129E-09
   19.2299995       2.75753131E-09
   19.2900009       2.84946777E-09
   19.3500004       2.95282065E-09
   19.4099998       3.05391890E-09
   19.4699993       3.14013460E-09
   19.5300007       3.20111782E-09
   19.5900002       3.22963389E-09
   19.6499996       3.22214877E-09
   19.7099991       3.17931104E-09
   19.7700005       3.10637116E-09
   19.8299999       3.01341263E-09
   19.8899994       2.91515501E-09
   19.9500008       2.83005552E-09
   20.0100002       2.77857004E-09
   20.0699997       2.78065726E-09
   20.1299992       2.85289414E-09
   20.1900005       3.00575320E-09
   20.2500000       3.24161986E-09
   20.3099995       3.55396157E-09
   20.3700008       3.92776700E-09
   20.4300003       4.34108749E-09
   20.4899998       4.76728967E-09
   20.5499992       5.17761034E-09
   20.6100006       5.54366597E-09
   20.6700001       5.83968385E-09
   20.7299995       6.04434103E-09
   20.7900009       6.14210416E-09
   20.8500004       6.12397377E-09
   20.9099998       5.98755401E-09
   20.9699993       5.73645043E-09
   21.0300007       5.37911848E-09
   21.0900002       4.92740027E-09
   21.1499996       4.39506209E-09
   21.2099991       3.79661547E-09
   21.2700005       3.14661941E-09
   21.3299999       2.45955145E-09
   21.3899994       1.75019732E-09
   21.4500008       1.03438869E-09
   21.5100002       3.29788918E-10
   21.5699997      -3.43675172E-10
   21.6299992      -9.64146429E-10
   21.6900005      -1.50920565E-09
   21.7500000      -1.95824379E-09
   21.8099995      -2.29542318E-09
   21.8700008      -2.51249399E-09
   21.9300003      -2.61064859E-09
   21.9899998      -2.60079447E-09
   22.0499992      -2.50206833E-09
   22.1100006      -2.33890796E-09
   22.1700001      -2.13738005E-09
   22.2299995      -1.92158511E-09
   22.2900009      -1.71085934E-09
   22.3500004      -1.51823976E-09
   22.4099998      -1.35034883E-09
   22.4699993      -1.20856813E-09
   22.5300007      -1.09109766E-09
   22.5900002      -9.95286853E-10
   22.6499996      -9.19520238E-10
   22.7099991      -8.64059768E-10
   22.7700005      -8.30613911E-10
   22.8299999      -8.20947421E-10
   22.8899994      -8.35332192E-10
   22.9500008      -8.71797912E-10
   23.0100002      -9.26832056E-10
   23.0699997      -9.97480099E-10
   23.1299992      -1.08403952E-09
   23.1900005      -1.19210808E-09
   23.2500000      -1.33288314E-09
   23.3099995      -1.52127544E-09
   23.3700008      -1.77227999E-09
   23.4300003      -2.09672835E-09
   23.4899998      -2.49776466E-09
   23.5499992      -2.96909541E-09
   23.6100006      -3.49546281E-09
   23.6700001      -4.05514200E-09
   23.7299995      -4.62376848E-09
   23.7900009      -5.17851362E-09
   23.8500004      -5.70154679E-09
   23.9099998      -6.18185148E-09
   23.9699993      -6.61483401E-09
   24.0300007      -6.99979497E-09
   24.0900002      -7.33608641E-09
   24.1499996      -7.61939756E-09
   24.2099991      -7.83972975E-09
   24.2700005      -7.98211808E-09
   24.3299999      -8.03009925E-09
   24.3899994      -7.97082755E-09
   24.4500008      -7.79998288E-09
   24.5100002      -7.52472129E-09
   24.5699997      -7.16362347E-09
   24.6299992      -6.74371359E-09
   24.6900005      -6.29554053E-09
   24.7500000      -5.84775872E-09
   24.8099995      -5.42260459E-09
   24.8700008      -5.03324582E-09
   24.9300003      -4.68351624E-09
   24.9899998      -4.37004788E-09
   25.0499992      -4.08628775E-09
   25.1100006      -3.82736642E-09
   25.1700001      -3.59431107E-09
   25.2299995      -3.39603679E-09
   25.2900009      -3.24806781E-09
   25.3500004      -3.16805404E-09
   25.4099998      -3.16943760E-09
   25.4699993      -3.25554717E-09
   25.5300007      -3.41639605E-09
   25.5900002      -3.62952890E-09
   25.6499996      -3.86472765E-09
   25.7099991      -4.09095957E-09
   25.7700005      -4.28322133E-09
   25.8299999      -4.42709824E-09
   25.8899994      -4.51979121E-09
   25.9500008      -4.56755878E-09
   26.0100002      -4.58060612E-09
   26.0699997      -4.56717331E-09
   26.1299992      -4.52878091E-09
   26.1900005      -4.45834436E-09
   26.2500000      -4.34206893E-09
   26.3099995      -4.16483692E-09
   26.3700008      -3.91744459E-09
   26.4300003      -3.60304830E-09
   26.4899998      -3.24010174E-09
   26.5499992      -2.86010793E-09
   26.6100006      -2.50044740E-09
   26.6700001      -2.19454055E-09
   26.7299995      -1.96276684E-09
   26.7900009      -1.80732063E-09
   26.8500004      -1.71265357E-09
   26.9099998      -1.65105563E-09
   26.9699993      -1.59124036E-09
   27.0300007      -1.50711299E-09
   27.0900002      -1.38431189E-09
   27.1499996      -1.22313426E-09
   27.2099991      -1.03754838E-09
   27.2700005      -8.50815030E-10
   27.3299999      -6.88786528E-10
   27.3899994      -5.72397518E-10
   27.4500008      -5.11214571E-10
   27.5100002      -4.99950803E-10
   27.5699997      -5.19267407E-10
   27.6299992      -5.40900824E-10
   27.6900005      -5.35550881E-10
   27.7500000      -4.80755602E-10
   27.8099995      -3.65842856E-10
   27.8700008      -1.92169003E-10
   27.9300003       3.12229270E-11
   27.9899998       2.94550051E-10
   28.0499992       5.93926797E-10
   28.1100006       9.35081568E-10
   28.1700001       1.33282407E-09
   28.2299995       1.80655324E-09
   28.2900009       2.37341924E-09
   28.3500004       3.04142467E-09
   28.4099998       3.80471610E-09
   28.4699993       4.64271332E-09
   28.5300007       5.52366108E-09
   28.5900002       6.41186304E-09
   28.6499996       7.27653093E-09
   28.7099991       8.09936740E-09
   28.7700005       8.87811691E-09
   28.8299999       9.62459445E-09
   28.8899994       1.03577769E-08
   28.9500008       1.10945084E-08
   29.0100002       1.18413084E-08
   29.0699997       1.25902391E-08
   29.1299992       1.33198954E-08
   29.1900005       1.40004834E-08
   29.2500000       1.46005048E-08
   29.3099995       1.50925192E-08
   29.3700008       1.54564574E-08
   29.4300003       1.56804312E-08
   29.4899998       1.57598699E-08
   29.5499992       1.56959441E-08
   29.6100006       1.54937965E-08
   29.6700001       1.51606283E-08
   29.7299995       1.47036268E-08
   29.7900009       1.41281573E-08
   29.8500004       1.34368943E-08
   29.9099998       1.26305633E-08
   29.9699993       1.17102346E-08
   30.0300007       1.06803197E-08
   30.0900002       9.55092627E-09
   30.1499996       8.33842950E-09
   30.2099991       7.06392633E-09
   30.2700005       5.75013459E-09
   30.3299999       4.41788606E-09
   30.3899994       3.08326076E-09
   30.4500008       1.75595782E-09
   30.5100002       4.38980102E-10
   30.5699997      -8.70559402E-10
   30.6299992      -2.17967222E-09
   30.6900005      -3.49686102E-09
   30.7500000      -4.82878271E-09
   30.8099995      -6.17668716E-09
   30.8700008      -7.53343343E-09
   30.9300003      -8.88204621E-09
   30.9899998      -1.01965227E-08
   31.0499992      -1.14451026E-08
   31.1100006      -1.25955371E-08
   31.1700001      -1.36213405E-08
   31.2299995      -1.45076244E-08
   31.2900009      -1.52549706E-08
   31.3500004      -1.58800049E-08
   31.4099998      -1.64119420E-08
   31.4699993      -1.68854530E-08
   31.5300007      -1.73314199E-08
   31.5900002      -1.77683290E-08
   31.6499996      -1.81971878E-08
   31.7099991      -1.86020230E-08
   31.7700005      -1.89560954E-08
   31.8299999      -1.92317451E-08
   31.8899994      -1.94102050E-08
   31.9500008      -1.94875849E-08
   32.0099983      -1.94746246E-08
   32.0699997      -1.93903009E-08
   32.1300011      -1.92517948E-08
   32.1899986      -1.90648670E-08
   32.2500000      -1.88185929E-08
   32.3100014      -1.84868139E-08
   32.3699989      -1.80362427E-08
   32.4300003      -1.74386230E-08
   32.4900017      -1.66827796E-08
   32.5499992      -1.57822964E-08
   32.6100006      -1.47758907E-08
   32.6699982      -1.37200047E-08
   32.7299995      -1.26758701E-08
   32.7900009      -1.16951684E-08
   32.8499985      -1.08089262E-08
   32.9099998      -1.00231485E-08
   32.9700012      -9.32232957E-09
   33.0299988      -8.67941186E-09
   33.0900002      -8.06883271E-09
   33.1500015      -7.47855289E-09
   33.2099991      -6.91755542E-09
   33.2700005      -6.41677422E-09
   33.3300018      -6.02324857E-09
   33.3899994      -5.78907988E-09
   33.4500008      -5.75816461E-09
   33.5099983      -5.95446359E-09
   33.5699997      -6.37547615E-09
   33.6300011      -6.99337477E-09
   33.6899986      -7.76402409E-09
   33.7500000      -8.64136762E-09
   33.8100014      -9.59245483E-09
   33.8699989      -1.06076810E-08
   33.9300003      -1.17022037E-08
   33.9900017      -1.29076234E-08
   34.0499992      -1.42566678E-08
   34.1100006      -1.57663571E-08
   34.1699982      -1.74257782E-08
   34.2299995      -1.91929868E-08
   34.2900009      -2.10022897E-08
   34.3499985      -2.27795880E-08
   34.4099998      -2.44607907E-08
   34.4700012      -2.60072550E-08
   34.5299988      -2.74131988E-08
   34.5900002      -2.87025248E-08
   34.6500015      -2.99158422E-08
   34.7099991      -3.10917940E-08
   34.7700005      -3.22488170E-08
   34.8300018      -3.33736949E-08
   34.8899994      -3.44209958E-08
   34.9500008      -3.53239038E-08
   35.0099983      -3.60127252E-08
   35.0699997      -3.64347628E-08
   35.1300011      -3.65686539E-08
   35.1899986      -3.64287551E-08
   35.2500000      -3.60585233E-08
   35.3100014      -3.55157326E-08
   35.3699989      -3.48546223E-08
   35.4300003      -3.41103821E-08
   35.4900017      -3.32901031E-08
   35.5499992      -3.23722205E-08
   35.6100006      -3.13141122E-08
   35.6699982      -3.00656993E-08
   35.7299995      -2.85852817E-08
   35.7900009      -2.68532574E-08
   35.8499985      -2.48795189E-08
   35.9099998      -2.27019914E-08
   35.9700012      -2.03764525E-08
   36.0299988      -1.79608044E-08
   36.0900002      -1.54990900E-08
   36.1500015      -1.30108013E-08
   36.2099991      -1.04890026E-08
   36.2700005      -7.90764254E-09
   36.3300018      -5.23517674E-09
   36.3899994      -2.44976661E-09
   36.4500008       4.48701576E-10
   36.5099983       3.43316153E-09
   36.5699997       6.45179332E-09
   36.6300011       9.43761069E-09
   36.6899986       1.23228014E-08
   36.7500000       1.50540789E-08
   36.8100014       1.76046040E-08
   36.8699989       1.99783035E-08
   36.9300003       2.22041532E-08
   36.9900017       2.43212188E-08
   37.0499992       2.63587925E-08
   37.1100006       2.83184427E-08
   37.1699982       3.01647773E-08
   37.2299995       3.18288116E-08
   37.2900009       3.32231451E-08
   37.3499985       3.42637136E-08
   37.4099998       3.48905651E-08
   37.4700012       3.50808094E-08
   37.5299988       3.48501068E-08
   37.5900002       3.42431967E-08
   37.6500015       3.33173169E-08
   37.7099991       3.21242304E-08
   37.7700005       3.06963912E-08
   37.8300018       2.90411801E-08
   37.8899994       2.71448197E-08
   37.9500008       2.49844518E-08
   38.0099983       2.25444943E-08
   38.0699997       1.98315568E-08
   38.1300011       1.68824403E-08
   38.1899986       1.37618308E-08
   38.2500000       1.05501092E-08
   38.3100014       7.32544958E-09
   38.3699989       4.14673895E-09
   38.4300003       1.04343878E-09
   38.4900017      -1.98423145E-09
   38.5499992      -4.95539210E-09
   38.6100006      -7.89284638E-09
   38.6699982      -1.08072005E-08
   38.7299995      -1.36857849E-08
   38.7900009      -1.64894782E-08
   38.8499985      -1.91580671E-08
   38.9099998      -2.16224976E-08
   38.9700012      -2.38205669E-08
   39.0299988      -2.57114898E-08
   39.0900002      -2.72846759E-08
   39.1500015      -2.85595281E-08
   39.2099991      -2.95759239E-08
   39.2700005      -3.03785690E-08
   39.3300018      -3.10011679E-08
   39.3899994      -3.14565227E-08
   39.4500008      -3.17362741E-08
   39.5099983      -3.18195852E-08
   39.5699997      -3.16861133E-08
   39.6300011      -3.13270299E-08
   39.6899986      -3.07496002E-08
   39.7500000      -2.99742879E-08
   39.8100014      -2.90272499E-08
   39.8699989      -2.79326891E-08
   39.9300003      -2.67086033E-08
   39.9900017      -2.53670756E-08
   40.0499992      -2.39177051E-08
   40.1100006      -2.23717116E-08
   40.1699982      -2.07446931E-08
   40.2299995      -1.90572553E-08
   40.2900009      -1.73337593E-08
   40.3499985      -1.55998947E-08
   40.4099998      -1.38798049E-08
   40.4700012      -1.21935493E-08
   40.5299988      -1.05559472E-08
   40.5900002      -8.97770569E-09
   40.6500015      -7.46896056E-09
   40.7099991      -6.04386408E-09
   40.7700005      -4.72358108E-09
   40.8300018      -3.53509177E-09
   40.8899994      -2.50502286E-09
   40.9500008      -1.65064840E-09
   41.0099983      -9.72457115E-10
   41.0699997      -4.52757803E-10
   41.1300011      -6.22055116E-11
   41.1899986       2.27845950E-10
   41.2500000       4.32449077E-10
   41.3100014       5.45493206E-10
   41.3699989       5.40971379E-10
   41.4300003       3.82606197E-10
   41.4900017       3.78434402E-11
   41.5499992      -5.09210785E-10
   41.6100006      -1.25039290E-09
   41.6699982      -2.15370077E-09
   41.7299995      -3.17063131E-09
   41.7900009      -4.24827729E-09
   41.8499985      -5.34280220E-09
   41.9099998      -6.43052633E-09
   41.9700012      -7.51308438E-09
   42.0299988      -8.61424176E-09
   42.0900002      -9.76830616E-09
   42.1500015      -1.10032010E-08
   42.2099991      -1.23240236E-08
   42.2700005      -1.37037119E-08
   42.3300018      -1.50853712E-08
   42.3899994      -1.63964398E-08
   42.4500008      -1.75700254E-08
   42.5099983      -1.85655651E-08
   42.5699997      -1.93812024E-08
   42.6300011      -2.00533936E-08
   42.6899986      -2.06440500E-08
   42.7500000      -2.12197868E-08
   42.8100014      -2.18300951E-08
   42.8699989      -2.24913190E-08
   42.9300003      -2.31812258E-08
   42.9900017      -2.38459563E-08
   43.0499992      -2.44175631E-08
   43.1100006      -2.48370302E-08
   43.1699982      -2.50754848E-08
   43.2299995      -2.51460985E-08
   43.2900009      -2.51016488E-08
   43.3499985      -2.50176910E-08
   43.4099998      -2.49667931E-08
   43.4700012      -2.49933265E-08
   43.5299988      -2.50984673E-08
   43.5900002      -2.52412402E-08
   43.6500015      -2.53549999E-08
   43.7099991      -2.53726107E-08
   43.7700005      -2.52506620E-08
   43.8300018      -2.49840308E-08
   43.8899994      -2.46065177E-08
   43.9500008      -2.41786378E-08
   44.0099983      -2.37677469E-08
   44.0699997      -2.34273880E-08
   44.1300011      -2.31819914E-08
   44.1899986      -2.30208315E-08
   44.2500000      -2.29024320E-08
   44.3100014      -2.27678942E-08
   44.3699989      -2.25592611E-08
   44.4300003      -2.22375363E-08
   44.4900017      -2.17946337E-08
   44.5499992      -2.12551186E-08
   44.6100006      -2.06668602E-08
   44.6699982      -2.00836023E-08
   44.7299995      -1.95455350E-08
   44.7900009      -1.90648208E-08
   44.8499985      -1.86210567E-08
   44.9099998      -1.81679987E-08
   44.9700012      -1.76488317E-08
   45.0299988      -1.70145213E-08
   45.0900002      -1.62391522E-08
   45.1500015      -1.53275863E-08
   45.2099991      -1.43133310E-08
   45.2700005      -1.32475098E-08
   45.3300018      -1.21823689E-08
   45.3899994      -1.11544507E-08
   45.4500008      -1.01728217E-08
   45.5099983      -9.21644450E-09
   45.5699997      -8.24190671E-09
   45.6300011      -7.19909332E-09
   45.6899986      -6.04930461E-09
   45.7500000      -4.77914064E-09
   45.8100014      -3.40498407E-09
   45.8699989      -1.96659533E-09
   45.9300003      -5.12652198E-10
   45.9900017       9.15876819E-10
   46.0499992       2.29817054E-09
   46.1100006       3.63760333E-09
   46.1699982       4.95684382E-09
   46.2299995       6.28686569E-09
   46.2900009       7.65457564E-09
   46.3499985       9.07357034E-09
   46.4099998       1.05407132E-08
   46.4700012       1.20388322E-08
   46.5299988       1.35436933E-08
   46.5900002       1.50323434E-08
   46.6500015       1.64898442E-08
   46.7099991       1.79123614E-08
   46.7700005       1.93061265E-08
   46.8300018       2.06831672E-08
   46.8899994       2.20558274E-08
   46.9500008       2.34321469E-08
   47.0099983       2.48134722E-08
   47.0699997       2.61944653E-08
   47.1300011       2.75647061E-08
   47.1899986       2.89106445E-08
   47.2500000       3.02171408E-08
   47.3100014       3.14685558E-08
   47.3699989       3.26498473E-08
   47.4300003       3.37481083E-08
   47.4900017       3.47544145E-08
   47.5499992       3.56652485E-08
   47.6100006       3.64826143E-08
   47.6699982       3.72125015E-08
   47.7299995       3.78621650E-08
   47.7900009       3.84371930E-08
   47.8499985       3.89395005E-08
   47.9099998       3.93667250E-08
   47.9700012       3.97129085E-08
   48.0299988       3.99700397E-08
   48.0900002       4.01301037E-08
   48.1500015       4.01874836E-08
   48.2099991       4.01416358E-08
   48.2700005       3.99994597E-08
   48.3300018       3.97763777E-08
   48.3899994       3.94948110E-08
   48.4500008       3.91794721E-08
   48.5099983       3.88502848E-08
   48.5699997       3.85151679E-08
   48.6300011       3.81657088E-08
   48.6899986       3.77781824E-08
   48.7500000       3.73205538E-08
   48.8100014       3.67636339E-08
   48.8699989       3.60926151E-08
   48.9300003       3.53147733E-08
   48.9900017       3.44600934E-08
   49.0499992       3.35741355E-08
   49.1100006       3.27052234E-08
   49.1699982       3.18902273E-08
   49.2299995       3.11437738E-08
   49.2900009       3.04547463E-08
   49.3499985       2.97914156E-08
   49.4099998       2.91134867E-08
   49.4700012       2.83870705E-08
   49.5299988       2.75975172E-08
   49.5900002       2.67558562E-08
   49.6500015       2.58968047E-08
   49.7099991       2.50691574E-08
   49.7700005       2.43218281E-08
   49.8300018       2.36900259E-08
   49.8899994       2.31858337E-08
   49.9500008       2.27959216E-08
   50.0099983       2.24868302E-08
   50.0699997       2.22160512E-08
   50.1300011       2.19454392E-08
   50.1899986       2.16528981E-08
   50.2500000       2.13388240E-08
   50.3100014       2.10254338E-08
   50.3699989       2.07493205E-08
   50.4300003       2.05497273E-08
   50.4900017       2.04563868E-08
   50.5499992       2.04808419E-08
   50.6100006       2.06138004E-08