  -2.400000      0.0000000E+00
  -2.340000      0.0000000E+00
  -2.280000      0.0000000E+00
  -2.220000      0.0000000E+00
  -2.160000      0.0000000E+00
  -2.100000      0.0000000E+00
  -2.040000      0.0000000E+00
  -1.980000      0.0000000E+00
  -1.920000      4.5147134E-27
  -1.860000      5.0141441E-26
  -1.800000      2.6655953E-25
  -1.740000      8.4717271E-25
  -1.680000      1.4633188E-24
  -1.620000     -6.3318719E-25
  -1.560000     -1.3816896E-23
  -1.500000     -5.3220709E-23
  -1.440000     -1.2990949E-22
  -1.380000     -2.1294650E-22
  -1.320000     -1.5828769E-22
  -1.260000      3.5892331E-22
  -1.200000      1.7895931E-21
  -1.140000      4.3354406E-21
  -1.080000      7.1031429E-21
  -1.020000      6.9828592E-21
 -0.9600000     -1.8443034E-21
 -0.9000000     -2.6074423E-20
 -0.8400000     -6.7362526E-20
 -0.7800000     -1.1234370E-19
 -0.7200000     -1.2290791E-19
 -0.6600000     -3.6723426E-20
 -0.6000000      2.0877201E-19
 -0.5400000      6.2093745E-19
 -0.4800000      1.0757531E-18
 -0.4200000      1.2620053E-18
 -0.3600000      7.1525268E-19
 -0.3000000     -9.8893475E-19
 -0.2400000     -3.8696448E-18
 -0.1800000     -7.1128591E-18
 -0.1200000     -8.8433697E-18
 -5.9999999E-02 -6.4485627E-18
  0.0000000E+00  2.2899877E-18
  5.9999999E-02  1.7367881E-17
  0.1200000      3.4726055E-17
  0.1800000      4.5650305E-17
  0.2400000      3.8714968E-17
  0.3000000      4.8166417E-18
  0.3600000     -5.5805932E-17
  0.4200000     -1.2764305E-16
  0.4800000     -1.7932699E-16
  0.5400000     -1.7178176E-16
  0.6000000     -7.5081967E-17
  0.6600000      1.1112577E-16
  0.7200000      3.4321357E-16
  0.7800000      5.3548751E-16
  0.8400000      5.8386796E-16
  0.9000000      4.0711905E-16
  0.9600000     -9.0116712E-18
   1.020000     -5.8486249E-16
   1.080000     -1.1534826E-15
   1.140000     -1.5042811E-15
   1.200000     -1.4507370E-15
   1.260000     -8.9775752E-16
   1.320000      1.1557638E-16
   1.380000      1.4103140E-15
   1.440000      2.6953440E-15
   1.500000      3.6151265E-15
   1.560000      3.8071370E-15
   1.620000      2.9709314E-15
   1.680000      9.5915586E-16
   1.740000     -2.1084721E-15
   1.800000     -5.7372455E-15
   1.860000     -9.0206315E-15
   1.920000     -1.0753259E-14
   1.980000     -9.7386817E-15
   2.040000     -5.2530582E-15
   2.100000      2.4779131E-15
   2.160000      1.2001176E-14
   2.220000      2.0754503E-14
   2.280000      2.5659477E-14
   2.340000      2.4080964E-14
   2.400000      1.4863804E-14
   2.460000     -9.3361602E-16
   2.520000     -1.9938492E-14
   2.580000     -3.7138183E-14
   2.640000     -4.7211807E-14
   2.700000     -4.6156086E-14
   2.760000     -3.2700703E-14
   2.820000     -9.0212414E-15
   2.880000      1.9566835E-14
   2.940000      4.5947316E-14
   3.000000      6.3237359E-14
   3.060000      6.6885760E-14
   3.120000      5.6094167E-14
   3.180000      3.3983663E-14
   3.240000      6.3672326E-15
   3.300000     -2.0431516E-14
   3.360000     -4.1800198E-14
   3.420000     -5.6087584E-14
   3.480000     -6.4274818E-14
   3.540000     -6.8249158E-14
   3.600000     -6.8657726E-14
   3.660000     -6.3660645E-14
   3.720000     -4.9508239E-14
   3.780000     -2.2848344E-14
   3.840000      1.6447233E-14
   3.900000      6.3676854E-14
   3.960000      1.1016191E-13
   4.020000      1.4640376E-13
   4.080000      1.6585121E-13
   4.140000      1.6688894E-13
   4.200000      1.5144448E-13
   4.260000      1.2068157E-13
   4.320000      7.0523225E-14
   4.380000     -9.2303357E-15
   4.440000     -1.2964667E-13
   4.500000     -2.9200730E-13
   4.560000     -4.7634439E-13
   4.620000     -6.3601500E-13
   4.680000     -7.0413282E-13
   4.740000     -6.1317357E-13
   4.800000     -3.2276715E-13
   4.860000      1.5452425E-13
   4.920000      7.4099743E-13
   4.980000      1.3030404E-12
   5.040000      1.6820715E-12
   5.100000      1.7389768E-12
   5.160000      1.3980852E-12
   5.220000      6.7620052E-13
   5.280000     -3.1291758E-13
   5.340000     -1.3800579E-12
   5.400000     -2.3014329E-12
   5.460000     -2.8673977E-12
   5.520000     -2.9270314E-12
   5.580000     -2.4198189E-12
   5.640000     -1.3902974E-12
   5.700000      1.4702127E-14
   5.760000      1.5648494E-12
   5.820000      2.9795437E-12
   5.880000      3.9736036E-12
   5.940000      4.3114262E-12
   6.000000      3.8617174E-12
   6.060000      2.6406312E-12
   6.120000      8.2917191E-13
   6.180000     -1.2464306E-12
   6.240000     -3.1743560E-12
   6.300000     -4.5477120E-12
   6.360000     -5.0649394E-12
   6.420000     -4.6121965E-12
   6.480000     -3.3013956E-12
   6.540000     -1.4483896E-12
   6.600000      5.0681318E-13
   6.660000      2.1174590E-12
   6.720000      3.0515592E-12
   6.780000      3.1811049E-12
   6.840000      2.6118088E-12
   6.900000      1.6449286E-12
   6.960000      6.8489648E-13
   7.020000      1.2420899E-13
   7.080000      2.4372480E-13
   7.140000      1.1593187E-12
   7.200000      2.8273820E-12
   7.260000      5.0990124E-12
   7.320000      7.7952020E-12
   7.380000      1.0770090E-11
   7.440000      1.3938557E-11
   7.500000      1.7263378E-11
   7.560000      2.0716743E-11
   7.620000      2.4241357E-11
   7.680000      2.7732512E-11
   7.740000      3.1046481E-11
   7.800000      3.4021494E-11
   7.860000      3.6486723E-11
   7.920000      3.8239686E-11
   7.980000      3.8992698E-11
   8.040000      3.8314765E-11
   8.100000      3.5612024E-11
   8.160000      3.0186059E-11
   8.220000      2.1382073E-11
   8.280000      8.7980127E-12
   8.340000     -7.5113379E-12
   8.400000     -2.6915376E-11
   8.460000     -4.8235294E-11
   8.520000     -6.9932456E-11
   8.580000     -9.0413212E-11
   8.640000     -1.0836006E-10
   8.700000     -1.2298645E-10
   8.760000     -1.3413892E-10
   8.820000     -1.4222673E-10
   8.880000     -1.4802262E-10
   8.940000     -1.5242133E-10
   9.000000     -1.5624980E-10
   9.060000     -1.6018842E-10
   9.120000     -1.6480466E-10
   9.180000     -1.7064293E-10
   9.240000     -1.7828461E-10
   9.300000     -1.8830382E-10
   9.360000     -2.0109643E-10
   9.420000     -2.1662792E-10
   9.480000     -2.3420263E-10
   9.540000     -2.5237387E-10
   9.600000     -2.6907929E-10
   9.660000     -2.8201022E-10
   9.720000     -2.8913338E-10
   9.780000     -2.8921687E-10
   9.840000     -2.8219749E-10
   9.900000     -2.6927163E-10
   9.960000     -2.5268199E-10
   10.02000     -2.3526983E-10
   10.08000     -2.1993306E-10
   10.14000     -2.0914041E-10
   10.20000     -2.0461055E-10
   10.26000     -2.0718574E-10
   10.32000     -2.1685950E-10
   10.38000     -2.3288080E-10
   10.44000     -2.5387223E-10
   10.50000     -2.7794622E-10
   10.56000     -3.0285277E-10
   10.62000     -3.2620875E-10
   10.68000     -3.4582839E-10
   10.74000     -3.6011105E-10
   10.80000     -3.6837863E-10
   10.86000     -3.7103129E-10
   10.92000     -3.6942879E-10
   10.98000     -3.6549549E-10
   11.04000     -3.6115552E-10
   11.10000     -3.5777822E-10
   11.16000     -3.5582079E-10
   11.22000     -3.5478195E-10
   11.28000     -3.5346392E-10
   11.34000     -3.5042499E-10
   11.40000     -3.4444181E-10
   11.46000     -3.3481590E-10
   11.52000     -3.2143976E-10
   11.58000     -3.0464670E-10
   11.64000     -2.8495761E-10
   11.70000     -2.6286884E-10
   11.76000     -2.3879268E-10
   11.82000     -2.1318441E-10
   11.88000     -1.8680574E-10
   11.94000     -1.6101497E-10
   12.00000     -1.3796161E-10
   12.06000     -1.2059075E-10
   12.12000     -1.1241699E-10
   12.18000     -1.1708881E-10
   12.24000     -1.3781752E-10
   12.30000     -1.7678586E-10
   12.36000     -2.3467300E-10
   12.42000     -3.1042954E-10
   12.48000     -4.0139458E-10
   12.54000     -5.0376575E-10
   12.60000     -6.1332278E-10
   12.66000     -7.2620332E-10
   12.72000     -8.3947932E-10
   12.78000     -9.5132779E-10
   12.84000     -1.0607308E-09
   12.90000     -1.1668252E-09
   12.96000     -1.2681898E-09
   13.02000     -1.3624036E-09
   13.08000     -1.4461197E-09
   13.14000     -1.5156831E-09
   13.20000     -1.5680871E-09
   13.26000     -1.6018953E-09
   13.32000     -1.6177677E-09
   13.38000     -1.6183684E-09
   13.44000     -1.6076800E-09
   13.50000     -1.5899532E-09
   13.56000     -1.5686129E-09
   13.62000     -1.5453975E-09
   13.68000     -1.5198708E-09
   13.74000     -1.4893037E-09
   13.80000     -1.4488564E-09
   13.86000     -1.3919995E-09
   13.92000     -1.3111737E-09
   13.98000     -1.1987109E-09
   14.04000     -1.0479907E-09
   14.10000     -8.5468432E-10
   14.16000     -6.1781247E-10
   14.22000     -3.4028746E-10
   14.28000     -2.8691837E-11
   14.34000      3.0775979E-10
   14.40000      6.5887235E-10
   14.46000      1.0153254E-09
   14.52000      1.3702421E-09
   14.58000      1.7200615E-09
   14.64000      2.0645183E-09
   14.70000      2.4058051E-09
   14.76000      2.7472256E-09
   14.82000      3.0917711E-09
   14.88000      3.4410161E-09
   14.94000      3.7945607E-09
   15.00000      4.1499901E-09
   15.06000      4.5031046E-09
   15.12000      4.8480313E-09
   15.18000      5.1769420E-09
   15.24000      5.4792966E-09
   15.30000      5.7408949E-09
   15.36000      5.9432756E-09
   15.42000      6.0640843E-09
   15.48000      6.0788312E-09
   15.54000      5.9640302E-09
   15.60000      5.7011946E-09
   15.66000      5.2807234E-09
   15.72000      4.7046051E-09
   15.78000      3.9870924E-09
   15.84000      3.1530412E-09
   15.90000      2.2343025E-09
   15.96000      1.2651227E-09
   16.02000      2.7777408E-10
   16.08000     -7.0051193E-10
   16.14000     -1.6487446E-09
   16.20000     -2.5516291E-09
   16.26000     -3.3979985E-09
   16.32000     -4.1792165E-09
   16.38000     -4.8883941E-09
   16.44000     -5.5207332E-09
   16.50000     -6.0746514E-09
   16.56000     -6.5528463E-09
   16.62000     -6.9623591E-09
   16.68000     -7.3130932E-09
   16.74000     -7.6149504E-09
   16.80000     -7.8744549E-09
   16.86000     -8.0921572E-09
   16.92000     -8.2619298E-09
   16.98000     -8.3726999E-09
   17.04000     -8.4122336E-09
   17.10000     -8.3718614E-09
   17.16000     -8.2506917E-09
   17.22000     -8.0580342E-09
   17.28000     -7.8133837E-09
   17.34000     -7.5440951E-09
   17.40000     -7.2815287E-09
   17.46000     -7.0567512E-09
   17.52000     -6.8967765E-09
   17.58000     -6.8219723E-09
   17.64000     -6.8447390E-09
   17.70000     -6.9692021E-09
   17.76000     -7.1914732E-09
   17.82000     -7.5001179E-09
   17.88000     -7.8767481E-09
   17.94000     -8.2969169E-09
   18.00000     -8.7316305E-09
   18.06000     -9.1497254E-09
   18.12000     -9.5209902E-09
   18.18000     -9.8195452E-09
   18.24000     -1.0026682E-08
   18.30000     -1.0132381E-08
   18.36000     -1.0135091E-08
   18.42000     -1.0039866E-08
   18.48000     -9.8555573E-09
   18.54000     -9.5919930E-09
   18.60000     -9.2579739E-09
   18.66000     -8.8604768E-09
   18.72000     -8.4049310E-09
   18.78000     -7.8960198E-09
   18.84000     -7.3383961E-09
   18.90000     -6.7369399E-09
   18.96000     -6.0965855E-09
   19.02000     -5.4220850E-09
   19.08000     -4.7181987E-09
   19.14000     -3.9906376E-09
   19.20000     -3.2476952E-09
   19.26000     -2.5021076E-09
   19.32000     -1.7723776E-09
   19.38000     -1.0828031E-09
   19.44000     -4.6174750E-10
   19.50000      6.1766876E-11
   19.56000      4.6244253E-10
   19.62000      7.2292422E-10
   19.68000      8.3663737E-10
   19.74000      8.0842583E-10
   19.80000      6.5291439E-10
   19.86000      3.9133274E-10
   19.92000      4.8068376E-11
   19.98000     -3.5180225E-10
   20.04000     -7.8331253E-10
   20.10000     -1.2209129E-09
   20.16000     -1.6372187E-09
   20.22000     -2.0024269E-09
   20.28000     -2.2853313E-09
   20.34000     -2.4561335E-09
   20.40000     -2.4904361E-09
   20.46000     -2.3732640E-09
   20.52000     -2.1019095E-09
   20.58000     -1.6867614E-09
   20.64000     -1.1499066E-09
   20.70000     -5.2188209E-10
   20.76000      1.6263552E-10
   20.82000      8.6925905E-10
   20.88000      1.5675786E-09
   20.94000      2.2335169E-09
   21.00000      2.8501421E-09
   21.06000      3.4071579E-09
   21.12000      3.8996113E-09
   21.18000      4.3265000E-09
   21.24000      4.6898023E-09
   21.30000      4.9940883E-09
   21.36000      5.2464837E-09
   21.42000      5.4565077E-09
   21.48000      5.6353873E-09
   21.54000      5.7947580E-09
   21.60000      5.9450191E-09
   21.66000      6.0938068E-09
   21.72000      6.2449605E-09
   21.78000      6.3980772E-09
   21.84000      6.5485009E-09
   21.90000      6.6875314E-09
   21.96000      6.8028370E-09
   22.02000      6.8792922E-09
   22.08000      6.9005957E-09
   22.14000      6.8518022E-09
   22.20000      6.7224897E-09
   22.26000      6.5097936E-09
   22.32000      6.2203553E-09
   22.38000      5.8703682E-09
   22.44000      5.4834479E-09
   22.50000      5.0866693E-09
   22.56000      4.7056599E-09
   22.62000      4.3598964E-09
   22.68000      4.0593076E-09
   22.74000      3.8029970E-09
   22.80000      3.5804064E-09
   22.86000      3.3746259E-09
   22.92000      3.1669656E-09
   22.98000      2.9414340E-09
   23.04000      2.6877038E-09
   23.10000      2.4015763E-09
   23.16000      2.0828486E-09
   23.22000      1.7315456E-09
   23.28000      1.3442597E-09
   23.34000      9.1245284E-10
   23.40000      4.2389620E-10
   23.46000     -1.3282402E-10
   23.52000     -7.6212697E-10
   23.58000     -1.4558377E-09
   23.64000     -2.1904640E-09
   23.70000     -2.9288560E-09
   23.76000     -3.6263923E-09
   23.82000     -4.2403512E-09
   23.88000     -4.7399804E-09
   23.94000     -5.1143063E-09
   24.00000     -5.3751292E-09
   24.06000     -5.5538596E-09
   24.12000     -5.6926535E-09
   24.18000     -5.8321215E-09
   24.24000     -5.9992153E-09
   24.30000     -6.1991043E-09
   24.36000     -6.4137868E-09
   24.42000     -6.6080856E-09
   24.48000     -6.7412045E-09
   24.54000     -6.7801165E-09
   24.60000     -6.7104216E-09
   24.66000     -6.5411743E-09
   24.72000     -6.3022432E-09
   24.78000     -6.0352772E-09
   24.84000     -5.7813780E-09
   24.90000     -5.5695923E-09
   24.96000     -5.4099183E-09
   25.02000     -5.2930385E-09
   25.08000     -5.1967759E-09
   25.14000     -5.0970979E-09
   25.20000     -4.9799436E-09
   25.26000     -4.8497419E-09
   25.32000     -4.7314037E-09
   25.38000     -4.6646425E-09
   25.44000     -4.6920561E-09
   25.50000     -4.8446855E-09
   25.56000     -5.1298494E-09
   25.62000     -5.5255311E-09
   25.68000     -5.9835243E-09
   25.74000     -6.4406707E-09
   25.80000     -6.8348212E-09
   25.86000     -7.1206063E-09
   25.92000     -7.2801565E-09
   25.98000     -7.3255433E-09
   26.04000     -7.2923263E-09
   26.10000     -7.2263080E-09
   26.16000     -7.1676722E-09
   26.22000     -7.1374515E-09
   26.28000     -7.1305832E-09
   26.34000     -7.1177908E-09
   26.40000     -7.0557360E-09
   26.46000     -6.9021850E-09
   26.52000     -6.6311330E-09
   26.58000     -6.2426966E-09
   26.64000     -5.7642002E-09
   26.70000     -5.2418470E-09
   26.76000     -4.7256514E-09
   26.82000     -4.2527355E-09
   26.88000     -3.8348196E-09
   26.94000     -3.4544263E-09
   27.00000     -3.0714600E-09
   27.06000     -2.6383953E-09
   27.12000     -2.1193909E-09
   27.18000     -1.5072250E-09
   27.24000     -8.3238760E-10
   27.30000     -1.6088611E-10
   27.36000      4.1929926E-10
   27.42000      8.1960128E-10
   27.48000      9.7386854E-10
   27.54000      8.5584512E-10
   27.60000      4.8531207E-10
   27.66000     -7.9568456E-11
   27.72000     -7.6176104E-10
   27.78000     -1.4907501E-09
   27.84000     -2.2256734E-09
   27.90000     -2.9685789E-09
   27.96000     -3.7633434E-09
   28.02000     -4.6805297E-09
   28.08000     -5.7931260E-09
   28.14000     -7.1511308E-09
   28.20000     -8.7632523E-09
   28.26000     -1.0591658E-08
   28.32000     -1.2561371E-08
   28.38000     -1.4581219E-08
   28.44000     -1.6569421E-08
   28.50000     -1.8475420E-08
   28.56000     -2.0290647E-08
   28.62000     -2.2044508E-08
   28.68000     -2.3786702E-08
   28.74000     -2.5561731E-08
   28.80000     -2.7384292E-08
   28.86000     -2.9224369E-08
   28.92000     -3.1007680E-08
   28.98000     -3.2632151E-08
   29.04000     -3.3995430E-08
   29.10000     -3.5024541E-08
   29.16000     -3.5697791E-08
   29.22000     -3.6051276E-08
   29.28000     -3.6167609E-08
   29.34000     -3.6149970E-08
   29.40000     -3.6089734E-08
   29.46000     -3.6037815E-08
   29.52000     -3.5988929E-08
   29.58000     -3.5883680E-08
   29.64000     -3.5627814E-08
   29.70000     -3.5122426E-08
   29.76000     -3.4295308E-08
   29.82000     -3.3123410E-08
   29.88000     -3.1639175E-08
   29.94000     -2.9919143E-08
   30.00000     -2.8058952E-08
   30.06000     -2.6143542E-08
   30.12000     -2.4222667E-08
   30.18000     -2.2299853E-08
   30.24000     -2.0337971E-08
   30.30000     -1.8278854E-08
   30.36000     -1.6069668E-08
   30.42000     -1.3686667E-08
   30.48000     -1.1148214E-08
   30.54000     -8.5127585E-09
   30.60000     -5.8625989E-09
   30.66000     -3.2789143E-09
   30.72000     -8.1638096E-10
   30.78000      1.5141928E-09
   30.84000      3.7493164E-09
   30.90000      5.9608491E-09
   30.96000      8.2320719E-09
   31.02000      1.0629212E-08
   31.08000      1.3177453E-08
   31.14000      1.5849151E-08
   31.20000      1.8568119E-08
   31.26000      2.1228582E-08
   31.32000      2.3722629E-08
   31.38000      2.5967351E-08
   31.44000      2.7923125E-08
   31.50000      2.9597722E-08
   31.56000      3.1035650E-08
   31.62000      3.2296970E-08
   31.68000      3.3432912E-08
   31.74000      3.4466346E-08
   31.80000      3.5383188E-08
   31.86000      3.6137092E-08
   31.92000      3.6665469E-08
   31.98000      3.6911327E-08
   32.04000      3.6843517E-08
   32.10000      3.6468670E-08
   32.16000      3.5830784E-08
   32.22000      3.4998507E-08
   32.28000      3.4044401E-08
   32.34000      3.3023170E-08
   32.40000      3.1956226E-08
   32.46000      3.0827927E-08
   32.52000      2.9594633E-08
   32.58000      2.8203431E-08
   32.64000      2.6614186E-08
   32.70000      2.4817481E-08
   32.76000      2.2842643E-08
   32.82000      2.0753461E-08
   32.88000      1.8633218E-08
   32.94000      1.6563938E-08
   33.00000      1.4606379E-08
   33.06000      1.2786738E-08
   33.12000      1.1093768E-08
   33.18000      9.4866790E-09
   33.24000      7.9109119E-09
   33.30000      6.3165624E-09
   33.36000      4.6737036E-09
   33.42000      2.9800771E-09
   33.48000      1.2593520E-09
   33.54000     -4.4863180E-10
   33.60000     -2.1016391E-09
   33.66000     -3.6677392E-09
   33.72000     -5.1326143E-09
   33.78000     -6.4994281E-09
   33.84000     -7.7820257E-09
   33.90000     -8.9945553E-09
   33.96000     -1.0141615E-08
   34.02000     -1.1212449E-08
   34.08000     -1.2181035E-08
   34.14000     -1.3011722E-08
   34.20000     -1.3668333E-08
   34.26000     -1.4123684E-08
   34.32000     -1.4366704E-08
   34.38000     -1.4405235E-08
   34.44000     -1.4264102E-08
   34.50000     -1.3979387E-08
   34.56000     -1.3590833E-08
   34.62000     -1.3134601E-08
   34.68000     -1.2638213E-08
   34.74000     -1.2118616E-08
   34.80000     -1.1583263E-08
   34.86000     -1.1033243E-08
   34.92000     -1.0467155E-08
   34.98000     -9.8846256E-09
   35.04000     -9.2888461E-09
   35.10000     -8.6881080E-09
   35.16000     -8.0964995E-09
   35.22000     -7.5339566E-09
   35.28000     -7.0255308E-09
   35.34000     -6.5996373E-09
   35.40000     -6.2851151E-09
   35.46000     -6.1073915E-09
   35.52000     -6.0845369E-09
   35.58000     -6.2243224E-09
   35.64000     -6.5232868E-09
   35.70000     -6.9682895E-09
   35.76000     -7.5402502E-09
   35.82000     -8.2190441E-09
   35.88000     -8.9881027E-09
   35.94000     -9.8373301E-09
   36.00000     -1.0763371E-08
   36.06000     -1.1767089E-08
   36.12000     -1.2848969E-08
   36.18000     -1.4003939E-08
   36.24000     -1.5217539E-08
   36.30000     -1.6465187E-08
   36.36000     -1.7715468E-08
   36.42000     -1.8937047E-08
   36.48000     -2.0107258E-08
   36.54000     -2.1219435E-08
   36.60000     -2.2285986E-08
   36.66000     -2.3335323E-08
   36.72000     -2.4402768E-08
   36.78000     -2.5517922E-08
   36.84000     -2.6692428E-08
   36.90000     -2.7912456E-08
   36.96000     -2.9138834E-08
   37.02000     -3.0315409E-08
   37.08000     -3.1383461E-08
   37.14000     -3.2297905E-08
   37.20000     -3.3040198E-08
   37.26000     -3.3623735E-08
   37.32000     -3.4089688E-08
   37.38000     -3.4494061E-08
   37.44000     -3.4889759E-08
   37.50000     -3.5309032E-08
   37.56000     -3.5752105E-08
   37.62000     -3.6185927E-08
   37.68000     -3.6554052E-08
   37.74000     -3.6794809E-08
   37.80000     -3.6861920E-08
   37.86000     -3.6740644E-08
   37.92000     -3.6453581E-08
   37.98000     -3.6053741E-08
   38.04000     -3.5606892E-08
   38.10000     -3.5168981E-08
   38.16000     -3.4766312E-08
   38.22000     -3.4385490E-08
   38.28000     -3.3976761E-08
   38.34000     -3.3469998E-08
   38.40000     -3.2798283E-08
   38.46000     -3.1921434E-08
   38.52000     -3.0841708E-08
   38.58000     -2.9606277E-08
   38.64000     -2.8295352E-08
   38.70000     -2.6999416E-08
   38.76000     -2.5792783E-08
   38.82000     -2.4712046E-08
   38.88000     -2.3746765E-08
   38.94000     -2.2845660E-08
   39.00000     -2.1936495E-08
   39.06000     -2.0952994E-08
   39.12000     -1.9859598E-08
   39.18000     -1.8665464E-08
   39.24000     -1.7422877E-08
   39.30000     -1.6210638E-08
   39.36000     -1.5108302E-08
   39.42000     -1.4170249E-08
   39.48000     -1.3408552E-08
   39.54000     -1.2790366E-08
   39.60000     -1.2250593E-08
   39.66000     -1.1715295E-08
   39.72000     -1.1127804E-08
   39.78000     -1.0468554E-08
   39.84000     -9.7618695E-09
   39.90000     -9.0672163E-09
   39.96000     -8.4577616E-09
   40.02000     -7.9934264E-09
   40.08000     -7.6977313E-09
   40.14000     -7.5466220E-09
   40.20000     -7.4735063E-09
   40.26000     -7.3890871E-09
   40.32000     -7.2093238E-09
   40.38000     -6.8818693E-09
   40.44000     -6.4018186E-09
   40.50000     -5.8113723E-09
   40.56000     -5.1837223E-09
   40.62000     -4.5969237E-09
   40.68000     -4.1068096E-09
   40.74000     -3.7280175E-09
   40.80000     -3.4291154E-09
   40.86000     -3.1429146E-09
   40.92000     -2.7880458E-09
   40.98000     -2.2944353E-09
   41.04000     -1.6243861E-09
   41.10000     -7.8270623E-10
   41.16000      1.8695742E-10
   41.22000      1.2179184E-09
   41.28000      2.2428492E-09
   41.34000      3.2152272E-09
   41.40000      4.1227755E-09
   41.46000      4.9887330E-09
   41.52000      5.8610445E-09
   41.58000      6.7937456E-09
   41.64000      7.8273379E-09
   41.70000      8.9749683E-09
   41.76000      1.0218790E-08
   41.82000      1.1517026E-08
   41.88000      1.2818482E-08
   41.94000      1.4078985E-08
   42.00000      1.5274015E-08
   42.06000      1.6403705E-08
   42.12000      1.7489212E-08
   42.18000      1.8562377E-08
   42.24000      1.9652582E-08
   42.30000      2.0775085E-08
   42.36000      2.1924384E-08
   42.42000      2.3074282E-08
   42.48000      2.4184159E-08
   42.54000      2.5209230E-08
   42.60000      2.6111458E-08
   42.66000      2.6868015E-08
   42.72000      2.7475147E-08
   42.78000      2.7946992E-08
   42.84000      2.8310387E-08
   42.90000      2.8597722E-08
   42.96000      2.8839981E-08
   43.02000      2.9061512E-08
   43.08000      2.9277158E-08
   43.14000      2.9491666E-08
   43.20000      2.9700864E-08
   43.26000      2.9894139E-08
   43.32000      3.0057823E-08
   43.38000      3.0179066E-08
   43.44000      3.0249655E-08
   43.50000      3.0268815E-08
   43.56000      3.0244252E-08
   43.62000      3.0190762E-08
   43.68000      3.0126451E-08
   43.74000      3.0067511E-08
   43.80000      3.0022878E-08
   43.86000      2.9990506E-08
   43.92000      2.9956638E-08
   43.98000      2.9898658E-08
   44.04000      2.9791209E-08
   44.10000      2.9614002E-08
   44.16000      2.9359082E-08
   44.22000      2.9034977E-08
   44.28000      2.8665911E-08
   44.34000      2.8285582E-08
   44.40000      2.7926955E-08
   44.46000      2.7611083E-08
   44.52000      2.7338755E-08
   44.58000      2.7088179E-08
   44.64000      2.6820054E-08
   44.70000      2.6488923E-08
   44.76000      2.6057359E-08
   44.82000      2.5508410E-08
   44.88000      2.4852039E-08
   44.94000      2.4123143E-08
   45.00000      2.3371465E-08
   45.06000      2.2646349E-08
   45.12000      2.1981187E-08
   45.18000      2.1382609E-08
   45.24000      2.0828161E-08
   45.30000      2.0273498E-08
   45.36000      1.9666981E-08
   45.42000      1.8966867E-08
   45.48000      1.8155294E-08
   45.54000      1.7244059E-08
   45.60000      1.6270057E-08
   45.66000      1.5281854E-08
   45.72000      1.4322137E-08
   45.78000      1.3412427E-08
   45.84000      1.2545607E-08
   45.90000      1.1689093E-08
   45.96000      1.0797534E-08
   46.02000      9.8305302E-09
   46.08000      8.7690664E-09
   46.14000      7.6248359E-09
   46.20000      6.4391950E-09
   46.26000      5.2720406E-09
   46.32000      4.1843489E-09
   46.38000      3.2201419E-09
   46.44000      2.3938131E-09
   46.50000      1.6868870E-09
   46.56000      1.0552001E-09
   46.62000      4.4409379E-10
   46.68000     -1.9337457E-10
   46.74000     -8.8111352E-10
   46.80000     -1.6124747E-09
   46.86000     -2.3527826E-09
   46.92000     -3.0508107E-09
   46.98000     -3.6551329E-09
   47.04000     -4.1297614E-09
   47.10000     -4.4638822E-09
   47.16000     -4.6726885E-09
   47.22000     -4.7894688E-09
   47.28000     -4.8520832E-09
   47.34000     -4.8887636E-09
   47.40000     -4.9081570E-09
   47.46000     -4.8968367E-09
   47.52000     -4.8247455E-09
   47.58000     -4.6562958E-09
   47.64000     -4.3630437E-09
   47.70000     -3.9335735E-09
   47.76000     -3.3774927E-09
   47.82000     -2.7226512E-09
   47.88000     -2.0070430E-09
   47.94000     -1.2684853E-09
   48.00000     -5.3557880E-10
   48.06000      1.7736022E-10
   48.12000      8.7031993E-10
   48.18000      1.5532556E-09
   48.24000      2.2393736E-09
   48.30000      2.9384712E-09
   48.36000      3.6523700E-09
   48.42000      4.3734878E-09
   48.48000      5.0864610E-09
   48.54000      5.7717733E-09
   48.60000      6.4099308E-09
   48.66000      6.9848221E-09
   48.72000      7.4854389E-09
   48.78000      7.9059088E-09
   48.84000      8.2444291E-09
   48.90000      8.5020408E-09
   48.96000      8.6820249E-09
   49.02000      8.7902325E-09
   49.08000      8.8359577E-09
   49.14000      8.8325178E-09
   49.20000      8.7966257E-09
   49.26000      8.7461194E-09
   49.32000      8.6964187E-09
   49.38000      8.6567953E-09
   49.44000      8.6279730E-09
   49.50000      8.6022087E-09
   49.56000      8.5661895E-09
   49.62000      8.5059702E-09
   49.68000      8.4122451E-09
   49.74000      8.2840534E-09
   49.80000      8.1294740E-09
   49.86000      7.9630000E-09
   49.92000      7.8005087E-09
   49.98000      7.6536244E-09
   50.04000      7.5255109E-09
   50.10000      7.4095321E-09
   50.16000      7.2911894E-09
   50.22000      7.1525816E-09
   50.28000      6.9777992E-09
   50.34000      6.7574266E-09
   50.40000      6.4906795E-09
   50.46000      6.1845227E-09
   50.52000      5.8500982E-09
   50.58000      5.4976770E-09
   50.64000      5.1318065E-09
   50.70000      4.7483444E-09
   50.76000      4.3344683E-09
   50.82000      3.8717567E-09
   50.88000      3.3413414E-09
   50.94000      2.7292750E-09
   51.00000      2.0300772E-09
   51.06000      1.2469966E-09
   51.12000      3.8876663E-10
   51.18000     -5.3599281E-10
   51.24000     -1.5245732E-09
   51.30000     -2.5838660E-09
   51.36000     -3.7303947E-09
   51.42000     -4.9865081E-09
   51.48000     -6.3739898E-09
   51.54000     -7.9072580E-09
   51.60000     -9.5884758E-09
   51.66000     -1.1406182E-08
   51.72000     -1.3337859E-08
   51.78000     -1.5355536E-08
   51.84000     -1.7432516E-08
   51.90000     -1.9548905E-08
   51.96000     -2.1693973E-08
   52.02000     -2.3864338E-08
   52.08000     -2.6058395E-08
   52.14000     -2.8268666E-08
   52.20000     -3.0474617E-08
   52.26000     -3.2638301E-08
   52.32000     -3.4704268E-08
   52.38000     -3.6603691E-08
   52.44000     -3.8261167E-08
   52.50000     -3.9601836E-08
   52.56000     -4.0556539E-08
   52.62000     -4.1063529E-08
   52.68000     -4.1066375E-08
   52.74000     -4.0508858E-08
   52.80000     -3.9328409E-08
   52.86000     -3.7449798E-08
   52.92000     -3.4780861E-08
   52.98000     -3.1211442E-08
   53.04000     -2.6616069E-08
   53.10000     -2.0859884E-08
   53.16000     -1.3806476E-08
   53.22000     -5.3256826E-09
   53.28000      4.7005644E-09
   53.34000      1.6375404E-08
   53.40000      2.9787204E-08
   53.46000      4.5011518E-08
   53.52000      6.2113251E-08
   53.58000      8.1147661E-08
   53.64000      1.0215953E-07
   53.70000      1.2518083E-07
   53.76000      1.5022731E-07
   53.82000      1.7729482E-07
   53.88000      2.0635545E-07
   53.94000      2.3735376E-07
   54.00000      2.7020312E-07
   54.06000      3.0478256E-07
   54.12000      3.4093492E-07
   54.18000      3.7846567E-07
   54.24000      4.1714316E-07
   54.30000      4.5669964E-07
   54.36000      4.9683229E-07
   54.42000      5.3720453E-07
   54.48000      5.7744751E-07
   54.54000      6.1716213E-07
   54.60000      6.5592099E-07
   54.66000      6.9327143E-07
   54.72000      7.2873718E-07
   54.78000      7.6182073E-07
   54.84000      7.9200515E-07
   54.90000      8.1875731E-07
   54.96000      8.4153294E-07
   55.02000      8.5978382E-07
   55.08000      8.7296741E-07
   55.14000      8.8055612E-07
   55.20000      8.8204655E-07
   55.26000      8.7696611E-07
   55.32000      8.6487802E-07
   55.38000      8.4538470E-07
   55.44000      8.1813147E-07
   55.50000      7.8281045E-07
   55.56000      7.3916658E-07