  -2.400000      0.0000000E+00
  -2.340000      0.0000000E+00
  -2.280000      0.0000000E+00
  -2.220000      0.0000000E+00
  -2.160000      0.0000000E+00
  -2.100000      0.0000000E+00
  -2.040000      0.0000000E+00
  -1.980000      0.0000000E+00
  -1.920000      8.7426234E-27
  -1.860000      9.4207101E-26
  -1.800000      4.6475237E-25
  -1.740000      1.2335990E-24
  -1.680000      9.4762419E-25
  -1.620000     -6.5372000E-24
  -1.560000     -3.3169875E-23
  -1.500000     -8.4642711E-23
  -1.440000     -1.2282706E-22
  -1.380000     -1.5001260E-23
  -1.320000      4.5942537E-22
  -1.260000      1.4242514E-21
  -1.200000      2.4888617E-21
  -1.140000      2.3167776E-21
  -1.080000     -1.2097947E-21
  -1.020000     -9.5171419E-21
 -0.9600000     -2.0578405E-20
 -0.9000000     -2.6548336E-20
 -0.8400000     -1.5066739E-20
 -0.7800000      2.3052835E-20
 -0.7200000      8.1375062E-20
 -0.6600000      1.2917874E-19
 -0.6000000      1.1920309E-19
 -0.5400000      1.8432697E-20
 -0.4800000     -1.5002863E-19
 -0.4200000     -2.8792702E-19
 -0.3600000     -2.6429938E-19
 -0.3000000     -2.5974710E-20
 -0.2400000      2.8277443E-19
 -0.1800000      3.0894943E-19
 -0.1200000     -3.0750765E-19
 -5.9999999E-02 -1.5416978E-18
  0.0000000E+00 -2.6287889E-18
  5.9999999E-02 -2.1193348E-18
  0.1200000      1.3718032E-18
  0.1800000      7.8480382E-18
  0.2400000      1.4752052E-17
  0.3000000      1.7002109E-17
  0.3600000      9.0404331E-18
  0.4200000     -1.1395387E-17
  0.4800000     -3.9550374E-17
  0.5400000     -6.2695771E-17
  0.6000000     -6.4066773E-17
  0.6600000     -3.1399925E-17
  0.7200000      3.3549069E-17
  0.7800000      1.1034121E-16
  0.8400000      1.6493052E-16
  0.9000000      1.6466602E-16
  0.9600000      9.6828022E-17
   1.020000     -2.0196847E-17
   1.080000     -1.4248677E-16
   1.140000     -2.2365725E-16
   1.200000     -2.4401804E-16
   1.260000     -2.2611198E-16
   1.320000     -2.1995407E-16
   1.380000     -2.5779236E-16
   1.440000     -3.0166459E-16
   1.500000     -2.2348739E-16
   1.560000      1.4764187E-16
   1.620000      9.0833336E-16
   1.680000      1.9399710E-15
   1.740000      2.8295167E-15
   1.800000      2.9387200E-15
   1.860000      1.6548968E-15
   1.920000     -1.2398729E-15
   1.980000     -5.2413624E-15
   2.040000     -9.0388614E-15
   2.100000     -1.0817042E-14
   2.160000     -8.9302006E-15
   2.220000     -2.7349358E-15
   2.280000      6.7802650E-15
   2.340000      1.6931979E-14
   2.400000      2.4026273E-14
   2.460000      2.4654148E-14
   2.520000      1.7141038E-14
   2.580000      2.5310702E-15
   2.640000     -1.5405684E-14
   2.700000     -3.1283183E-14
   2.760000     -3.9973396E-14
   2.820000     -3.8502069E-14
   2.880000     -2.7146467E-14
   2.940000     -9.2258303E-15
   3.000000      1.0337887E-14
   3.060000      2.7016317E-14
   3.120000      3.8256257E-14
   3.180000      4.3858041E-14
   3.240000      4.4982162E-14
   3.300000      4.2388358E-14
   3.360000      3.5033818E-14
   3.420000      2.0102694E-14
   3.480000     -5.1541273E-15
   3.540000     -4.0447809E-14
   3.600000     -7.9928021E-14
   3.660000     -1.1189506E-13
   3.720000     -1.2178652E-13
   3.780000     -9.7961014E-14
   3.840000     -3.8156063E-14
   3.900000      4.6442291E-14
   3.960000      1.3216629E-13
   4.020000      1.8967186E-13
   4.080000      1.9474099E-13
   4.140000      1.3896301E-13
   4.200000      3.5468898E-14
   4.260000     -8.3618191E-14
   4.320000     -1.7802985E-13
   4.380000     -2.1469492E-13
   4.440000     -1.8126143E-13
   4.500000     -9.1669829E-14
   4.560000      1.9226284E-14
   4.620000      1.1014642E-13
   4.680000      1.5077046E-13
   4.740000      1.3415003E-13
   4.800000      7.8328111E-14
   4.860000      1.6373487E-14
   4.920000     -2.0326102E-14
   4.980000     -1.7251466E-14
   5.040000      1.7169343E-14
   5.100000      5.7573975E-14
   5.160000      7.6446363E-14
   5.220000      5.9590848E-14
   5.280000      1.3644169E-14
   5.340000     -3.8922041E-14
   5.400000     -7.5017927E-14
   5.460000     -8.8051636E-14
   5.520000     -9.6715496E-14
   5.580000     -1.3872833E-13
   5.640000     -2.5027940E-13
   5.700000     -4.3969369E-13
   5.760000     -6.6795495E-13
   5.820000     -8.4690707E-13
   5.880000     -8.5883769E-13
   5.940000     -5.9201320E-13
   6.000000      2.0110380E-14
   6.060000      9.6963442E-13
   6.120000      2.1639782E-12
   6.180000      3.4355940E-12
   6.240000      4.5650146E-12
   6.300000      5.3071449E-12
   6.360000      5.4126187E-12
   6.420000      4.6417392E-12
   6.480000      2.7743996E-12
   6.540000     -3.7799069E-13
   6.600000     -4.9548490E-12
   6.660000     -1.1025169E-11
   6.720000     -1.8570817E-11
   6.780000     -2.7484889E-11
   6.840000     -3.7592353E-11
   6.900000     -4.8692078E-11
   6.960000     -6.0610086E-11
   7.020000     -7.3247325E-11
   7.080000     -8.6605105E-11
   7.140000     -1.0077703E-10
   7.200000     -1.1590624E-10
   7.260000     -1.3211639E-10
   7.320000     -1.4943111E-10
   7.380000     -1.6769895E-10
   7.440000     -1.8653784E-10
   7.500000     -2.0530973E-10
   7.560000     -2.2313140E-10
   7.620000     -2.3892327E-10
   7.680000     -2.5149338E-10
   7.740000     -2.5964819E-10
   7.800000     -2.6231642E-10
   7.860000     -2.5866609E-10
   7.920000     -2.4819538E-10
   7.980000     -2.3078155E-10
   8.040000     -2.0668053E-10
   8.100000     -1.7648051E-10
   8.160000     -1.4102138E-10
   8.220000     -1.0129559E-10
   8.280000     -5.8345509E-11
   8.340000     -1.3168738E-11
   8.400000      3.3360162E-11
   8.460000      8.0544543E-11
   8.520000      1.2789014E-10
   8.580000      1.7509370E-10
   8.640000      2.2199506E-10
   8.700000      2.6850178E-10
   8.760000      3.1450625E-10
   8.820000      3.5982151E-10
   8.880000      4.0416037E-10
   8.940000      4.4717066E-10
   9.000000      4.8851867E-10
   9.060000      5.2799587E-10
   9.120000      5.6561023E-10
   9.180000      6.0162897E-10
   9.240000      6.3655603E-10
   9.300000      6.7104755E-10
   9.360000      7.0579093E-10
   9.420000      7.4138140E-10
   9.480000      7.7822182E-10
   9.540000      8.1645757E-10
   9.600000      8.5593815E-10
   9.660000      8.9618968E-10
   9.720000      9.3638808E-10
   9.780000      9.7533692E-10
   9.840000      1.0114760E-09
   9.900000      1.0429544E-09
   9.960000      1.0677902E-09
   10.02000      1.0841174E-09
   10.08000      1.0904740E-09
   10.14000      1.0860663E-09
   10.20000      1.0709312E-09
   10.26000      1.0459453E-09
   10.32000      1.0126763E-09
   10.38000      9.7311581E-10
   10.44000      9.2937624E-10
   10.50000      8.8343094E-10
   10.56000      8.3695528E-10
   10.62000      7.9128371E-10
   10.68000      7.4745349E-10
   10.74000      7.0628631E-10
   10.80000      6.6845951E-10
   10.86000      6.3453881E-10
   10.92000      6.0497346E-10
   10.98000      5.8006910E-10
   11.04000      5.5996319E-10
   11.10000      5.4461669E-10
   11.16000      5.3382992E-10
   11.22000      5.2727744E-10
   11.28000      5.2455446E-10
   11.34000      5.2522509E-10
   11.40000      5.2886007E-10
   11.46000      5.3505245E-10
   11.52000      5.4340737E-10
   11.58000      5.5351335E-10
   11.64000      5.6492205E-10
   11.70000      5.7717092E-10
   11.76000      5.8987254E-10
   11.82000      6.0286098E-10
   11.88000      6.1634120E-10
   11.94000      6.3095629E-10
   12.00000      6.4769162E-10
   12.06000      6.6759104E-10
   12.12000      6.9134010E-10
   12.18000      7.1885037E-10
   12.24000      7.4900586E-10
   12.30000      7.7969298E-10
   12.36000      8.0813428E-10
   12.42000      8.3143215E-10
   12.48000      8.4714946E-10
   12.54000      8.5375013E-10
   12.60000      8.5078883E-10
   12.66000      8.3884372E-10
   12.72000      8.1927598E-10
   12.78000      7.9393192E-10
   12.84000      7.6488416E-10
   12.90000      7.3424372E-10
   12.96000      7.0402661E-10
   13.02000      6.7604106E-10
   13.08000      6.5178352E-10
   13.14000      6.3236683E-10
   13.20000      6.1851962E-10
   13.26000      6.1067318E-10
   13.32000      6.0910615E-10
   13.38000      6.1407129E-10
   13.44000      6.2582040E-10
   13.50000      6.4448030E-10
   13.56000      6.6980210E-10
   13.62000      7.0086370E-10
   13.68000      7.3583012E-10
   13.74000      7.7184653E-10
   13.80000      8.0508145E-10
   13.86000      8.3088664E-10
   13.92000      8.4401874E-10
   13.98000      8.3888885E-10
   14.04000      8.0984441E-10
   14.10000      7.5151396E-10
   14.16000      6.5923345E-10
   14.22000      5.2952942E-10
   14.28000      3.6057907E-10
   14.34000      1.5253579E-10
   14.40000     -9.2378799E-11
   14.46000     -3.7006539E-10
   14.52000     -6.7500183E-10
   14.58000     -1.0008897E-09
   14.64000     -1.3413914E-09
   14.70000     -1.6908570E-09
   14.76000     -2.0449413E-09
   14.82000     -2.4010127E-09
   14.88000     -2.7582632E-09
   14.94000     -3.1174374E-09
   15.00000     -3.4801595E-09
   15.06000     -3.8479246E-09
   15.12000     -4.2209298E-09
   15.18000     -4.5969824E-09
   15.24000     -4.9707451E-09
   15.30000     -5.3334999E-09
   15.36000     -5.6734684E-09
   15.42000     -5.9766312E-09
   15.48000     -6.2278653E-09
   15.54000     -6.4122228E-09
   15.60000     -6.5162076E-09
   15.66000     -6.5289694E-09
   15.72000     -6.4433561E-09
   15.78000     -6.2567844E-09
   15.84000     -5.9718426E-09
   15.90000     -5.5965304E-09
   15.96000     -5.1440416E-09
   16.02000     -4.6320707E-09
   16.08000     -4.0816697E-09
   16.14000     -3.5157919E-09
   16.20000     -2.9576670E-09
   16.26000     -2.4291722E-09
   16.32000     -1.9493511E-09
   16.38000     -1.5332045E-09
   16.44000     -1.1908711E-09
   16.50000     -9.2728714E-10
   16.56000     -7.4236256E-10
   16.62000     -6.3163064E-10
   16.68000     -5.8723398E-10
   16.74000     -5.9903760E-10
   16.80000     -6.5565525E-10
   16.86000     -7.4524414E-10
   16.92000     -8.5604041E-10
   16.98000     -9.7672070E-10
   17.04000     -1.0967347E-09
   17.10000     -1.2067147E-09
   17.16000     -1.2989803E-09
   17.22000     -1.3680325E-09
   17.28000     -1.4108794E-09
   17.34000     -1.4270449E-09
   17.40000     -1.4182183E-09
   17.46000     -1.3876237E-09
   17.52000     -1.3392878E-09
   17.58000     -1.2774097E-09
   17.64000     -1.2059755E-09
   17.70000     -1.1286522E-09
   17.76000     -1.0488818E-09
   17.82000     -9.7002484E-10
   17.88000     -8.9540081E-10
   17.94000     -8.2813134E-10
   18.00000     -7.7079448E-10
   18.06000     -7.2500106E-10
   18.12000     -6.9106881E-10
   18.18000     -6.6797595E-10
   18.24000     -6.5370709E-10
   18.30000     -6.4596917E-10
   18.36000     -6.4310846E-10
   18.42000     -6.4494093E-10
   18.48000     -6.5319045E-10
   18.54000     -6.7131956E-10
   18.60000     -7.0373474E-10
   18.66000     -7.5456247E-10
   18.72000     -8.2635249E-10
   18.78000     -9.1908497E-10
   18.84000     -1.0297375E-09
   18.90000     -1.1524542E-09
   18.96000     -1.2791500E-09
   19.02000     -1.4002832E-09
   19.08000     -1.5055582E-09
   19.14000     -1.5844622E-09
   19.20000     -1.6267020E-09
   19.26000     -1.6226928E-09
   19.32000     -1.5642232E-09
   19.38000     -1.4453021E-09
   19.44000     -1.2630486E-09
   19.50000     -1.0184033E-09
   19.56000     -7.1645467E-10
   19.62000     -3.6626976E-10
   19.68000      1.9757964E-11
   19.74000      4.2693279E-10
   19.80000      8.3950447E-10
   19.86000      1.2419900E-09
   19.92000      1.6204347E-09
   19.98000      1.9634880E-09
   20.04000      2.2631701E-09
   20.10000      2.5152416E-09
   20.16000      2.7191431E-09
   20.22000      2.8775644E-09
   20.28000      2.9957734E-09
   20.34000      3.0808509E-09
   20.40000      3.1409269E-09
   20.46000      3.1844380E-09
   20.52000      3.2193586E-09
   20.58000      3.2523788E-09
   20.64000      3.2880751E-09
   20.70000      3.3282186E-09
   20.76000      3.3714183E-09
   20.82000      3.4132466E-09
   20.88000      3.4468679E-09
   20.94000      3.4640320E-09
   21.00000      3.4562038E-09
   21.06000      3.4155945E-09
   21.12000      3.3359486E-09
   21.18000      3.2130671E-09
   21.24000      3.0451215E-09
   21.30000      2.8328486E-09
   21.36000      2.5796649E-09
   21.42000      2.2917013E-09
   21.48000      1.9777227E-09
   21.54000      1.6489106E-09
   21.60000      1.3184984E-09
   21.66000      1.0012592E-09
   21.72000      7.1283274E-10
   21.78000      4.6887982E-10
   21.84000      2.8407499E-10
   21.90000      1.7102854E-10
   21.96000      1.3931317E-10
   22.02000      1.9481193E-10
   22.08000      3.3955741E-10
   22.14000      5.7208394E-10
   22.20000      8.8812729E-10
   22.26000      1.2813629E-09
   22.32000      1.7438532E-09
   22.38000      2.2660069E-09
   22.44000      2.8360776E-09
   22.50000      3.4394656E-09
   22.56000      4.0582275E-09
   22.62000      4.6711826E-09
   22.68000      5.2548152E-09
   22.74000      5.7849223E-09
   22.80000      6.2386736E-09
   22.86000      6.5965904E-09
   22.92000      6.8439538E-09
   22.98000      6.9713368E-09
   23.04000      6.9742523E-09
   23.10000      6.8522259E-09
   23.16000      6.6078023E-09
   23.22000      6.2459558E-09
   23.28000      5.7741469E-09
   23.34000      5.2028999E-09
   23.40000      4.5464441E-09
   23.46000      3.8228412E-09
   23.52000      3.0531937E-09
   23.58000      2.2599269E-09
   23.64000      1.4645474E-09
   23.70000      6.8556538E-10
   23.76000     -6.2775125E-11
   23.82000     -7.7063078E-10
   23.88000     -1.4316747E-09
   23.94000     -2.0416768E-09
   24.00000     -2.5971654E-09
   24.06000     -3.0946536E-09
   24.12000     -3.5306280E-09
   24.18000     -3.9021746E-09
   24.24000     -4.2079233E-09
   24.30000     -4.4489150E-09
   24.36000     -4.6290523E-09
   24.42000     -4.7549071E-09
   24.48000     -4.8348432E-09
   24.54000     -4.8775810E-09
   24.60000     -4.8905791E-09
   24.66000     -4.8787512E-09
   24.72000     -4.8440332E-09
   24.78000     -4.7861035E-09
   24.84000     -4.7040967E-09
   24.90000     -4.5987076E-09
   24.96000     -4.4738164E-09
   25.02000     -4.3368935E-09
   25.08000     -4.1979260E-09
   25.14000     -4.0672861E-09
   25.20000     -3.9534056E-09
   25.26000     -3.8612171E-09
   25.32000     -3.7918837E-09
   25.38000     -3.7436969E-09
   25.44000     -3.7134988E-09
   25.50000     -3.6977967E-09
   25.56000     -3.6930790E-09
   25.62000     -3.6953691E-09
   25.68000     -3.6995369E-09
   25.74000     -3.6990164E-09
   25.80000     -3.6863228E-09
   25.86000     -3.6542822E-09
   25.92000     -3.5974865E-09
   25.98000     -3.5133552E-09
   26.04000     -3.4023884E-09
   26.10000     -3.2675576E-09
   26.16000     -3.1131284E-09
   26.22000     -2.9433636E-09
   26.28000     -2.7614999E-09
   26.34000     -2.5692386E-09
   26.40000     -2.3667834E-09
   26.46000     -2.1533455E-09
   26.52000     -1.9279440E-09
   26.58000     -1.6902884E-09
   26.64000     -1.4415057E-09
   26.70000     -1.1844996E-09
   26.76000     -9.2383590E-10
   26.82000     -6.6520700E-10
   26.88000     -4.1469106E-10
   26.94000     -1.7807571E-10
   27.00000      3.9547914E-11
   27.06000      2.3388408E-10
   27.12000      4.0134737E-10
   27.18000      5.3897820E-10
   27.24000      6.4448147E-10
   27.30000      7.1638229E-10
   27.36000      7.5419532E-10
   27.42000      7.5850060E-10
   27.48000      7.3088996E-10
   27.54000      6.7382250E-10
   27.60000      5.9043159E-10
   27.66000      4.8426363E-10
   27.72000      3.5886596E-10
   27.78000      2.1716805E-10
   27.84000      6.0737387E-11
   27.90000     -1.1082775E-10
   27.96000     -3.0001993E-10
   28.02000     -5.1080795E-10
   28.08000     -7.4730688E-10
   28.14000     -1.0120680E-09
   28.20000     -1.3045228E-09
   28.26000     -1.6200808E-09
   28.32000     -1.9501549E-09
   28.38000     -2.2830875E-09
   28.44000     -2.6057110E-09
   28.50000     -2.9051939E-09
   28.56000     -3.1708201E-09
   28.62000     -3.3954168E-09
   28.68000     -3.5761780E-09
   28.74000     -3.7146859E-09
   28.80000     -3.8160821E-09
   28.86000     -3.8875720E-09
   28.92000     -3.9367083E-09
   28.98000     -3.9700416E-09
   29.04000     -3.9925889E-09
   29.10000     -4.0082040E-09
   29.16000     -4.0204640E-09
   29.22000     -4.0333958E-09
   29.28000     -4.0514370E-09
   29.34000     -4.0784411E-09
   29.40000     -4.1161088E-09
   29.46000     -4.1625983E-09
   29.52000     -4.2120867E-09
   29.58000     -4.2556225E-09
   29.64000     -4.2830459E-09
   29.70000     -4.2852388E-09
   29.76000     -4.2558712E-09
   29.82000     -4.1920529E-09
   29.88000     -4.0937982E-09
   29.94000     -3.9626951E-09
   30.00000     -3.8004084E-09
   30.06000     -3.6076468E-09
   30.12000     -3.3839163E-09
   30.18000     -3.1280878E-09
   30.24000     -2.8394826E-09
   30.30000     -2.5190707E-09
   30.36000     -2.1703792E-09
   30.42000     -1.7998572E-09
   30.48000     -1.4166298E-09
   30.54000     -1.0317511E-09
   30.60000     -6.5714784E-10
   30.66000     -3.0445116E-10
   30.72000      1.6161210E-11
   30.78000      2.9705427E-10
   30.84000      5.3409244E-10
   30.90000      7.2732326E-10
   30.96000      8.8115260E-10
   31.02000      1.0037746E-09
   31.08000      1.1057806E-09
   31.14000      1.1981723E-09
   31.20000      1.2903045E-09
   31.26000      1.3884001E-09
   31.32000      1.4951121E-09
   31.38000      1.6101744E-09
   31.44000      1.7317032E-09
   31.50000      1.8574178E-09
   31.56000      1.9851156E-09
   31.62000      2.1121414E-09
   31.68000      2.2341409E-09
   31.74000      2.3437943E-09
   31.80000      2.4303060E-09
   31.86000      2.4801361E-09
   31.92000      2.4789535E-09
   31.98000      2.4142970E-09
   32.04000      2.2781594E-09
   32.10000      2.0687352E-09
   32.16000      1.7908688E-09
   32.22000      1.4551594E-09
   32.28000      1.0760802E-09
   32.34000      6.6971639E-10
   32.40000      2.5177344E-10
   32.46000     -1.6367716E-10
   32.52000     -5.6456961E-10
   32.58000     -9.4054209E-10
   32.64000     -1.2824103E-09
   32.70000     -1.5818898E-09
   32.76000     -1.8318469E-09
   32.82000     -2.0270274E-09
   32.88000     -2.1649389E-09
   32.94000     -2.2464559E-09
   33.00000     -2.2758495E-09
   33.06000     -2.2601876E-09
   33.12000     -2.2082911E-09
   33.18000     -2.1295141E-09
   33.24000     -2.0325601E-09
   33.30000     -1.9244162E-09
   33.36000     -1.8094516E-09
   33.42000     -1.6887729E-09
   33.48000     -1.5600548E-09
   33.54000     -1.4180586E-09
   33.60000     -1.2558727E-09
   33.66000     -1.0665839E-09
   33.72000     -8.4479351E-10
   33.78000     -5.8737087E-10
   33.84000     -2.9314948E-10
   33.90000      3.8202386E-11
   33.96000      4.0744164E-10
   34.02000      8.1633744E-10
   34.08000      1.2671278E-09
   34.14000      1.7610146E-09
   34.20000      2.2964317E-09
   34.26000      2.8680109E-09
   34.32000      3.4668546E-09
   34.38000      4.0821031E-09
   34.44000      4.7031752E-09
   34.50000      5.3217870E-09
   34.56000      5.9330332E-09
   34.62000      6.5352812E-09
   34.68000      7.1291115E-09
   34.74000      7.7158289E-09
   34.80000      8.2960145E-09
   34.86000      8.8684304E-09
   34.92000      9.4293657E-09
   34.98000      9.9724611E-09
   35.04000      1.0489030E-08
   35.10000      1.0968907E-08
   35.16000      1.1401689E-08
   35.22000      1.1778045E-08
   35.28000      1.2090629E-08
   35.34000      1.2334218E-08
   35.40000      1.2505017E-08
   35.46000      1.2599544E-08
   35.52000      1.2613758E-08
   35.58000      1.2543095E-08
   35.64000      1.2383557E-08
   35.70000      1.2133491E-08
   35.76000      1.1795148E-08
   35.82000      1.1375187E-08
   35.88000      1.0883635E-08
   35.94000      1.0331597E-08
   36.00000      9.7285477E-09
   36.06000      9.0803356E-09
   36.12000      8.3887031E-09
   36.18000      7.6525311E-09
   36.24000      6.8702519E-09
   36.30000      6.0423861E-09
   36.36000      5.1730993E-09
   36.42000      4.2700536E-09
   36.48000      3.3425427E-09
   36.54000      2.3986302E-09
   36.60000      1.4424913E-09
   36.66000      4.7319393E-10
   36.72000     -5.1436044E-10
   36.78000     -1.5264671E-09
   36.84000     -2.5666391E-09
   36.90000     -3.6321717E-09
   36.96000     -4.7126800E-09
   37.02000     -5.7913012E-09
   37.08000     -6.8481398E-09
   37.14000     -7.8646041E-09
   37.20000     -8.8269196E-09
   37.26000     -9.7275619E-09
   37.32000     -1.0564304E-08
   37.38000     -1.1337677E-08
   37.44000     -1.2048240E-08
   37.50000     -1.2694950E-08
   37.56000     -1.3275272E-08
   37.62000     -1.3786743E-08
   37.68000     -1.4229056E-08
   37.74000     -1.4605636E-08
   37.80000     -1.4923968E-08
   37.86000     -1.5194564E-08
   37.92000     -1.5428864E-08
   37.98000     -1.5636692E-08
   38.04000     -1.5823868E-08
   38.10000     -1.5990535E-08
   38.16000     -1.6130631E-08
   38.22000     -1.6232764E-08
   38.28000     -1.6282492E-08
   38.34000     -1.6265487E-08
   38.40000     -1.6170754E-08
   38.46000     -1.5992848E-08
   38.52000     -1.5732301E-08
   38.58000     -1.5394138E-08
   38.64000     -1.4985122E-08
   38.70000     -1.4510956E-08
   38.76000     -1.3974621E-08
   38.82000     -1.3376540E-08
   38.88000     -1.2716344E-08
   38.94000     -1.1995362E-08
   39.00000     -1.1218616E-08
   39.06000     -1.0395412E-08
   39.12000     -9.5382831E-09
   39.18000     -8.6607219E-09
   39.24000     -7.7746209E-09
   39.30000     -6.8883454E-09
   39.36000     -6.0060596E-09
   39.42000     -5.1284008E-09
   39.48000     -4.2541304E-09
   39.54000     -3.3820946E-09
   39.60000     -2.5128151E-09
   39.66000     -1.6492449E-09
   39.72000     -7.9658663E-10
   39.78000      3.8588140E-11
   39.84000      8.4945584E-10
   39.90000      1.6298252E-09
   39.96000      2.3745019E-09
   40.02000      3.0791139E-09
   40.08000      3.7395935E-09
   40.14000      4.3515880E-09
   40.20000      4.9100088E-09
   40.26000      5.4088054E-09
   40.32000      5.8409739E-09
   40.38000      6.1988032E-09
   40.44000      6.4743908E-09
   40.50000      6.6604473E-09
   40.56000      6.7512809E-09
   40.62000      6.7437123E-09
   40.68000      6.6375940E-09
   40.74000      6.4357129E-09
   40.80000      6.1431145E-09
   40.86000      5.7661595E-09
   40.92000      5.3117311E-09
   40.98000      4.7868678E-09
   41.04000      4.1987982E-09
   41.10000      3.5550851E-09
   41.16000      2.8635452E-09
   41.22000      2.1318491E-09
   41.28000      1.3670243E-09
   41.34000      5.7528576E-10
   41.40000     -2.3750049E-10
   41.46000     -1.0647720E-09
   41.52000     -1.8980837E-09
   41.58000     -2.7263700E-09
   41.64000     -3.5360561E-09
   41.70000     -4.3119845E-09
   41.76000     -5.0387583E-09
   41.82000     -5.7019656E-09
   41.88000     -6.2889787E-09
   41.94000     -6.7893229E-09
   42.00000     -7.1948767E-09
   42.06000     -7.5001294E-09
   42.12000     -7.7025195E-09
   42.18000     -7.8026341E-09
   42.24000     -7.8040348E-09
   42.30000     -7.7126172E-09
   42.36000     -7.5356965E-09
   42.42000     -7.2811601E-09
   42.48000     -6.9569079E-09
   42.54000     -6.5705783E-09
   42.60000     -6.1293002E-09
   42.66000     -5.6392224E-09
   42.72000     -5.1047411E-09
   42.78000     -4.5276787E-09
   42.84000     -3.9068251E-09
   42.90000     -3.2381884E-09
   42.96000     -2.5160152E-09
   43.02000     -1.7343164E-09
   43.08000     -8.8847646E-10
   43.14000      2.3446406E-11
   43.20000      9.9993369E-10
   43.26000      2.0357669E-09
   43.32000      3.1222906E-09
   43.38000      4.2481338E-09
   43.44000      5.4003197E-09
   43.50000      6.5655978E-09
   43.56000      7.7316500E-09
   43.62000      8.8877670E-09
   43.68000      1.0024721E-08
   43.74000      1.1133907E-08
   43.80000      1.2206252E-08
   43.86000      1.3231589E-08
   43.92000      1.4199078E-08
   43.98000      1.5098726E-08
   44.04000      1.5923524E-08
   44.10000      1.6671246E-08
   44.16000      1.7345037E-08
   44.22000      1.7952342E-08
   44.28000      1.8502400E-08
   44.34000      1.9003133E-08
   44.40000      1.9458470E-08
   44.46000      1.9866961E-08
   44.52000      2.0222066E-08
   44.58000      2.0513937E-08
   44.64000      2.0732065E-08
   44.70000      2.0867976E-08
   44.76000      2.0917247E-08
   44.82000      2.0880313E-08
   44.88000      2.0761901E-08
   44.94000      2.0569306E-08
   45.00000      2.0310045E-08
   45.06000      1.9989672E-08
   45.12000      1.9610468E-08
   45.18000      1.9171633E-08
   45.24000      1.8670988E-08
   45.30000      1.8107688E-08
   45.36000      1.7484934E-08
   45.42000      1.6811494E-08
   45.48000      1.6101183E-08
   45.54000      1.5370139E-08
   45.60000      1.4632723E-08
   45.66000      1.3897512E-08
   45.72000      1.3165026E-08
   45.78000      1.2428266E-08
   45.84000      1.1676023E-08
   45.90000      1.0897752E-08
   45.96000      1.0088044E-08
   46.02000      9.2488648E-09
   46.08000      8.3886471E-09
   46.14000      7.5187359E-09
   46.20000      6.6488024E-09
   46.26000      5.7833587E-09
   46.32000      4.9209250E-09
   46.38000      4.0561954E-09
   46.44000      3.1841692E-09
   46.50000      2.3043787E-09
   46.56000      1.4233138E-09
   46.62000      5.5401511E-10
   46.68000     -2.8697714E-10
   46.74000     -1.0840399E-09
   46.80000     -1.8265033E-09
   46.86000     -2.5108264E-09
   46.92000     -3.1402434E-09
   46.98000     -3.7221908E-09
   47.04000     -4.2645767E-09
   47.10000     -4.7722404E-09
   47.16000     -5.2447886E-09
   47.22000     -5.6764344E-09
   47.28000     -6.0578178E-09
   47.34000     -6.3791448E-09
   47.40000     -6.6335839E-09
   47.46000     -6.8197634E-09
   47.52000     -6.9424546E-09
   47.58000     -7.0111108E-09
   47.64000     -7.0366761E-09
   47.70000     -7.0277402E-09
   47.76000     -6.9874742E-09
   47.82000     -6.9125812E-09
   47.88000     -6.7947759E-09
   47.94000     -6.6243282E-09
   48.00000     -6.3943264E-09
   48.06000     -6.1039698E-09
   48.12000     -5.7595857E-09
   48.18000     -5.3730278E-09
   48.24000     -4.9582196E-09
   48.30000     -4.5273776E-09
   48.36000     -4.0884736E-09
   48.42000     -3.6448053E-09
   48.48000     -3.1965113E-09
   48.54000     -2.7429854E-09
   48.60000     -2.2848690E-09
   48.66000     -1.8247012E-09
   48.72000     -1.3661177E-09
   48.78000     -9.1225749E-10
   48.84000     -4.6435653E-10
   48.90000     -2.1291814E-11
   48.96000      4.1972398E-10
   49.02000      8.6166502E-10
   49.08000      1.3060876E-09
   49.14000      1.7519916E-09
   49.20000      2.1954660E-09
   49.26000      2.6301350E-09
   49.32000      3.0482199E-09
   49.38000      3.4419445E-09
   49.44000      3.8049599E-09
   49.50000      4.1334274E-09
   49.56000      4.4264516E-09
   49.62000      4.6857207E-09
   49.68000      4.9145354E-09
   49.74000      5.1167004E-09
   49.80000      5.2958740E-09
   49.86000      5.4557430E-09
   49.92000      5.6009748E-09
   49.98000      5.7384457E-09
   50.04000      5.8781278E-09
   50.10000      6.0332326E-09
   50.16000      6.2196528E-09
   50.22000      6.4550867E-09
   50.28000      6.7582802E-09
   50.34000      7.1485773E-09
   50.40000      7.6457054E-09
   50.46000      8.2696383E-09
   50.52000      9.0406020E-09
   50.58000      9.9794999E-09
   50.64000      1.1109107E-08
   50.70000      1.2455936E-08
   50.76000      1.4052177E-08
   50.82000      1.5936743E-08
   50.88000      1.8154681E-08
   50.94000      2.0754964E-08
   51.00000      2.3787644E-08
   51.06000      2.7301679E-08
   51.12000      3.1344467E-08
   51.18000      3.5963165E-08
   51.24000      4.1206949E-08
   51.30000      4.7128793E-08
   51.36000      5.3785861E-08
   51.42000      6.1238296E-08
   51.48000      6.9546978E-08
   51.54000      7.8771016E-08
   51.60000      8.8965542E-08
   51.66000      1.0017994E-07
   51.72000      1.1245616E-07
   51.78000      1.2582720E-07
   51.84000      1.4031571E-07
   51.90000      1.5593268E-07
   51.96000      1.7267614E-07
   52.02000      1.9052928E-07
   52.08000      2.0945744E-07
   52.14000      2.2940434E-07
   52.20000      2.5028780E-07
   52.26000      2.7199624E-07
   52.32000      2.9438667E-07
   52.38000      3.1728334E-07
   52.44000      3.4047710E-07
   52.50000      3.6372285E-07
   52.56000      3.8673630E-07
   52.62000      4.0918937E-07
   52.68000      4.3070651E-07
   52.74000      4.5086261E-07
   52.80000      4.6918271E-07
   52.86000      4.8514272E-07
   52.92000      4.9817027E-07
   52.98000      5.0764555E-07
   53.04000      5.1290232E-07
   53.10000      5.1323138E-07
   53.16000      5.0788611E-07
   53.22000      4.9609008E-07
   53.28000      4.7704594E-07
   53.34000      4.4994326E-07
   53.40000      4.1396615E-07
   53.46000      3.6830065E-07
   53.52000      3.1214475E-07
   53.58000      2.4472078E-07
   53.64000      1.6529025E-07
   53.70000      7.3169588E-08
   53.76000     -3.2255212E-08
   53.82000     -1.5151491E-07
   53.88000     -2.8504402E-07
   53.94000     -4.3316683E-07
   54.00000     -5.9608232E-07
   54.06000     -7.7384857E-07
   54.12000     -9.6636859E-07
   54.18000     -1.1733788E-06
   54.24000     -1.3944396E-06
   54.30000     -1.6289284E-06
   54.36000     -1.8760334E-06
   54.42000     -2.1347469E-06
   54.48000     -2.4038613E-06
   54.54000     -2.6819685E-06
   54.60000     -2.9674604E-06
   54.66000     -3.2585369E-06
   54.72000     -3.5532146E-06
   54.78000     -3.8493345E-06
   54.84000     -4.1445765E-06
   54.90000     -4.4364751E-06
   54.96000     -4.7224421E-06
   55.02000     -4.9997875E-06
   55.08000     -5.2657501E-06
   55.14000     -5.5175210E-06
   55.20000     -5.7522707E-06
   55.26000     -5.9671775E-06
   55.32000     -6.1594574E-06
   55.38000     -6.3264056E-06
   55.44000     -6.4654332E-06
   55.50000     -6.5741074E-06
   55.56000     -6.6501866E-06