 -0.750000000       0.00000000    
 -0.689999998       0.00000000    
 -0.629999995       0.00000000    
 -0.569999993       0.00000000    
 -0.509999990       0.00000000    
 -0.449999988       0.00000000    
 -0.389999986       0.00000000    
 -0.330000013       0.00000000    
 -0.270000011       8.74262417E-27
 -0.209999993       9.42070943E-26
 -0.150000006       4.64752127E-25
  -9.00000036E-02   1.23359791E-24
  -2.99999993E-02   9.47621825E-25
   2.99999993E-02  -6.53720236E-24
   9.00000036E-02  -3.31698750E-23
  0.150000006      -8.46427052E-23
  0.209999993      -1.22827031E-22
  0.270000011      -1.50012283E-23
  0.330000013       4.59425473E-22
  0.389999986       1.42425153E-21
  0.449999988       2.48886186E-21
  0.509999990       2.31677740E-21
  0.569999993      -1.20979496E-21
  0.629999995      -9.51714350E-21
  0.689999998      -2.05784086E-20
  0.750000000      -2.65483424E-20
  0.810000002      -1.50667459E-20
  0.870000005       2.30528370E-20
  0.930000007       8.13750883E-20
  0.990000010       1.29178780E-19
   1.04999995       1.19203124E-19
   1.11000001       1.84326989E-20
   1.16999996      -1.50028682E-19
   1.23000002      -2.87927044E-19
   1.28999996      -2.64299224E-19
   1.35000002      -2.59742596E-20
   1.40999997       2.82775105E-19
   1.47000003       3.08949348E-19
   1.52999997      -3.07509588E-19
   1.59000003      -1.54170212E-18
   1.64999998      -2.62879364E-18
   1.71000004      -2.11933723E-18
   1.76999998       1.37180894E-18
   1.83000004       7.84805556E-18
   1.88999999       1.47520813E-17
   1.95000005       1.70021367E-17
   2.00999999       9.04043807E-18
   2.06999993      -1.13954312E-17
   2.13000011      -3.95504763E-17
   2.19000006      -6.26959097E-17
   2.25000000      -6.40668457E-17
   2.30999994      -3.13998290E-17
   2.36999989       3.35493902E-17
   2.43000007       1.10341652E-16
   2.49000001       1.64930814E-16
   2.54999995       1.64665825E-16
   2.60999990       9.68271949E-17
   2.67000008      -2.01980399E-17
   2.73000002      -1.42487578E-16
   2.78999996      -2.23656667E-16
   2.84999990      -2.44015528E-16
   2.91000009      -2.26108219E-16
   2.97000003      -2.19951137E-16
   3.02999997      -2.57793286E-16
   3.08999991      -3.01671446E-16
   3.15000010      -2.23499040E-16
   3.21000004       1.47631331E-16
   3.26999998       9.08333145E-16
   3.32999992       1.93998899E-15
   3.39000010       2.82955189E-15
   3.45000005       2.93875900E-15
   3.50999999       1.65491381E-15
   3.56999993      -1.23990504E-15
   3.63000011      -5.24145216E-15
   3.69000006      -9.03898250E-15
   3.75000000      -1.08171291E-14
   3.80999994      -8.93017604E-15
   3.86999989      -2.73474921E-15
   3.93000007       6.78058472E-15
   3.99000001       1.69322987E-14
   4.05000019       2.40263843E-14
   4.11000013       2.46538646E-14
   4.17000008       1.71403283E-14
   4.23000002       2.53014840E-15
   4.28999996      -1.54063638E-14
   4.34999990      -3.12830850E-14
   4.40999985      -3.99722031E-14
   4.46999979      -3.84999683E-14
   4.53000021      -2.71442550E-14
   4.59000015      -9.22472666E-15
   4.65000010       1.03367742E-14
   4.71000004       2.70126583E-14
   4.76999998       3.82510084E-14
   4.82999992       4.38534198E-14
   4.88999987       4.49808851E-14
   4.94999981       4.23923659E-14
   5.01000023       3.50429321E-14
   5.07000017       2.01140018E-14
   5.13000011      -5.14565739E-15
   5.19000006      -4.04473885E-14
   5.25000000      -7.99383753E-14
   5.30999994      -1.11914350E-13
   5.36999989      -1.21807878E-13
   5.42999983      -9.79747289E-14
   5.48999977      -3.81535318E-14
   5.55000019       4.64639923E-14
   5.61000013       1.32201636E-13
   5.67000008       1.89707638E-13
   5.73000002       1.94760928E-13
   5.78999996       1.38954847E-13
   5.84999990       3.54309579E-14
   5.90999985      -8.36743394E-14
   5.96999979      -1.78082565E-13
   6.03000021      -2.14720779E-13
   6.09000015      -1.81245671E-13
   6.15000010      -9.16142840E-14
   6.21000004       1.93020852E-14
   6.26999998       1.10212159E-13
   6.32999992       1.50797750E-13
   6.38999987       1.34125485E-13
   6.44999981       7.82605927E-14
   6.51000023       1.62914827E-14
   6.57000017      -2.03866939E-14
   6.63000011      -1.72640002E-14
   6.69000006       1.72087245E-14
   6.75000000       5.76432077E-14
   6.80999994       7.65070380E-14
   6.86999989       5.96073551E-14
   6.92999983       1.36033745E-14
   6.98999977      -3.90005309E-14
   7.05000019      -7.50875937E-14
   7.11000013      -8.80605335E-14
   7.17000008      -9.66341333E-14
   7.23000002      -1.38570782E-13
   7.28999996      -2.50105682E-13
   7.34999990      -4.39588876E-13
   7.40999985      -6.67991758E-13
   7.46999979      -8.47108191E-13
   7.53000021      -8.59156659E-13
   7.59000015      -5.92344370E-13
   7.65000010       1.98923875E-14
   7.71000004       9.69623904E-13
   7.76999998       2.16419764E-12
   7.82999992       3.43598370E-12
   7.88999987       4.56545999E-12
   7.94999981       5.30752265E-12
   8.01000023       5.41284769E-12
   8.06999969       4.64179823E-12
   8.13000011       2.77431507E-12
   8.18999958      -3.78185981E-13
   8.25000000      -4.95515521E-12
   8.31000042      -1.10256197E-11
   8.36999989      -1.85714517E-11
   8.43000031      -2.74856891E-11
   8.48999977      -3.75931716E-11
   8.55000019      -4.86926471E-11
   8.60999966      -6.06100517E-11
   8.67000008      -7.32464020E-11
   8.72999954      -8.66031899E-11
   8.78999996      -1.00774333E-10
   8.85000038      -1.15903259E-10
   8.90999985      -1.32113862E-10
   8.97000027      -1.49429885E-10
   9.02999973      -1.67699743E-10
   9.09000015      -1.86540949E-10
   9.14999962      -2.05315001E-10
   9.21000004      -2.23138133E-10
   9.27000046      -2.38930320E-10
   9.32999992      -2.51499210E-10
   9.39000034      -2.59651328E-10
   9.44999981      -2.62315419E-10
   9.51000023      -2.58659982E-10
   9.56999969      -2.48183862E-10
   9.63000011      -2.30765240E-10
   9.68999958      -2.06661202E-10
   9.75000000      -1.76461235E-10
   9.81000042      -1.41006512E-10
   9.86999989      -1.01290365E-10
   9.93000031      -5.83550777E-11
   9.98999977      -1.31967293E-11
   10.0500002       3.33134111E-11
   10.1099997       8.04835226E-11
   10.1700001       1.27824890E-10
   10.2299995       1.75039025E-10
   10.2900000       2.21968180E-10
   10.3500004       2.68518513E-10
   10.4099998       3.14576448E-10
   10.4700003       3.59944685E-10
   10.5299997       4.04323269E-10
   10.5900002       4.47347187E-10
   10.6499996       4.88673324E-10
   10.7100000       5.28089683E-10
   10.7700005       5.65608727E-10
   10.8299999       6.01511008E-10
   10.8900003       6.36319997E-10
   10.9499998       6.70714706E-10
   11.0100002       7.05403680E-10
   11.0699997       7.40996542E-10
   11.1300001       7.77900466E-10
   11.1899996       8.16253232E-10
   11.2500000       8.55886195E-10
   11.3100004       8.96300034E-10
   11.3699999       9.36642097E-10
   11.4300003       9.75688530E-10
   11.4899998       1.01185582E-09
   11.5500002       1.04327502E-09
   11.6099997       1.06795373E-09
   11.6700001       1.08402176E-09
   11.7299995       1.09002096E-09
   11.7900000       1.08516818E-09
   11.8500004       1.06951814E-09
   11.9099998       1.04397158E-09
   11.9700003       1.01012287E-09
   12.0299997       9.69993419E-10
   12.0900002       9.25725940E-10
   12.1499996       8.79325390E-10
   12.2100000       8.32500235E-10
   12.2700005       7.86619103E-10
   12.3299999       7.42751749E-10
   12.3900003       7.01745273E-10
   12.4499998       6.64288347E-10
   12.5100002       6.30937302E-10
   12.5699997       6.02106920E-10
   12.6300001       5.78044612E-10
   12.6899996       5.58810553E-10
   12.7500000       5.44278789E-10
   12.8100004       5.34161604E-10
   12.8699999       5.28052546E-10
   12.9300003       5.25477495E-10
   12.9899998       5.25944455E-10
   13.0500002       5.28980415E-10
   13.1099997       5.34147282E-10
   13.1700001       5.41030665E-10
   13.2299995       5.49213786E-10
   13.2900000       5.58261604E-10
   13.3500004       5.67750014E-10
   13.4099998       5.77363268E-10
   13.4700003       5.87048965E-10
   13.5299997       5.97172922E-10
   13.5900002       6.08586070E-10
   13.6499996       6.22519980E-10
   13.7100000       6.40283881E-10
   13.7700005       6.62820132E-10
   13.8299999       6.90256519E-10
   13.8900003       7.21621318E-10
   13.9499998       7.54849738E-10
   14.0100002       7.87104992E-10
   14.0699997       8.15323031E-10
   14.1300001       8.36807179E-10
   14.1899996       8.49691928E-10
   14.2500000       8.53161819E-10
   14.3100004       8.47415749E-10
   14.3699999       8.33457081E-10
   14.4300003       8.12825751E-10
   14.4899998       7.87364285E-10
   14.5500002       7.59050989E-10
   14.6099997       7.29880212E-10
   14.6700001       7.01753045E-10
   14.7299995       6.76365519E-10
   14.7900000       6.55115073E-10
   14.8500004       6.39065911E-10
   14.9099998       6.28993913E-10
   14.9700003       6.25487384E-10
   15.0299997       6.29035823E-10
   15.0900002       6.40029696E-10
   15.1499996       6.58628763E-10
   15.2100000       6.84519552E-10
   15.2700005       7.16640081E-10
   15.3299999       7.52968021E-10
   15.3900003       7.90442323E-10
   15.4499998       8.25031432E-10
   15.5100002       8.51911319E-10
   15.5699997       8.65699734E-10
   15.6300001       8.60712668E-10
   15.6899996       8.31248792E-10
   15.7500000       7.71930075E-10
   15.8100004       6.78118839E-10
   15.8699999       5.46385104E-10
   15.9300003       3.74948739E-10
   15.9899998       1.63988115E-10
   16.0499992      -8.42795209E-11
   16.1100006      -3.65790981E-10
   16.1700001      -6.75084710E-10
   16.2299995      -1.00593178E-09
   16.2900009      -1.35205502E-09
   16.3500004      -1.70783554E-09
   16.4099998      -2.06891437E-09
   16.4699993      -2.43259324E-09
   16.5300007      -2.79794077E-09
   16.5900002      -3.16552873E-09
   16.6499996      -3.53676888E-09
   16.7099991      -3.91292554E-09
   16.7700005      -4.29396163E-09
   16.8299999      -4.67746730E-09
   16.8899994      -5.05791808E-09
   16.9500008      -5.42643264E-09
   17.0100002      -5.77109116E-09
   17.0699997      -6.07773432E-09
   17.1299992      -6.33108721E-09
   17.1900005      -6.51602372E-09
   17.2500000      -6.61884769E-09
   17.3099995      -6.62850308E-09
   17.3700008      -6.53765619E-09
   17.4300003      -6.34360608E-09
   17.4899998      -6.04892847E-09
   17.5499992      -5.66174263E-09
   17.6100006      -5.19550492E-09
   17.6700001      -4.66829331E-09
   17.7299995      -4.10163414E-09
   17.7900009      -3.51899709E-09
   17.8500004      -2.94412406E-09
   17.9099998      -2.39936671E-09
   17.9699993      -1.90418459E-09
   18.0300007      -1.47392887E-09
   18.0900002      -1.11901843E-09
   18.1499996      -8.44594950E-10
   18.2099991      -6.50693721E-10
   18.2700005      -5.32896671E-10
   18.3299999      -4.83333151E-10
   18.3899994      -4.91825802E-10
   18.4500008      -5.46957812E-10
   18.5100002      -6.36900033E-10
   18.5699997      -7.49952711E-10
   18.6299992      -8.74881889E-10
   18.6900005      -1.00119679E-09
   18.7500000      -1.11950060E-09
   18.8099995      -1.22195032E-09
   18.8700008      -1.30274258E-09
   18.9300003      -1.35846390E-09
   18.9899998      -1.38814815E-09
   19.0499992      -1.39297740E-09
   19.1100006      -1.37569267E-09
   19.1700001      -1.33989031E-09
   19.2299995      -1.28941424E-09
   19.2900009      -1.22799371E-09
   19.3500004      -1.15916354E-09
   19.4099998      -1.08638143E-09
   19.4699993      -1.01317665E-09
   19.5300007      -9.43169653E-10
   19.5900002      -8.79870898E-10
   19.6499996      -8.26274216E-10
   19.7099991      -7.84369347E-10
   19.7700005      -7.54759200E-10
   19.8299999      -7.36565420E-10
   19.8899994      -7.27731542E-10
   19.9500008      -7.25708049E-10
   20.0100002      -7.28358651E-10
   20.0699997      -7.34817818E-10
   20.1299992      -7.45999817E-10
   20.1900005      -7.64539432E-10
   20.2500000      -7.94117716E-10
   20.3099995      -8.38335346E-10
   20.3700008      -8.99460617E-10
   20.4300003      -9.77425696E-10
   20.4899998      -1.06934639E-09
   20.5499992      -1.16964549E-09
   20.6100006      -1.27064592E-09
   20.6700001      -1.36337408E-09
   20.7299995      -1.43831791E-09
   20.7900009      -1.48601242E-09
   20.8500004      -1.49747836E-09
   20.9099998      -1.46465118E-09
   20.9699993      -1.38093281E-09
   21.0300007      -1.24189103E-09
   21.0900002      -1.04600273E-09
   21.1499996      -7.95241262E-10
   21.2099991      -4.95315233E-10
   21.2700005      -1.55452790E-10
   21.3299999       2.12255324E-10
   21.3899994       5.93848304E-10
   21.4500008       9.74679892E-10
   21.5100002       1.34065459E-09
   21.5699997       1.67939562E-09
   21.6299992       1.98122674E-09
   21.6900005       2.23985008E-09
   21.7500000       2.45262388E-09
   21.8099995       2.62040922E-09
   21.8700008       2.74704126E-09
   21.9300003       2.83857382E-09
   21.9899998       2.90245761E-09
   22.0499992       2.94677505E-09
   22.1100006       2.97955483E-09
   22.1700001       3.00810954E-09
   22.2299995       3.03834091E-09
   22.2900009       3.07402792E-09
   22.3500004       3.11622261E-09
   22.4099998       3.16294413E-09
   22.4699993       3.20932414E-09
   22.5300007       3.24824012E-09
   22.5900002       3.27130434E-09
   22.6499996       3.26998073E-09
   22.7099991       3.23659077E-09
   22.7700005       3.16506887E-09
   22.8299999       3.05145065E-09
   22.8899994       2.89416291E-09
   22.9500008       2.69420530E-09
   23.0100002       2.45526044E-09
   23.0699997       2.18371632E-09
   23.1299992       1.88855775E-09
   23.1900005       1.58109981E-09
   23.2500000       1.27456878E-09
   23.3099995       9.83556347E-10
   23.3700008       7.23353266E-10
   23.4300003       5.09144837E-10
   23.4899998       3.55068697E-10
   23.5499992       2.73191081E-10
   23.6100006       2.72554118E-10
   23.6700001       3.58508390E-10
   23.7299995       5.32517641E-10
   23.7900009       7.92487576E-10
   23.8500004       1.13347753E-09
   23.9099998       1.54849000E-09
   23.9699993       2.02899364E-09
   24.0300007       2.56494670E-09
   24.0900002       3.14432658E-09
   24.1499996       3.75241527E-09
   24.2099991       4.37125669E-09
   24.2700005       4.97969088E-09
   24.3299999       5.55420065E-09
   24.3899994       6.07053297E-09
   24.4500008       6.50576837E-09
   24.5100002       6.84034962E-09
   24.5699997       7.05956671E-09
   24.6299992       7.15416748E-09
   24.6900005       7.12007742E-09
   24.7500000       6.95750835E-09
   24.8099995       6.66994593E-09
   24.8700008       6.26348928E-09
   24.9300003       5.74679770E-09
   24.9899998       5.13153253E-09
   25.0499992       4.43289228E-09
   25.1100006       3.66968411E-09
   25.1700001       2.86354629E-09
   25.2299995       2.03728834E-09
   25.2900009       1.21273225E-09
   25.3500004       4.08688694E-10
   25.4099998      -3.60312807E-10
   25.4699993      -1.08422205E-09
   25.5300007      -1.75668380E-09
   25.5900002      -2.37370812E-09
   25.6499996      -2.93236191E-09
   25.7099991      -3.42993167E-09
   25.7700005      -3.86376175E-09
   25.8299999      -4.23168389E-09
   25.8899994      -4.53279014E-09
   25.9500008      -4.76821604E-09
   26.0100002      -4.94164354E-09
   26.0699997      -5.05928144E-09
   26.1299992      -5.12920506E-09
   26.1900005      -5.16011056E-09
   26.2500000      -5.15976151E-09
   26.3099995      -5.13362730E-09
   26.3700008      -5.08426234E-09
   26.4300003      -5.01181141E-09
   26.4899998      -4.91558882E-09
   26.5499992      -4.79618567E-09
   26.6100006      -4.65723282E-09
   26.6700001      -4.50600224E-09
   26.7299995      -4.35250502E-09
   26.7900009      -4.20740509E-09
   26.8500004      -4.07961664E-09
   26.9099998      -3.97457089E-09
   26.9699993      -3.89377464E-09
   27.0300007      -3.83561183E-09
   27.0900002      -3.79677578E-09
   27.1499996      -3.77348952E-09
   27.2099991      -3.76196541E-09
   27.2700005      -3.75806630E-09
   27.3299999      -3.75665943E-09
   27.3899994      -3.75131082E-09
   27.4500008      -3.73473652E-09
   27.5100002      -3.69995945E-09
   27.5699997      -3.64172470E-09
   27.6299992      -3.55755225E-09
   27.6900005      -3.44800388E-09
   27.7500000      -3.31610384E-09
   27.8099995      -3.16617932E-09
   27.8700008      -3.00255576E-09
   27.9300003      -2.82849899E-09
   27.9899998      -2.64563393E-09
   28.0499992      -2.45390619E-09
   28.1100006      -2.25202412E-09
   28.1700001      -2.03825334E-09
   28.2299995      -1.81136783E-09
   28.2900009      -1.57151625E-09
   28.3500004      -1.32075806E-09
   28.4099998      -1.06310205E-09
   28.4699993      -8.04055711E-10
   28.5300007      -5.49870927E-10
   28.5900002      -3.06775799E-10
   28.6499996      -8.04432909E-11
   28.7099991       1.24211363E-10
   28.7700005       3.02991049E-10
   28.8299999       4.52316962E-10
   28.8899994       5.69222280E-10
   28.9500008       6.51482146E-10
   29.0100002       6.97820801E-10
   29.0699997       7.08105186E-10
   29.1299992       6.83470336E-10
   29.1900005       6.26360630E-10
   29.2500000       5.40456679E-10
   29.3099995       4.30401742E-10
   29.3700008       3.01213582E-10
   29.4300003       1.57354879E-10
   29.4899998       1.62782212E-12
   29.5499992      -1.65727626E-10
   29.6100006      -3.47278012E-10
   29.6700001      -5.47687729E-10
   29.7299995      -7.72118702E-10
   29.7900009      -1.02419173E-09
   29.8500004      -1.30417843E-09
   29.9099998      -1.60802294E-09
   29.9699993      -1.92747973E-09
   30.0300007      -2.25125563E-09
   30.0900002      -2.56676702E-09
   30.1499996      -2.86204216E-09
   30.2099991      -3.12737969E-09
   30.2700005      -3.35651995E-09
   30.3299999      -3.54717056E-09
   30.3899994      -3.70081743E-09
   30.4500008      -3.82183130E-09
   30.5100002      -3.91608035E-09
   30.5699997      -3.98944877E-09
   30.6299992      -4.04677625E-09
   30.6900005      -4.09159684E-09
   30.7500000      -4.12668699E-09
   30.8099995      -4.15500656E-09
   30.8700008      -4.18033919E-09
   30.9300003      -4.20707291E-09
   30.9899998      -4.23899449E-09
   31.0499992      -4.27756897E-09
   31.1100006      -4.32053371E-09
   31.1700001      -4.36158354E-09
   31.2299995      -4.39145476E-09
   31.2900009      -4.40005765E-09
   31.3500004      -4.37884262E-09
   31.4099998      -4.32249259E-09
   31.4699993      -4.22938218E-09
   31.5300007      -4.10079393E-09
   31.5900002      -3.93937638E-09
   31.6499996      -3.74756093E-09
   31.7099991      -3.52655394E-09
   31.7700005      -3.27620286E-09
   31.8299999      -2.99568526E-09
   31.8899994      -2.68468825E-09
   31.9500008      -2.34463471E-09
   32.0099983      -1.97956629E-09
   32.0699997      -1.59642577E-09
   32.1300011      -1.20469057E-09
   32.1899986      -8.15487011E-10
   32.2500000      -4.40426584E-10
   32.3100014      -9.04186448E-11
   32.3699989       2.25370070E-10
   32.4300003       5.00358421E-10
   32.4900017       7.31210981E-10
   32.5499992       9.18302268E-10
   32.6100006       1.06586573E-09
   32.6699982       1.18162713E-09
   32.7299995       1.27576938E-09
   32.7900009       1.35929235E-09
   32.8499985       1.44211421E-09
   32.9099998       1.53147084E-09
   32.9700012       1.63112313E-09
   33.0299988       1.74157377E-09
   33.0900002       1.86104931E-09
   33.1500015       1.98665284E-09
   33.2099991       2.11504592E-09
   33.2700005       2.24230234E-09
   33.3300018       2.36305198E-09
   33.3899994       2.46947129E-09
   33.4500008       2.55081645E-09
   33.5099983       2.59400945E-09
   33.5699997       2.58534127E-09
   33.6300011       2.51288967E-09
   33.6899986       2.36895215E-09
   33.7500000       2.15177165E-09
   33.8100014       1.86607996E-09
   33.8699989       1.52236823E-09
   33.9300003       1.13517584E-09
   33.9900017       7.20947135E-10
   34.0499992       2.96058206E-10
   34.1100006      -1.24529637E-10
   34.1699982      -5.27821342E-10
   34.2299995      -9.02700303E-10
   34.2900009      -1.23958288E-09
   34.3499985      -1.53023128E-09
   34.4099998      -1.76796167E-09
   34.4700012      -1.94821381E-09
   34.5299988      -2.06919681E-09
   34.5900002      -2.13226548E-09
   34.6500015      -2.14180074E-09
   34.7099991      -2.10461515E-09
   34.7700005      -2.02906958E-09
   34.8300018      -1.92414173E-09
   34.8899994      -1.79854631E-09
   34.9500008      -1.65989078E-09
   35.0099983      -1.51379798E-09
   35.0699997      -1.36307565E-09
   35.1300011      -1.20718668E-09
   35.1899986      -1.04236486E-09
   35.2500000      -8.62548311E-10
   35.3100014      -6.60946298E-10
   35.3699989      -4.31688768E-10
   35.4300003      -1.70881656E-10
   35.4900017       1.23352967E-10
   35.5499992       4.51755827E-10
   35.6100006       8.15129964E-10
   35.6699982       1.21507204E-09
   35.7299995       1.65370995E-09
   35.7900009       2.13249152E-09
   35.8499985       2.65062239E-09
   35.9099998       3.20397842E-09
   35.9700012       3.78509091E-09
   36.0299988       4.38427028E-09
   36.0900002       4.99140640E-09
   36.1500015       5.59774405E-09
   36.2099991       6.19704199E-09
   36.2700005       6.78588030E-09
   36.3300018       7.36322114E-09
   36.3899994       7.92949972E-09
   36.4500008       8.48549497E-09
   36.5099983       9.03112074E-09
   36.5699997       9.56430402E-09
   36.6300011       1.00801634E-08
   36.6899986       1.05708091E-08
   36.7500000       1.10259917E-08
   36.8100014       1.14345564E-08
   36.8699989       1.17862671E-08
   36.9300003       1.20732944E-08
   36.9900017       1.22907347E-08
   37.0499992       1.24359909E-08
   37.1100006       1.25073818E-08
   37.1699982       1.25027864E-08
   37.2299995       1.24191519E-08
   37.2900009       1.22531940E-08
   37.3499985       1.20029942E-08
   37.4099998       1.16696786E-08
   37.4700012       1.12582415E-08
   37.5299988       1.07769687E-08
   37.5900002       1.02355777E-08
   37.6500015       9.64280478E-09
   37.7099991       9.00442387E-09
   37.7700005       8.32253555E-09
   37.8300018       7.59640528E-09
   37.8899994       6.82449164E-09
   37.9500008       6.00681860E-09
   38.0099983       5.14666754E-09
   38.0699997       4.25082369E-09
   38.1300011       3.32817041E-09
   38.1899986       2.38712516E-09
   38.2500000       1.43295642E-09
   38.3100014       4.66203409E-10
   38.3699989      -5.16923393E-10
   38.4300003      -1.52205049E-09
   38.4900017      -2.55287169E-09
   38.5499992      -3.60757002E-09
   38.6100006      -4.67694328E-09
   38.6699982      -5.74511727E-09
   38.7299995      -6.79262557E-09
   38.7900009      -7.80064635E-09
   38.8499985      -8.75468142E-09
   38.9099998      -9.64632552E-09
   38.9700012      -1.04726547E-08
   39.0299988      -1.12339027E-08
   39.0900002      -1.19307408E-08
   39.1500015      -1.25625093E-08
   39.2099991      -1.31270932E-08
   39.2700005      -1.36223068E-08
   39.3300018      -1.40479344E-08
   39.3899994      -1.44074033E-08
   39.4500008      -1.47083110E-08
   39.5099983      -1.49615502E-08
   39.5699997      -1.51792481E-08
   39.6300011      -1.53720965E-08
   39.6899986      -1.55467106E-08
   39.7500000      -1.57036819E-08
   39.8100014      -1.58369087E-08
   39.8699989      -1.59345230E-08
   39.9300003      -1.59813833E-08
   39.9900017      -1.59625575E-08
   40.0499992      -1.58667941E-08
   40.1100006      -1.56888191E-08
   40.1699982      -1.54296558E-08
   40.2299995      -1.50948800E-08
   40.2900009      -1.46916044E-08
   40.3499985      -1.42254848E-08
   40.4099998      -1.36990677E-08
   40.4700012      -1.31120945E-08
   40.5299988      -1.24635475E-08
   40.5900002      -1.17543859E-08
   40.6500015      -1.09896883E-08
   40.7099991      -1.01792086E-08
   40.7700005      -9.33610789E-09
   40.8300018      -8.47439008E-09
   40.8899994      -7.60607044E-09
   40.9500008      -6.73915190E-09
   41.0099983      -5.87708904E-09
   41.0699997      -5.01978548E-09
   41.1300011      -4.16560875E-09
   41.1899986      -3.31357142E-09
   41.2500000      -2.46487408E-09
   41.3100014      -1.62334501E-09
   41.3699989      -7.94816657E-10
   41.4300003       1.40943186E-11
   41.4900017       7.97171051E-10
   41.5499992       1.54923607E-09
   41.6100006       2.26608887E-09
   41.6699982       2.94394664E-09
   41.7299995       3.57878394E-09
   41.7900009       4.16590629E-09
   41.8499985       4.69987027E-09
   41.9099998       5.17463583E-09
   41.9700012       5.58376634E-09
   42.0299988       5.92059779E-09
   42.0900002       6.17847062E-09
   42.1500015       6.35117470E-09
   42.2099991       6.43366116E-09
   42.2700005       6.42283116E-09
   42.3300018       6.31808650E-09
   42.3899994       6.12136075E-09
   42.4500008       5.83661475E-09
   42.5099983       5.46908296E-09
   42.5699997       5.02468023E-09
   42.6300011       4.50981652E-09
   42.6899986       3.93153643E-09
   42.7500000       3.29763106E-09
   42.8100014       2.61639177E-09
   42.8699989       1.89594873E-09
   42.9300003       1.14354759E-09
   42.9900017       3.65301123E-10
   43.0499992      -4.33244052E-10
   43.1100006      -1.24584787E-09
   43.1699982      -2.06421258E-09
   43.2299995      -2.87723756E-09
   43.2900009      -3.67131525E-09
   43.3499985      -4.43153558E-09
   43.4099998      -5.14321119E-09
   43.4700012      -5.79303761E-09
   43.5299988      -6.36955111E-09
   43.5900002      -6.86302881E-09
   43.6500015      -7.26530214E-09
   43.7099991      -7.56991980E-09
   43.7700005      -7.77272824E-09
   43.8300018      -7.87254972E-09
   43.8899994      -7.87149279E-09
   43.9500008      -7.77461295E-09
   44.0099983      -7.58903340E-09
   44.0699997      -7.32289873E-09
   44.1300011      -6.98455249E-09
   44.1899986      -6.58208776E-09
   44.2500000      -6.12306961E-09
   44.3100014      -5.61413227E-09
   44.3699989      -5.06028686E-09
   44.4300003      -4.46409842E-09
   44.4900017      -3.82512466E-09
   44.5499992      -3.14002468E-09
   44.6100006      -2.40347076E-09
   44.6699982      -1.60966795E-09
   44.7299995      -7.54045215E-10
   44.7900009       1.65329986E-10
   44.8499985       1.14688636E-09
   44.9099998       2.18529750E-09
   44.9700012       3.27178040E-09
   45.0299988       4.39485026E-09
   45.0900002       5.54142643E-09
   45.1500015       6.69810785E-09
   45.2099991       7.85232235E-09
   45.2700005       8.99299568E-09
   45.3300018       1.01104902E-08
   45.3899994       1.11958798E-08
   45.4500008       1.22399904E-08
   45.5099983       1.32328477E-08
   45.5699997       1.41640895E-08
   45.6300011       1.50243995E-08
   45.6899986       1.58075242E-08
   45.7500000       1.65119900E-08
   45.8100014       1.71416428E-08
   45.8699989       1.77046129E-08
   45.9300003       1.82108479E-08
   45.9900017       1.86690450E-08
   46.0499992       1.90839895E-08
   46.1100006       1.94551770E-08
   46.1699982       1.97771044E-08
   46.2299995       2.00410160E-08
   46.2900009       2.02374757E-08
   46.3499985       2.03589714E-08
   46.4099998       2.04017425E-08
   46.4700012       2.03664321E-08
   46.5299988       2.02574331E-08
   46.5900002       2.00812025E-08
   46.6500015       1.98441086E-08
   46.7099991       1.95504910E-08
   46.7700005       1.92016270E-08
   46.8300018       1.87960012E-08
   46.8899994       1.83309741E-08
   46.9500008       1.78052861E-08
   47.0099983       1.72215717E-08
   47.0699997       1.65877623E-08
   47.1300011       1.59166245E-08
   47.1899986       1.52232378E-08
   47.2500000       1.45211567E-08
   47.3100014       1.38185472E-08
   47.3699989       1.31159261E-08
   47.4300003       1.24065229E-08
   47.4900017       1.16793695E-08
   47.5499992       1.09239950E-08
   47.6100006       1.01348823E-08
   47.6699982       9.31384658E-09
   47.7299995       8.46934878E-09
   47.7900009       7.61309238E-09
   47.8499985       6.75546818E-09
   47.9099998       5.90192339E-09
   47.9700012       5.05188691E-09
   48.0299988       4.20070645E-09
   48.0900002       3.34366956E-09
   48.1500015       2.48024068E-09
   48.2099991       1.61660663E-09
   48.2700005       7.65396968E-10
   48.3300018      -5.72972572E-11
   48.3899994      -8.36349490E-10
   48.4500008      -1.56169022E-09
   48.5099983      -2.23051533E-09
   48.5699997      -2.84689494E-09
   48.6300011      -3.41907924E-09
   48.6899986      -3.95560917E-09
   48.7500000      -4.46165949E-09
   48.8100014      -4.93684293E-09
   48.8699989      -5.37513323E-09
   48.9300003      -5.76681458E-09
   48.9900017      -6.10174045E-09
   49.0499992      -6.37276498E-09
   49.1100006      -6.57817001E-09
   49.1699982      -6.72223033E-09
   49.2299995      -6.81367229E-09
   49.2900009      -6.86250923E-09
   49.3499985      -6.87636748E-09
   49.4099998      -6.85765000E-09
   49.4700012      -6.80266643E-09
   49.5299988      -6.70311939E-09
   49.5900002      -6.54945431E-09
   49.6500015      -6.33480912E-09
   49.7099991      -6.05804340E-09
   49.7700005      -5.72472070E-09
   49.8300018      -5.34575317E-09
   49.8899994      -4.93438934E-09
   49.9500008      -4.50284210E-09
   50.0099983      -4.05988843E-09
   50.0699997      -3.61020791E-09
   50.1300011      -3.15537885E-09
   50.1899986      -2.69575362E-09
   50.2500000      -2.23216889E-09
   50.3100014      -1.76671433E-09
   50.3699989      -1.30237821E-09
   50.4300003      -8.41961778E-10
   50.4900017      -3.86964571E-10
   50.5499992       6.29509292E-11
   50.6100006       5.09643827E-10