 -0.750000000       0.00000000    
 -0.689999998       0.00000000    
 -0.629999995       0.00000000    
 -0.569999993       0.00000000    
 -0.509999990       0.00000000    
 -0.449999988       0.00000000    
 -0.389999986       0.00000000    
 -0.330000013       0.00000000    
 -0.270000011      -6.75645017E-28
 -0.209999993       4.45360476E-27
 -0.150000006       1.02620148E-25
  -9.00000036E-02   6.85753383E-25
  -2.99999993E-02   2.60595329E-24
   2.99999993E-02   6.11111295E-24
   9.00000036E-02   6.67393681E-24
  0.150000006      -1.18720111E-23
  0.209999993      -7.84452687E-23
  0.270000011      -2.11637358E-22
  0.330000013      -3.57084995E-22
  0.389999986      -3.04656542E-22
  0.449999988       3.31002981E-22
  0.509999990       1.93512119E-21
  0.569999993       4.43681990E-21
  0.629999995       6.67404376E-21
  0.689999998       5.96035774E-21
  0.750000000      -1.54484158E-21
  0.810000002      -1.90681416E-20
  0.870000005      -4.58056240E-20
  0.930000007      -7.23903430E-20
  0.990000010      -7.71940716E-20
   1.04999995      -2.75437735E-20
   1.11000001       1.08121056E-19
   1.16999996       3.32230295E-19
   1.23000002       5.77759757E-19
   1.28999996       6.76943934E-19
   1.35000002       3.80607694E-19
   1.40999997      -5.26976709E-19
   1.47000003      -2.01118833E-18
   1.52999997      -3.55016241E-18
   1.59000003      -4.06410048E-18
   1.64999998      -2.23180774E-18
   1.71000004       2.71611744E-18
   1.76999998       9.96175680E-18
   1.83000004       1.64435317E-17
   1.88999999       1.73668571E-17
   1.95000005       8.31586259E-18
   2.00999999      -1.15352619E-17
   2.06999993      -3.67464300E-17
   2.13000011      -5.56582570E-17
   2.19000006      -5.45564591E-17
   2.25000000      -2.51068589E-17
   2.30999994       2.84992739E-17
   2.36999989       8.75994327E-17
   2.43000007       1.25562761E-16
   2.49000001       1.21253772E-16
   2.54999995       7.24333078E-17
   2.60999990      -3.85098277E-19
   2.67000008      -6.53518808E-17
   2.73000002      -1.02083286E-16
   2.78999996      -1.21489089E-16
   2.84999990      -1.64666090E-16
   2.91000009      -2.71821925E-16
   2.97000003      -4.32144510E-16
   3.02999997      -5.46170709E-16
   3.08999991      -4.38544373E-16
   3.15000010       5.95032043E-17
   3.21000004       9.79182157E-16
   3.26999998       2.09940864E-15
   3.32999992       2.93162402E-15
   3.39000010       2.86012173E-15
   3.45000005       1.42187461E-15
   3.50999999      -1.37755075E-15
   3.56999993      -4.87146732E-15
   3.63000011      -7.80645639E-15
   3.69000006      -8.72932335E-15
   3.75000000      -6.58545840E-15
   3.80999994      -1.29768454E-15
   3.86999989       5.94861710E-15
   3.93000007       1.29075378E-14
   3.99000001       1.69683264E-14
   4.05000019       1.61298129E-14
   4.11000013       9.88065712E-15
   4.17000008      -4.00734331E-16
   4.23000002      -1.17556128E-14
   4.28999996      -2.06128669E-14
   4.34999990      -2.40726628E-14
   4.40999985      -2.09891952E-14
   4.46999979      -1.23778458E-14
   4.53000021      -9.40643217E-16
   4.59000015       1.00963270E-14
   4.65000010       1.82877598E-14
   4.71000004       2.27555994E-14
   4.76999998       2.40227658E-14
   4.82999992       2.29672831E-14
   4.88999987       1.95269978E-14
   4.94999981       1.20758023E-14
   5.01000023      -1.82266731E-15
   5.07000017      -2.32997774E-14
   5.13000011      -4.96485211E-14
   5.19000006      -7.29443497E-14
   5.25000000      -8.12604649E-14
   5.30999994      -6.28876630E-14
   5.36999989      -1.23879729E-14
   5.42999983       6.40732178E-14
   5.48999977       1.47052441E-13
   5.55000019       2.07690283E-13
   5.61000013       2.16751178E-13
   5.67000008       1.55985034E-13
   5.73000002       2.74011211E-14
   5.78999996      -1.43677347E-13
   5.84999990      -3.13728725E-13
   5.90999985      -4.33046069E-13
   5.96999979      -4.60543333E-13
   6.03000021      -3.76125129E-13
   6.09000015      -1.86497275E-13
   6.15000010       7.69100427E-14
   6.21000004       3.66123933E-13
   6.26999998       6.27188622E-13
   6.32999992       8.09438291E-13
   6.38999987       8.71642222E-13
   6.44999981       7.85587036E-13
   6.51000023       5.39174120E-13
   6.57000017       1.40807586E-13
   6.63000011      -3.75141677E-13
   6.69000006      -9.44499795E-13
   6.75000000      -1.47518141E-12
   6.80999994      -1.85807207E-12
   6.86999989      -1.98707522E-12
   6.92999983      -1.78440867E-12
   6.98999977      -1.22402912E-12
   7.05000019      -3.45448659E-13
   7.11000013       7.47286835E-13
   7.17000008       1.90191266E-12
   7.23000002       2.94492707E-12
   7.28999996       3.71134720E-12
   7.34999990       4.06921155E-12
   7.40999985       3.93368758E-12
   7.46999979       3.27017623E-12
   7.53000021       2.08989683E-12
   7.59000015       4.43477774E-13
   7.65000010      -1.58259788E-12
   7.71000004      -3.86451027E-12
   7.76999998      -6.23557239E-12
   7.82999992      -8.47972994E-12
   7.88999987      -1.03272495E-11
   7.94999981      -1.14539706E-11
   8.01000023      -1.14828841E-11
   8.06999969      -9.98482026E-12
   8.13000011      -6.47497594E-12
   8.18999958      -4.04389467E-13
   8.25000000       8.85020616E-12
   8.31000042       2.19898405E-11
   8.36999989       3.97785763E-11
   8.43000031       6.29996194E-11
   8.48999977       9.23769464E-11
   8.55000019       1.28467348E-10
   8.60999966       1.71540351E-10
   8.67000008       2.21473631E-10
   8.72999954       2.77694978E-10
   8.78999996       3.39194756E-10
   8.85000038       4.04616035E-10
   8.90999985       4.72407391E-10
   8.97000027       5.41002187E-10
   9.02999973       6.08979922E-10
   9.09000015       6.75168199E-10
   9.14999962       7.38663852E-10
   9.21000004       7.98778654E-10
   9.27000046       8.54937787E-10
   9.32999992       9.06570929E-10
   9.39000034       9.53031210E-10
   9.44999981       9.93560678E-10
   9.51000023       1.02730147E-09
   9.56999969       1.05333531E-09
   9.63000011       1.07073772E-09
   9.68999958       1.07864073E-09
   9.75000000       1.07631282E-09
   9.81000042       1.06327303E-09
   9.86999989       1.03944298E-09
   9.93000031       1.00531927E-09
   9.98999977       9.62117386E-10
   10.0500002       9.11820897E-10
   10.1099997       8.57074745E-10
   10.1700001       8.00895739E-10
   10.2299995       7.46231021E-10
   10.2900000       6.95451641E-10
   10.3500004       6.49904963E-10
   10.4099998       6.09650774E-10
   10.4700003       5.73461223E-10
   10.5299997       5.39094214E-10
   10.5900002       5.03773911E-10
   10.6499996       4.64754846E-10
   10.7100000       4.19833501E-10
   10.7700005       3.67697067E-10
   10.8299999       3.08059078E-10
   10.8900003       2.41596104E-10
   10.9499998       1.69748868E-10
   11.0100002       9.44667608E-11
   11.0699997       1.79606226E-11
   11.1300001      -5.75058751E-11
   11.1899996      -1.29788541E-10
   11.2500000      -1.97017291E-10
   11.3100004      -2.57744964E-10
   11.3699999      -3.11080078E-10
   11.4300003      -3.56770946E-10
   11.4899998      -3.95200872E-10
   11.5500002      -4.27270358E-10
   11.6099997      -4.54175558E-10
   11.6700001      -4.77130224E-10
   11.7299995      -4.97101971E-10
   11.7900000      -5.14634835E-10
   11.8500004      -5.29804367E-10
   11.9099998      -5.42308809E-10
   11.9700003      -5.51662660E-10
   12.0299997      -5.57430602E-10
   12.0900002      -5.59435998E-10
   12.1499996      -5.57896451E-10
   12.2100000      -5.53463941E-10
   12.2700005      -5.47178192E-10
   12.3299999      -5.40362977E-10
   12.3900003      -5.34505162E-10
   12.4499998      -5.31147959E-10
   12.5100002      -5.31815036E-10
   12.5699997      -5.37956402E-10
   12.6300001      -5.50886503E-10
   12.6899996      -5.71680925E-10
   12.7500000      -6.01016459E-10
   12.8100004      -6.38973263E-10
   12.8699999      -6.84867829E-10
   12.9300003      -7.37200301E-10
   12.9899998      -7.93790089E-10
   13.0500002      -8.52108328E-10
   13.1099997      -9.09729736E-10
   13.1700001      -9.64756830E-10
   13.2299995      -1.01605602E-09
   13.2900000      -1.06320852E-09
   13.3500004      -1.10620213E-09
   13.4099998      -1.14501719E-09
   13.4700003      -1.17931864E-09
   13.5299997      -1.20843158E-09
   13.5900002      -1.23164112E-09
   13.6499996      -1.24868393E-09
   13.7100000      -1.26018718E-09
   13.7700005      -1.26780175E-09
   13.8299999      -1.27391264E-09
   13.8900003      -1.28100042E-09
   13.9499998      -1.29090783E-09
   14.0100002      -1.30432398E-09
   14.0699997      -1.32071054E-09
   14.1300001      -1.33869726E-09
   14.1899996      -1.35675726E-09
   14.2500000      -1.37384915E-09
   14.3100004      -1.38973433E-09
   14.3699999      -1.40483658E-09
   14.4300003      -1.41973044E-09
   14.4899998      -1.43451906E-09
   14.5500002      -1.44841694E-09
   14.6099997      -1.45975632E-09
   14.6700001      -1.46644907E-09
   14.7299995      -1.46673040E-09
   14.7900000      -1.45988455E-09
   14.8500004      -1.44665457E-09
   14.9099998      -1.42915724E-09
   14.9700003      -1.41031431E-09
   15.0299997      -1.39299194E-09
   15.0900002      -1.37913680E-09
   15.1499996      -1.36919120E-09
   15.2100000      -1.36195899E-09
   15.2700005      -1.35493761E-09
   15.3299999      -1.34497946E-09
   15.3900003      -1.32906586E-09
   15.4499998      -1.30496547E-09
   15.5100002      -1.27162492E-09
   15.5699997      -1.22923560E-09
   15.6300001      -1.17901922E-09
   15.6899996      -1.12283249E-09
   15.7500000      -1.06270293E-09
   15.8100004      -1.00039510E-09
   15.8699999      -9.37075195E-10
   15.9300003      -8.73122352E-10
   15.9899998      -8.08116352E-10
   16.0499992      -7.41012252E-10
   16.1100006      -6.70480838E-10
   16.1700001      -5.95347327E-10
   16.2299995      -5.15022358E-10
   16.2900009      -4.29798752E-10
   16.3500004      -3.40914796E-10
   16.4099998      -2.50349963E-10
   16.4699993      -1.60408520E-10
   16.5300007      -7.32257102E-11
   16.5900002       9.63594135E-12
   16.6499996       8.73597306E-11
   16.7099991       1.59761718E-10
   16.7700005       2.26947711E-10
   16.8299999       2.88892993E-10
   16.8899994       3.45139833E-10
   16.9500008       3.94772381E-10
   17.0100002       4.36723879E-10
   17.0699997       4.70328720E-10
   17.1299992       4.95906372E-10
   17.1900005       5.15108622E-10
   17.2500000       5.30807620E-10
   17.3099995       5.46449774E-10
   17.3700008       5.65001546E-10
   17.4300003       5.87801752E-10
   17.4899998       6.13729345E-10
   17.5499992       6.39048536E-10
   17.6100006       6.58100852E-10
   17.6700001       6.64728106E-10
   17.7299995       6.54030885E-10
   17.7900009       6.23900764E-10
   17.8500004       5.75786530E-10
   17.9099998       5.14385701E-10
   17.9699993       4.46312931E-10
   18.0300007       3.78174159E-10
   18.0900002       3.14709730E-10
   18.1499996       2.57659810E-10
   18.2099991       2.05742146E-10
   18.2700005       1.55702742E-10
   18.3299999       1.03980588E-10
   18.3899994       4.82921932E-11
   18.4500008      -1.15028950E-11
   18.5100002      -7.35682695E-11
   18.5699997      -1.35144618E-10
   18.6299992      -1.93960917E-10
   18.6900005      -2.49326115E-10
   18.7500000      -3.02378622E-10
   18.8099995      -3.55353552E-10
   18.8700008      -4.10164791E-10
   18.9300003      -4.66904737E-10
   18.9899998      -5.22911936E-10
   19.0499992      -5.72843384E-10
   19.1100006      -6.09802320E-10
   19.1700001      -6.27176533E-10
   19.2299995      -6.20575813E-10
   19.2900009      -5.89208793E-10
   19.3500004      -5.36217071E-10
   19.4099998      -4.67823780E-10
   19.4699993      -3.91546934E-10
   19.5300007      -3.14044873E-10
   19.5900002      -2.39301884E-10
   19.6499996      -1.67760417E-10
   19.7099991      -9.66889555E-11
   19.7700005      -2.16416711E-11
   19.8299999       6.15287821E-11
   19.8899994       1.54840432E-10
   19.9500008       2.57184218E-10
   20.0100002       3.64474562E-10
   20.0699997       4.70813943E-10
   20.1299992       5.70163750E-10
   20.1900005       6.57865595E-10
   20.2500000       7.31487149E-10
   20.3099995       7.90788879E-10
   20.3700008       8.36974656E-10
   20.4300003       8.71639760E-10
   20.4899998       8.95875762E-10
   20.5499992       9.09852693E-10
   20.6100006       9.12955267E-10
   20.6700001       9.04322561E-10
   20.7299995       8.83506324E-10
   20.7900009       8.50959414E-10
   20.8500004       8.08161704E-10
   20.9099998       7.57347074E-10
   20.9699993       7.00943414E-10
   21.0300007       6.40938913E-10
   21.0900002       5.78404602E-10
   21.1499996       5.13334764E-10
   21.2099991       4.44830478E-10
   21.2700005       3.71513625E-10
   21.3299999       2.91968116E-10
   21.3899994       2.05020070E-10
   21.4500008       1.09781344E-10
   21.5100002       5.53537164E-12
   21.5699997      -1.08339775E-10
   21.6299992      -2.32215080E-10
   21.6900005      -3.65749098E-10
   21.7500000      -5.07244802E-10
   21.8099995      -6.53115617E-10
   21.8700008      -7.97797495E-10
   21.9300003      -9.34330280E-10
   21.9899998      -1.05559239E-09
   22.0499992      -1.15590892E-09
   22.1100006      -1.23256394E-09
   22.1700001      -1.28672262E-09
   22.2299995      -1.32341782E-09
   22.2900009      -1.35052969E-09
   22.3500004      -1.37700629E-09
   22.4099998      -1.41081591E-09
   22.4699993      -1.45721746E-09
   22.5300007      -1.51783308E-09
   22.5900002      -1.59075253E-09
   22.6499996      -1.67156167E-09
   22.7099991      -1.75489623E-09
   22.7700005      -1.83597759E-09
   22.8299999      -1.91164418E-09
   22.8899994      -1.98060990E-09
   22.9500008      -2.04298289E-09
   23.0100002      -2.09932227E-09
   23.0699997      -2.14964269E-09
   23.1299992      -2.19274221E-09
   23.1900005      -2.22608620E-09
   23.2500000      -2.24627983E-09
   23.3099995      -2.24998953E-09
   23.3700008      -2.23504393E-09
   23.4300003      -2.20139396E-09
   23.4899998      -2.15163332E-09
   23.5499992      -2.09088546E-09
   23.6100006      -2.02602690E-09
   23.6700001      -1.96442285E-09
   23.7299995      -1.91251814E-09
   23.7900009      -1.87468396E-09
   23.8500004      -1.85264259E-09
   23.9099998      -1.84558147E-09
   23.9699993      -1.85082183E-09
   24.0300007      -1.86472660E-09
   24.0900002      -1.88349136E-09
   24.1499996      -1.90357508E-09
   24.2099991      -1.92171301E-09
   24.2700005      -1.93462868E-09
   24.3299999      -1.93866945E-09
   24.3899994      -1.92957450E-09
   24.4500008      -1.90253413E-09
   24.5100002      -1.85259375E-09
   24.5699997      -1.77538118E-09
   24.6299992      -1.66803604E-09
   24.6900005      -1.53014534E-09
   24.7500000      -1.36441025E-09
   24.8099995      -1.17676391E-09
   24.8700008      -9.75755698E-10
   24.9300003      -7.71209263E-10
   24.9899998      -5.72410175E-10
   25.0499992      -3.86273097E-10
   25.1100006      -2.15997054E-10
   25.1700001      -6.05978254E-11
   25.2299995       8.45484446E-11
   25.2900009       2.26313010E-10
   25.3500004       3.71971842E-10
   25.4099998       5.27415001E-10
   25.4699993       6.95864422E-10
   25.5300007       8.77386774E-10
   25.5900002       1.06925058E-09
   25.6499996       1.26693134E-09
   25.7099991       1.46539114E-09
   25.7700005       1.66019154E-09
   25.8299999       1.84809246E-09
   25.8899994       2.02700945E-09
   25.9500008       2.19546803E-09
   26.0100002       2.35191377E-09
   26.0699997       2.49427279E-09
   26.1299992       2.62003308E-09
   26.1900005       2.72684431E-09
   26.2500000       2.81338597E-09
   26.3099995       2.88012458E-09
   26.3700008       2.92963920E-09
   26.4300003       2.96637315E-09
   26.4899998       2.99589487E-09
   26.5499992       3.02389269E-09
   26.6100006       3.05516590E-09
   26.6700001       3.09283132E-09
   26.7299995       3.13789172E-09
   26.7900009       3.18924842E-09
   26.8500004       3.24417204E-09
   26.9099998       3.29915961E-09
   26.9699993       3.35097705E-09
   27.0300007       3.39758222E-09
   27.0900002       3.43862117E-09
   27.1499996       3.47529761E-09
   27.2099991       3.50966944E-09
   27.2700005       3.54365914E-09
   27.3299999       3.57818530E-09
   27.3899994       3.61276142E-09
   27.4500008       3.64567643E-09
   27.5100002       3.67462127E-09
   27.5699997       3.69743725E-09
   27.6299992       3.71268372E-09
   27.6900005       3.71983733E-09
   27.7500000       3.71912234E-09
   27.8099995       3.71111253E-09
   27.8700008       3.69627084E-09
   27.9300003       3.67458353E-09
   27.9899998       3.64539621E-09
   28.0499992       3.60750985E-09
   28.1100006       3.55956087E-09
   28.1700001       3.50061580E-09
   28.2299995       3.43081252E-09
   28.2900009       3.35178996E-09
   28.3500004       3.26665317E-09
   28.4099998       3.17936699E-09
   28.4699993       3.09369796E-09
   28.5300007       3.01205993E-09
   28.5900002       2.93470936E-09
   28.6499996       2.85963941E-09
   28.7099991       2.78327383E-09
   28.7700005       2.70174971E-09
   28.8299999       2.61236943E-09
   28.8899994       2.51475685E-09
   28.9500008       2.41135800E-09
   29.0100002       2.30714492E-09
   29.0699997       2.20861018E-09
   29.1299992       2.12231854E-09
   29.1900005       2.05338879E-09
   29.2500000       2.00431183E-09
   29.3099995       1.97443017E-09
   29.3700008       1.96023531E-09
   29.4300003       1.95641103E-09
   29.4899998       1.95729233E-09
   29.5499992       1.95827554E-09
   29.6100006       1.95673810E-09
   29.6700001       1.95222638E-09
   29.7299995       1.94597782E-09
   29.7900009       1.94008209E-09
   29.8500004       1.93670413E-09
   29.9099998       1.93767380E-09
   29.9699993       1.94452388E-09
   30.0300007       1.95881111E-09
   30.0900002       1.98242756E-09
   30.1499996       2.01763228E-09
   30.2099991       2.06668305E-09
   30.2700005       2.13113549E-09
   30.3299999       2.21103025E-09
   30.3899994       2.30424968E-09
   30.4500008       2.40630804E-09
   30.5100002       2.51074095E-09
   30.5699997       2.61010169E-09
   30.6299992       2.69739475E-09
   30.6900005       2.76759793E-09
   30.7500000       2.81881896E-09
   30.8099995       2.85267765E-09
   30.8700008       2.87370949E-09
   30.9300003       2.88792079E-09
   30.9899998       2.90095459E-09
   31.0499992       2.91650259E-09
   31.1100006       2.93553271E-09
   31.1700001       2.95657165E-09
   31.2299995       2.97686986E-09
   31.2900009       2.99390535E-09
   31.3500004       3.00658298E-09
   31.4099998       3.01564018E-09
   31.4699993       3.02314751E-09
   31.5300007       3.03137848E-09
   31.5900002       3.04157965E-09
   31.6499996       3.05316217E-09
   31.7099991       3.06363046E-09
   31.7700005       3.06923464E-09
   31.8299999       3.06605585E-09
   31.8899994       3.05110048E-09
   31.9500008       3.02302761E-09
   32.0099983       2.98231262E-09
   32.0699997       2.93086555E-09
   32.1300011       2.87129853E-09
   32.1899986       2.80611090E-09
   32.2500000       2.73703460E-09
   32.3100014       2.66468669E-09
   32.3699989       2.58855715E-09
   32.4300003       2.50724819E-09
   32.4900017       2.41882869E-09
   32.5499992       2.32117481E-09
   32.6100006       2.21221130E-09
   32.6699982       2.09006279E-09
   32.7299995       1.95317540E-09
   32.7900009       1.80051096E-09
   32.8499985       1.63184899E-09
   32.9099998       1.44815659E-09
   32.9700012       1.25188371E-09
   33.0299988       1.04700715E-09
   33.0900002       8.38703273E-10
   33.1500015       6.32654651E-10
   33.2099991       4.34153602E-10
   33.2700005       2.47254134E-10
   33.3300018       7.42134201E-11
   33.3899994      -8.46479831E-11
   33.4500008      -2.30693645E-10
   33.5099983      -3.66465719E-10
   33.5699997      -4.95092800E-10
   33.6300011      -6.19725271E-10
   33.6899986      -7.43035689E-10
   33.7500000      -8.66784311E-10
   33.8100014      -9.91479898E-10
   33.8699989      -1.11622256E-09
   33.9300003      -1.23884447E-09
   33.9900017      -1.35640676E-09
   34.0499992      -1.46597678E-09
   34.1100006      -1.56546387E-09
   34.1699982      -1.65421876E-09
   34.2299995      -1.73315406E-09
   34.2900009      -1.80431781E-09
   34.3499985      -1.87006344E-09
   34.4099998      -1.93211447E-09
   34.4700012      -1.99086725E-09
   34.5299988      -2.04517892E-09
   34.5900002      -2.09271533E-09
   34.6500015      -2.13073559E-09
   34.7099991      -2.15704854E-09
   34.7700005      -2.17081753E-09
   34.8300018      -2.17293583E-09
   34.8899994      -2.16584506E-09
   34.9500008      -2.15286211E-09
   35.0099983      -2.13728146E-09
   35.0699997      -2.12162021E-09
   35.1300011      -2.10733231E-09
   35.1899986      -2.09511253E-09
   35.2500000      -2.08565343E-09
   35.3100014      -2.08047068E-09
   35.3699989      -2.08236894E-09
   35.4300003      -2.09525242E-09
   35.4900017      -2.12329199E-09
   35.5499992      -2.16974705E-09
   35.6100006      -2.23590835E-09
   35.6699982      -2.32058861E-09
   35.7299995      -2.42037235E-09
   35.7900009      -2.53055576E-09
   35.8499985      -2.64648792E-09
   35.9099998      -2.76490897E-09
   35.9700012      -2.88489055E-09
   36.0299988      -3.00807357E-09
   36.0900002      -3.13806559E-09
   36.1500015      -3.27906458E-09
   36.2099991      -3.43402062E-09
   36.2700005      -3.60285912E-09
   36.3300018      -3.78137965E-09
   36.3899994      -3.96130151E-09
   36.4500008      -4.13158707E-09
   36.5099983      -4.28068958E-09
   36.5699997      -4.39901449E-09
   36.6300011      -4.48076998E-09
   36.6899986      -4.52462823E-09
   36.7500000      -4.53310900E-09
   36.8100014      -4.51106752E-09
   36.8699989      -4.46397674E-09
   36.9300003      -4.39663728E-09
   36.9900017      -4.31266001E-09
   37.0499992      -4.21471569E-09
   37.1100006      -4.10523882E-09
   37.1699982      -3.98721101E-09
   37.2299995      -3.86468679E-09
   37.2900009      -3.74288289E-09
   37.3499985      -3.62776875E-09
   37.4099998      -3.52523255E-09
   37.4700012      -3.43999784E-09
   37.5299988      -3.37457751E-09
   37.5900002      -3.32861849E-09
   37.6500015      -3.29891625E-09
   37.7099991      -3.28017280E-09
   37.7700005      -3.26627814E-09
   37.8300018      -3.25164917E-09
   37.8899994      -3.23211502E-09
   37.9500008      -3.20504667E-09
   38.0099983      -3.16878634E-09
   38.0699997      -3.12177040E-09
   38.1300011      -3.06186632E-09
   38.1899986      -2.98630387E-09
   38.2500000      -2.89224356E-09
   38.3100014      -2.77771273E-09
   38.3699989      -2.64246558E-09
   38.4300003      -2.48840593E-09
   38.4900017      -2.31944308E-09
   38.5499992      -2.14089213E-09
   38.6100006      -1.95867877E-09
   38.6699982      -1.77858983E-09
   38.7299995      -1.60570901E-09
   38.7900009      -1.44405954E-09
   38.8499985      -1.29640931E-09
   38.9099998      -1.16420174E-09
   38.9700012      -1.04760034E-09
   39.0299988      -9.45655665E-10
   39.0900002      -8.56592297E-10
   39.1500015      -7.78191844E-10
   39.2099991      -7.08221815E-10
   39.2700005      -6.44855502E-10
   39.3300018      -5.87019711E-10
   39.3899994      -5.34595257E-10
   39.4500008      -4.88393881E-10
   39.5099983      -4.49858567E-10
   39.5699997      -4.20511931E-10
   39.6300011      -4.01286476E-10
   39.6899986      -3.91970484E-10
   39.7500000      -3.91020688E-10
   39.8100014      -3.95894512E-10
   39.8699989      -4.03856976E-10
   39.9300003      -4.12995832E-10
   39.9900017      -4.23046015E-10
   40.0499992      -4.35653208E-10
   40.1100006      -4.53901611E-10
   40.1699982      -4.81228835E-10
   40.2299995      -5.20112897E-10
   40.2900009      -5.71031611E-10
   40.3499985      -6.32107533E-10
   40.4099998      -6.99581559E-10
   40.4700012      -7.68926367E-10
   40.5299988      -8.36151537E-10
   40.5900002      -8.98779218E-10
   40.6500015      -9.56114965E-10
   40.7099991      -1.00874031E-09
   40.7700005      -1.05747999E-09
   40.8300018      -1.10231391E-09
   40.8899994      -1.14171572E-09
   40.9500008      -1.17271970E-09
   41.0099983      -1.19171850E-09
   41.0699997      -1.19570598E-09
   41.1300011      -1.18350196E-09
   41.1899986      -1.15649124E-09
   41.2500000      -1.11855869E-09
   41.3100014      -1.07515830E-09
   41.3699989      -1.03173792E-09
   41.4300003      -9.91974392E-10
   41.4900017      -9.56394741E-10
   41.5499992      -9.21897503E-10
   41.6100006      -8.82453832E-10
   41.6699982      -8.30881031E-10
   41.7299995      -7.61182228E-10
   41.7900009      -6.70675904E-10
   41.8499985      -5.61144187E-10
   41.9099998      -4.38538761E-10
   41.9700012      -3.11303205E-10
   42.0299988      -1.87894686E-10
   42.0900002      -7.43960518E-11
   42.1500015       2.69354383E-11
   42.2099991       1.17707871E-10
   42.2700005       2.02089567E-10
   42.3300018       2.84707563E-10
   42.3899994       3.68545083E-10
   42.4500008       4.53576621E-10
   42.5099983       5.36575506E-10
   42.5699997       6.12111029E-10
   42.6300011       6.74360401E-10
   42.6899986       7.19112547E-10
   42.7500000       7.45286943E-10
   42.8100014       7.55447926E-10
   42.8699989       7.55118079E-10
   42.9300003       7.51098961E-10
   42.9900017       7.49362350E-10
   43.0499992       7.53246299E-10
   43.1100006       7.62595709E-10
   43.1699982       7.74142916E-10
   43.2299995       7.82958809E-10
   43.2900009       7.84406984E-10
   43.3499985       7.75872033E-10
   43.4099998       7.57659102E-10
   43.4700012       7.32814642E-10
   43.5299988       7.06028902E-10
   43.5900002       6.82087831E-10
   43.6500015       6.64444666E-10
   43.7099991       6.54374444E-10
   43.7700005       6.50936194E-10
   43.8300018       6.51685761E-10
   43.8899994       6.53847754E-10
   43.9500008       6.55522248E-10
   44.0099983       6.56495802E-10
   44.0699997       6.58355426E-10
   44.1300011       6.63840094E-10
   44.1899986       6.75633050E-10
   44.2500000       6.95014213E-10
   44.3100014       7.20852156E-10
   44.3699989       7.49305951E-10
   44.4300003       7.74357467E-10
   44.4900017       7.89025456E-10
   44.5499992       7.86919752E-10
   44.6100006       7.63735408E-10
   44.6699982       7.18348769E-10
   44.7299995       6.53292753E-10
   44.7900009       5.74515380E-10
   44.8499985       4.90444796E-10
   44.9099998       4.10514289E-10
   44.9700012       3.43443884E-10
   45.0299988       2.95688862E-10
   45.0900002       2.70469785E-10
   45.1500015       2.67654537E-10
   45.2099991       2.84485380E-10
   45.2700005       3.16858095E-10
   45.3300018       3.60693170E-10
   45.3899994       4.12975792E-10
   45.4500008       4.72241968E-10
   45.5099983       5.38522504E-10
   45.5699997       6.12896622E-10
   45.6300011       6.96810831E-10
   45.6899986       7.91253119E-10
   45.7500000       8.95851449E-10
   45.8100014       1.00805886E-09
   45.8699989       1.12272014E-09
   45.9300003       1.23236421E-09
   45.9900017       1.32839117E-09
   46.0499992       1.40295275E-09
   46.1100006       1.45093759E-09
   46.1699982       1.47129231E-09
   46.2299995       1.46710011E-09
   46.2900009       1.44433698E-09
   46.3499985       1.40979017E-09
   46.4099998       1.36896305E-09
   46.4700012       1.32474332E-09
   46.5299988       1.27720579E-09
   46.5900002       1.22442023E-09
   46.6500015       1.16375898E-09
   46.7099991       1.09312526E-09
   46.7700005       1.01169673E-09
   46.8300018       9.20058918E-10
   46.8899994       8.19821433E-10
   46.9500008       7.12919446E-10
   47.0099983       6.00818728E-10
   47.0699997       4.83848073E-10
   47.1300011       3.60878466E-10
   47.1899986       2.29523345E-10
   47.2500000       8.68933536E-11
   47.3100014      -6.92870900E-11
   47.3699989      -2.39603726E-10
   47.4300003      -4.22376550E-10
   47.4900017      -6.13877338E-10
   47.5499992      -8.09294298E-10
   47.6100006      -1.00405573E-09
   47.6699982      -1.19496291E-09
   47.7299995      -1.38069001E-09
   47.7900009      -1.56151159E-09
   47.8499985      -1.73846293E-09
   47.9099998      -1.91232585E-09
   47.9700012      -2.08282436E-09
   48.0299988      -2.24824093E-09
   48.0900002      -2.40546472E-09
   48.1500015      -2.55036814E-09
   48.2099991      -2.67837552E-09
   48.2700005      -2.78513057E-09
   48.3300018      -2.86717494E-09
   48.3899994      -2.92253466E-09
   48.4500008      -2.95108271E-09
   48.5099983      -2.95456259E-09
   48.5699997      -2.93623903E-09
   48.6300011      -2.90025182E-09
   48.6899986      -2.85083579E-09
   48.7500000      -2.79158252E-09
   48.8100014      -2.72487077E-09
   48.8699989      -2.65154809E-09
   48.9300003      -2.57089372E-09
   48.9900017      -2.48090126E-09
   49.0499992      -2.37888864E-09
   49.1100006      -2.26236785E-09
   49.1699982      -2.12999729E-09
   49.2299995      -1.98232231E-09
   49.2900009      -1.82201643E-09
   49.3499985      -1.65344505E-09
   49.4099998      -1.48162171E-09
   49.4700012      -1.31084776E-09
   49.5299988      -1.14346765E-09
   49.5900002      -9.79150316E-10
   49.6500015      -8.14937617E-10
   49.7099991      -6.46065923E-10
   49.7700005      -4.67339722E-10
   49.8300018      -2.74674256E-10
   49.8899994      -6.63648997E-11
   49.9500008       1.56301069E-10
   50.0099983       3.89301341E-10
   50.0699997       6.26941998E-10
   50.1300011       8.63375871E-10
   50.1899986       1.09402942E-09
   50.2500000       1.31640598E-09
   50.3100014       1.52999502E-09
   50.3699989       1.73541614E-09
   50.4300003       1.93328731E-09
   50.4900017       2.12341855E-09
   50.5499992       2.30472463E-09
   50.6100006       2.47583332E-09