  -2.400000      0.0000000E+00
  -2.340000      0.0000000E+00
  -2.280000      0.0000000E+00
  -2.220000      0.0000000E+00
  -2.160000      0.0000000E+00
  -2.100000      0.0000000E+00
  -2.040000      0.0000000E+00
  -1.980000      0.0000000E+00
  -1.920000     -6.7564767E-28
  -1.860000      4.4536001E-27
  -1.800000      1.0262009E-25
  -1.740000      6.8575363E-25
  -1.680000      2.6059531E-24
  -1.620000      6.1111078E-24
  -1.560000      6.6739218E-24
  -1.500000     -1.1872050E-23
  -1.440000     -7.8445294E-23
  -1.380000     -2.1163728E-22
  -1.320000     -3.5708462E-22
  -1.260000     -3.0465566E-22
  -1.200000      3.3100424E-22
  -1.140000      1.9351218E-21
  -1.080000      4.4368179E-21
  -1.020000      6.6740369E-21
 -0.9600000      5.9603436E-21
 -0.9000000     -1.5448615E-21
 -0.8400000     -1.9068158E-20
 -0.7800000     -4.5805598E-20
 -0.7200000     -7.2390220E-20
 -0.6600000     -7.7193807E-20
 -0.6000000     -2.7543395E-20
 -0.5400000      1.0812126E-19
 -0.4800000      3.3222967E-19
 -0.4200000      5.7775764E-19
 -0.3600000      6.7694016E-19
 -0.3000000      3.8060413E-19
 -0.2400000     -5.2697588E-19
 -0.1800000     -2.0111772E-18
 -0.1200000     -3.5501392E-18
 -5.9999999E-02 -4.0640752E-18
  0.0000000E+00 -2.2318055E-18
  5.9999999E-02  2.7160659E-18
  0.1200000      9.9616360E-18
  0.1800000      1.6443376E-17
  0.2400000      1.7366778E-17
  0.3000000      8.3160231E-18
  0.3600000     -1.1534747E-17
  0.4200000     -3.6745666E-17
  0.4800000     -5.5657681E-17
  0.5400000     -5.4556783E-17
  0.6000000     -2.5108712E-17
  0.6600000      2.8495988E-17
  0.7200000      8.7596111E-17
  0.7800000      1.2556213E-16
  0.8400000      1.2125875E-16
  0.9000000      7.2444855E-17
  0.9600000     -3.7036529E-19
   1.020000     -6.5342590E-17
   1.080000     -1.0209086E-16
   1.140000     -1.2152129E-16
   1.200000     -1.6471849E-16
   1.260000     -2.7187219E-16
   1.320000     -4.3215552E-16
   1.380000     -5.4610660E-16
   1.440000     -4.3839627E-16
   1.500000      5.9692999E-17
   1.560000      9.7931525E-16
   1.620000      2.0993610E-15
   1.680000      2.9313108E-15
   1.740000      2.8595779E-15
   1.800000      1.4213019E-15
   1.860000     -1.3778147E-15
   1.920000     -4.8710828E-15
   1.980000     -7.8052909E-15
   2.040000     -8.7276411E-15
   2.100000     -6.5839719E-15
   2.160000     -1.2973625E-15
   2.220000      5.9469921E-15
   2.280000      1.2903913E-14
   2.340000      1.6963761E-14
   2.400000      1.6126389E-14
   2.460000      9.8807867E-15
   2.520000     -3.9550838E-16
   2.580000     -1.1745829E-14
   2.640000     -2.0601737E-14
   2.700000     -2.4065443E-14
   2.760000     -2.0991226E-14
   2.820000     -1.2391789E-14
   2.880000     -9.6408115E-16
   2.940000      1.0071519E-14
   3.000000      1.8273335E-14
   3.060000      2.2762311E-14
   3.120000      2.4054707E-14
   3.180000      2.3017690E-14
   3.240000      1.9578101E-14
   3.300000      1.2103985E-14
   3.360000     -1.8373928E-15
   3.420000     -2.3363359E-14
   3.480000     -4.9746228E-14
   3.540000     -7.3042063E-14
   3.600000     -8.1315265E-14
   3.660000     -6.2864935E-14
   3.720000     -1.2278751E-14
   3.780000      6.4242624E-14
   3.840000      1.4722445E-13
   3.900000      2.0779452E-13
   3.960000      2.1673195E-13
   4.020000      1.5582736E-13
   4.080000      2.7143647E-14
   4.140000     -1.4395019E-13
   4.200000     -3.1391464E-13
   4.260000     -4.3306369E-13
   4.320000     -4.6036693E-13
   4.380000     -3.7579984E-13
   4.440000     -1.8612690E-13
   4.500000      7.7199464E-14
   4.560000      3.6623127E-13
   4.620000      6.2707592E-13
   4.680000      8.0914388E-13
   4.740000      8.7126313E-13
   4.800000      7.8523825E-13
   4.860000      5.3894373E-13
   4.920000      1.4072898E-13
   4.980000     -3.7508858E-13
   5.040000     -9.4435972E-13
   5.100000     -1.4749857E-12
   5.160000     -1.8578145E-12
   5.220000     -1.9867220E-12
   5.280000     -1.7839407E-12
   5.340000     -1.2234983E-12
   5.400000     -3.4501094E-13
   5.460000      7.4739227E-13
   5.520000      1.9014491E-12
   5.580000      2.9437878E-12
   5.640000      3.7096736E-12
   5.700000      4.0674326E-12
   5.760000      3.9324425E-12
   5.820000      3.2701094E-12
   5.880000      2.0913926E-12
   5.940000      4.4642756E-13
   6.000000     -1.5788809E-12
   6.060000     -3.8611605E-12
   6.120000     -6.2338364E-12
   6.180000     -8.4805158E-12
   6.240000     -1.0330733E-11
   6.300000     -1.1459411E-11
   6.360000     -1.1488760E-11
   6.420000     -9.9892698E-12
   6.480000     -6.4764175E-12
   6.540000     -4.0209389E-13
   6.600000      8.8557989E-12
   6.660000      2.1997194E-11
   6.720000      3.9785550E-11
   6.780000      6.3004157E-11
   6.840000      9.2377751E-11
   6.900000      1.2846429E-10
   6.960000      1.7153448E-10
   7.020000      2.2146673E-10
   7.080000      2.7768896E-10
   7.140000      3.3919101E-10
   7.200000      4.0461523E-10
   7.260000      4.7240928E-10
   7.320000      5.4100618E-10
   7.380000      6.0898531E-10
   7.440000      6.7517408E-10
   7.500000      7.3866935E-10
   7.560000      7.9878260E-10
   7.620000      8.5493879E-10
   7.680000      9.0656749E-10
   7.740000      9.5302244E-10
   7.800000      9.9354747E-10
   7.860000      1.0272868E-09
   7.920000      1.0533245E-09
   7.980000      1.0707372E-09
   8.040000      1.0786556E-09
   8.100000      1.0763448E-09
   8.160000      1.0633175E-09
   8.220000      1.0394892E-09
   8.280000      1.0053515E-09
   8.340000      9.6211872E-10
   8.400000      9.1177910E-10
   8.460000      8.5698715E-10
   8.520000      8.0077317E-10
   8.580000      7.4609763E-10
   8.640000      6.9534106E-10
   8.700000      6.4985306E-10
   8.760000      6.0968669E-10
   8.820000      5.7359884E-10
   8.880000      5.3932681E-10
   8.940000      5.0407245E-10
   9.000000      4.6507179E-10
   9.060000      4.2010989E-10
   9.120000      3.6787234E-10
   9.180000      3.0808109E-10
   9.240000      2.4143010E-10
   9.300000      1.6938356E-10
   9.360000      9.3916985E-11
   9.420000      1.7266206E-11
   9.480000     -5.8284953E-11
   9.540000     -1.3058039E-10
   9.600000     -1.9774885E-10
   9.660000     -2.5835381E-10
   9.720000     -3.1152547E-10
   9.780000     -3.5704179E-10
   9.840000     -3.9531911E-10
   9.900000     -4.2728859E-10
   9.960000     -4.5416937E-10
   10.02000     -4.7718668E-10
   10.08000     -4.9730770E-10
   10.14000     -5.1506654E-10
   10.20000     -5.3052340E-10
   10.26000     -5.4336163E-10
   10.32000     -5.5308486E-10
   10.38000     -5.5925126E-10
   10.44000     -5.6167920E-10
   10.50000     -5.6057592E-10
   10.56000     -5.5657057E-10
   10.62000     -5.5066324E-10
   10.68000     -5.4412264E-10
   10.74000     -5.3837279E-10
   10.80000     -5.3490018E-10
   10.86000     -5.3519350E-10
   10.92000     -5.4070093E-10
   10.98000     -5.5277199E-10
   11.04000     -5.7254873E-10
   11.10000     -6.0079208E-10
   11.16000     -6.3767092E-10
   11.22000     -6.8258393E-10
   11.28000     -7.3410739E-10
   11.34000     -7.9013829E-10
   11.40000     -8.4823804E-10
   11.46000     -9.0609176E-10
   11.52000     -9.6192754E-10
   11.58000     -1.0147326E-09
   11.64000     -1.0641731E-09
   11.70000     -1.1102519E-09
   11.76000     -1.1528656E-09
   11.82000     -1.1914878E-09
   11.88000     -1.2251553E-09
   11.94000     -1.2527982E-09
   12.00000     -1.2737752E-09
   12.06000     -1.2883562E-09
   12.12000     -1.2978975E-09
   12.18000     -1.3045782E-09
   12.24000     -1.3107778E-09
   12.30000     -1.3183463E-09
   12.36000     -1.3280836E-09
   12.42000     -1.3396551E-09
   12.48000     -1.3519700E-09
   12.54000     -1.3638360E-09
   12.60000     -1.3745745E-09
   12.66000     -1.3843070E-09
   12.72000     -1.3937834E-09
   12.78000     -1.4038410E-09
   12.84000     -1.4147614E-09
   12.90000     -1.4258399E-09
   12.96000     -1.4353906E-09
   13.02000     -1.4412134E-09
   13.08000     -1.4413510E-09
   13.14000     -1.4348319E-09
   13.20000     -1.4221023E-09
   13.26000     -1.4049698E-09
   13.32000     -1.3860709E-09
   13.38000     -1.3680491E-09
   13.44000     -1.3527297E-09
   13.50000     -1.3405630E-09
   13.56000     -1.3305017E-09
   13.62000     -1.3203173E-09
   13.68000     -1.3072251E-09
   13.74000     -1.2885987E-09
   13.80000     -1.2625631E-09
   13.86000     -1.2283220E-09
   13.92000     -1.1861805E-09
   13.98000     -1.1373105E-09
   14.04000     -1.0833681E-09
   14.10000     -1.0260693E-09
   14.16000     -9.6681863E-10
   14.22000     -9.0644087E-10
   14.28000     -8.4505097E-10
   14.34000     -7.8207385E-10
   14.40000     -7.1641881E-10
   14.46000     -6.4678851E-10
   14.52000     -5.7207089E-10
   14.58000     -4.9172783E-10
   14.64000     -4.0607342E-10
   14.70000     -3.1635175E-10
   14.76000     -2.2457212E-10
   14.82000     -1.3313776E-10
   14.88000     -4.4374424E-11
   14.94000      3.9891743E-11
   15.00000      1.1856983E-10
   15.06000      1.9127991E-10
   15.12000      2.5809249E-10
   15.18000      3.1915007E-10
   15.24000      3.7434367E-10
   15.30000      4.2320505E-10
   15.36000      4.6509341E-10
   15.42000      4.9962728E-10
   15.48000      5.2718957E-10
   15.54000      5.4926164E-10
   15.60000      5.6836763E-10
   15.66000      5.8753202E-10
   15.72000      6.0934124E-10
   15.78000      6.3488481E-10
   15.84000      6.6295769E-10
   15.90000      6.8987832E-10
   15.96000      7.1010531E-10
   16.02000      7.1756723E-10
   16.08000      7.0734624E-10
   16.14000      6.7718237E-10
   16.20000      6.2827349E-10
   16.26000      5.6505184E-10
   16.32000      4.9396515E-10
   16.38000      4.2165252E-10
   16.44000      3.5314202E-10
   16.50000      2.9070057E-10
   16.56000      2.3372332E-10
   16.62000      1.7964272E-10
   16.68000      1.2543751E-10
   16.74000      6.9090650E-11
   16.80000      1.0394647E-11
   16.86000     -4.9192046E-11
   16.92000     -1.0750208E-10
   16.98000     -1.6293099E-10
   17.04000     -2.1538898E-10
   17.10000     -2.6644986E-10
   17.16000     -3.1857814E-10
   17.22000     -3.7373035E-10
   17.28000     -4.3191109E-10
   17.34000     -4.9030363E-10
   17.40000     -5.4338545E-10
   17.46000     -5.8407013E-10
   17.52000     -6.0553690E-10
   17.58000     -6.0315647E-10
   17.64000     -5.7587124E-10
   17.70000     -5.2655796E-10
   17.76000     -4.6122592E-10
   17.82000     -3.8728409E-10
   17.88000     -3.1142725E-10
   17.94000     -2.3783348E-10
   18.00000     -1.6727461E-10
   18.06000     -9.7433429E-11
   18.12000     -2.4292096E-11
   18.18000      5.5933681E-11
   18.24000      1.4503765E-10
   18.30000      2.4188104E-10
   18.36000      3.4256795E-10
   18.42000      4.4159273E-10
   18.48000      5.3344779E-10
   18.54000      6.1404409E-10
   18.60000      6.8143718E-10
   18.66000      7.3568329E-10
   18.72000      7.7801837E-10
   18.78000      8.0979051E-10
   18.84000      8.3161178E-10
   18.90000      8.4303864E-10
   18.96000      8.4283658E-10
   19.02000      8.2965290E-10
   19.08000      8.0278934E-10
   19.14000      7.6276407E-10
   19.20000      7.1145767E-10
   19.26000      6.5179728E-10
   19.32000      5.8709476E-10
   19.38000      5.2026855E-10
   19.44000      4.5320844E-10
   19.50000      3.8648099E-10
   19.56000      3.1943631E-10
   19.62000      2.5061866E-10
   19.68000      1.7827322E-10
   19.74000      1.0073263E-10
   19.80000      1.6569005E-11
   19.86000     -7.5444463E-11
   19.92000     -1.7638506E-10
   19.98000     -2.8704411E-10
   20.04000     -4.0750719E-10
   20.10000     -5.3654386E-10
   20.16000     -6.7107325E-10
   20.22000     -8.0603296E-10
   20.28000     -9.3488262E-10
   20.34000     -1.0507507E-09
   20.40000     -1.1479723E-09
   20.46000     -1.2235747E-09
   20.52000     -1.2782301E-09
   20.58000     -1.3163239E-09
   20.64000     -1.3450507E-09
   20.70000     -1.3727506E-09
   20.76000     -1.4069509E-09
   20.82000     -1.4526774E-09
   20.88000     -1.5115215E-09
   20.94000     -1.5817047E-09
   21.00000     -1.6590584E-09
   21.06000     -1.7385351E-09
   21.12000     -1.8157134E-09
   21.18000     -1.8878030E-09
   21.24000     -1.9538722E-09
   21.30000     -2.0143207E-09
   21.36000     -2.0698936E-09
   21.42000     -2.1206594E-09
   21.48000     -2.1653477E-09
   21.54000     -2.2012809E-09
   21.60000     -2.2249182E-09
   21.66000     -2.2328353E-09
   21.72000     -2.2228364E-09
   21.78000     -2.1948685E-09
   21.84000     -2.1514466E-09
   21.90000     -2.0974342E-09
   21.96000     -2.0391975E-09
   22.02000     -1.9833510E-09
   22.08000     -1.9354487E-09
   22.14000     -1.8990085E-09
   22.20000     -1.8751478E-09
   22.26000     -1.8628816E-09
   22.32000     -1.8598959E-09
   22.38000     -1.8634396E-09
   22.44000     -1.8709763E-09
   22.50000     -1.8803836E-09
   22.56000     -1.8897044E-09
   22.62000     -1.8966380E-09
   22.68000     -1.8980564E-09
   22.74000     -1.8897832E-09
   22.80000     -1.8667590E-09
   22.86000     -1.8236069E-09
   22.92000     -1.7554925E-09
   22.98000     -1.6591206E-09
   23.04000     -1.5336556E-09
   23.10000     -1.3813293E-09
   23.16000     -1.2075098E-09
   23.22000     -1.0200952E-09
   23.28000     -8.2825596E-10
   23.34000     -6.4075695E-10
   23.40000     -4.6425810E-10
   23.46000     -3.0204464E-10
   23.52000     -1.5354022E-10
   23.58000     -1.4737949E-11
   23.64000      1.2058048E-10
   23.70000      2.5918212E-10
   23.76000      4.0672604E-10
   23.82000      5.6653265E-10
   23.88000      7.3905920E-10
   23.94000      9.2214980E-10
   24.00000      1.1119059E-09
   24.06000      1.3038467E-09
   24.12000      1.4939545E-09
   24.18000      1.6792657E-09
   24.24000      1.8578614E-09
   24.30000      2.0283675E-09
   24.36000      2.1892772E-09
   24.42000      2.3384867E-09
   24.48000      2.4733122E-09
   24.54000      2.5910269E-09
   24.60000      2.6897027E-09
   24.66000      2.7690015E-09
   24.72000      2.8305902E-09
   24.78000      2.8780101E-09
   24.84000      2.9160436E-09
   24.90000      2.9497791E-09
   24.96000      2.9836307E-09
   25.02000      3.0205549E-09
   25.08000      3.0616301E-09
   25.14000      3.1060992E-09
   25.20000      3.1518765E-09
   25.26000      3.1964142E-09
   25.32000      3.2376894E-09
   25.38000      3.2749929E-09
   25.44000      3.3092120E-09
   25.50000      3.3424647E-09
   25.56000      3.3771976E-09
   25.62000      3.4151024E-09
   25.68000      3.4562981E-09
   25.74000      3.4991228E-09
   25.80000      3.5405987E-09
   25.86000      3.5773482E-09
   25.92000      3.6065610E-09
   25.98000      3.6266323E-09
   26.04000      3.6372807E-09
   26.10000      3.6391816E-09
   26.16000      3.6333374E-09
   26.22000      3.6204439E-09
   26.28000      3.6004764E-09
   26.34000      3.5726089E-09
   26.40000      3.5354901E-09
   26.46000      3.4878058E-09
   26.52000      3.4289740E-09
   26.58000      3.3597545E-09
   26.64000      3.2825112E-09
   26.70000      3.2009448E-09
   26.76000      3.1192706E-09
   26.82000      3.0410623E-09
   26.88000      2.9681508E-09
   26.94000      2.9000147E-09
   27.00000      2.8339406E-09
   27.06000      2.7659515E-09
   27.12000      2.6922100E-09
   27.18000      2.6104383E-09
   27.24000      2.5209019E-09
   27.30000      2.4266684E-09
   27.36000      2.3330886E-09
   27.42000      2.2466582E-09
   27.48000      2.1735609E-09
   27.54000      2.1182620E-09
   27.60000      2.0825064E-09
   27.66000      2.0649837E-09
   27.72000      2.0617712E-09
   27.78000      2.0674316E-09
   27.84000      2.0764395E-09
   27.90000      2.0844868E-09
   27.96000      2.0892572E-09
   28.02000      2.0904858E-09
   28.08000      2.0894060E-09
   28.14000      2.0879238E-09
   28.20000      2.0879294E-09
   28.26000      2.0910129E-09
   28.32000      2.0986084E-09
   28.38000      2.1123545E-09
   28.44000      2.1343636E-09
   28.50000      2.1671547E-09
   28.56000      2.2131974E-09
   28.62000      2.2741842E-09
   28.68000      2.3502740E-09
   28.74000      2.4395590E-09
   28.80000      2.5379436E-09
   28.86000      2.6395333E-09
   28.92000      2.7375078E-09
   28.98000      2.8253444E-09
   29.04000      2.8981184E-09
   29.10000      2.9535294E-09
   29.16000      2.9923068E-09
   29.22000      3.0177985E-09
   29.28000      3.0348186E-09
   29.34000      3.0481206E-09
   29.40000      3.0610359E-09
   29.46000      3.0747729E-09
   29.52000      3.0886049E-09
   29.58000      3.1007923E-09
   29.64000      3.1097815E-09
   29.70000      3.1151262E-09
   29.76000      3.1177396E-09
   29.82000      3.1194216E-09
   29.88000      3.1219327E-09
   29.94000      3.1260643E-09
   30.00000      3.1311116E-09
   30.06000      3.1349368E-09
   30.12000      3.1345364E-09
   30.18000      3.1268463E-09
   30.24000      3.1094656E-09
   30.30000      3.0810836E-09
   30.36000      3.0415466E-09
   30.42000      2.9916418E-09
   30.48000      2.9327372E-09
   30.54000      2.8664027E-09
   30.60000      2.7940872E-09
   30.66000      2.7168554E-09
   30.72000      2.6351754E-09
   30.78000      2.5487339E-09
   30.84000      2.4563029E-09
   30.90000      2.3557023E-09
   30.96000      2.2439324E-09
   31.02000      2.1175339E-09
   31.08000      1.9731896E-09
   31.14000      1.8084931E-09
   31.20000      1.6227235E-09
   31.26000      1.4174016E-09
   31.32000      1.1964115E-09
   31.38000      9.6558084E-10
   31.44000      7.3177664E-10
   31.50000      5.0175269E-10
   31.56000      2.8108021E-10
   31.62000      7.3459468E-11
   31.68000     -1.1944383E-10
   31.74000     -2.9770095E-10
   31.80000     -4.6258034E-10
   31.86000     -6.1601846E-10
   31.92000     -7.6025491E-10
   31.98000     -8.9762558E-10
   32.04000     -1.0303881E-09
   32.10000     -1.1604487E-09
   32.16000     -1.2889680E-09
   32.22000     -1.4159718E-09
   32.28000     -1.5401794E-09
   32.34000     -1.6592253E-09
   32.40000     -1.7702889E-09
   32.46000     -1.8709523E-09
   32.52000     -1.9599826E-09
   32.58000     -2.0377364E-09
   32.64000     -2.1060249E-09
   32.70000     -2.1674780E-09
   32.76000     -2.2246305E-09
   32.82000     -2.2790405E-09
   32.88000     -2.3307438E-09
   32.94000     -2.3782174E-09
   33.00000     -2.4188767E-09
   33.06000     -2.4499425E-09
   33.12000     -2.4693909E-09
   33.18000     -2.4766467E-09
   33.24000     -2.4727747E-09
   33.30000     -2.4601003E-09
   33.36000     -2.4414404E-09
   33.42000     -2.4193032E-09
   33.48000     -2.3954452E-09
   33.54000     -2.3710007E-09
   33.60000     -2.3471189E-09
   33.66000     -2.3257509E-09
   33.72000     -2.3101343E-09
   33.78000     -2.3046287E-09
   33.84000     -2.3138678E-09
   33.90000     -2.3415208E-09
   33.96000     -2.3891562E-09
   34.02000     -2.4556861E-09
   34.08000     -2.5376334E-09
   34.14000     -2.6301721E-09
   34.20000     -2.7286051E-09
   34.26000     -2.8298235E-09
   34.32000     -2.9332821E-09
   34.38000     -3.0411635E-09
   34.44000     -3.1576004E-09
   34.50000     -3.2870855E-09
   34.56000     -3.4324712E-09
   34.62000     -3.5931520E-09
   34.68000     -3.7640806E-09
   34.74000     -3.9360586E-09
   34.80000     -4.0973460E-09
   34.86000     -4.2361408E-09
   34.92000     -4.3431214E-09
   34.98000     -4.4132036E-09
   35.04000     -4.4459800E-09
   35.10000     -4.4448325E-09
   35.16000     -4.4152166E-09
   35.22000     -4.3628559E-09
   35.28000     -4.2924988E-09
   35.34000     -4.2075201E-09
   35.40000     -4.1102837E-09
   35.46000     -4.0028909E-09
   35.52000     -3.8879282E-09
   35.58000     -3.7689252E-09
   35.64000     -3.6504137E-09
   35.70000     -3.5375953E-09
   35.76000     -3.4356895E-09
   35.82000     -3.3490875E-09
   35.88000     -3.2804928E-09
   35.94000     -3.2303067E-09
   36.00000     -3.1964966E-09
   36.06000     -3.1750504E-09
   36.12000     -3.1609022E-09
   36.18000     -3.1489868E-09
   36.24000     -3.1350158E-09
   36.30000     -3.1157021E-09
   36.36000     -3.0884539E-09
   36.42000     -3.0508314E-09
   36.48000     -3.0001803E-09
   36.54000     -2.9337337E-09
   36.60000     -2.8491896E-09
   36.66000     -2.7454949E-09
   36.72000     -2.6234410E-09
   36.78000     -2.4857687E-09
   36.84000     -2.3367317E-09
   36.90000     -2.1813018E-09
   36.96000     -2.0243351E-09
   37.02000     -1.8699688E-09
   37.08000     -1.7213696E-09
   37.14000     -1.5807734E-09
   37.20000     -1.4496617E-09
   37.26000     -1.3289155E-09
   37.32000     -1.2188648E-09
   37.38000     -1.1192456E-09
   37.44000     -1.0291525E-09
   37.50000     -9.4709363E-10
   37.56000     -8.7122309E-10
   37.62000     -7.9975987E-10
   37.68000     -7.3150397E-10
   37.74000     -6.6628475E-10
   37.80000     -6.0514366E-10
   37.86000     -5.5010824E-10
   37.92000     -5.0354865E-10
   37.98000     -4.6728732E-10
   38.04000     -4.4177650E-10
   38.10000     -4.2568973E-10
   38.16000     -4.1615772E-10
   38.22000     -4.0964040E-10
   38.28000     -4.0316153E-10
   38.34000     -3.9545250E-10
   38.40000     -3.8754364E-10
   38.46000     -3.8252759E-10
   38.52000     -3.8452910E-10
   38.58000     -3.9723352E-10
   38.64000     -4.2251738E-10
   38.70000     -4.5970375E-10
   38.76000     -5.0573329E-10
   38.82000     -5.5618227E-10
   38.88000     -6.0672140E-10
   38.94000     -6.5443007E-10
   39.00000     -6.9844863E-10
   39.06000     -7.3972806E-10
   39.12000     -7.8001666E-10
   39.18000     -8.2053642E-10
   39.24000     -8.6092361E-10
   39.30000     -8.9888713E-10
   39.36000     -9.3074576E-10
   39.42000     -9.5265196E-10
   39.48000     -9.6204344E-10
   39.54000     -9.5876884E-10
   39.60000     -9.4543240E-10
   39.66000     -9.2675723E-10
   39.72000     -9.0809726E-10
   39.78000     -8.9354019E-10
   39.84000     -8.8423363E-10
   39.90000     -8.7756391E-10
   39.96000     -8.6758306E-10
   40.02000     -8.4665780E-10
   40.08000     -8.0785306E-10
   40.14000     -7.4723094E-10
   40.20000     -6.6522038E-10
   40.26000     -5.6652549E-10
   40.32000     -4.5859844E-10
   40.38000     -3.4926037E-10
   40.44000     -2.4437932E-10
   40.50000     -1.4645904E-10
   40.56000     -5.4598631E-11
   40.62000      3.4269500E-11
   40.68000      1.2342416E-10
   40.74000      2.1445587E-10
   40.80000      3.0610853E-10
   40.86000      3.9423770E-10
   40.92000      4.7286824E-10
   40.98000      5.3598542E-10
   41.04000      5.7947525E-10
   41.10000      6.0257854E-10
   41.16000      6.0835553E-10
   41.22000      6.0295458E-10
   41.28000      5.9387556E-10
   41.34000      5.8778982E-10
   41.40000      5.8867483E-10
   41.46000      5.9693228E-10
   41.52000      6.0978828E-10
   41.58000      6.2277117E-10
   41.64000      6.3164485E-10
   41.70000      6.3403777E-10
   41.76000      6.3019601E-10
   41.82000      6.2269545E-10
   41.88000      6.1536864E-10
   41.94000      6.1194516E-10
   42.00000      6.1490679E-10
   42.06000      6.2488109E-10
   42.12000      6.4066047E-10
   42.18000      6.5975070E-10
   42.24000      6.7924677E-10
   42.30000      6.9678524E-10
   42.36000      7.1130385E-10
   42.42000      7.2335599E-10
   42.48000      7.3482226E-10
   42.54000      7.4804363E-10
   42.60000      7.6462647E-10
   42.66000      7.8433632E-10
   42.72000      8.0450541E-10
   42.78000      8.2021251E-10
   42.84000      8.2521712E-10
   42.90000      8.1338242E-10
   42.96000      7.8019458E-10
   43.02000      7.2400869E-10
   43.08000      6.4676059E-10
   43.14000      5.5400523E-10
   43.20000      4.5424534E-10
   43.26000      3.5761641E-10
   43.32000      2.7413707E-10
   43.38000      2.1189692E-10
   43.44000      1.7566051E-10
   43.50000      1.6631337E-10
   43.56000      1.8132697E-10
   43.62000      2.1606078E-10
   43.68000      2.6541125E-10
   43.74000      3.2522712E-10
   43.80000      3.9306980E-10
   43.86000      4.6821103E-10
   43.92000      5.5104349E-10
   43.98000      6.4220584E-10
   44.04000      7.4167894E-10
   44.10000      8.4801005E-10
   44.16000      9.5777608E-10
   44.22000      1.0654405E-09
   44.28000      1.1637968E-09
   44.34000      1.2450994E-09
   44.40000      1.3027215E-09
   44.46000      1.3328528E-09
   44.52000      1.3355713E-09
   44.58000      1.3147631E-09
   44.64000      1.2768081E-09
   44.70000      1.2284999E-09
   44.76000      1.1750120E-09
   44.82000      1.1186932E-09
   44.88000      1.0590632E-09
   44.94000      9.9383224E-10
   45.00000      9.2038122E-10
   45.06000      8.3704921E-10
   45.12000      7.4381290E-10
   45.18000      6.4226269E-10
   45.24000      5.3504290E-10
   45.30000      4.2501358E-10
   45.36000      3.1436490E-10
   45.42000      2.0387934E-10
   45.48000      9.2534334E-11
   45.54000     -2.2371976E-11
   45.60000     -1.4448556E-10
   45.66000     -2.7718774E-10
   45.72000     -4.2230419E-10
   45.78000     -5.7925142E-10
   45.84000     -7.4502099E-10
   45.90000     -9.1505126E-10
   45.96000     -1.0846267E-09
   46.02000     -1.2502001E-09
   46.08000     -1.4100928E-09
   46.14000     -1.5643533E-09
   46.20000     -1.7139526E-09
   46.26000     -1.8597496E-09
   46.32000     -2.0016677E-09
   46.38000     -2.1383160E-09
   46.44000     -2.2670457E-09
   46.50000     -2.3842865E-09
   46.56000     -2.4860014E-09
   46.62000     -2.5681932E-09
   46.68000     -2.6274474E-09
   46.74000     -2.6614928E-09
   46.80000     -2.6696707E-09
   46.86000     -2.6531641E-09
   46.92000     -2.6148621E-09
   46.98000     -2.5588476E-09
   47.04000     -2.4896343E-09
   47.10000     -2.4113467E-09
   47.16000     -2.3270301E-09
   47.22000     -2.2382223E-09
   47.28000     -2.1448430E-09
   47.34000     -2.0454154E-09
   47.40000     -1.9376112E-09
   47.46000     -1.8190525E-09
   47.52000     -1.6882168E-09
   47.58000     -1.5451951E-09
   47.64000     -1.3920273E-09
   47.70000     -1.2324191E-09
   47.76000     -1.0708419E-09
   47.82000     -9.1125463E-10
   47.88000     -7.5585621E-10
   47.94000     -6.0430805E-10
   48.00000     -4.5372267E-10
   48.06000     -2.9946537E-10
   48.12000     -1.3653927E-10
   48.18000      3.8875823E-11
   48.24000      2.2822295E-10
   48.30000      4.3009679E-10
   48.36000      6.4065414E-10
   48.42000      8.5475160E-10
   48.48000      1.0673885E-09
   48.54000      1.2749146E-09
   48.60000      1.4755541E-09
   48.66000      1.6690987E-09
   48.72000      1.8559906E-09
   48.78000      2.0363022E-09
   48.84000      2.2091566E-09
   48.90000      2.3728957E-09
   48.96000      2.5258970E-09
   49.02000      2.6675797E-09
   49.08000      2.7990170E-09
   49.14000      2.9227554E-09
   49.20000      3.0418525E-09
   49.26000      3.1585474E-09
   49.32000      3.2731713E-09
   49.38000      3.3838059E-09
   49.44000      3.4868419E-09
   49.50000      3.5781980E-09
   49.56000      3.6546957E-09
   49.62000      3.7150838E-09
   49.68000      3.7603800E-09
   49.74000      3.7934886E-09
   49.80000      3.8182768E-09
   49.86000      3.8384242E-09
   49.92000      3.8563770E-09
   49.98000      3.8726937E-09
   50.04000      3.8859702E-09
   50.10000      3.8933812E-09
   50.16000      3.8916763E-09
   50.22000      3.8782773E-09
   50.28000      3.8520156E-09
   50.34000      3.8131689E-09
   50.40000      3.7627470E-09
   50.46000      3.7013745E-09
   50.52000      3.6283689E-09
   50.58000      3.5415908E-09
   50.64000      3.4382706E-09
   50.70000      3.3165100E-09
   50.76000      3.1767791E-09
   50.82000      3.0226808E-09
   50.88000      2.8606004E-09
   50.94000      2.6983771E-09
   51.00000      2.5435620E-09
   51.06000      2.4019653E-09
   51.12000      2.2769748E-09
   51.18000      2.1697701E-09
   51.24000      2.0802251E-09
   51.30000      2.0081306E-09
   51.36000      1.9543738E-09
   51.42000      1.9217892E-09
   51.48000      1.9154531E-09
   51.54000      1.9422981E-09
   51.60000      2.0100686E-09
   51.66000      2.1259097E-09
   51.72000      2.2951014E-09
   51.78000      2.5205318E-09
   51.84000      2.8032376E-09
   51.90000      3.1438694E-09
   51.96000      3.5444740E-09
   52.02000      4.0097938E-09
   52.08000      4.5475224E-09
   52.14000      5.1674842E-09
   52.20000      5.8801932E-09
   52.26000      6.6954575E-09
   52.32000      7.6215310E-09
   52.38000      8.6649230E-09
   52.44000      9.8306785E-09
   52.50000      1.1122848E-08
   52.56000      1.2544977E-08
   52.62000      1.4100614E-08
   52.68000      1.5793725E-08
   52.74000      1.7628849E-08
   52.80000      1.9610697E-08
   52.86000      2.1743023E-08
   52.92000      2.4027043E-08
   52.98000      2.6459887E-08
   53.04000      2.9033769E-08
   53.10000      3.1736132E-08
   53.16000      3.4550521E-08
   53.22000      3.7457625E-08
   53.28000      4.0435829E-08
   53.34000      4.3461171E-08
   53.40000      4.6506809E-08
   53.46000      4.9542493E-08
   53.52000      5.2534151E-08
   53.58000      5.5443486E-08
   53.64000      5.8227382E-08
   53.70000      6.0836939E-08
   53.76000      6.3216703E-08
   53.82000      6.5304590E-08
   53.88000      6.7032900E-08
   53.94000      6.8330195E-08
   54.00000      6.9123111E-08
   54.06000      6.9337219E-08
   54.12000      6.8896505E-08
   54.18000      6.7722048E-08
   54.24000      6.5730802E-08
   54.30000      6.2835454E-08
   54.36000      5.8945705E-08
   54.42000      5.3970261E-08
   54.48000      4.7818652E-08
   54.54000      4.0402448E-08
   54.60000      3.1636059E-08
   54.66000      2.1437643E-08
   54.72000      9.7306998E-09
   54.78000     -3.5537935E-09
   54.84000     -1.8475184E-08
   54.90000     -3.5081868E-08
   54.96000     -5.3410638E-08
   55.02000     -7.3486589E-08
   55.08000     -9.5322477E-08
   55.14000     -1.1891728E-07
   55.20000     -1.4425405E-07
   55.26000     -1.7129781E-07
   55.32000     -1.9999410E-07
   55.38000     -2.3026804E-07
   55.44000     -2.6202443E-07
   55.50000     -2.9514766E-07
   55.56000     -3.2950189E-07