 -0.750000000       0.00000000    
 -0.689999998       0.00000000    
 -0.629999995       0.00000000    
 -0.569999993       0.00000000    
 -0.509999990       0.00000000    
 -0.449999988       0.00000000    
 -0.389999986       0.00000000    
 -0.330000013       0.00000000    
 -0.270000011       4.51471567E-27
 -0.209999993       5.01414351E-26
 -0.150000006       2.66559477E-25
  -9.00000036E-02   8.47172813E-25
  -2.99999993E-02   1.46332002E-24
   2.99999993E-02  -6.33184087E-25
   9.00000036E-02  -1.38168893E-23
  0.150000006      -5.32207029E-23
  0.209999993      -1.29909488E-22
  0.270000011      -2.12946552E-22
  0.330000013      -1.58287919E-22
  0.389999986       3.58922902E-22
  0.449999988       1.78959273E-21
  0.509999990       4.33544181E-21
  0.569999993       7.10314613E-21
  0.629999995       6.98286567E-21
  0.689999998      -1.84429914E-21
  0.750000000      -2.60744325E-20
  0.810000002      -6.73625647E-20
  0.870000005      -1.12343755E-19
  0.930000007      -1.22907937E-19
  0.990000010      -3.67233360E-20
   1.04999995       2.08772322E-19
   1.11000001       6.20937861E-19
   1.16999996       1.07575325E-18
   1.23000002       1.26200433E-18
   1.28999996       7.15250409E-19
   1.35000002      -9.88937229E-19
   1.40999997      -3.86964396E-18
   1.47000003      -7.11285164E-18
   1.52999997      -8.84335401E-18
   1.59000003      -6.44854579E-18
   1.64999998       2.28998583E-18
   1.71000004       1.73678365E-17
   1.76999998       3.47259553E-17
   1.83000004       4.56501856E-17
   1.88999999       3.87149246E-17
   1.95000005       4.81680340E-18
   2.00999999      -5.58054753E-17
   2.06999993      -1.27642399E-16
   2.13000011      -1.79326523E-16
   2.19000006      -1.71782107E-16
   2.25000000      -7.50836408E-17
   2.30999994       1.11122874E-16
   2.36999989       3.43210656E-16
   2.43000007       5.35486924E-16
   2.49000001       5.83872304E-16
   2.54999995       4.07129112E-16
   2.60999990      -8.99871673E-18
   2.67000008      -5.84854121E-16
   2.73000002      -1.15348862E-15
   2.78999996      -1.50430839E-15
   2.84999990      -1.45078173E-15
   2.91000009      -8.97800396E-16
   2.97000003       1.15566621E-16
   3.02999997       1.41036746E-15
   3.08999991       2.69546742E-15
   3.15000010       3.61528316E-15
   3.21000004       3.80724496E-15
   3.26999998       2.97088844E-15
   3.32999992       9.58895612E-16
   3.39000010      -2.10891489E-15
   3.45000005      -5.73769912E-15
   3.50999999      -9.02082042E-15
   3.56999993      -1.07529147E-14
   3.63000011      -9.73771861E-15
   3.69000006      -5.25172074E-15
   3.75000000       2.47903017E-15
   3.80999994       1.20013049E-14
   3.86999989       2.07530695E-14
   3.93000007       2.56565331E-14
   3.99000001       2.40774502E-14
   4.05000019       1.48614150E-14
   4.11000013      -9.33053484E-16
   4.17000008      -1.99339802E-14
   4.23000002      -3.71304550E-14
   4.28999996      -4.72036350E-14
   4.34999990      -4.61515862E-14
   4.40999985      -3.27036744E-14
   4.46999979      -9.03303633E-15
   4.53000021       1.95489224E-14
   4.59000015       4.59300736E-14
   4.65000010       6.32295865E-14
   4.71000004       6.68944744E-14
   4.76999998       5.61205169E-14
   4.82999992       3.40205735E-14
   4.88999987       6.40041897E-15
   4.94999981      -2.04186762E-14
   5.01000023      -4.18193312E-14
   5.07000017      -5.61385079E-14
   5.13000011      -6.43426759E-14
   5.19000006      -6.83078472E-14
   5.25000000      -6.86793423E-14
   5.30999994      -6.36277936E-14
   5.36999989      -4.94238981E-14
   5.42999983      -2.27383284E-14
   5.48999977       1.65417149E-14
   5.55000019       6.37146992E-14
   5.61000013       1.10119806E-13
   5.67000008       1.46288336E-13
   5.73000002       1.65699431E-13
   5.78999996       1.66755390E-13
   5.84999990       1.51380007E-13
   5.90999985       1.20712265E-13
   5.96999979       7.06392681E-14
   6.03000021      -9.07048959E-15
   6.09000015      -1.29498124E-13
   6.15000010      -2.91915065E-13
   6.21000004      -4.76325576E-13
   6.26999998      -6.36056095E-13
   6.32999992      -7.04202809E-13
   6.38999987      -6.13246866E-13
   6.44999981      -3.22841363E-13
   6.51000023       1.54426629E-13
   6.57000017       7.40848246E-13
   6.63000011       1.30283729E-12
   6.69000006       1.68186548E-12
   6.75000000       1.73887261E-12
   6.80999994       1.39820826E-12
   6.86999989       6.76632903E-13
   6.92999983      -3.12204256E-13
   6.98999977      -1.37923895E-12
   7.05000019      -2.30080581E-12
   7.11000013      -2.86729039E-12
   7.17000008      -2.92766636E-12
   7.23000002      -2.42118348E-12
   7.28999996      -1.39208306E-12
   7.34999990       1.30504331E-14
   7.40999985       1.56396998E-12
   7.46999979       2.97992707E-12
   7.53000021       3.97537472E-12
   7.59000015       4.31423473E-12
   7.65000010       3.86479173E-12
   7.71000004       2.64299476E-12
   7.76999998       8.29962835E-13
   7.82999992      -1.24765454E-12
   7.88999987      -3.17743965E-12
   7.94999981      -4.55191787E-12
   8.01000023      -5.06915733E-12
   8.06999969      -4.61526867E-12
   8.13000011      -3.30244230E-12
   8.18999958      -1.44702924E-12
   8.25000000       5.10396901E-13
   8.31000042       2.12259810E-12
   8.36999989       3.05725844E-12
   8.43000031       3.18621843E-12
   8.48999977       2.61519430E-12
   8.55000019       1.64558840E-12
   8.60999966       6.82154311E-13
   8.67000008       1.17939011E-13
   8.72999954       2.34586764E-13
   8.78999996       1.14889554E-12
   8.85000038       2.81808279E-12
   8.90999985       5.09363515E-12
   8.97000027       7.79617343E-12
   9.02999973       1.07785968E-11
   9.09000015       1.39538476E-11
   9.14999962       1.72825695E-11
   9.21000004       2.07352989E-11
   9.27000046       2.42542306E-11
   9.32999992       2.77355812E-11
   9.39000034       3.10378390E-11
   9.44999981       3.40021344E-11
   9.51000023       3.64603417E-11
   9.56999969       3.82116387E-11
   9.63000011       3.89685680E-11
   9.68999958       3.82989716E-11
   9.75000000       3.56070867E-11
   9.81000042       3.01925845E-11
   9.86999989       2.13994152E-11
   9.93000031       8.82507435E-12
   9.98999977      -7.47567893E-12
   10.0500002      -2.68725459E-11
   10.1099997      -4.81879883E-11
   10.1700001      -6.98858402E-11
   10.2299995      -9.03756028E-11
   10.2900000      -1.08342557E-10
   10.3500004      -1.23000984E-10
   10.4099998      -1.34195183E-10
   10.4700003      -1.42328593E-10
   10.5299997      -1.48165050E-10
   10.5900002      -1.52588955E-10
   10.6499996      -1.56417670E-10
   10.7100000      -1.60325017E-10
   10.7700005      -1.64876876E-10
   10.8299999      -1.70621794E-10
   10.8900003      -1.78150536E-10
   10.9499998      -1.88050436E-10
   11.0100002      -2.00731889E-10
   11.0699997      -2.16173413E-10
   11.1300001      -2.33688596E-10
   11.1899996      -2.51834414E-10
   11.2500000      -2.68546296E-10
   11.3100004      -2.81508317E-10
   11.3699999      -2.88676860E-10
   11.4300003      -2.88809338E-10
   11.4899998      -2.81833529E-10
   11.5500002      -2.68939843E-10
   11.6099997      -2.52367183E-10
   11.6700001      -2.34953529E-10
   11.7299995      -2.19590915E-10
   11.7900000      -2.08737527E-10
   11.8500004      -2.04096337E-10
   11.9099998      -2.06491449E-10
   11.9700003      -2.15900867E-10
   12.0299997      -2.31567931E-10
   12.0900002      -2.52126042E-10
   12.1499996      -2.75719170E-10
   12.2100000      -3.00148822E-10
   12.2700005      -3.23097382E-10
   12.3299999      -3.42448042E-10
   12.3900003      -3.56659507E-10
   12.4499998      -3.65090791E-10
   12.5100002      -3.68148317E-10
   12.5699997      -3.67163994E-10
   12.6300001      -3.64004382E-10
   12.6899996      -3.60515534E-10
   12.7500000      -3.57982810E-10
   12.8100004      -3.56787933E-10
   12.8699999      -3.56374680E-10
   12.9300003      -3.55517504E-10
   12.9899998      -3.52773394E-10
   13.0500002      -3.46937146E-10
   13.1099997      -3.37337241E-10
   13.1700001      -3.23891247E-10
   13.2299995      -3.06949577E-10
   13.2900000      -2.87042390E-10
   13.3500004      -2.64674144E-10
   13.4099998      -2.40274051E-10
   13.4700003      -2.14332163E-10
   13.5299997      -1.87666424E-10
   13.5900002      -1.61709521E-10
   13.6499996      -1.38693113E-10
   13.7100000      -1.21638755E-10
   13.7700005      -1.14118472E-10
   13.8299999      -1.19808885E-10
   13.8900003      -1.41913536E-10
   13.9499998      -1.82567586E-10
   14.0100002      -2.42360382E-10
   14.0699997      -3.20109717E-10
   14.1300001      -4.12982509E-10
   14.1899996      -5.16976129E-10
   14.2500000      -6.27663754E-10
   14.3100004      -7.41001427E-10
   14.3699999      -8.53939808E-10
   14.4300003      -9.64627267E-10
   14.4899998      -1.07212683E-09
   14.5500002      -1.17576415E-09
   14.6099997      -1.27439093E-09
   14.6700001      -1.36590450E-09
   14.7299995      -1.44727830E-09
   14.7900000      -1.51514146E-09
   14.8500004      -1.56670765E-09
   14.9099998      -1.60068514E-09
   14.9700003      -1.61779512E-09
   15.0299997      -1.62067681E-09
   15.0900002      -1.61319347E-09
   15.1499996      -1.59937275E-09
   15.2100000      -1.58231095E-09
   15.2700005      -1.56332780E-09
   15.3299999      -1.54152158E-09
   15.3900003      -1.51372259E-09
   15.4499998      -1.47476176E-09
   15.5100002      -1.41797207E-09
   15.5699997      -1.33589284E-09
   15.6300001      -1.22118482E-09
   15.6899996      -1.06771925E-09
   15.7500000      -8.71711703E-10
   15.8100004      -6.32655706E-10
   15.8699999      -3.53762825E-10
   15.9300003      -4.16896170E-11
   15.9899998       2.94489960E-10
   16.0499992       6.44873988E-10
   16.1100006       1.00050135E-09
   16.1700001       1.35484279E-09
   16.2299995       1.70462966E-09
   16.2900009       2.04983253E-09
   16.3500004       2.39285458E-09
   16.4099998       2.73722267E-09
   16.4699993       3.08617842E-09
   16.5300007       3.44154771E-09
   16.5900002       3.80311649E-09
   16.6499996       4.16849577E-09
   16.7099991       4.53327020E-09
   16.7700005       4.89107244E-09
   16.8299999       5.23332711E-09
   16.8899994       5.54859181E-09
   16.9500008       5.82174398E-09
   17.0100002       6.03352612E-09
   17.0699997       6.16101481E-09
   17.1299992       6.17940898E-09
   17.1900005       6.06513240E-09
   17.2500000       5.79972959E-09
   17.3099995       5.37364464E-09
   17.3700008       4.78884798E-09
   17.4300003       4.05948786E-09
   17.4899998       3.21027760E-09
   17.5499992       2.27298091E-09
   17.6100006       1.28191568E-09
   17.6700001       2.69668760E-10
   17.7299995      -7.35931760E-10
   17.7900009      -1.71302517E-09
   17.8500004      -2.64522160E-09
   17.9099998      -3.52010487E-09
   17.9699993      -4.32771907E-09
   18.0300007      -5.05987074E-09
   18.0900002      -5.71057290E-09
   18.1499996      -6.27726982E-09
   18.2099991      -6.76200607E-09
   18.2700005      -7.17157222E-09
   18.3299999      -7.51606510E-09
   18.3899994      -7.80599496E-09
   18.4500008      -8.04882294E-09
   18.5100002      -8.24621438E-09
   18.5699997      -8.39318925E-09
   18.6299992      -8.47972359E-09
   18.6900005      -8.49447268E-09
   18.7500000      -8.42951309E-09
   18.8099995      -8.28460589E-09
   18.8700008      -8.06968092E-09
   18.9300003      -7.80483411E-09
   18.9899998      -7.51795337E-09
   19.0499992      -7.24075067E-09
   19.1100006      -7.00434288E-09
   19.1700001      -6.83543888E-09
   19.2299995      -6.75379397E-09
   19.2900009      -6.77105838E-09
   19.3500004      -6.89072177E-09
   19.4099998      -7.10861459E-09
   19.4699993      -7.41353245E-09
   19.5300007      -7.78781040E-09
   19.5900002      -8.20802892E-09
   19.6499996      -8.64622596E-09
   19.7099991      -9.07193876E-09
   19.7700005      -9.45509093E-09
   19.8299999      -9.76928227E-09
   19.8899994      -9.99473038E-09
   19.9500008      -1.01200186E-08
   20.0100002      -1.01421422E-08
   20.0699997      -1.00648823E-08
   20.1299992      -9.89612214E-09
   20.1900005      -9.64503322E-09
   20.2500000      -9.31999988E-09
   20.3099995      -8.92775986E-09
   20.3700008      -8.47364667E-09
   20.4300003      -7.96245558E-09
   20.4899998      -7.39925898E-09
   20.5499992      -6.78975054E-09
   20.6100006      -6.14006668E-09
   20.6700001      -5.45639933E-09
   20.7299995      -4.74492667E-09
   20.7900009      -4.01242550E-09
   20.8500004      -3.26763994E-09
   20.9099998      -2.52302690E-09
   20.9699993      -1.79616466E-09
   21.0300007      -1.11004539E-09
   21.0900002      -4.91689578E-10
   21.1499996       3.09476715E-11
   21.2099991       4.33184932E-10
   21.2700005       6.97829294E-10
   21.3299999       8.18148493E-10
   21.3899994       7.98687505E-10
   21.4500008       6.53749277E-10
   21.5100002       4.04210332E-10
   21.5699997       7.39399791E-11
   21.6299992      -3.12852660E-10
   21.6900005      -7.32541416E-10
   21.7500000      -1.16135224E-09
   21.8099995      -1.57387137E-09
   21.8700008      -1.94206273E-09
   21.9300003      -2.23584240E-09
   21.9899998      -2.42555376E-09
   22.0499992      -2.48584842E-09
   22.1100006      -2.39986653E-09
   22.1700001      -2.16245710E-09
   22.2299995      -1.78147852E-09
   22.2900009      -1.27680955E-09
   22.3500004      -6.77328027E-10
   22.4099998      -1.66074134E-11
   22.4699993       6.71681599E-10
   22.5300007       1.35768774E-09
   22.5900002       2.01789319E-09
   22.6499996       2.63592970E-09
   22.7099991       3.20189741E-09
   22.7700005       3.71080922E-09
   22.8299999       4.16095380E-09
   22.8899994       4.55283145E-09
   22.9500008       4.88889240E-09
   23.0100002       5.17383292E-09
   23.0699997       5.41488454E-09
   23.1299992       5.62155922E-09
   23.1900005       5.80461501E-09
   23.2500000       5.97444716E-09
   23.3099995       6.13935791E-09
   23.3700008       6.30417585E-09
   23.4300003       6.46944409E-09
   23.4899998       6.63115340E-09
   23.5499992       6.78087142E-09
   23.6100006       6.90624269E-09
   23.6700001       6.99201275E-09
   23.7299995       7.02181646E-09
   23.7900009       6.98079328E-09
   23.8500004       6.85870294E-09
   23.9099998       6.65282185E-09
   23.9699993       6.36972208E-09
   24.0300007       6.02521277E-09
   24.0900002       5.64220581E-09
   24.1499996       5.24687316E-09
   24.2099991       4.86392704E-09
   24.2700005       4.51211646E-09
   24.3299999       4.20097956E-09
   24.3899994       3.92962862E-09
   24.4500008       3.68788089E-09
   24.5100002       3.45948048E-09
   24.5699997       3.22656257E-09
   24.6299992       2.97405034E-09
   24.6900005       2.69259659E-09
   24.7500000       2.37906583E-09
   24.8099995       2.03443395E-09
   24.8700008       1.66001091E-09
   24.9300003       1.25369581E-09
   24.9899998       8.08103529E-10
   25.0499992       3.11776022E-10
   25.1100006      -2.46525467E-10
   25.1700001      -8.71759553E-10
   25.2299995      -1.55697166E-09
   25.2900009      -2.28037766E-09
   25.3500004      -3.00671910E-09
   25.4099998      -3.69311604E-09
   25.4699993      -4.29817115E-09
   25.5300007      -4.79189577E-09
   25.5900002      -5.16352028E-09
   25.6499996      -5.42458833E-09
   25.7099991      -5.60594904E-09
   25.7700005      -5.74901060E-09
   25.8299999      -5.89351679E-09
   25.8899994      -6.06543216E-09
   25.9500008      -6.26878949E-09
   26.0100002      -6.48432108E-09
   26.0699997      -6.67555788E-09
   26.1299992      -6.80060985E-09
   26.1900005      -6.82586876E-09
   26.2500000      -6.73716860E-09
   26.3099995      -6.54478560E-09
   26.3700008      -6.28074392E-09
   26.4300003      -5.98943251E-09
   26.4899998      -5.71472114E-09
   26.5499992      -5.48780799E-09
   26.6100006      -5.31971489E-09
   26.6700001      -5.20079357E-09
   26.7299995      -5.10734210E-09
   26.7900009      -5.01309971E-09
   26.8500004      -4.90174568E-09
   26.9099998      -4.77604312E-09
   26.9699993      -4.66021977E-09
   27.0300007      -4.59430849E-09
   27.0900002      -4.62190686E-09
   27.1499996      -4.77518292E-09
   27.2099991      -5.06214404E-09
   27.2700005      -5.46064705E-09
   27.3299999      -5.92151306E-09
   27.3899994      -6.38010755E-09
   27.4500008      -6.77290402E-09
   27.5100002      -7.05389969E-09
   27.5699997      -7.20577242E-09
   27.6299992      -7.24236537E-09
   27.6900005      -7.20181115E-09
   27.7500000      -7.13253812E-09
   27.8099995      -7.07656822E-09
   27.8700008      -7.05537007E-09
   27.9300003      -7.06275127E-09
   27.9899998      -7.06709402E-09
   28.0499992      -7.02228098E-09
   28.1100006      -6.88376334E-09
   28.1700001      -6.62442146E-09
   28.2299995      -6.24475760E-09
   28.2900009      -5.77375747E-09
   28.3500004      -5.25988941E-09
   28.4099998      -4.75514472E-09
   28.4699993      -4.29754232E-09
   28.5300007      -3.89819688E-09
   28.5900002      -3.53762797E-09
   28.6499996      -3.17296833E-09
   28.7099991      -2.75408807E-09
   28.7700005      -2.24365659E-09
   28.8299999      -1.63468816E-09
   28.8899994      -9.59676671E-10
   28.9500008      -2.87821544E-10
   29.0100002       2.89555796E-10
   29.0699997       6.81556034E-10
   29.1299992       8.21591850E-10
   29.1900005       6.85167367E-10
   29.2500000       2.95612673E-10
   29.3099995      -2.84571061E-10
   29.3700008      -9.74494041E-10
   29.4300003      -1.70141556E-09
   29.4899998      -2.42452547E-09
   29.5499992      -3.14815440E-09
   29.6100006      -3.91997901E-09
   29.6700001      -4.81472995E-09
   29.7299995      -5.90873039E-09
   29.7900009      -7.25359772E-09
   29.8500004      -8.85767193E-09
   29.9099998      -1.06811582E-08
   29.9699993      -1.26464510E-08
   30.0300007      -1.46601851E-08
   30.0900002      -1.66397260E-08
   30.1499996      -1.85353652E-08
   30.2099991      -2.03407815E-08
   30.2700005      -2.20881482E-08
   30.3299999      -2.38293119E-08
   30.3899994      -2.56093422E-08
   30.4500008      -2.74414873E-08
   30.5100002      -2.92925453E-08
   30.5699997      -3.10842516E-08
   30.6299992      -3.27110605E-08
   30.6900005      -3.40688615E-08
   30.7500000      -3.50853284E-08
   30.8099995      -3.57417207E-08
   30.8700008      -3.60785535E-08
   30.9300003      -3.61829429E-08
   30.9899998      -3.61612678E-08
   31.0499992      -3.61057850E-08
   31.1100006      -3.60657921E-08
   31.1700001      -3.60324783E-08
   31.2299995      -3.59422216E-08
   31.2900009      -3.56972585E-08
   31.3500004      -3.51969796E-08
   31.4099998      -3.43696946E-08
   31.4699993      -3.31947270E-08
   31.5300007      -3.17077493E-08
   31.5900002      -2.99880902E-08
   31.6499996      -2.81326376E-08
   31.7099991      -2.62255124E-08
   31.7700005      -2.43137777E-08
   31.8299999      -2.23972787E-08
   31.8899994      -2.04354453E-08
   31.9500008      -1.83681248E-08
   32.0099983      -1.61427014E-08
   32.0699997      -1.37379121E-08
   32.1300011      -1.11762146E-08
   32.1899986      -8.52058868E-09
   32.2500000      -5.85699622E-09
   32.3100014      -3.26840621E-09
   32.3699989      -8.08999201E-10
   32.4300003       1.51289170E-09
   32.4900017       3.73732822E-09
   32.5499992       5.93962479E-09
   32.6100006       8.20536705E-09
   32.6699982       1.06013349E-08
   32.7299995       1.31515350E-08
   32.7900009       1.58260143E-08
   32.8499985       1.85460856E-08
   32.9099998       2.12042153E-08
   32.9700012       2.36920972E-08
   33.0299988       2.59278945E-08
   33.0900002       2.78741350E-08
   33.1500015       2.95410185E-08
   33.2099991       3.09749417E-08
   33.2700005       3.22366667E-08
   33.3300018       3.33767076E-08
   33.3899994       3.44160540E-08
   33.4500008       3.53381324E-08
   33.5099983       3.60941890E-08
   33.5699997       3.66199373E-08
   33.6300011       3.68576600E-08
   33.6899986       3.67764947E-08
   33.7500000       3.63840655E-08
   33.8100014       3.57256802E-08
   33.8699989       3.48712881E-08
   33.9300003       3.38945370E-08
   33.9900017       3.28509770E-08
   34.0499992       3.17627418E-08
   34.1100006       3.06149133E-08
   34.1699982       2.93646387E-08
   34.2299995       2.79598353E-08
   34.2900009       2.63611106E-08
   34.3499985       2.45595331E-08
   34.4099998       2.25845529E-08
   34.4700012       2.04996855E-08
   34.5299988       1.83876185E-08
   34.5900002       1.63295955E-08
   34.6500015       1.43855541E-08
   34.7099991       1.25809159E-08
   34.7700005       1.09037215E-08
   34.8300018       9.31249389E-09
   34.8899994       7.75197684E-09
   34.9500008       6.17157925E-09
   35.0099983       4.54078242E-09
   35.0699997       2.85695978E-09
   35.1300011       1.14375664E-09
   35.1899986      -5.58623703E-10
   35.2500000      -2.20725704E-09
   35.3100014      -3.76936882E-09
   35.3699989      -5.22988541E-09
   35.4300003      -6.59154020E-09
   35.4900017      -7.86823851E-09
   35.5499992      -9.07469389E-09
   35.6100006      -1.02164055E-08
   35.6699982      -1.12835421E-08
   35.7299995      -1.22506352E-08
   35.7900009      -1.30819160E-08
   35.8499985      -1.37403005E-08
   35.9099998      -1.41971128E-08
   35.9700012      -1.44396504E-08
   36.0299988      -1.44745727E-08
   36.0900002      -1.43264405E-08
   36.1500015      -1.40321736E-08
   36.2099991      -1.36332403E-08
   36.2700005      -1.31678801E-08
   36.3300018      -1.26653834E-08
   36.3899994      -1.21436274E-08
   36.4500008      -1.16099228E-08
   36.5099983      -1.10642855E-08
   36.5699997      -1.05037374E-08
   36.6300011      -9.92635130E-09
   36.6899986      -9.33426048E-09
   36.7500000      -8.73542927E-09
   36.8100014      -8.14434387E-09
   36.8699989      -7.58180629E-09
   36.9300003      -7.07381309E-09
   36.9900017      -6.64938105E-09
   37.0499992      -6.33732045E-09
   37.1100006      -6.16234219E-09
   37.1699982      -6.14134787E-09
   37.2299995      -6.28095886E-09
   37.2900009      -6.57714683E-09
   37.3499985      -7.01722369E-09
   37.4099998      -7.58369989E-09
   37.4700012      -8.25889224E-09
   37.5299988      -9.02889052E-09
   37.5900002      -9.88570026E-09
   37.6500015      -1.08268612E-08
   37.7099991      -1.18526220E-08
   37.7700005      -1.29614834E-08
   37.8300018      -1.41455621E-08
   37.8899994      -1.53875241E-08
   37.9500008      -1.66605680E-08
   38.0099983      -1.79322015E-08
   38.0699997      -1.91712122E-08
   38.1300011      -2.03559196E-08
   38.1899986      -2.14808846E-08
   38.2500000      -2.25592807E-08
   38.3100014      -2.36193163E-08
   38.3699989      -2.46950691E-08
   38.4300003      -2.58141970E-08
   38.4900017      -2.69864131E-08
   38.5499992      -2.81967107E-08
   38.6100006      -2.94060190E-08
   38.6699982      -3.05596082E-08
   38.7299995      -3.16010969E-08
   38.7900009      -3.24879110E-08
   38.8499985      -3.32034595E-08
   38.9099998      -3.37620456E-08
   38.9700012      -3.42045858E-08
   39.0299988      -3.45860371E-08
   39.0900002      -3.49579601E-08
   39.1500015      -3.53516185E-08
   39.2099991      -3.57670267E-08
   39.2700005      -3.61719437E-08
   39.3300018      -3.65116257E-08
   39.3899994      -3.67266253E-08
   39.4500008      -3.67729172E-08
   39.5099983      -3.66374451E-08
   39.5699997      -3.63435575E-08
   39.6300011      -3.59440158E-08
   39.6899986      -3.55036178E-08
   39.7500000      -3.50771572E-08
   39.8100014      -3.46902027E-08
   39.8699989      -3.43293642E-08
   39.9300003      -3.39456321E-08
   39.9900017      -3.34699344E-08
   40.0499992      -3.28360805E-08
   40.1100006      -3.20036868E-08
   40.1699982      -3.09735704E-08
   40.2299995      -2.97903107E-08
   40.2900009      -2.85308666E-08
   40.3499985      -2.72824376E-08
   40.4099998      -2.61166626E-08
   40.4700012      -2.50685570E-08
   40.5299988      -2.41273455E-08
   40.5900002      -2.32425545E-08
   40.6500015      -2.23434942E-08
   40.7099991      -2.13656364E-08
   40.7700005      -2.02747739E-08
   40.8300018      -1.90805718E-08
   40.8899994      -1.78347523E-08
   40.9500008      -1.66146172E-08
   41.0099983      -1.54977151E-08
   41.0699997      -1.45365515E-08
   41.1300011      -1.37420511E-08
   41.1899986      -1.30813715E-08
   41.2500000      -1.24906263E-08
   41.3100014      -1.18979981E-08
   41.3699989      -1.12492620E-08
   41.4300003      -1.05269562E-08
   41.4900017      -9.75661241E-09
   41.5499992      -8.99777497E-09
   41.6100006      -8.32274338E-09
   41.6699982      -7.79021381E-09
   41.7299995      -7.42290185E-09
   41.7900009      -7.19711224E-09
   41.8499985      -7.04814429E-09
   41.9099998      -6.88994772E-09
   41.9700012      -6.64237554E-09
   42.0299988      -6.25660102E-09
   42.0900002      -5.72989434E-09
   42.1500015      -5.10474685E-09
   42.2099991      -4.45283765E-09
   42.2700005      -3.84958954E-09
   42.3300018      -3.34808981E-09
   42.3899994      -2.96107361E-09
   42.4500008      -2.65660716E-09
   42.5099983      -2.36837505E-09
   42.5699997      -2.01669592E-09
   42.6300011      -1.53314184E-09
   42.6899986      -8.80802764E-10
   42.7500000      -6.39559863E-11
   42.8100014       8.75528483E-10
   42.8699989       1.87340055E-09
   42.9300003       2.86455237E-09
   42.9900017       3.80363741E-09
   43.0499992       4.67809036E-09
   43.1100006       5.50956791E-09
   43.1699982       6.34387654E-09
   43.2299995       7.23336591E-09
   43.2900009       8.21817014E-09
   43.3499985       9.31272481E-09
   43.4099998       1.05017861E-08
   43.4700012       1.17465904E-08
   43.5299988       1.29982887E-08
   43.5900002       1.42135415E-08
   43.6500015       1.53669060E-08
   43.7099991       1.64562231E-08
   43.7700005       1.74998700E-08
   43.8300018       1.85274143E-08
   43.8899994       1.95672367E-08
   43.9500008       2.06352073E-08
   44.0099983       2.17278533E-08
   44.0699997       2.28218582E-08
   44.1300011       2.38795579E-08
   44.1899986       2.48584922E-08
   44.2500000       2.57218602E-08
   44.3100014       2.64468980E-08
   44.3699989       2.70290297E-08
   44.4300003       2.74812084E-08
   44.4900017       2.78292838E-08
   44.5499992       2.81052248E-08
   44.6100006       2.83401960E-08
   44.6699982       2.85590502E-08
   44.7299995       2.87770270E-08
   44.7900009       2.89988016E-08
   44.8499985       2.92195264E-08
   44.9099998       2.94274702E-08
   44.9700012       2.96077634E-08
   45.0299988       2.97466265E-08
   45.0900002       2.98353982E-08
   45.1500015       2.98733553E-08
   45.2099991       2.98685876E-08
   45.2700005       2.98363467E-08
   45.3300018       2.97951281E-08
   45.3899994       2.97612868E-08
   45.4500008       2.97436706E-08
   45.5099983       2.97398959E-08
   45.5699997       2.97356095E-08
   45.6300011       2.97074134E-08
   45.6899986       2.96290654E-08
   45.7500000       2.94794660E-08
   45.8100014       2.92500708E-08
   45.8699989       2.89491595E-08
   45.9300003       2.86010557E-08
   45.9900017       2.82398300E-08
   46.0499992       2.78989170E-08
   46.1100006       2.75997927E-08
   46.1699982       2.73435017E-08
   46.2299995       2.71082872E-08
   46.2900009       2.68547016E-08
   46.3499985       2.65370357E-08
   46.4099998       2.61176289E-08
   46.4700012       2.55794230E-08
   46.5299988       2.49324756E-08
   46.5900002       2.42119498E-08
   46.6500015       2.34678765E-08
   46.7099991       2.27497132E-08
   46.7700005       2.20905836E-08
   46.8300018       2.14964047E-08
   46.8899994       2.09436770E-08
   46.9500008       2.03869561E-08
   47.0099983       1.97738004E-08
   47.0699997       1.90622043E-08
   47.1300011       1.82346493E-08
   47.1899986       1.73037087E-08
   47.2500000       1.63071618E-08
   47.3100014       1.52942476E-08
   47.3699989       1.43079095E-08
   47.4300003       1.33695170E-08
   47.4900017       1.24715971E-08
   47.5499992       1.15813199E-08
   47.6100006       1.06535349E-08
   47.6699982       9.64870317E-09
   47.7299995       8.54935589E-09
   47.7900009       7.36923322E-09
   47.8499985       6.15183593E-09
   47.9099998       4.95881780E-09
   47.9700012       3.85205778E-09
   48.0299988       2.87537305E-09
   48.0900002       2.04188888E-09
   48.1500015       1.33116951E-09
   48.2099991       6.96995184E-10
   48.2700005       8.31813785E-11
   48.3300018      -5.57746294E-10
   48.3899994      -1.24908039E-09
   48.4500008      -1.98259342E-09
   48.5099983      -2.72152167E-09
   48.5699997      -3.41262241E-09
   48.6300011      -4.00308275E-09
   48.6899986      -4.45654802E-09
   48.7500000      -4.76299133E-09
   48.8100014      -4.93938579E-09
   48.8699989      -5.02135489E-09
   48.9300003      -5.04904163E-09
   48.9900017      -5.05231634E-09
   49.0499992      -5.04044095E-09
   49.1100006      -4.99955100E-09
   49.1699982      -4.89846652E-09
   49.2299995      -4.70039208E-09
   49.2900009      -4.37618519E-09
   49.3499985      -3.91458421E-09
   49.4099998      -3.32614447E-09
   49.4700012      -2.64004951E-09
   49.5299988      -1.89545246E-09
   49.5900002      -1.13068399E-09
   49.6500015      -3.74019010E-10
   49.7099991       3.61255359E-10
   49.7700005       1.07648257E-09
   49.8300018       1.78283799E-09
   49.8899994       2.49422749E-09
   49.9500008       3.22042770E-09
   50.0099983       3.96253652E-09
   50.0699997       4.71177097E-09
   50.1300011       5.45143886E-09
   50.1899986       6.16095441E-09
   50.2500000       6.82031454E-09
   50.3100014       7.41355288E-09
   50.3699989       7.93032839E-09
   50.4300003       8.36562819E-09
   50.4900017       8.71831851E-09
   50.5499992       8.98962682E-09
   50.6100006       9.18246634E-09