  -2.400000      0.0000000E+00
  -2.340000      0.0000000E+00
  -2.280000      0.0000000E+00
  -2.220000      0.0000000E+00
  -2.160000      0.0000000E+00
  -2.100000      0.0000000E+00
  -2.040000      0.0000000E+00
  -1.980000      0.0000000E+00
  -1.920000      0.0000000E+00
  -1.860000     -2.5205738E-29
  -1.800000     -2.9063930E-28
  -1.740000     -1.4717958E-27
  -1.680000     -3.5163560E-27
  -1.620000      1.8177576E-27
  -1.560000      4.7450741E-26
  -1.500000      1.9309709E-25
  -1.440000      4.3151737E-25
  -1.380000      3.9646764E-25
  -1.320000     -1.0227494E-24
  -1.260000     -5.4589628E-24
  -1.200000     -1.2888901E-23
  -1.140000     -1.6745553E-23
  -1.080000      8.7335235E-25
  -1.020000      6.4808590E-23
 -0.9600000      1.8066558E-22
 -0.9000000      2.8456987E-22
 -0.8400000      1.9897630E-22
 -0.7800000     -3.3174254E-22
 -0.7200000     -1.4405938E-21
 -0.6600000     -2.7693237E-21
 -0.6000000     -3.1316713E-21
 -0.5400000     -6.4379744E-22
 -0.4800000      6.2062925E-21
 -0.4200000      1.6515380E-20
 -0.3600000      2.4883585E-20
 -0.3000000      2.1298355E-20
 -0.2400000     -4.8193312E-21
 -0.1800000     -5.5921313E-20
 -0.1200000     -1.1625943E-19
 -5.9999999E-02 -1.4784381E-19
  0.0000000E+00 -1.0099133E-19
  5.9999999E-02  5.7218855E-20
  0.1200000      3.0530280E-19
  0.1800000      5.4296559E-19
  0.2400000      6.0760402E-19
  0.3000000      3.4627642E-19
  0.3600000     -2.7506994E-19
  0.4200000     -1.0819636E-18
  0.4800000     -1.6960052E-18
  0.5400000     -1.6796967E-18
  0.6000000     -7.8916169E-19
  0.6600000      7.9173117E-19
  0.7200000      2.4082942E-18
  0.7800000      3.1941850E-18
  0.8400000      2.5706079E-18
  0.9000000      7.1807823E-19
  0.9600000     -1.3398994E-18
   1.020000     -2.2580017E-18
   1.080000     -1.3330997E-18
   1.140000      6.7570792E-19
   1.200000      1.6129874E-18
   1.260000     -7.4741124E-19
   1.320000     -6.5961090E-18
   1.380000     -1.2576799E-17
   1.440000     -1.2493550E-17
   1.500000     -9.3692618E-19
   1.560000      2.1438083E-17
   1.620000      4.4267150E-17
   1.680000      4.9303588E-17
   1.740000      1.9498693E-17
   1.800000     -4.7319628E-17
   1.860000     -1.2757543E-16
   1.920000     -1.7311862E-16
   1.980000     -1.2997220E-16
   2.040000      2.9020295E-17
   2.100000      2.7222284E-16
   2.160000      4.9863543E-16
   2.220000      5.6495314E-16
   2.280000      3.5005564E-16
   2.340000     -1.6587298E-16
   2.400000     -8.4759527E-16
   2.460000     -1.4161201E-15
   2.520000     -1.5414510E-15
   2.580000     -9.9342967E-16
   2.640000      2.1103283E-16
   2.700000      1.7411857E-15
   2.760000      3.0207778E-15
   2.820000      3.4300186E-15
   2.880000      2.5724399E-15
   2.940000      4.9299027E-16
   3.000000     -2.2615562E-15
   3.060000     -4.7890811E-15
   3.120000     -6.1432776E-15
   3.180000     -5.6872791E-15
   3.240000     -3.3411238E-15
   3.300000      3.8068310E-16
   3.360000      4.5479668E-15
   3.420000      8.1159038E-15
   3.480000      1.0204696E-14
   3.540000      1.0245467E-14
   3.600000      7.9761671E-15
   3.660000      3.3764881E-15
   3.720000     -3.3235216E-15
   3.780000     -1.1480502E-14
   3.840000     -1.9777000E-14
   3.900000     -2.6065066E-14
   3.960000     -2.7572569E-14
   4.020000     -2.1630172E-14
   4.080000     -6.8301582E-15
   4.140000      1.5764698E-14
   4.200000      4.1931451E-14
   4.260000      6.4636149E-14
   4.320000      7.5619612E-14
   4.380000      6.7921654E-14
   4.440000      3.8578858E-14
   4.500000     -9.4848683E-15
   4.560000     -6.7188781E-14
   4.620000     -1.2094545E-13
   4.680000     -1.5586251E-13
   4.740000     -1.5958609E-13
   4.800000     -1.2568099E-13
   4.860000     -5.5653856E-14
   4.920000      4.0785880E-14
   4.980000      1.4711500E-13
   5.040000      2.4259932E-13
   5.100000      3.0562372E-13
   5.160000      3.1738306E-13
   5.220000      2.6565401E-13
   5.280000      1.4826423E-13
   5.340000     -2.4404390E-14
   5.400000     -2.2878531E-13
   5.460000     -4.3020871E-13
   5.520000     -5.8798799E-13
   5.580000     -6.6288430E-13
   5.640000     -6.2539676E-13
   5.700000     -4.6284341E-13
   5.760000     -1.8345011E-13
   5.820000      1.8342256E-13
   5.880000      5.9063605E-13
   5.940000      9.7910081E-13
   6.000000      1.2848015E-12
   6.060000      1.4462151E-12
   6.120000      1.4119615E-12
   6.180000      1.1487834E-12
   6.240000      6.4950682E-13
   6.300000     -6.0327313E-14
   6.360000     -9.1931725E-13
   6.420000     -1.8327213E-12
   6.480000     -2.6816743E-12
   6.540000     -3.3381093E-12
   6.600000     -3.6823739E-12
   6.660000     -3.6195016E-12
   6.720000     -3.0906527E-12
   6.780000     -2.0781770E-12
   6.840000     -6.0521445E-13
   6.900000      1.2673836E-12
   6.960000      3.4435245E-12
   7.020000      5.7913591E-12
   7.080000      8.1391187E-12
   7.140000      1.0268290E-11
   7.200000      1.1906108E-11
   7.260000      1.2719669E-11
   7.320000      1.2313907E-11
   7.380000      1.0235844E-11
   7.440000      5.9878105E-12
   7.500000     -9.4770958E-13
   7.560000     -1.1069754E-11
   7.620000     -2.4807420E-11
   7.680000     -4.2458426E-11
   7.740000     -6.4123519E-11
   7.800000     -8.9643848E-11
   7.860000     -1.1854742E-10
   7.920000     -1.5000878E-10
   7.980000     -1.8282340E-10
   8.040000     -2.1539782E-10
   8.100000     -2.4575825E-10
   8.160000     -2.7158389E-10
   8.220000     -2.9027539E-10
   8.280000     -2.9906908E-10
   8.340000     -2.9520553E-10
   8.400000     -2.7614963E-10
   8.460000     -2.3984872E-10
   8.520000     -1.8499947E-10
   8.580000     -1.1128447E-10
   8.640000     -1.9534653E-11
   8.700000      8.8219376E-11
   8.760000      2.0882934E-10
   8.820000      3.3824232E-10
   8.880000      4.7181620E-10
   8.940000      6.0468824E-10
   9.000000      7.3213857E-10
   9.060000      8.4989649E-10
   9.120000      9.5436259E-10
   9.180000      1.0427492E-09
   9.240000      1.1131664E-09
   9.300000      1.1646917E-09
   9.360000      1.1974443E-09
   9.420000      1.2126522E-09
   9.480000      1.2126622E-09
   9.540000      1.2008221E-09
   9.600000      1.1811792E-09
   9.660000      1.1579872E-09
   9.720000      1.1350866E-09
   9.780000      1.1152870E-09
   9.840000      1.0999123E-09
   9.900000      1.0886394E-09
   9.960000      1.0796839E-09
   10.02000      1.0702830E-09
   10.08000      1.0573392E-09
   10.14000      1.0380524E-09
   10.20000      1.0103938E-09
   10.26000      9.7335395E-10
   10.32000      9.2698604E-10
   10.38000      8.7232233E-10
   10.44000      8.1125051E-10
   10.50000      7.4638945E-10
   10.56000      6.8094208E-10
   10.62000      6.1846134E-10
   10.68000      5.6247818E-10
   10.74000      5.1600185E-10
   10.80000      4.8098819E-10
   10.86000      4.5792581E-10
   10.92000      4.4568543E-10
   10.98000      4.4169998E-10
   11.04000      4.4242560E-10
   11.10000      4.4393386E-10
   11.16000      4.4244897E-10
   11.22000      4.3468992E-10
   11.28000      4.1798617E-10
   11.34000      3.9024867E-10
   11.40000      3.4994019E-10
   11.46000      2.9616720E-10
   11.52000      2.2892031E-10
   11.58000      1.4937473E-10
   11.64000      6.0083320E-11
   11.70000     -3.5100343E-11
   11.76000     -1.3144323E-10
   11.82000     -2.2404097E-10
   11.88000     -3.0863739E-10
   11.94000     -3.8233081E-10
   12.00000     -4.4397855E-10
   12.06000     -4.9421311E-10
   12.12000     -5.3510774E-10
   12.18000     -5.6962307E-10
   12.24000     -6.0100436E-10
   12.30000     -6.3227312E-10
   12.36000     -6.6589534E-10
   12.42000     -7.0363254E-10
   12.48000     -7.4652984E-10
   12.54000     -7.9496804E-10
   12.60000     -8.4871726E-10
   12.66000     -9.0695768E-10
   12.72000     -9.6827502E-10
   12.78000     -1.0306725E-09
   12.84000     -1.0916600E-09
   12.90000     -1.1484719E-09
   12.96000     -1.1984299E-09
   13.02000     -1.2394122E-09
   13.08000     -1.2703356E-09
   13.14000     -1.2915241E-09
   13.20000     -1.3048529E-09
   13.26000     -1.3135993E-09
   13.32000     -1.3220220E-09
   13.38000     -1.3347548E-09
   13.44000     -1.3561549E-09
   13.50000     -1.3897337E-09
   13.56000     -1.4377561E-09
   13.62000     -1.5010266E-09
   13.68000     -1.5788320E-09
   13.74000     -1.6689884E-09
   13.80000     -1.7679682E-09
   13.86000     -1.8711155E-09
   13.92000     -1.9729882E-09
   13.98000     -2.0678614E-09
   14.04000     -2.1503705E-09
   14.10000     -2.2162105E-09
   14.16000     -2.2627467E-09
   14.22000     -2.2893836E-09
   14.28000     -2.2975926E-09
   14.34000     -2.2905868E-09
   14.40000     -2.2727402E-09
   14.46000     -2.2489077E-09
   14.52000     -2.2238020E-09
   14.58000     -2.2015281E-09
   14.64000     -2.1852926E-09
   14.70000     -2.1772362E-09
   14.76000     -2.1783229E-09
   14.82000     -2.1882545E-09
   14.88000     -2.2054323E-09
   14.94000     -2.2270250E-09
   15.00000     -2.2492039E-09
   15.06000     -2.2675546E-09
   15.12000     -2.2776157E-09
   15.18000     -2.2754569E-09
   15.24000     -2.2582023E-09
   15.30000     -2.2244460E-09
   15.36000     -2.1745394E-09
   15.42000     -2.1107436E-09
   15.48000     -2.0372162E-09
   15.54000     -1.9597706E-09
   15.60000     -1.8853368E-09
   15.66000     -1.8211007E-09
   15.72000     -1.7734220E-09
   15.78000     -1.7467419E-09
   15.84000     -1.7427744E-09
   15.90000     -1.7602393E-09
   15.96000     -1.7952506E-09
   16.02000     -1.8422587E-09
   16.08000     -1.8952477E-09
   16.14000     -1.9488062E-09
   16.20000     -1.9987461E-09
   16.26000     -2.0421411E-09
   16.32000     -2.0769080E-09
   16.38000     -2.1012290E-09
   16.44000     -2.1131821E-09
   16.50000     -2.1108153E-09
   16.56000     -2.0926751E-09
   16.62000     -2.0585476E-09
   16.68000     -2.0100221E-09
   16.74000     -1.9505184E-09
   16.80000     -1.8846129E-09
   16.86000     -1.8168189E-09
   16.92000     -1.7502334E-09
   16.98000     -1.6855933E-09
   17.04000     -1.6211689E-09
   17.10000     -1.5536155E-09
   17.16000     -1.4795138E-09
   17.22000     -1.3970172E-09
   17.28000     -1.3069256E-09
   17.34000     -1.2126966E-09
   17.40000     -1.1193017E-09
   17.46000     -1.0313052E-09
   17.52000     -9.5088581E-10
   17.58000     -8.7658436E-10
   17.64000     -8.0331297E-10
   17.70000     -7.2368428E-10
   17.76000     -6.3020267E-10
   17.82000     -5.1751481E-10
   17.88000     -3.8388792E-10
   17.94000     -2.3138630E-10
   18.00000     -6.4732726E-11
   18.06000      1.1064547E-10
   18.12000      2.9058247E-10
   18.18000      4.7338189E-10
   18.24000      6.5983830E-10
   18.30000      8.5214552E-10
   18.36000      1.0522025E-09
   18.42000      1.2600303E-09
   18.48000      1.4728997E-09
   18.54000      1.6854418E-09
   18.60000      1.8906035E-09
   18.66000      2.0810336E-09
   18.72000      2.2504154E-09
   18.78000      2.3943900E-09
   18.84000      2.5109417E-09
   18.90000      2.6002960E-09
   18.96000      2.6644729E-09
   19.02000      2.7066094E-09
   19.08000      2.7301359E-09
   19.14000      2.7379063E-09
   19.20000      2.7314602E-09
   19.26000      2.7106755E-09
   19.32000      2.6740494E-09
   19.38000      2.6196645E-09
   19.44000      2.5465954E-09
   19.50000      2.4562299E-09
   19.56000      2.3528726E-09
   19.62000      2.2432047E-09
   19.68000      2.1346220E-09
   19.74000      2.0330093E-09
   19.80000      1.9408608E-09
   19.86000      1.8566242E-09
   19.92000      1.7757033E-09
   19.98000      1.6928442E-09
   20.04000      1.6049793E-09
   20.10000      1.5133046E-09
   20.16000      1.4235937E-09
   20.22000      1.3444348E-09
   20.28000      1.2839526E-09
   20.34000      1.2462651E-09
   20.40000      1.2291246E-09
   20.46000      1.2237940E-09
   20.52000      1.2173633E-09
   20.58000      1.1967507E-09
   20.64000      1.1529450E-09
   20.70000      1.0839135E-09
   20.76000      9.9508379E-10
   20.82000      8.9721214E-10
   20.88000      8.0243834E-10
   20.94000      7.1999645E-10
   21.00000      6.5317363E-10
   21.06000      5.9861860E-10
   21.12000      5.4821336E-10
   21.18000      4.9275961E-10
   21.24000      4.2607223E-10
   21.30000      3.4794209E-10
   21.36000      2.6488581E-10
   21.42000      1.8844193E-10
   21.48000      1.3168981E-10
   21.54000      1.0530499E-10
   21.60000      1.1459324E-10
   21.66000      1.5852644E-10
   21.72000      2.3101268E-10
   21.78000      3.2378261E-10
   21.84000      4.2969273E-10
   21.90000      5.4514826E-10
   21.96000      6.7075312E-10
   22.02000      8.1002682E-10
   22.08000      9.6678987E-10
   22.14000      1.1423165E-09
   22.20000      1.3334047E-09
   22.26000      1.5321238E-09
   22.32000      1.7273394E-09
   22.38000      1.9074511E-09
   22.44000      2.0633566E-09
   22.50000      2.1906241E-09
   22.56000      2.2901769E-09
   22.62000      2.3673550E-09
   22.68000      2.4297637E-09
   22.74000      2.4846787E-09
   22.80000      2.5368398E-09
   22.86000      2.5872566E-09
   22.92000      2.6332534E-09
   22.98000      2.6695843E-09
   23.04000      2.6901708E-09
   23.10000      2.6899016E-09
   23.16000      2.6660085E-09
   23.22000      2.6187104E-09
   23.28000      2.5510360E-09
   23.34000      2.4679341E-09
   23.40000      2.3749216E-09
   23.46000      2.2766296E-09
   23.52000      2.1756164E-09
   23.58000      2.0717792E-09
   23.64000      1.9625477E-09
   23.70000      1.8438393E-09
   23.76000      1.7115097E-09
   23.82000      1.5628612E-09
   23.88000      1.3977193E-09
   23.94000      1.2187134E-09
   24.00000      1.0306540E-09
   24.06000      8.3921059E-10
   24.12000      6.4932348E-10
   24.18000      4.6386786E-10
   24.24000      2.8298250E-10
   24.30000      1.0424240E-10
   24.36000     -7.6422757E-11
   24.42000     -2.6337968E-10
   24.48000     -4.5993517E-10
   24.54000     -6.6736672E-10
   24.60000     -8.8459889E-10
   24.66000     -1.1085863E-09
   24.72000     -1.3352519E-09
   24.78000     -1.5606575E-09
   24.84000     -1.7820012E-09
   24.90000     -1.9980724E-09
   24.96000     -2.2089726E-09
   25.02000     -2.4151723E-09
   25.08000     -2.6162545E-09
   25.14000     -2.8098577E-09
   25.20000     -2.9913148E-09
   25.26000     -3.1542511E-09
   25.32000     -3.2920260E-09
   25.38000     -3.3995549E-09
   25.44000     -3.4748360E-09
   25.50000     -3.5195868E-09
   25.56000     -3.5387135E-09
   25.62000     -3.5387857E-09
   25.68000     -3.5260868E-09
   25.74000     -3.5049674E-09
   25.80000     -3.4771028E-09
   25.86000     -3.4418777E-09
   25.92000     -3.3976619E-09
   25.98000     -3.3434038E-09
   26.04000     -3.2798562E-09
   26.10000     -3.2099443E-09
   26.16000     -3.1381420E-09
   26.22000     -3.0691305E-09
   26.28000     -3.0062670E-09
   26.34000     -2.9504326E-09
   26.40000     -2.8996519E-09
   26.46000     -2.8495664E-09
   26.52000     -2.7945510E-09
   26.58000     -2.7290776E-09
   26.64000     -2.6488995E-09
   26.70000     -2.5517597E-09
   26.76000     -2.4375224E-09
   26.82000     -2.3078235E-09
   26.88000     -2.1654678E-09
   26.94000     -2.0138291E-09
   27.00000     -1.8564419E-09
   27.06000     -1.6968493E-09
   27.12000     -1.5386298E-09
   27.18000     -1.3854441E-09
   27.24000     -1.2409326E-09
   27.30000     -1.1083742E-09
   27.36000     -9.9014874E-10
   27.42000     -8.8716978E-10
   27.48000     -7.9851314E-10
   27.54000     -7.2143230E-10
   27.60000     -6.5183259E-10
   27.66000     -5.8512134E-10
   27.72000     -5.1721755E-10
   27.78000     -4.4545151E-10
   27.84000     -3.6911715E-10
   27.90000     -2.8954503E-10
   27.96000     -2.0970570E-10
   28.02000     -1.3348378E-10
   28.08000     -6.4846399E-11
   28.14000     -7.1412229E-12
   28.20000      3.7304184E-11
   28.26000      6.7233850E-11
   28.32000      8.2253898E-11
   28.38000      8.2543805E-11
   28.44000      6.8672706E-11
   28.50000      4.1606198E-11
   28.56000      2.8386377E-12
   28.62000     -4.5533109E-11
   28.68000     -1.0098571E-10
   28.74000     -1.6106015E-10
   28.80000     -2.2403386E-10
   28.86000     -2.8948430E-10
   28.92000     -3.5844963E-10
   28.98000     -4.3305848E-10
   29.04000     -5.1576488E-10
   29.10000     -6.0853150E-10
   29.16000     -7.1233447E-10
   29.22000     -8.2718166E-10
   29.28000     -9.5255270E-10
   29.34000     -1.0879293E-09
   29.40000     -1.2330476E-09
   29.46000     -1.3876744E-09
   29.52000     -1.5509986E-09
   29.58000     -1.7209619E-09
   29.64000     -1.8939099E-09
   29.70000     -2.0647892E-09
   29.76000     -2.2278628E-09
   29.82000     -2.3776747E-09
   29.88000     -2.5099165E-09
   29.94000     -2.6219251E-09
   30.00000     -2.7127083E-09
   30.06000     -2.7825791E-09
   30.12000     -2.8325671E-09
   30.18000     -2.8637990E-09
   30.24000     -2.8769718E-09
   30.30000     -2.8720002E-09
   30.36000     -2.8478591E-09
   30.42000     -2.8026299E-09
   30.48000     -2.7337588E-09
   30.54000     -2.6385123E-09
   30.60000     -2.5146234E-09
   30.66000     -2.3610547E-09
   30.72000     -2.1787665E-09
   30.78000     -1.9712776E-09
   30.84000     -1.7447694E-09
   30.90000     -1.5075147E-09
   30.96000     -1.2685802E-09
   31.02000     -1.0360305E-09
   31.08000     -8.1513984E-10
   31.14000     -6.0725991E-10
   31.20000     -4.0985240E-10
   31.26000     -2.1780015E-10
   31.32000     -2.5581356E-11
   31.38000      1.7050925E-10
   31.44000      3.7097428E-10
   31.50000      5.7311045E-10
   31.56000      7.7234147E-10
   31.62000      9.6426267E-10
   31.68000      1.1464927E-09
   31.74000      1.3195582E-09
   31.80000      1.4865075E-09
   31.86000      1.6515077E-09
   31.92000      1.8180688E-09
   31.98000      1.9876070E-09
   32.04000      2.1588331E-09
   32.10000      2.3280773E-09
   32.16000      2.4903113E-09
   32.22000      2.6404534E-09
   32.28000      2.7745166E-09
   32.34000      2.8902734E-09
   32.40000      2.9872804E-09
   32.46000      3.0662857E-09
   32.52000      3.1282206E-09
   32.58000      3.1731264E-09
   32.64000      3.1994316E-09
   32.70000      3.2039218E-09
   32.76000      3.1825196E-09
   32.82000      3.1316747E-09
   32.88000      3.0498579E-09
   32.94000      2.9385512E-09
   33.00000      2.8022602E-09
   33.06000      2.6474498E-09
   33.12000      2.4807472E-09
   33.18000      2.3070863E-09
   33.24000      2.1285034E-09
   33.30000      1.9440478E-09
   33.36000      1.7508093E-09
   33.42000      1.5456206E-09
   33.48000      1.3267294E-09
   33.54000      1.0947768E-09
   33.60000      8.5274382E-10
   33.66000      6.0495786E-10
   33.72000      3.5565187E-10
   33.78000      1.0772241E-10
   33.84000     -1.3777542E-10
   33.90000     -3.8120232E-10
   33.96000     -6.2319971E-10
   34.02000     -8.6338381E-10
   34.08000     -1.0994896E-09
   34.14000     -1.3274024E-09
   34.20000     -1.5421419E-09
   34.26000     -1.7394552E-09
   34.32000     -1.9174069E-09
   34.38000     -2.0773272E-09
   34.44000     -2.2237070E-09
   34.50000     -2.3630178E-09
   34.56000     -2.5018161E-09
   34.62000     -2.6447466E-09
   34.68000     -2.7930593E-09
   34.74000     -2.9440801E-09
   34.80000     -3.0917486E-09
   34.86000     -3.2280254E-09
   34.92000     -3.3447547E-09
   34.98000     -3.4354808E-09
   35.04000     -3.4967649E-09
   35.10000     -3.5286842E-09
   35.16000     -3.5343888E-09
   35.22000     -3.5188226E-09
   35.28000     -3.4869598E-09
   35.34000     -3.4420806E-09
   35.40000     -3.3846996E-09
   35.46000     -3.3126020E-09
   35.52000     -3.2221090E-09
   35.58000     -3.1102136E-09
   35.64000     -2.9768170E-09
   35.70000     -2.8261440E-09
   35.76000     -2.6666442E-09
   35.82000     -2.5092335E-09
   35.88000     -2.3644076E-09
   35.94000     -2.2392430E-09
   36.00000     -2.1353892E-09
   36.06000     -2.0487880E-09
   36.12000     -1.9712054E-09
   36.18000     -1.8930013E-09
   36.24000     -1.8061730E-09
   36.30000     -1.7066976E-09
   36.36000     -1.5955283E-09
   36.42000     -1.4780850E-09
   36.48000     -1.3625242E-09
   36.54000     -1.2573675E-09
   36.60000     -1.1691635E-09
   36.66000     -1.1007979E-09
   36.72000     -1.0508722E-09
   36.78000     -1.0142904E-09
   36.84000     -9.8385400E-10
   36.90000     -9.5235342E-10
   36.96000     -9.1448044E-10
   37.02000     -8.6794805E-10
   37.08000     -8.1351609E-10
   37.14000     -7.5405482E-10
   37.20000     -6.9314510E-10
   37.26000     -6.3384542E-10
   37.32000     -5.7808808E-10
   37.38000     -5.2680932E-10
   37.44000     -4.8055826E-10
   37.50000     -4.4014328E-10
   37.56000     -4.0693227E-10
   37.62000     -3.8264963E-10
   37.68000     -3.6877215E-10
   37.74000     -3.6578887E-10
   37.80000     -3.7261885E-10
   37.86000     -3.8640630E-10
   37.92000     -4.0279610E-10
   37.98000     -4.1667017E-10
   38.04000     -4.2320231E-10
   38.10000     -4.1896908E-10
   38.16000     -4.0277945E-10
   38.22000     -3.7591374E-10
   38.28000     -3.4163369E-10
   38.34000     -3.0409961E-10
   38.40000     -2.6708433E-10
   38.46000     -2.3296631E-10
   38.52000     -2.0234876E-10
   38.58000     -1.7435016E-10
   38.64000     -1.4731245E-10
   38.70000     -1.1954686E-10
   38.76000     -8.9827992E-11
   38.82000     -5.7578192E-11
   38.88000     -2.2873195E-11
   38.94000      1.3574122E-11
   39.00000      5.0428869E-11
   39.06000      8.5881607E-11
   39.12000      1.1808210E-10
   39.18000      1.4584599E-10
   39.24000      1.6936336E-10
   39.30000      1.9048861E-10
   39.36000      2.1229278E-10
   39.42000      2.3790314E-10
   39.48000      2.6905633E-10
   39.54000      3.0501032E-10
   39.60000      3.4235390E-10
   39.66000      3.7586259E-10
   39.72000      4.0008402E-10
   39.78000      4.1103179E-10
   39.84000      4.0735829E-10
   39.90000      3.9063200E-10
   39.96000      3.6470285E-10
   40.02000      3.3443653E-10
   40.08000      3.0424227E-10
   40.14000      2.7681699E-10
   40.20000      2.5243699E-10
   40.26000      2.2899177E-10
   40.32000      2.0277549E-10
   40.38000      1.6983556E-10
   40.44000      1.2746501E-10
   40.50000      7.5310778E-11
   40.56000      1.5646352E-11
   40.62000     -4.7354433E-11
   40.68000     -1.0910228E-10
   40.74000     -1.6626135E-10
   40.80000     -2.1793074E-10
   40.86000     -2.6586763E-10
   40.92000     -3.1368963E-10
   40.98000     -3.6541564E-10
   41.04000     -4.2395013E-10
   41.10000     -4.9009163E-10
   41.16000     -5.6239435E-10
   41.22000     -6.3785943E-10
   41.28000     -7.1313211E-10
   41.34000     -7.8572399E-10
   41.40000     -8.5480278E-10
   41.46000     -9.2126090E-10
   41.52000     -9.8703268E-10
   41.58000     -1.0539031E-09
   41.64000     -1.1222511E-09
   41.70000     -1.1902230E-09
   41.76000     -1.2536988E-09
   41.82000     -1.3071187E-09
   41.88000     -1.3449034E-09
   41.94000     -1.3629473E-09
   42.00000     -1.3596435E-09
   42.06000     -1.3360854E-09
   42.12000     -1.2954330E-09
   42.18000     -1.2417477E-09
   42.24000     -1.1787634E-09
   42.30000     -1.1090118E-09
   42.36000     -1.0335175E-09
   42.42000     -9.5203279E-10
   42.48000     -8.6360319E-10
   42.54000     -7.6720819E-10
   42.60000     -6.6227890E-10
   42.66000     -5.4900445E-10
   42.72000     -4.2843631E-10
   42.78000     -3.0244329E-10
   42.84000     -1.7355875E-10
   42.90000     -4.4724953E-11
   42.96000      8.1093417E-11
   43.02000      2.0143755E-10
   43.08000      3.1496433E-10
   43.14000      4.2197190E-10
   43.20000      5.2459881E-10
   43.26000      6.2648309E-10
   43.32000      7.3183176E-10
   43.38000      8.4411866E-10
   43.44000      9.6486896E-10
   43.50000      1.0930608E-09
   43.56000      1.2254854E-09
   43.62000      1.3580078E-09
   43.68000      1.4872351E-09
   43.74000      1.6118648E-09
   43.80000      1.7330851E-09
   43.86000      1.8538271E-09
   43.92000      1.9771969E-09
   43.98000      2.1048101E-09
   44.04000      2.2357811E-09
   44.10000      2.3668085E-09
   44.16000      2.4932871E-09
   44.22000      2.6109297E-09
   44.28000      2.7171909E-09
   44.34000      2.8119052E-09
   44.40000      2.8968976E-09
   44.46000      2.9747418E-09
   44.52000      3.0471472E-09
   44.58000      3.1135896E-09
   44.64000      3.1707081E-09
   44.70000      3.2127356E-09
   44.76000      3.2328740E-09
   44.82000      3.2251868E-09
   44.88000      3.1863678E-09
   44.94000      3.1167704E-09
   45.00000      3.0203409E-09
   45.06000      2.9035123E-09
   45.12000      2.7735056E-09
   45.18000      2.6366862E-09
   45.24000      2.4975217E-09
   45.30000      2.3583779E-09
   45.36000      2.2200073E-09
   45.42000      2.0823256E-09
   45.48000      1.9450543E-09
   45.54000      1.8079663E-09
   45.60000      1.6707252E-09
   45.66000      1.5325030E-09
   45.72000      1.3916456E-09
   45.78000      1.2456215E-09
   45.84000      1.0914007E-09
   45.90000      9.2627206E-10
   45.96000      7.4894851E-10
   46.02000      5.6063731E-10
   46.08000      3.6563202E-10
   46.14000      1.7101492E-10
   46.20000     -1.4697304E-11
   46.26000     -1.8371711E-10
   46.32000     -3.3129449E-10
   46.38000     -4.5730947E-10
   46.44000     -5.6646304E-10
   46.50000     -6.6689293E-10
   46.56000     -7.6766382E-10
   46.62000     -8.7602187E-10
   46.68000     -9.9535724E-10
   46.74000     -1.1244780E-09
   46.80000     -1.2582604E-09
   46.86000     -1.3892734E-09
   46.92000     -1.5097393E-09
   46.98000     -1.6132520E-09
   47.04000     -1.6958758E-09
   47.10000     -1.7565002E-09
   47.16000     -1.7965054E-09
   47.22000     -1.8189308E-09
   47.28000     -1.8274261E-09
   47.34000     -1.8253158E-09
   47.40000     -1.8150587E-09
   47.46000     -1.7982225E-09
   47.52000     -1.7758447E-09
   47.58000     -1.7488602E-09
   47.64000     -1.7182467E-09
   47.70000     -1.6847502E-09
   47.76000     -1.6483492E-09
   47.82000     -1.6078493E-09
   47.88000     -1.5609725E-09
   47.94000     -1.5050422E-09
   48.00000     -1.4380063E-09
   48.06000     -1.3593247E-09
   48.12000     -1.2703228E-09
   48.18000     -1.1739008E-09
   48.24000     -1.0738240E-09
   48.30000     -9.7397590E-10
   48.36000     -8.7785201E-10
   48.42000     -7.8833728E-10
   48.48000     -7.0760331E-10
   48.54000     -6.3695227E-10
   48.60000     -5.7659388E-10
   48.66000     -5.2552812E-10
   48.72000     -4.8175181E-10
   48.78000     -4.4287013E-10
   48.84000     -4.0696002E-10
   48.90000     -3.7337269E-10
   48.96000     -3.4318123E-10
   49.02000     -3.1915087E-10
   49.08000     -3.0530350E-10
   49.14000     -3.0624400E-10
   49.20000     -3.2638620E-10
   49.26000     -3.6914444E-10
   49.32000     -4.3615173E-10
   49.38000     -5.2665244E-10
   49.44000     -6.3731131E-10
   49.50000     -7.6265266E-10
   49.56000     -8.9613439E-10
   49.62000     -1.0315540E-09
   49.68000     -1.1642646E-09
   49.74000     -1.2917167E-09
   49.80000     -1.4131387E-09
   49.86000     -1.5285851E-09
   49.92000     -1.6378694E-09
   49.98000     -1.7399078E-09
   50.04000     -1.8327396E-09
   50.10000     -1.9141340E-09
   50.16000     -1.9824367E-09
   50.22000     -2.0372646E-09
   50.28000     -2.0797943E-09
   50.34000     -2.1125726E-09
   50.40000     -2.1389284E-09
   50.46000     -2.1621391E-09
   50.52000     -2.1845508E-09
   50.58000     -2.2069180E-09
   50.64000     -2.2282451E-09
   50.70000     -2.2463151E-09
   50.76000     -2.2588422E-09
   50.82000     -2.2648434E-09
   50.88000     -2.2655942E-09
   50.94000     -2.2645954E-09
   51.00000     -2.2663835E-09
   51.06000     -2.2745943E-09
   51.12000     -2.2901336E-09
   51.18000     -2.3103353E-09
   51.24000     -2.3295594E-09
   51.30000     -2.3409890E-09
   51.36000     -2.3388125E-09
   51.42000     -2.3198246E-09
   51.48000     -2.2838125E-09
   51.54000     -2.2327180E-09
   51.60000     -2.1691187E-09
   51.66000     -2.0947855E-09
   51.72000     -2.0098887E-09
   51.78000     -1.9129940E-09
   51.84000     -1.8016215E-09
   51.90000     -1.6729829E-09
   51.96000     -1.5246124E-09
   52.02000     -1.3548058E-09
   52.08000     -1.1629168E-09
   52.14000     -9.4955332E-10
   52.20000     -7.1662354E-10
   52.26000     -4.6711984E-10
   52.32000     -2.0459821E-10
   52.38000      6.7532632E-11
   52.44000      3.4665879E-10
   52.50000      6.3128780E-10
   52.56000      9.2095370E-10
   52.62000      1.2158224E-09
   52.68000      1.5162670E-09
   52.74000      1.8226594E-09
   52.80000      2.1354716E-09
   52.86000      2.4555922E-09
   52.92000      2.7846789E-09
   52.98000      3.1253935E-09
   53.04000      3.4814871E-09
   53.10000      3.8577768E-09
   53.16000      4.2600368E-09
   53.22000      4.6947775E-09
   53.28000      5.1688773E-09
   53.34000      5.6890852E-09
   53.40000      6.2615833E-09
   53.46000      6.8918320E-09
   53.52000      7.5848581E-09
   53.58000      8.3459168E-09
   53.64000      9.1812549E-09
   53.70000      1.0098608E-08
   53.76000      1.1107269E-08
   53.82000      1.2217819E-08
   53.88000      1.3441837E-08
   53.94000      1.4791798E-08
   54.00000      1.6281186E-08
   54.06000      1.7924501E-08
   54.12000      1.9736854E-08
   54.18000      2.1733017E-08
   54.24000      2.3926338E-08
   54.30000      2.6327941E-08
   54.36000      2.8946770E-08
   54.42000      3.1790389E-08
   54.48000      3.4866023E-08
   54.54000      3.8181167E-08
   54.60000      4.1743206E-08
   54.66000      4.5558110E-08
   54.72000      4.9628799E-08
   54.78000      5.3953769E-08
   54.84000      5.8526442E-08
   54.90000      6.3335193E-08
   54.96000      6.8363647E-08
   55.02000      7.3590833E-08
   55.08000      7.8990986E-08
   55.14000      8.4533028E-08
   55.20000      9.0179846E-08
   55.26000      9.5887415E-08
   55.32000      1.0160373E-07
   55.38000      1.0726777E-07
   55.44000      1.1280880E-07
   55.50000      1.1814647E-07
   55.56000      1.2319178E-07