 -0.750000000       0.00000000    
 -0.689999998       0.00000000    
 -0.629999995       0.00000000    
 -0.569999993       0.00000000    
 -0.509999990       0.00000000    
 -0.449999988       0.00000000    
 -0.389999986       0.00000000    
 -0.330000013       0.00000000    
 -0.270000011       0.00000000    
 -0.209999993      -2.53172825E-31
 -0.150000006      -5.14789880E-29
  -9.00000036E-02  -6.70752337E-28
  -2.99999993E-02  -4.29176116E-27
   2.99999993E-02  -1.69907573E-26
   9.00000036E-02  -4.25512774E-26
  0.150000006      -4.92080031E-26
  0.209999993       1.02764152E-25
  0.270000011       7.04083848E-25
  0.330000013       1.96693079E-24
  0.389999986       3.17410590E-24
  0.449999988       1.28490315E-24
  0.509999990      -9.48494246E-24
  0.569999993      -3.36222678E-23
  0.629999995      -6.24654522E-23
  0.689999998      -5.78000405E-23
  0.750000000       5.10415662E-23
  0.810000002       3.24252124E-22
  0.870000005       7.00264177E-22
  0.930000007       8.54215343E-22
  0.990000010       1.71417304E-22
   1.04999995      -1.94133332E-21
   1.11000001      -5.28238105E-21
   1.16999996      -7.89098558E-21
   1.23000002      -5.76361477E-21
   1.28999996       5.52765383E-21
   1.35000002       2.66973108E-20
   1.40999997       4.94546214E-20
   1.47000003       5.41525679E-20
   1.52999997       1.58643774E-20
   1.59000003      -7.83193022E-20
   1.64999998      -2.05956780E-19
   1.71000004      -2.95377796E-19
   1.76999998      -2.41655827E-19
   1.83000004       3.66453678E-20
   1.88999999       5.15510228E-19
   1.95000005       1.00647945E-18
   2.00999999       1.18343221E-18
   2.06999993       7.29811270E-19
   2.13000011      -4.33597143E-19
   2.19000006      -1.96712545E-18
   2.25000000      -3.13772809E-18
   2.30999994      -3.13517996E-18
   2.36999989      -1.57730036E-18
   2.43000007       1.09484695E-18
   2.49000001       3.68234711E-18
   2.54999995       4.89244452E-18
   2.60999990       4.30616951E-18
   2.67000008       2.95420607E-18
   2.73000002       2.79532226E-18
   2.78999996       4.98538116E-18
   2.84999990       7.83979699E-18
   2.91000009       6.19857594E-18
   2.97000003      -6.28390003E-18
   3.02999997      -3.19617725E-17
   3.08999991      -6.35754409E-17
   3.15000010      -8.24239820E-17
   3.21000004      -6.40770763E-17
   3.26999998       8.15904900E-18
   3.32999992       1.27213695E-16
   3.39000010       2.53125950E-16
   3.45000005       3.19987475E-16
   3.50999999       2.61647922E-16
   3.56999993       4.82316144E-17
   3.63000011      -2.83844526E-16
   3.69000006      -6.27369458E-16
   3.75000000      -8.35128323E-16
   3.80999994      -7.78350116E-16
   3.86999989      -4.08270013E-16
   3.93000007       2.09772487E-16
   3.99000001       9.09687763E-16
   4.05000019       1.48180103E-15
   4.11000013       1.74609299E-15
   4.17000008       1.60433874E-15
   4.23000002       1.04735455E-15
   4.28999996       1.24101113E-16
   4.34999990      -1.09148401E-15
   4.40999985      -2.49402795E-15
   4.46999979      -3.88632353E-15
   4.53000021      -4.90114905E-15
   4.59000015      -4.98447761E-15
   4.65000010      -3.51994536E-15
   4.71000004      -1.15358794E-16
   4.76999998       5.03028642E-15
   4.82999992       1.08565102E-14
   4.88999987       1.54721461E-14
   4.94999981       1.66103229E-14
   5.01000023       1.24521272E-14
   5.07000017       2.55673465E-15
   5.13000011      -1.14973101E-14
   5.19000006      -2.61273869E-14
   5.25000000      -3.65760651E-14
   5.30999994      -3.83851445E-14
   5.36999989      -2.90378480E-14
   5.42999983      -9.15201566E-15
   5.48999977       1.72822961E-14
   5.55000019       4.37903396E-14
   5.61000013       6.31679293E-14
   5.67000008       6.95157229E-14
   5.73000002       5.98758781E-14
   5.78999996       3.49835890E-14
   5.84999990      -9.87168407E-16
   5.90999985      -4.14413580E-14
   5.96999979      -7.87096083E-14
   6.03000021      -1.05333744E-13
   6.09000015      -1.15110666E-13
   6.15000010      -1.03933640E-13
   6.21000004      -7.05523286E-14
   6.26999998      -1.72711509E-14
   6.32999992       4.95975772E-14
   6.38999987       1.19859946E-13
   6.44999981       1.80449812E-13
   6.51000023       2.17396833E-13
   6.57000017       2.18505132E-13
   6.63000011       1.76228593E-13
   6.69000006       9.01280461E-14
   6.75000000      -3.16415053E-14
   6.80999994      -1.72221612E-13
   6.86999989      -3.07578073E-13
   6.92999983      -4.09765809E-13
   6.98999977      -4.51774631E-13
   7.05000019      -4.13369127E-13
   7.11000013      -2.86796493E-13
   7.17000008      -8.08280173E-14
   7.23000002       1.78356624E-13
   7.28999996       4.50248291E-13
   7.34999990       6.86674079E-13
   7.40999985       8.40469025E-13
   7.46999979       8.73949242E-13
   7.53000021       7.65288061E-13
   7.59000015       5.11990515E-13
   7.65000010       1.31878910E-13
   7.71000004      -3.37422391E-13
   7.76999998      -8.39988615E-13
   7.82999992      -1.30475481E-12
   7.88999987      -1.65196448E-12
   7.94999981      -1.80424458E-12
   8.01000023      -1.70175039E-12
   8.06999969      -1.31804658E-12
   8.13000011      -6.71316843E-13
   8.18999958       1.74312618E-13
   8.25000000       1.11947626E-12
   8.31000042       2.04954369E-12
   8.36999989       2.85670337E-12
   8.43000031       3.45555876E-12
   8.48999977       3.78638223E-12
   8.55000019       3.80616936E-12
   8.60999966       3.47403616E-12
   8.67000008       2.74097433E-12
   8.72999954       1.55251723E-12
   8.78999996      -1.33104221E-13
   8.85000038      -2.31619303E-12
   8.90999985      -4.92620745E-12
   8.97000027      -7.80183817E-12
   9.02999973      -1.06856928E-11
   9.09000015      -1.32318019E-11
   9.14999962      -1.50195273E-11
   9.21000004      -1.55683817E-11
   9.27000046      -1.43548567E-11
   9.32999992      -1.08413747E-11
   9.39000034      -4.53349251E-12
   9.44999981       4.92035536E-12
   9.51000023       1.75834382E-11
   9.56999969       3.30546389E-11
   9.63000011       5.02957120E-11
   9.68999958       6.75089845E-11
   9.75000000       8.21145998E-11
   9.81000042       9.08651279E-11
   9.86999989       9.01130975E-11
   9.93000031       7.62178237E-11
   9.98999977       4.60476657E-11
   10.0500002      -2.49126544E-12
   10.1099997      -6.99839076E-11
   10.1700001      -1.55176302E-10
   10.2299995      -2.54854554E-10
   10.2900000      -3.63967023E-10
   10.3500004      -4.75983142E-10
   10.4099998      -5.83439963E-10
   10.4700003      -6.78599510E-10
   10.5299997      -7.54130480E-10
   10.5900002      -8.03742628E-10
   10.6499996      -8.22731494E-10
   10.7100000      -8.08419387E-10
   10.7700005      -7.60494112E-10
   10.8299999      -6.81242118E-10
   10.8900003      -5.75647086E-10
   10.9499998      -4.51299359E-10
   11.0100002      -3.18053028E-10
   11.0699997      -1.87390117E-10
   11.1300001      -7.15062662E-11
   11.1899996       1.77945540E-11
   11.2500000       7.02447614E-11
   11.3100004       7.81169990E-11
   11.3699999       3.69252511E-11
   11.4300003      -5.42745363E-11
   11.4899998      -1.92997868E-10
   11.5500002      -3.73792941E-10
   11.6099997      -5.88938454E-10
   11.6700001      -8.29255775E-10
   11.7299995      -1.08494025E-09
   11.7900000      -1.34634581E-09
   11.8500004      -1.60468272E-09
   11.9099998      -1.85259297E-09
   11.9700003      -2.08456030E-09
   12.0299997      -2.29710406E-09
   12.0900002      -2.48872412E-09
   12.1499996      -2.65960187E-09
   12.2100000      -2.81110890E-09
   12.2700005      -2.94522917E-09
   12.3299999      -3.06400172E-09
   12.3900003      -3.16908233E-09
   12.4499998      -3.26145666E-09
   12.5100002      -3.34129346E-09
   12.5699997      -3.40789197E-09
   12.6300001      -3.45967477E-09
   12.6899996      -3.49422691E-09
   12.7500000      -3.50841400E-09
   12.8100004      -3.49864027E-09
   12.8699999      -3.46129903E-09
   12.9300003      -3.39339890E-09
   12.9899998      -3.29328476E-09
   13.0500002      -3.16129811E-09
   13.1099997      -3.00018677E-09
   13.1700001      -2.81510659E-09
   13.2299995      -2.61312305E-09
   13.2900000      -2.40224640E-09
   13.3500004      -2.19015983E-09
   13.4099998      -1.98291916E-09
   13.4700003      -1.78393933E-09
   13.5299997      -1.59356273E-09
   13.5900002      -1.40936995E-09
   13.6499996      -1.22718724E-09
   13.7100000      -1.04252762E-09
   13.7700005      -8.52042936E-10
   13.8299999      -6.54531929E-10
   13.8900003      -4.51185284E-10
   13.9499998      -2.45013093E-10
   14.0100002      -3.97006213E-11
   14.0699997       1.61641603E-10
   14.1300001       3.57334523E-10
   14.1899996       5.47265677E-10
   14.2500000       7.32291006E-10
   14.3100004       9.13222109E-10
   14.3699999       1.08991138E-09
   14.4300003       1.26092048E-09
   14.4899998       1.42400969E-09
   14.5500002       1.57732094E-09
   14.6099997       1.72080061E-09
   14.6700001       1.85726146E-09
   14.7299995       1.99257855E-09
   14.7900000       2.13482276E-09
   14.8500004       2.29251640E-09
   14.9099998       2.47251974E-09
   14.9700003       2.67818701E-09
   15.0299997       2.90832070E-09
   15.0900002       3.15718429E-09
   15.1499996       3.41548589E-09
   15.2100000       3.67197583E-09
   15.2700005       3.91517485E-09
   15.3299999       4.13481649E-09
   15.3900003       4.32274483E-09
   15.4499998       4.47323734E-09
   15.5100002       4.58285720E-09
   15.5699997       4.65003103E-09
   15.6300001       4.67450478E-09
   15.6899996       4.65678651E-09
   15.7500000       4.59763516E-09
   15.8100004       4.49763249E-09
   15.8699999       4.35689840E-09
   15.9300003       4.17501500E-09
   15.9899998       3.95118649E-09
   16.0499992       3.68462683E-09
   16.1100006       3.37505202E-09
   16.1700001       3.02314040E-09
   16.2299995       2.63080935E-09
   16.2900009       2.20123919E-09
   16.3500004       1.73867221E-09
   16.4099998       1.24812172E-09
   16.4699993       7.35170314E-10
   16.5300007       2.06022907E-10
   16.5900002      -3.32100625E-10
   16.6499996      -8.70276629E-10
   16.7099991      -1.39708123E-09
   16.7700005      -1.89800087E-09
   16.8299999      -2.35542474E-09
   16.8899994      -2.74954393E-09
   16.9500008      -3.06027981E-09
   17.0100002      -3.27005978E-09
   17.0699997      -3.36689077E-09
   17.1299992      -3.34693362E-09
   17.1900005      -3.21575611E-09
   17.2500000      -2.98773672E-09
   17.3099995      -2.68363332E-09
   17.3700008      -2.32695263E-09
   17.4300003      -1.94020910E-09
   17.4899998      -1.54222779E-09
   17.5499992      -1.14728238E-09
   17.6100006      -7.66168240E-10
   17.6700001      -4.08569567E-10
   17.7299995      -8.55867946E-11
   17.7900009       1.88757718E-10
   17.8500004       3.97792854E-10
   17.9099998       5.24294108E-10
   17.9699993       5.53704971E-10
   18.0300007       4.77320794E-10
   18.0900002       2.94228142E-10
   18.1499996       1.11872490E-11
   18.2099991      -3.59665603E-10
   18.2700005      -8.04667000E-10
   18.3299999      -1.31283495E-09
   18.3899994      -1.87903870E-09
   18.4500008      -2.50498244E-09
   18.5100002      -3.19748183E-09
   18.5699997      -3.96437327E-09
   18.6299992      -4.80918905E-09
   18.6900005      -5.72624748E-09
   18.7500000      -6.69779476E-09
   18.8099995      -7.69429764E-09
   18.8700008      -8.67803429E-09
   18.9300003      -9.60911883E-09
   18.9899998      -1.04522915E-08
   19.0499992      -1.11825678E-08
   19.1100006      -1.17882202E-08
   19.1700001      -1.22704309E-08
   19.2299995      -1.26400028E-08
   19.2900009      -1.29124391E-08
   19.3500004      -1.31031133E-08
   19.4099998      -1.32240645E-08
   19.4699993      -1.32833202E-08
   19.5300007      -1.32866447E-08
   19.5900002      -1.32407445E-08
   19.6499996      -1.31564359E-08
   19.7099991      -1.30502524E-08
   19.7700005      -1.29435600E-08
   19.8299999      -1.28591298E-08
   19.8899994      -1.28161242E-08
   19.9500008      -1.28250903E-08
   20.0100002      -1.28847235E-08
   20.0699997      -1.29816469E-08
   20.1299992      -1.30935103E-08
   20.1900005      -1.31945885E-08
   20.2500000      -1.32622429E-08
   20.3099995      -1.32823210E-08
   20.3700008      -1.32519276E-08
   20.4300003      -1.31789522E-08
   20.4899998      -1.30787567E-08
   20.5499992      -1.29693429E-08
   20.6100006      -1.28666713E-08
   20.6700001      -1.27815722E-08
   20.7299995      -1.27190232E-08
   20.7900009      -1.26796982E-08
   20.8500004      -1.26629258E-08
   20.9099998      -1.26697950E-08
   20.9699993      -1.27052386E-08
   21.0300007      -1.27783331E-08
   21.0900002      -1.29007294E-08
   21.1499996      -1.30837909E-08
   21.2099991      -1.33354234E-08
   21.2700005      -1.36576697E-08
   21.3299999      -1.40458285E-08
   21.3899994      -1.44893235E-08
   21.4500008      -1.49739119E-08
   21.5100002      -1.54844262E-08
   21.5699997      -1.60070606E-08
   21.6299992      -1.65305831E-08
   21.6900005      -1.70462044E-08
   21.7500000      -1.75464887E-08
   21.8099995      -1.80239113E-08
   21.8700008      -1.84697377E-08
   21.9300003      -1.88735640E-08
   21.9899998      -1.92236183E-08
   22.0499992      -1.95075387E-08
   22.1100006      -1.97133208E-08
   22.1700001      -1.98302850E-08
   22.2299995      -1.98500203E-08
   22.2900009      -1.97673629E-08
   22.3500004      -1.95813268E-08
   22.4099998      -1.92957064E-08
   22.4699993      -1.89189819E-08
   22.5300007      -1.84631723E-08
   22.5900002      -1.79417015E-08
   22.6499996      -1.73667782E-08
   22.7099991      -1.67471281E-08
   22.7700005      -1.60869149E-08
   22.8299999      -1.53863109E-08
   22.8899994      -1.46435530E-08
   22.9500008      -1.38577825E-08
   23.0100002      -1.30316229E-08
   23.0699997      -1.21726300E-08
   23.1299992      -1.12931309E-08
   23.1900005      -1.04085522E-08
   23.2500000      -9.53477475E-09
   23.3099995      -8.68521965E-09
   23.3700008      -7.86836551E-09
   23.4300003      -7.08618852E-09
   23.4899998      -6.33378239E-09
   23.5499992      -5.60016300E-09
   23.6100006      -4.87003105E-09
   23.6700001      -4.12605328E-09
   23.7299995      -3.35110695E-09
   23.7900009      -2.52995158E-09
   23.8500004      -1.65005254E-09
   23.9099998      -7.01620539E-10
   23.9699993       3.22705918E-10
   24.0300007       1.42798040E-09
   24.0900002       2.61646615E-09
   24.1499996       3.88653776E-09
   24.2099991       5.23136556E-09
   24.2700005       6.63799593E-09
   24.3299999       8.08734502E-09
   24.3899994       9.55526414E-09
   24.4500008       1.10144693E-08
   24.5100002       1.24368791E-08
   24.5699997       1.37959413E-08
   24.6299992       1.50687391E-08
   24.6900005       1.62378200E-08
   24.7500000       1.72927486E-08
   24.8099995       1.82312494E-08
   24.8700008       1.90596552E-08
   24.9300003       1.97923402E-08
   24.9899998       2.04500363E-08
   25.0499992       2.10571507E-08
   25.1100006       2.16386109E-08
   25.1700001       2.22166854E-08
   25.2299995       2.28082655E-08
   25.2900009       2.34228175E-08
   25.3500004       2.40611797E-08
   25.4099998       2.47153071E-08
   25.4699993       2.53691237E-08
   25.5300007       2.60005528E-08
   25.5900002       2.65844786E-08
   25.6499996       2.70960321E-08
   25.7099991       2.75133480E-08
   25.7700005       2.78189951E-08
   25.8299999       2.79998265E-08
   25.8899994       2.80456582E-08
   25.9500008       2.79476815E-08
   26.0100002       2.76976024E-08
   26.0699997       2.72880314E-08
   26.1299992       2.67139715E-08
   26.1900005       2.59746535E-08
   26.2500000       2.50747796E-08
   26.3099995       2.40245566E-08
   26.3700008       2.28384511E-08
   26.4300003       2.15330935E-08
   26.4899998       2.01250447E-08
   26.5499992       1.86290467E-08
   26.6100006       1.70571912E-08
   26.6700001       1.54192090E-08
   26.7299995       1.37238318E-08
   26.7900009       1.19810153E-08
   26.8500004       1.02044933E-08
   26.9099998       8.41383407E-09
   26.9699993       6.63508803E-09
   27.0300007       4.89928542E-09
   27.0900002       3.23874327E-09
   27.1499996       1.68192682E-09
   27.2099991       2.48313536E-10
   27.2700005      -1.05515929E-09
   27.3299999      -2.23492225E-09
   27.3899994      -3.30866934E-09
   27.4500008      -4.30106084E-09
   27.5100002      -5.23860333E-09
   27.5699997      -6.14515772E-09
   27.6299992      -7.03914482E-09
   27.6900005      -7.93288280E-09
   27.7500000      -8.83385987E-09
   27.8099995      -9.74723946E-09
   27.8700008      -1.06786162E-08
   27.9300003      -1.16359793E-08
   27.9899998      -1.26300339E-08
   28.0499992      -1.36725822E-08
   28.1100006      -1.47733035E-08
   28.1700001      -1.59360241E-08
   28.2299995      -1.71558838E-08
   28.2900009      -1.84185716E-08
   28.3500004      -1.97020711E-08
   28.4099998      -2.09803765E-08
   28.4699993      -2.22278498E-08
   28.5300007      -2.34228388E-08
   28.5900002      -2.45495428E-08
   28.6499996      -2.55980037E-08
   28.7099991      -2.65627538E-08
   28.7700005      -2.74410166E-08
   28.8299999      -2.82310868E-08
   28.8899994      -2.89312485E-08
   28.9500008      -2.95392564E-08
   29.0100002      -3.00523197E-08
   29.0699997      -3.04676355E-08
   29.1299992      -3.07834966E-08
   29.1900005      -3.10007948E-08
   29.2500000      -3.11243866E-08
   29.3099995      -3.11635482E-08
   29.3700008      -3.11309662E-08
   29.4300003      -3.10402584E-08
   29.4899998      -3.09026618E-08
   29.5499992      -3.07241486E-08
   29.6100006      -3.05039620E-08
   29.6700001      -3.02351921E-08
   29.7299995      -2.99070280E-08
   29.7900009      -2.95078912E-08
   29.8500004      -2.90283690E-08
   29.9099998      -2.84632389E-08
   29.9699993      -2.78123355E-08
   30.0300007      -2.70804357E-08
   30.0900002      -2.62764530E-08
   30.1499996      -2.54122288E-08
   30.2099991      -2.45011247E-08
   30.2700005      -2.35566429E-08
   30.3299999      -2.25914238E-08
   30.3899994      -2.16169482E-08
   30.4500008      -2.06441069E-08
   30.5100002      -1.96844390E-08
   30.5699997      -1.87514484E-08
   30.6299992      -1.78612698E-08
   30.6900005      -1.70321446E-08
   30.7500000      -1.62825824E-08
   30.8099995      -1.56286895E-08
   30.8700008      -1.50813975E-08
   30.9300003      -1.46444847E-08
   30.9899998      -1.43139012E-08
   31.0499992      -1.40786511E-08
   31.1100006      -1.39229934E-08
   31.1700001      -1.38294949E-08
   31.2299995      -1.37822891E-08
   31.2900009      -1.37698128E-08
   31.3500004      -1.37864014E-08
   31.4099998      -1.38323095E-08
   31.4699993      -1.39121328E-08
   31.5300007      -1.40320591E-08
   31.5900002      -1.41967638E-08
   31.6499996      -1.44069263E-08
   31.7099991      -1.46581565E-08
   31.7700005      -1.49416586E-08
   31.8299999      -1.52463642E-08
   31.8899994      -1.55617723E-08
   31.9500008      -1.58804703E-08
   32.0099983      -1.61994897E-08
   32.0699997      -1.65199996E-08
   32.1300011      -1.68453802E-08
   32.1899986      -1.71782126E-08
   32.2500000      -1.75170598E-08
   32.3100014      -1.78539086E-08
   32.3699989      -1.81730275E-08
   32.4300003      -1.84515709E-08
   32.4900017      -1.86618863E-08
   32.5499992      -1.87750242E-08
   32.6100006      -1.87647071E-08
   32.6699982      -1.86108799E-08
   32.7299995      -1.83020106E-08
   32.7900009      -1.78355606E-08
   32.8499985      -1.72164860E-08
   32.9099998      -1.64541163E-08
   32.9700012      -1.55583830E-08
   33.0299988      -1.45366270E-08
   33.0900002      -1.33921967E-08
   33.1500015      -1.21254775E-08
   33.2099991      -1.07371214E-08
   33.2700005      -9.23228782E-09
   33.3300018      -7.62417862E-09
   33.3899994      -5.93524696E-09
   33.4500008      -4.19529833E-09
   33.5099983      -2.43686094E-09
   33.5699997      -6.89304835E-10
   33.6300011       1.02629938E-09
   33.6899986       2.69982281E-09
   33.7500000       4.33133041E-09
   33.8100014       5.92718852E-09
   33.8699989       7.49426299E-09
   33.9300003       9.03403841E-09
   33.9900017       1.05385034E-08
   34.0499992       1.19891759E-08
   34.1100006       1.33597613E-08
   34.1699982       1.46218895E-08
   34.2299995       1.57522884E-08
   34.2900009       1.67391701E-08
   34.3499985       1.75855650E-08
   34.4099998       1.83082065E-08
   34.4700012       1.89320417E-08
   34.5299988       1.94820089E-08
   34.5900002       1.99748218E-08
   34.6500015       2.04135713E-08
   34.7099991       2.07869988E-08
   34.7700005       2.10735536E-08
   34.8300018       2.12487912E-08
   34.8899994       2.12935252E-08
   34.9500008       2.12001616E-08
   35.0099983       2.09753885E-08
   35.0699997       2.06386641E-08
   35.1300011       2.02171915E-08
   35.1899986       1.97390531E-08
   35.2500000       1.92266167E-08
   35.3100014       1.86921980E-08
   35.3699989       1.81373085E-08
   35.4300003       1.75557524E-08
   35.4900017       1.69394916E-08
   35.5499992       1.62851190E-08
   35.6100006       1.55984896E-08
   35.6699982       1.48955248E-08
   35.7299995       1.41987355E-08
   35.7900009       1.35306308E-08
   35.8499985       1.29064786E-08
   35.9099998       1.23291599E-08
   35.9700012       1.17879857E-08
   36.0299988       1.12618688E-08
   36.0900002       1.07256790E-08
   36.1500015       1.01576720E-08
   36.2099991       9.54567270E-09
   36.2700005       8.89028318E-09
   36.3300018       8.20426660E-09
   36.3899994       7.50827578E-09
   36.4500008       6.82408485E-09
   36.5099983       6.16722229E-09
   36.5699997       5.54131274E-09
   36.6300011       4.93617458E-09
   36.6899986       4.33067315E-09
   36.7500000       3.69970587E-09
   36.8100014       3.02298231E-09
   36.8699989       2.29236230E-09
   36.9300003       1.51487156E-09
   36.9900017       7.10186354E-10
   37.0499992      -9.63864336E-11
   37.1100006      -8.82578621E-10
   37.1699982      -1.63608715E-09
   37.2299995      -2.35727349E-09
   37.2900009      -3.05699088E-09
   37.3499985      -3.75076903E-09
   37.4099998      -4.45169546E-09
   37.4700012      -5.16446574E-09
   37.5299988      -5.88235460E-09
   37.5900002      -6.58790045E-09
   37.6500015      -7.25710425E-09
   37.7099991      -7.86614685E-09
   37.7700005      -8.39892955E-09
   37.8300018      -8.85326923E-09
   37.8899994      -9.24358456E-09
   37.9500008      -9.59865964E-09
   38.0099983      -9.95469751E-09
   38.0699997      -1.03457047E-08
   38.1300011      -1.07945883E-08
   38.1899986      -1.13083267E-08
   38.2500000      -1.18790613E-08
   38.3100014      -1.24904895E-08
   38.3699989      -1.31267539E-08
   38.4300003      -1.37800704E-08
   38.4900017      -1.44541543E-08
   38.5499992      -1.51624828E-08
   38.6100006      -1.59226161E-08
   38.6699982      -1.67491958E-08
   38.7299995      -1.76482420E-08
   38.7900009      -1.86144877E-08
   38.8499985      -1.96321075E-08
   38.9099998      -2.06781081E-08
   38.9700012      -2.17271356E-08
   39.0299988      -2.27563408E-08
   39.0900002      -2.37490205E-08
   39.1500015      -2.46960727E-08
   39.2099991      -2.55947707E-08
   39.2700005      -2.64451412E-08
   39.3300018      -2.72451501E-08
   39.3899994      -2.79865713E-08
   39.4500008      -2.86532931E-08
   39.5099983      -2.92229743E-08
   39.5699997      -2.96714600E-08
   39.6300011      -2.99782208E-08
   39.6899986      -3.01305860E-08
   39.7500000      -3.01253316E-08
   39.8100014      -2.99672642E-08
   39.8699989      -2.96659106E-08
   39.9300003      -2.92317992E-08
   39.9900017      -2.86736714E-08
   40.0499992      -2.79971974E-08
   40.1100006      -2.72051182E-08
   40.1699982      -2.62983644E-08
   40.2299995      -2.52778651E-08
   40.2900009      -2.41466829E-08
   40.3499985      -2.29121682E-08
   40.4099998      -2.15873861E-08
   40.4700012      -2.01911057E-08
   40.5299988      -1.87458475E-08
   40.5900002      -1.72744077E-08
   40.6500015      -1.57959992E-08
   40.7099991      -1.43236205E-08
   40.7700005      -1.28637101E-08
   40.8300018      -1.14181233E-08
   40.8899994      -9.98734606E-09
   40.9500008      -8.57340510E-09
   41.0099983      -7.18137061E-09
   41.0699997      -5.81928283E-09
   41.1300011      -4.49723725E-09
   41.1899986      -3.22657834E-09
   41.2500000      -2.01964490E-09
   41.3100014      -8.89760154E-10
   41.3699989       1.49249474E-10
   41.4300003       1.08442577E-09
   41.4900017       1.90558080E-09
   41.5499992       2.60668864E-09
   41.6100006       3.18570503E-09
   41.6699982       3.64253050E-09
   41.7299995       3.97593736E-09
   41.7900009       4.18102486E-09
   41.8499985       4.24864766E-09
   41.9099998       4.16728252E-09
   41.9700012       3.92655863E-09
   42.0299988       3.52084206E-09
   42.0900002       2.95129343E-09
   42.1500015       2.22563834E-09
   42.2099991       1.35594325E-09
   42.2700005       3.55492552E-10
   42.3300018      -7.63961450E-10
   42.3899994      -1.99364147E-09
   42.4500008      -3.32751915E-09
   42.5099983      -4.76058659E-09
   42.5699997      -6.28616093E-09
   42.6300011      -7.89300536E-09
   42.6899986      -9.56323287E-09
   42.7500000      -1.12718741E-08
   42.8100014      -1.29886963E-08
   42.8699989      -1.46820645E-08
   42.9300003      -1.63237832E-08
   42.9900017      -1.78932176E-08
   43.0499992      -1.93790815E-08
   43.1100006      -2.07780957E-08
   43.1699982      -2.20909975E-08
   43.2299995      -2.33175363E-08
   43.2900009      -2.44524365E-08
   43.3499985      -2.54838142E-08
   43.4099998      -2.63944280E-08
   43.4700012      -2.71650435E-08
   43.5299988      -2.77784782E-08
   43.5900002      -2.82229564E-08
   43.6500015      -2.84938935E-08
   43.7099991      -2.85937620E-08
   43.7700005      -2.85302519E-08
   43.8300018      -2.83132149E-08
   43.8899994      -2.79511028E-08
   43.9500008      -2.74479017E-08
   44.0099983      -2.68016809E-08
   44.0699997      -2.60056474E-08
   44.1300011      -2.50518717E-08
   44.1899986      -2.39367228E-08
   44.2500000      -2.26661285E-08
   44.3100014      -2.12583444E-08
   44.3699989      -1.97426893E-08
   44.4300003      -1.81541182E-08
   44.4900017      -1.65252860E-08
   44.5499992      -1.48788519E-08
   44.6100006      -1.32228442E-08
   44.6699982      -1.15507417E-08
   44.7299995      -9.84616833E-09
   44.7900009      -8.09037637E-09
   44.8499985      -6.26984731E-09
   44.9099998      -4.38144143E-09
   44.9700012      -2.43358511E-09
   45.0299988      -4.43443199E-10
   45.0900002       1.56868651E-09
   45.1500015       3.58572150E-09
   45.2099991       5.59878410E-09
   45.2700005       7.60928387E-09
   45.3300018       9.62750590E-09
   45.3899994       1.16681989E-08
   45.4500008       1.37445424E-08
   45.5099983       1.58623532E-08
   45.5699997       1.80163315E-08
   45.6300011       2.01894981E-08
   45.6899986       2.23561205E-08
   45.7500000       2.44872798E-08
   45.8100014       2.65574727E-08
   45.8699989       2.85502644E-08
   45.9300003       3.04612158E-08
   45.9900017       3.22970592E-08
   46.0499992       3.40712418E-08
   46.1100006       3.57971395E-08
   46.1699982       3.74810689E-08
   46.2299995       3.91175909E-08
   46.2900009       4.06888319E-08
   46.3499985       4.21684376E-08
   46.4099998       4.35289635E-08
   46.4700012       4.47502480E-08
   46.5299988       4.58256366E-08
   46.5900002       4.67635992E-08
   46.6500015       4.75839066E-08
   46.7099991       4.83094809E-08
   46.7700005       4.89568635E-08
   46.8300018       4.95287473E-08
   46.8899994       5.00113693E-08
   46.9500008       5.03777358E-08
   47.0099983       5.05953857E-08
   47.0699997       5.06360038E-08
   47.1300011       5.04834681E-08
   47.1899986       5.01378210E-08
   47.2500000       4.96143073E-08
   47.3100014       4.89382792E-08
   47.3699989       4.81381832E-08
   47.4300003       4.72390091E-08
   47.4900017       4.62580942E-08
   47.5499992       4.52040609E-08
   47.6100006       4.40786572E-08
   47.6699982       4.28803517E-08
   47.7299995       4.16084696E-08
   47.7900009       4.02666167E-08
   47.8499985       3.88644636E-08
   47.9099998       3.74175855E-08
   47.9700012       3.59453232E-08
   48.0299988       3.44673516E-08
   48.0900002       3.29999672E-08
   48.1500015       3.15532311E-08
   48.2099991       3.01301135E-08
   48.2700005       2.87278787E-08
   48.3300018       2.73413399E-08
   48.3899994       2.59667772E-08
   48.4500008       2.46051002E-08
   48.5099983       2.32630928E-08
   48.5699997       2.19524221E-08
   48.6300011       2.06869029E-08
   48.6899986       1.94791454E-08
   48.7500000       1.83378273E-08
   48.8100014       1.72663803E-08
   48.8699989       1.62633675E-08
   48.9300003       1.53241189E-08
   48.9900017       1.44428931E-08
   49.0499992       1.36147555E-08
   49.1100006       1.28365620E-08
   49.1699982       1.21068755E-08
   49.2299995       1.14250573E-08
   49.2900009       1.07901803E-08
   49.3499985       1.02005320E-08
   49.4099998       9.65423474E-09
   49.4700012       9.15090848E-09
   49.5299988       8.69363870E-09
   49.5900002       8.29008151E-09
   49.6500015       7.95171839E-09
   49.7099991       7.69107000E-09
   49.7700005       7.51777041E-09
   49.8300018       7.43515205E-09
   49.8899994       7.43895257E-09
   49.9500008       7.51883800E-09
   50.0099983       7.66204522E-09
   50.0699997       7.85738052E-09
   50.1300011       8.09762568E-09
   50.1899986       8.37925462E-09
   50.2500000       8.69972450E-09
   50.3100014       9.05378883E-09
   50.3699989       9.43062606E-09
   50.4300003       9.81304371E-09
   50.4900017       1.01790283E-08
   50.5499992       1.05050413E-08
   50.6100006       1.07700835E-08