 -0.750000000       0.00000000    
 -0.689999998       0.00000000    
 -0.629999995       0.00000000    
 -0.569999993       0.00000000    
 -0.509999990       0.00000000    
 -0.449999988       0.00000000    
 -0.389999986       0.00000000    
 -0.330000013       0.00000000    
 -0.270000011       0.00000000    
 -0.209999993      -2.15022495E-29
 -0.150000006      -2.45288003E-28
  -9.00000036E-02  -1.22324805E-27
  -2.99999993E-02  -2.82875852E-27
   2.99999993E-02   1.95400345E-27
   9.00000036E-02   3.99564119E-26
  0.150000006       1.56525830E-25
  0.209999993       3.32939189E-25
  0.270000011       2.48660001E-25
  0.330000013      -9.95813436E-25
  0.389999986      -4.58902674E-24
  0.449999988      -1.00946396E-23
  0.509999990      -1.15496778E-23
  0.569999993       5.66785990E-24
  0.629999995       5.95214991E-23
  0.689999998       1.48211540E-22
  0.750000000       2.10474678E-22
  0.810000002       9.82424400E-23
  0.870000005      -3.76906179E-22
  0.930000007      -1.26313277E-21
  0.990000010      -2.17583357E-21
   1.04999995      -2.08774126E-21
   1.11000001       4.34596726E-22
   1.16999996       6.22108927E-21
   1.23000002       1.38363163E-20
   1.28999996       1.82247341E-20
   1.35000002       1.13852550E-20
   1.40999997      -1.33788523E-20
   1.47000003      -5.39725753E-20
   1.52999997      -9.25177798E-20
   1.59000003      -9.56578285E-20
   1.64999998      -2.85307130E-20
   1.71000004       1.17768185E-19
   1.76999998       2.97303265E-19
   1.83000004       4.02077477E-19
   1.88999999       2.99388200E-19
   1.95000005      -8.30255656E-20
   2.00999999      -6.57766061E-19
   2.06999993      -1.13377211E-18
   2.13000011      -1.10057259E-18
   2.19000006      -2.61151182E-19
   2.25000000       1.26993762E-18
   2.30999994       2.79089891E-18
   2.36999989       3.16970689E-18
   2.43000007       1.41733128E-18
   2.49000001      -2.50480526E-18
   2.54999995      -7.10454096E-18
   2.60999990      -9.55480958E-18
   2.67000008      -6.93999819E-18
   2.73000002       1.79350210E-18
   2.78999996       1.42092689E-17
   2.84999990       2.43667688E-17
   2.91000009       2.51659742E-17
   2.97000003       1.24582574E-17
   3.02999997      -1.11774981E-17
   3.08999991      -3.57469774E-17
   3.15000010      -4.79349676E-17
   3.21000004      -3.89390509E-17
   3.26999998      -1.18671615E-17
   3.32999992       1.68746599E-17
   3.39000010       2.56795425E-17
   3.45000005       3.24709274E-18
   3.50999999      -3.70005961E-17
   3.56999993      -5.51129200E-17
   3.63000011      -2.92479422E-18
   3.69000006       1.41151026E-16
   3.75000000       3.37952064E-16
   3.80999994       4.78535128E-16
   3.86999989       4.18734470E-16
   3.93000007       5.49553553E-17
   3.99000001      -5.88682022E-16
   4.05000019      -1.31087168E-15
   4.11000013      -1.76621150E-15
   4.17000008      -1.59318649E-15
   4.23000002      -5.99050288E-16
   4.28999996       1.08017273E-15
   4.34999990       2.93661897E-15
   4.40999985       4.21898852E-15
   4.46999979       4.21130721E-15
   4.53000021       2.56019732E-15
   4.59000015      -4.94777991E-16
   4.65000010      -4.11030192E-15
   4.71000004      -7.08340154E-15
   4.76999998      -8.27090149E-15
   4.82999992      -7.01777258E-15
   4.88999987      -3.41550556E-15
   4.94999981       1.71521027E-15
   5.01000023       7.09793832E-15
   5.07000017       1.13963438E-14
   5.13000011       1.35558882E-14
   5.19000006       1.29672062E-14
   5.25000000       9.44597251E-15
   5.30999994       3.14081638E-15
   5.36999989      -5.47769770E-15
   5.42999983      -1.54632150E-14
   5.48999977      -2.51436055E-14
   5.55000019      -3.19956972E-14
   5.61000013      -3.29163678E-14
   5.67000008      -2.50469150E-14
   5.73000002      -7.04367230E-15
   5.78999996       1.96216165E-14
   5.84999990       4.99464328E-14
   5.90999985       7.58326372E-14
   5.96999979       8.78962701E-14
   6.03000021       7.83345827E-14
   6.09000015       4.40004614E-14
   6.15000010      -1.14415694E-14
   6.21000004      -7.72507600E-14
   6.26999998      -1.37629640E-13
   6.32999992      -1.75609147E-13
   6.38999987      -1.77667505E-13
   6.44999981      -1.37646201E-13
   6.51000023      -5.87743152E-14
   6.57000017       4.66940532E-14
   6.63000011       1.59903842E-13
   6.69000006       2.58983183E-13
   6.75000000       3.22788562E-13
   6.80999994       3.34159241E-13
   6.86999989       2.82540999E-13
   6.92999983       1.66155420E-13
   6.98999977      -6.21000977E-15
   7.05000019      -2.14164596E-13
   7.11000013      -4.26264872E-13
   7.17000008      -6.03055583E-13
   7.23000002      -7.02961018E-13
   7.28999996      -6.90368064E-13
   7.34999990      -5.44205794E-13
   7.40999985      -2.64795971E-13
   7.46999979       1.22958813E-13
   7.53000021       5.70978106E-13
   7.59000015       1.01367341E-12
   7.65000010       1.37661865E-12
   7.71000004       1.58666667E-12
   7.76999998       1.58224594E-12
   7.82999992       1.32303836E-12
   7.88999987       7.98432230E-13
   7.94999981       3.38773606E-14
   8.01000023      -9.06220303E-13
   8.06999969      -1.92064745E-12
   8.13000011      -2.87966092E-12
   8.18999958      -3.63919745E-12
   8.25000000      -4.05917227E-12
   8.31000042      -4.02269624E-12
   8.36999989      -3.45266654E-12
   8.43000031      -2.32294847E-12
   8.48999977      -6.62949621E-13
   8.55000019       1.44378661E-12
   8.60999966       3.86495306E-12
   8.67000008       6.42611745E-12
   8.72999954       8.91600335E-12
   8.78999996       1.10884218E-11
   8.85000038       1.26599850E-11
   8.90999985       1.33042379E-11
   8.97000027       1.26447394E-11
   9.02999973       1.02514915E-11
   9.09000015       5.64636272E-12
   9.14999962      -1.67710865E-12
   9.21000004      -1.22163616E-11
   9.27000046      -2.64055826E-11
   9.32999992      -4.45496036E-11
   9.39000034      -6.67540745E-11
   9.44999981      -9.28605595E-11
   9.51000023      -1.22393026E-10
   9.56999969      -1.54518495E-10
   9.63000011      -1.88021168E-10
   9.68999958      -2.21289459E-10
   9.75000000      -2.52318305E-10
   9.81000042      -2.78734730E-10
   9.86999989      -2.97860514E-10
   9.93000031      -3.06827064E-10
   9.98999977      -3.02752323E-10
   10.0500002      -2.82978890E-10
   10.1099997      -2.45354903E-10
   10.1700001      -1.88523863E-10
   10.2299995      -1.12177968E-10
   10.2900000      -1.72264598E-11
   10.3500004       9.41589307E-11
   10.4099998       2.18640203E-10
   10.4700003       3.51943447E-10
   10.5299997       4.89188745E-10
   10.5900002       6.25268060E-10
   10.6499996       7.55212726E-10
   10.7100000       8.74505524E-10
   10.7700005       9.79315740E-10
   10.8299999       1.06666354E-09
   10.8900003       1.13454068E-09
   10.9499998       1.18201671E-09
   11.0100002       1.20934152E-09
   11.0699997       1.21801902E-09
   11.1300001       1.21079602E-09
   11.1899996       1.19149979E-09
   11.2500000       1.16467425E-09
   11.3100004       1.13502596E-09
   11.3699999       1.10675835E-09
   11.4300003       1.08293363E-09
   11.4899998       1.06502274E-09
   11.5500002       1.05276610E-09
   11.6099997       1.04438802E-09
   11.6700001       1.03710007E-09
   11.7299995       1.02775222E-09
   11.7900000       1.01345687E-09
   11.8500004       9.92047333E-10
   11.9099998       9.62310009E-10
   11.9700003       9.24019583E-10
   12.0299997       8.77858342E-10
   12.0900002       8.25308655E-10
   12.1499996       7.68552999E-10
   12.2100000       7.10358050E-10
   12.2700005       6.53876397E-10
   12.3299999       6.02311201E-10
   12.3900003       5.58452729E-10
   12.4499998       5.24174870E-10
   12.5100002       5.00035346E-10
   12.5699997       4.85116558E-10
   12.6300001       4.77170081E-10
   12.6899996       4.73021344E-10
   12.7500000       4.69095429E-10
   12.8100004       4.61897437E-10
   12.8699999       4.48324766E-10
   12.9300003       4.25789654E-10
   12.9899998       3.92232025E-10
   13.0500002       3.46149748E-10
   13.1099997       2.86744628E-10
   13.1700001       2.14188056E-10
   13.2299995       1.29904199E-10
   13.2900000       3.67076473E-11
   13.3500004      -6.13468443E-11
   13.4099998      -1.59447941E-10
   13.4700003      -2.52759258E-10
   13.5299997      -3.37210898E-10
   13.5900002      -4.10133705E-10
   13.6499996      -4.70574413E-10
   13.7100000      -5.19242038E-10
   13.7700005      -5.58154689E-10
   13.8299999      -5.90131444E-10
   13.8900003      -6.18287477E-10
   13.9499998      -6.45640763E-10
   14.0100002      -6.74867384E-10
   14.0699997      -7.08174852E-10
   14.1300001      -7.47231110E-10
   14.1899996      -7.93089761E-10
   14.2500000      -8.46088144E-10
   14.3100004      -9.05732656E-10
   14.3699999      -9.70619585E-10
   14.4300003      -1.03845421E-09
   14.4899998      -1.10621801E-09
   14.5500002      -1.17050736E-09
   14.6099997      -1.22801758E-09
   14.6700001      -1.27610078E-09
   14.7299995      -1.31328548E-09
   14.7900000      -1.33963696E-09
   14.8500004      -1.35686096E-09
   14.9099998      -1.36811085E-09
   14.9700003      -1.37753309E-09
   15.0299997      -1.38965328E-09
   15.0900002      -1.40873990E-09
   15.1499996      -1.43827006E-09
   15.2100000      -1.48057389E-09
   15.2700005      -1.53666790E-09
   15.3299999      -1.60623392E-09
   15.3900003      -1.68768266E-09
   15.4499998      -1.77825876E-09
   15.5100002      -1.87418858E-09
   15.5699997      -1.97090722E-09
   15.6300001      -2.06340678E-09
   15.6899996      -2.14672324E-09
   15.7500000      -2.21651675E-09
   15.8100004      -2.26964869E-09
   15.8699999      -2.30463404E-09
   15.9300003      -2.32185937E-09
   15.9899998      -2.32351649E-09
   16.0499992      -2.31326758E-09
   16.1100006      -2.29571495E-09
   16.1700001      -2.27576824E-09
   16.2299995      -2.25800401E-09
   16.2900009      -2.24609020E-09
   16.3500004      -2.24233321E-09
   16.4099998      -2.24740337E-09
   16.4699993      -2.26028729E-09
   16.5300007      -2.27849495E-09
   16.5900002      -2.29849650E-09
   16.6499996      -2.31630448E-09
   16.7099991      -2.32805419E-09
   16.7700005      -2.33044628E-09
   16.8299999      -2.32096942E-09
   16.8899994      -2.29793118E-09
   16.9500008      -2.26042718E-09
   17.0100002      -2.20840524E-09
   17.0699997      -2.14291918E-09
   17.1299992      -2.06652162E-09
   17.1900005      -1.98359129E-09
   17.2500000      -1.90032257E-09
   17.3099995      -1.82416693E-09
   17.3700008      -1.76271020E-09
   17.4300003      -1.72222192E-09
   17.4899998      -1.70629544E-09
   17.5499992      -1.71503134E-09
   17.6100006      -1.74505888E-09
   17.6700001      -1.79040327E-09
   17.7299995      -1.84390536E-09
   17.7900009      -1.89871097E-09
   17.8500004      -1.94935756E-09
   17.9099998      -1.99217709E-09
   17.9699993      -2.02503414E-09
   18.0300007      -2.04667394E-09
   18.0900002      -2.05609574E-09
   18.1499996      -2.05227479E-09
   18.2099991      -2.03436046E-09
   18.2700005      -2.00219641E-09
   18.3299999      -1.95684091E-09
   18.3899994      -1.90072980E-09
   18.4500008      -1.83729554E-09
   18.5100002      -1.77011095E-09
   18.5699997      -1.70187242E-09
   18.6299992      -1.63364833E-09
   18.6900005      -1.56474256E-09
   18.7500000      -1.49327251E-09
   18.8099995      -1.41725909E-09
   18.8700008      -1.33578193E-09
   18.9300003      -1.24969535E-09
   18.9899998      -1.16155729E-09
   19.0499992      -1.07473364E-09
   19.1100006      -9.91991489E-10
   19.1700001      -9.14123832E-10
   19.2299995      -8.39170289E-10
   19.2900009      -7.62584496E-10
   19.3500004      -6.78329060E-10
   19.4099998      -5.80510418E-10
   19.4699993      -4.64944333E-10
   19.5300007      -3.30069361E-10
   19.5900002      -1.76897719E-10
   19.6499996      -8.09507929E-12
   19.7099991       1.73356343E-10
   19.7700005       3.65295377E-10
   19.8299999       5.66815483E-10
   19.8899994       7.77826081E-10
   19.9500008       9.97978034E-10
   20.0100002       1.22547872E-09
   20.0699997       1.45635914E-09
   20.1299992       1.68454151E-09
   20.1900005       1.90268201E-09
   20.2500000       2.10344475E-09
   20.3099995       2.28071295E-09
   20.3700008       2.43034948E-09
   20.4300003       2.55036769E-09
   20.4899998       2.64064748E-09
   20.5499992       2.70247069E-09
   20.6100006       2.73809331E-09
   20.6700001       2.75042655E-09
   20.7299995       2.74273426E-09
   20.7900009       2.71822831E-09
   20.8500004       2.67956324E-09
   20.9099998       2.62839839E-09
   20.9699993       2.56529376E-09
   21.0300007       2.49012744E-09
   21.0900002       2.40296227E-09
   21.1499996       2.30501174E-09
   21.2099991       2.19918705E-09
   21.2700005       2.08982920E-09
   21.3299999       1.98157535E-09
   21.3899994       1.87778082E-09
   21.4500008       1.77922199E-09
   21.5100002       1.68380032E-09
   21.5699997       1.58758184E-09
   21.6299992       1.48690171E-09
   21.6900005       1.38070688E-09
   21.7500000       1.27207789E-09
   21.8099995       1.16811205E-09
   21.8700008       1.07797826E-09
   21.9300003       1.00974129E-09
   21.9899998       9.67134040E-10
   22.0499992       9.47586898E-10
   22.1100006       9.42408707E-10
   22.1700001       9.39209044E-10
   22.2299995       9.25779009E-10
   22.2900009       8.94045948E-10
   22.3500004       8.42650061E-10
   22.4099998       7.77180820E-10
   22.4699993       7.07978010E-10
   22.5300007       6.46310783E-10
   22.5900002       6.00349326E-10
   22.6499996       5.72410064E-10
   22.7099991       5.58464774E-10
   22.7700005       5.50049506E-10
   22.8299999       5.37810907E-10
   22.8899994       5.15338550E-10
   22.9500008       4.81850781E-10
   23.0100002       4.42770570E-10
   23.0699997       4.08037965E-10
   23.1299992       3.88857280E-10
   23.1900005       3.94132310E-10
   23.2500000       4.27902436E-10
   23.3099995       4.88651508E-10
   23.3700008       5.70606729E-10
   23.4300003       6.66386391E-10
   23.4899998       7.69885267E-10
   23.5499992       8.78270456E-10
   23.6100006       9.92384286E-10
   23.6700001       1.11550946E-09
   23.7299995       1.25109267E-09
   23.7900009       1.40038370E-09
   23.8500004       1.56092939E-09
   23.9099998       1.72648940E-09
   23.9699993       1.88838456E-09
   24.0300007       2.03776596E-09
   24.0900002       2.16798557E-09
   24.1499996       2.27625963E-09
   24.2099991       2.36409026E-09
   24.2700005       2.43636911E-09
   24.3299999       2.49951748E-09
   24.3899994       2.55930610E-09
   24.4500008       2.61904676E-09
   24.5100002       2.67865663E-09
   24.5699997       2.73478773E-09
   24.6299992       2.78186496E-09
   24.6900005       2.81363977E-09
   24.7500000       2.82479884E-09
   24.8099995       2.81220691E-09
   24.8700008       2.77553669E-09
   24.9300003       2.71719114E-09
   24.9899998       2.64157984E-09
   25.0499992       2.55392352E-09
   25.1100006       2.45886556E-09
   25.1700001       2.35922970E-09
   25.2299995       2.25527952E-09
   25.2900009       2.14474616E-09
   25.3500004       2.02368033E-09
   25.4099998       1.88791560E-09
   25.4699993       1.73467818E-09
   25.5300007       1.56378843E-09
   25.5900002       1.37800549E-09
   25.6499996       1.18237686E-09
   25.7099991       9.82815607E-10
   25.7700005       7.84412868E-10
   25.8299999       5.90066385E-10
   25.8899994       3.99856898E-10
   25.9500008       2.11315576E-10
   26.0100002       2.04191768E-11
   26.0699997      -1.77055634E-10
   26.1299992      -3.84240195E-10
   26.1900005      -6.02290329E-10
   26.2500000      -8.30106262E-10
   26.3099995      -1.06468112E-09
   26.3700008      -1.30194489E-09
   26.4300003      -1.53783963E-09
   26.4899998      -1.76928960E-09
   26.5499992      -1.99472483E-09
   26.6100006      -2.21395147E-09
   26.6700001      -2.42737297E-09
   26.7299995      -2.63484545E-09
   26.7900009      -2.83462320E-09
   26.8500004      -3.02288883E-09
   26.9099998      -3.19415028E-09
   26.9699993      -3.34245542E-09
   27.0300007      -3.46301521E-09
   27.0900002      -3.55362961E-09
   27.1499996      -3.61535668E-09
   27.2099991      -3.65214192E-09
   27.2700005      -3.66954245E-09
   27.3299999      -3.67301722E-09
   27.3899994      -3.66642716E-09
   27.4500008      -3.65128217E-09
   27.5100002      -3.62696784E-09
   27.5699997      -3.59179531E-09
   27.6299992      -3.54441543E-09
   27.6900005      -3.48500961E-09
   27.7500000      -3.41579010E-09
   27.8099995      -3.34062067E-09
   27.8700008      -3.26391492E-09
   27.9300003      -3.18923865E-09
   27.9899998      -3.11812820E-09
   28.0499992      -3.04953707E-09
   28.1100006      -2.98007441E-09
   28.1700001      -2.90490876E-09
   28.2299995      -2.81900592E-09
   28.2900009      -2.71829448E-09
   28.3500004      -2.60044963E-09
   28.4099998      -2.46515430E-09
   28.4699993      -2.31389352E-09
   28.5300007      -2.14947349E-09
   28.5900002      -1.97548000E-09
   28.6499996      -1.79585047E-09
   28.7099991      -1.61461333E-09
   28.7700005      -1.43575885E-09
   28.8299999      -1.26313870E-09
   28.8899994      -1.10029141E-09
   28.9500008      -9.50145296E-10
   29.0100002      -8.14632362E-10
   29.0699997      -6.94324653E-10
   29.1299992      -5.88241456E-10
   29.1900005      -4.93950436E-10
   29.2500000      -4.08007517E-10
   29.3099995      -3.26663807E-10
   29.3700008      -2.46674042E-10
   29.4300003      -1.65993608E-10
   29.4899998      -8.41808151E-11
   29.5499992      -2.41236393E-12
   29.6100006       7.68595951E-11
   29.6700001       1.50477505E-10
   29.7299995       2.15193460E-10
   29.7900009       2.68165573E-10
   29.8500004       3.07243370E-10
   29.9099998       3.31046607E-10
   29.9699993       3.38921086E-10
   30.0300007       3.30882294E-10
   30.0900002       3.07619541E-10
   30.1499996       2.70550304E-10
   30.2099991       2.21824531E-10
   30.2700005       1.64146724E-10
   30.3299999       1.00339459E-10
   30.3899994       3.27056819E-11
   30.4500008      -3.76031463E-11
   30.5100002      -1.10934595E-10
   30.5699997      -1.88988172E-10
   30.6299992      -2.74167883E-10
   30.6900005      -3.68674036E-10
   30.7500000      -4.73727946E-10
   30.8099995      -5.89284121E-10
   30.8700008      -7.14347304E-10
   30.9300003      -8.47695525E-10
   30.9899998      -9.88582216E-10
   31.0499992      -1.13698861E-09
   31.1100006      -1.29323352E-09
   31.1700001      -1.45710033E-09
   31.2299995      -1.62691760E-09
   31.2900009      -1.79908466E-09
   31.3500004      -1.96832173E-09
   31.4099998      -2.12858997E-09
   31.4699993      -2.27431318E-09
   31.5300007      -2.40143083E-09
   31.5900002      -2.50790899E-09
   31.6499996      -2.59361133E-09
   31.7099991      -2.65967182E-09
   31.7700005      -2.70766431E-09
   31.8299999      -2.73885248E-09
   31.8899994      -2.75369350E-09
   31.9500008      -2.75163781E-09
   32.0099983      -2.73118217E-09
   32.0699997      -2.69010392E-09
   32.1300011      -2.62582667E-09
   32.1899986      -2.53588972E-09
   32.2500000      -2.41850473E-09
   32.3100014      -2.27316654E-09
   32.3699989      -2.10124251E-09
   32.4300003      -1.90639948E-09
   32.4900017      -1.69468306E-09
   32.5499992      -1.47405499E-09
   32.6100006      -1.25330513E-09
   32.6699982      -1.04045295E-09
   32.7299995      -8.41022141E-10
   32.7900009      -6.56757149E-10
   32.8499985      -4.85333662E-10
   32.9099998      -3.21333654E-10
   32.9700012      -1.58273783E-10
   33.0299988       8.99279783E-12
   33.0900002       1.82410101E-10
   33.1500015       3.60134672E-10
   33.2099991       5.37467348E-10
   33.2700005       7.08901438E-10
   33.3300018       8.70422179E-10
   33.3899994       1.02111586E-09
   33.4500008       1.16347987E-09
   33.5099983       1.30239575E-09
   33.5699997       1.44325507E-09
   33.6300011       1.58999991E-09
   33.6899986       1.74376869E-09
   33.7500000       1.90251970E-09
   33.8100014       2.06162176E-09
   33.8699989       2.21509278E-09
   33.9300003       2.35704145E-09
   33.9900017       2.48287746E-09
   34.0499992       2.58997579E-09
   34.1100006       2.67764499E-09
   34.1699982       2.74645595E-09
   34.2299995       2.79717827E-09
   34.2900009       2.82973067E-09
   34.3499985       2.84258594E-09
   34.4099998       2.83292989E-09
   34.4700012       2.79757884E-09
   34.5299988       2.73432232E-09
   34.5900002       2.64312838E-09
   34.6500015       2.52665311E-09
   34.7099991       2.38977438E-09
   34.7700005       2.23827867E-09
   34.8300018       2.07721018E-09
   34.8899994       1.90954275E-09
   34.9500008       1.73569159E-09
   35.0099983       1.55401847E-09
   35.0699997       1.36206879E-09
   35.1300011       1.15799348E-09
   35.1899986       9.41577261E-10
   35.2500000       7.14506232E-10
   35.3100014       4.79852769E-10
   35.3699989       2.41084985E-10
   35.4300003       1.08310398E-12
   35.4900017      -2.38395331E-10
   35.5499992      -4.76585105E-10
   35.6100006      -7.13014758E-10
   35.6699982      -9.46605794E-10
   35.7299995      -1.17504451E-09
   35.7900009      -1.39479728E-09
   35.8499985      -1.60186342E-09
   35.9099998      -1.79301907E-09
   35.9700012      -1.96705696E-09
   36.0299988      -2.12548046E-09
   36.0900002      -2.27230901E-09
   36.1500015      -2.41298914E-09
   36.2099991      -2.55276045E-09
   36.2700005      -2.69502243E-09
   36.3300018      -2.84022161E-09
   36.3899994      -2.98556135E-09
   36.4500008      -3.12555337E-09
   36.5099983      -3.25318994E-09
   36.5699997      -3.36140782E-09
   36.6300011      -3.44451068E-09
   36.6899986      -3.49926776E-09
   36.7500000      -3.52545326E-09
   36.8100014      -3.52566110E-09
   36.8699989      -3.50434304E-09
   36.9300003      -3.46625528E-09
   36.9900017      -3.41474582E-09
   37.0499992      -3.35052719E-09
   37.1100006      -3.27152549E-09
   37.1699982      -3.17405746E-09
   37.2299995      -3.05503467E-09
   37.2900009      -2.91437585E-09
   37.3499985      -2.75657963E-09
   37.4099998      -2.59065613E-09
   37.4700012      -2.42824494E-09
   37.5299988      -2.28050334E-09
   37.5900002      -2.15488738E-09
   37.6500015      -2.05300954E-09
   37.7099991      -1.97034677E-09
   37.7700005      -1.89786076E-09
   37.8300018      -1.82491966E-09
   37.8899994      -1.74252279E-09
   37.9500008      -1.64582326E-09
   38.0099983      -1.53526869E-09
   38.0699997      -1.41614709E-09
   38.1300011      -1.29678202E-09
   38.1899986      -1.18596055E-09
   38.2500000      -1.09034670E-09
   38.3100014      -1.01261977E-09
   38.3699989      -9.50874823E-10
   38.4300003      -8.99445352E-10
   38.4900017      -8.50853721E-10
   38.5499992      -7.98203614E-10
   38.6100006      -7.37178818E-10
   38.6699982      -6.66979860E-10
   38.7299995      -5.89977400E-10
   38.7900009      -5.10378573E-10
   38.8499985      -4.32563235E-10
   38.9099998      -3.59786284E-10
   38.9700012      -2.93674390E-10
   39.0299988      -2.34532310E-10
   39.0900002      -1.82129631E-10
   39.1500015      -1.36509942E-10
   39.2099991      -9.84567011E-11
   39.2700005      -6.94632546E-11
   39.3300018      -5.12587472E-11
   39.3899994      -4.50680882E-11
   39.4500008      -5.08386423E-11
   39.5099983      -6.66812577E-11
   39.5699997      -8.87602561E-11
   39.6300011      -1.11792728E-10
   39.6899986      -1.30141245E-10
   39.7500000      -1.39236914E-10
   39.8100014      -1.36857414E-10
   39.8699989      -1.23747096E-10
   39.9300003      -1.03272536E-10
   39.9900017      -8.01976194E-11
   40.0499992      -5.90429858E-11
   40.1100006      -4.26671094E-11
   40.1699982      -3.15745589E-11
   40.2299995      -2.41030928E-11
   40.2900009      -1.72693405E-11
   40.3499985      -7.85193438E-12
   40.4099998       6.66672490E-12
   40.4700012       2.74895402E-11
   40.5299988       5.42389467E-11
   40.5900002       8.49974605E-11
   40.6500015       1.16666135E-10
   40.7099991       1.45684673E-10
   40.7700005       1.69065220E-10
   40.8300018       1.85484822E-10
   40.8899994       1.95997510E-10
   40.9500008       2.03938297E-10
   41.0099983       2.13867868E-10
   41.0699997       2.29845420E-10
   41.1300011       2.53684546E-10
   41.1899986       2.83926577E-10
   41.2500000       3.15992177E-10
   41.3100014       3.43476997E-10
   41.3699989       3.60092400E-10
   41.4300003       3.61531444E-10
   41.4900017       3.46636303E-10
   41.5499992       3.17556342E-10
   41.6100006       2.78946838E-10
   41.6699982       2.36523218E-10
   41.7299995       1.95407052E-10
   41.7900009       1.58710142E-10
   41.8499985       1.26736788E-10
   41.9099998       9.70504371E-11
   41.9700012       6.54311189E-11
   42.0299988       2.74637622E-11
   42.0900002      -1.97675661E-11
   42.1500015      -7.65125532E-11
   42.2099991      -1.40198617E-10
   42.2700005      -2.06384784E-10
   42.3300018      -2.70458905E-10
   42.3899994      -3.29387490E-10
   42.4500008      -3.82806342E-10
   42.5099983      -4.33032332E-10
   42.5699997      -4.84039364E-10
   42.6300011      -5.39852441E-10
   42.6899986      -6.03006645E-10
   42.7500000      -6.73635703E-10
   42.8100014      -7.49476869E-10
   42.8699989      -8.26733515E-10
   42.9300003      -9.01448582E-10
   42.9900017      -9.70886482E-10
   43.0499992      -1.03442643E-09
   43.1100006      -1.09362219E-09
   43.1699982      -1.15136989E-09
   43.2299995      -1.21044674E-09
   43.2900009      -1.27195821E-09
   43.3499985      -1.33430544E-09
   43.4099998      -1.39312606E-09
   43.4700012      -1.44228296E-09
   43.5299988      -1.47555301E-09
   43.5900002      -1.48838319E-09
   43.6500015      -1.47907198E-09
   43.7099991      -1.44899859E-09
   43.7700005      -1.40191436E-09
   43.8300018      -1.34265110E-09
   43.8899994      -1.27574473E-09
   43.9500008      -1.20439614E-09
   44.0099983      -1.12998955E-09
   44.0699997      -1.05217079E-09
   44.1300011      -9.69350933E-10
   44.1899986      -8.79442796E-10
   44.2500000      -7.80642107E-10
   44.3100014      -6.72084721E-10
   44.3699989      -5.54243262E-10
   44.4300003      -4.28979824E-10
   44.4900017      -2.99249764E-10
   44.5499992      -1.68530911E-10
   44.6100006      -4.01124793E-11
   44.6699982       8.36076625E-11
   44.7299995       2.01674705E-10
   44.7900009       3.14846510E-10
   44.8499985       4.25463914E-10
   44.9099998       5.36854228E-10
   44.9700012       6.52328358E-10
   45.0299988       7.74023678E-10
   45.0900002       9.02017128E-10
   45.1500015       1.03414965E-09
   45.2099991       1.16678478E-09
   45.2700005       1.29630862E-09
   45.3300018       1.42076295E-09
   45.3899994       1.54083390E-09
   45.4500008       1.65963832E-09
   45.5099983       1.78129655E-09
   45.5699997       1.90889105E-09
   45.6300011       2.04275041E-09
   45.6899986       2.17988405E-09
   45.7500000       2.31484409E-09
   45.8100014       2.44163578E-09
   45.8699989       2.55581134E-09
   45.9300003       2.65584754E-09
   45.9900017       2.74326539E-09
   46.0499992       2.82151347E-09
   46.1100006       2.89411672E-09
   46.1699982       2.96282487E-09
   46.2299995       3.02642200E-09
   46.2900009       3.08058112E-09
   46.3499985       3.11879789E-09
   46.4099998       3.13411297E-09
   46.4700012       3.12109627E-09
   46.5299988       3.07747139E-09
   46.5900002       3.00484593E-09
   46.6500015       2.90829028E-09
   46.7099991       2.79490697E-09
   46.7700005       2.67192801E-09
   46.8300018       2.54504573E-09
   46.8899994       2.41757059E-09
   46.9500008       2.29061570E-09
   47.0099983       2.16402385E-09
   47.0699997       2.03745709E-09
   47.1300011       1.91105554E-09
   47.1899986       1.78536497E-09
   47.2500000       1.66065006E-09
   47.3100014       1.53602253E-09
   47.3699989       1.40889644E-09
   47.4300003       1.27512634E-09
   47.4900017       1.12989251E-09
   47.5499992       9.69114233E-10
   47.6100006       7.90972898E-10
   47.6699982       5.97057681E-10
   47.7299995       3.92695404E-10
   47.7900009       1.86208021E-10
   47.8499985      -1.28596717E-11
   47.9099998      -1.96128877E-10
   47.9700012      -3.58675062E-10
   48.0299988      -5.00410213E-10
   48.0900002      -6.25994367E-10
   48.1500015      -7.43226147E-10
   48.2099991      -8.60448157E-10
   48.2700005      -9.83884640E-10
   48.3300018      -1.11582243E-09
   48.3899994      -1.25415844E-09
   48.4500008      -1.39327194E-09
   48.5099983      -1.52571877E-09
   48.5699997      -1.64407721E-09
   48.6300011      -1.74240644E-09
   48.6899986      -1.81707671E-09
   48.7500000      -1.86698390E-09
   48.8100014      -1.89329552E-09
   48.8699989      -1.89888394E-09
   48.9300003      -1.88758031E-09
   48.9900017      -1.86339211E-09
   49.0499992      -1.82985505E-09
   49.1100006      -1.78965631E-09
   49.1699982      -1.74457981E-09
   49.2299995      -1.69566272E-09
   49.2900009      -1.64337777E-09
   49.3499985      -1.58769697E-09
   49.4099998      -1.52804736E-09
   49.4700012      -1.46332146E-09
   49.5299988      -1.39212564E-09
   49.5900002      -1.31330291E-09
   49.6500015      -1.22655064E-09
   49.7099991      -1.13282406E-09
   49.7700005      -1.03429354E-09
   49.8300018      -9.33866318E-10
   49.8899994      -8.34535108E-10
   49.9500008      -7.38901718E-10
   50.0099983      -6.49071630E-10
   50.0699997      -5.66840297E-10
   50.1300011      -4.93878993E-10
   50.1899986      -4.31643110E-10
   50.2500000      -3.80952547E-10
   50.3100014      -3.41482648E-10
   50.3699989      -3.11545956E-10
   50.4300003      -2.88438384E-10
   50.4900017      -2.69330364E-10
   50.5499992      -2.52388499E-10
   50.6100006      -2.37684455E-10