 -0.750000000       0.00000000    
 -0.689999998       0.00000000    
 -0.629999995       0.00000000    
 -0.569999993       0.00000000    
 -0.509999990       0.00000000    
 -0.449999988       0.00000000    
 -0.389999986       0.00000000    
 -0.330000013       0.00000000    
 -0.270000011       0.00000000    
 -0.209999993      -2.88638124E-30
 -0.150000006       1.10506887E-28
  -9.00000036E-02   1.62459028E-27
  -2.99999993E-02   1.01216208E-26
   2.99999993E-02   3.69093904E-26
   9.00000036E-02   7.91249243E-26
  0.150000006       4.88672152E-26
  0.209999993      -3.21289957E-25
  0.270000011      -1.39248613E-24
  0.330000013      -2.98959350E-24
  0.389999986      -3.18186238E-24
  0.449999988       2.33105420E-24
  0.509999990       1.74948097E-23
  0.569999993       3.78160480E-23
  0.629999995       4.09051548E-23
  0.689999998      -1.03926689E-23
  0.750000000      -1.35068057E-22
  0.810000002      -2.73996182E-22
  0.870000005      -2.52730208E-22
  0.930000007       1.42576953E-22
  0.990000010       9.21786467E-22
   1.04999995       1.58942391E-21
   1.11000001       1.12022338E-21
   1.16999996      -1.40030298E-21
   1.23000002      -5.47916077E-21
   1.28999996      -8.12237643E-21
   1.35000002      -4.53113909E-21
   1.40999997       8.26118929E-21
   1.47000003       2.59463617E-20
   1.52999997       3.41229968E-20
   1.59000003       1.39891363E-20
   1.64999998      -4.13737939E-20
   1.71000004      -1.07746207E-19
   1.76999998      -1.25454141E-19
   1.83000004      -2.82439528E-20
   1.88999999       1.94831562E-19
   1.95000005       4.38419270E-19
   2.00999999       4.81868172E-19
   2.06999993       1.01992080E-19
   2.13000011      -7.20551500E-19
   2.19000006      -1.62052313E-18
   2.25000000      -1.87560991E-18
   2.30999994      -7.66607727E-19
   2.36999989       1.81279382E-18
   2.43000007       4.84836530E-18
   2.49000001       6.28613094E-18
   2.54999995       3.99483692E-18
   2.60999990      -2.64150389E-18
   2.67000008      -1.13922159E-17
   2.73000002      -1.72668742E-17
   2.78999996      -1.46714924E-17
   2.84999990      -1.03659938E-18
   2.91000009       2.00397225E-17
   2.97000003       3.85673622E-17
   3.02999997       4.21610583E-17
   3.08999991       2.30452717E-17
   3.15000010      -1.56820143E-17
   3.21000004      -5.89517461E-17
   3.26999998      -8.59069682E-17
   3.32999992      -8.09466573E-17
   3.39000010      -4.31579069E-17
   3.45000005       1.26952504E-17
   3.50999999       6.57386572E-17
   3.56999993       1.03542293E-16
   3.63000011       1.30572670E-16
   3.69000006       1.61205418E-16
   3.75000000       1.98081288E-16
   3.80999994       2.09950510E-16
   3.86999989       1.30260671E-16
   3.93000007      -1.09442474E-16
   3.99000001      -5.18710377E-16
   4.05000019      -9.92437693E-16
   4.11000013      -1.30418044E-15
   4.17000008      -1.17757210E-15
   4.23000002      -4.24601470E-16
   4.28999996       9.07188698E-16
   4.34999990       2.46141761E-15
   4.40999985       3.63811196E-15
   4.46999979       3.80172061E-15
   4.53000021       2.56055053E-15
   4.59000015      -3.95301219E-18
   4.65000010      -3.27311509E-15
   4.71000004      -6.24165280E-15
   4.76999998      -7.83859028E-15
   4.82999992      -7.29899641E-15
   4.88999987      -4.44758451E-15
   4.94999981       2.03388731E-16
   5.01000023       5.56449401E-15
   5.07000017       1.02418786E-14
   5.13000011       1.28913976E-14
   5.19000006       1.25706474E-14
   5.25000000       9.01545193E-15
   5.30999994       2.77368710E-15
   5.36999989      -4.86210083E-15
   5.42999983      -1.21471530E-14
   5.48999977      -1.73500537E-14
   5.55000019      -1.92441701E-14
   5.61000013      -1.74236304E-14
   5.67000008      -1.22918948E-14
   5.73000002      -4.73354918E-15
   5.78999996       4.31998789E-15
   5.84999990       1.41168222E-14
   5.90999985       2.38908319E-14
   5.96999979       3.23324402E-14
   6.03000021       3.71399045E-14
   6.09000015       3.51947204E-14
   6.15000010       2.36640677E-14
   6.21000004       1.77461619E-15
   6.26999998      -2.75845275E-14
   6.32999992      -5.74952954E-14
   6.38999987      -7.85551095E-14
   6.44999981      -8.20925156E-14
   6.51000023      -6.38236480E-14
   6.57000017      -2.62372318E-14
   6.63000011       2.16043376E-14
   6.69000006       6.69857372E-14
   6.75000000       9.79610883E-14
   6.80999994       1.07282320E-13
   6.86999989       9.41303039E-14
   6.92999983       6.31777887E-14
   6.98999977       2.19686414E-14
   7.05000019      -2.16203720E-14
   7.11000013      -6.04748050E-14
   7.17000008      -8.78850351E-14
   7.23000002      -9.71079974E-14
   7.28999996      -8.25910588E-14
   7.34999990      -4.34893583E-14
   7.40999985       1.19762319E-14
   7.46999979       6.45085249E-14
   7.53000021       8.72583527E-14
   7.59000015       5.57820222E-14
   7.65000010      -3.84295291E-14
   7.71000004      -1.76992318E-13
   7.76999998      -3.13062808E-13
   7.82999992      -3.83006262E-13
   7.88999987      -3.29309957E-13
   7.94999981      -1.26619486E-13
   8.01000023       2.00482209E-13
   8.06999969       5.77534385E-13
   8.13000011       9.00901803E-13
   8.18999958       1.07280179E-12
   8.25000000       1.03698734E-12
   8.31000042       7.99610595E-13
   8.36999989       4.24998659E-13
   8.43000031       6.56053360E-15
   8.48999977      -3.75598668E-13
   8.55000019      -6.91770751E-13
   8.60999966      -9.76797527E-13
   8.67000008      -1.31268911E-12
   8.72999954      -1.78469088E-12
   8.78999996      -2.42793025E-12
   8.85000038      -3.18682906E-12
   8.90999985      -3.90466218E-12
   8.97000027      -4.34762599E-12
   9.02999973      -4.25215332E-12
   9.09000015      -3.37318975E-12
   9.14999962      -1.51043587E-12
   9.21000004       1.49956772E-12
   9.27000046       5.81901714E-12
   9.32999992       1.16472847E-11
   9.39000034       1.92281503E-11
   9.44999981       2.87974488E-11
   9.51000023       4.04631641E-11
   9.56999969       5.40388567E-11
   9.63000011       6.88773552E-11
   9.68999958       8.37636974E-11
   9.75000000       9.69177030E-11
   9.81000042       1.06127572E-10
   9.86999989       1.08997082E-10
   9.93000031       1.03253316E-10
   9.98999977       8.70443925E-11
   10.0500002       5.91651728E-11
   10.1099997       1.91790334E-11
   10.1700001      -3.25553508E-11
   10.2299995      -9.49121684E-11
   10.2900000      -1.66033423E-10
   10.3500004      -2.43343429E-10
   10.4099998      -3.23555821E-10
   10.4700003      -4.02725880E-10
   10.5299997      -4.76418016E-10
   10.5900002      -5.40038181E-10
   10.6499996      -5.89328641E-10
   10.7100000      -6.20954121E-10
   10.7700005      -6.33055608E-10
   10.8299999      -6.25636376E-10
   10.8900003      -6.00680838E-10
   10.9499998      -5.61981461E-10
   11.0100002      -5.14728926E-10
   11.0699997      -4.64979694E-10
   11.1300001      -4.19120461E-10
   11.1899996      -3.83411608E-10
   11.2500000      -3.63627628E-10
   11.3100004      -3.64756947E-10
   11.3699999      -3.90705024E-10
   11.4300003      -4.43972387E-10
   11.4899998      -5.25337218E-10
   11.5500002      -6.33628594E-10
   11.6099997      -7.65698338E-10
   11.6700001      -9.16669740E-10
   11.7299995      -1.08046661E-09
   11.7900000      -1.25053523E-09
   11.8500004      -1.42060852E-09
   11.9099998      -1.58534119E-09
   11.9700003      -1.74069403E-09
   12.0299997      -1.88402471E-09
   12.0900002      -2.01393946E-09
   12.1499996      -2.13001905E-09
   12.2100000      -2.23254237E-09
   12.2700005      -2.32228770E-09
   12.3299999      -2.40042075E-09
   12.3900003      -2.46840082E-09
   12.4499998      -2.52780641E-09
   12.5100002      -2.57999688E-09
   12.5699997      -2.62560618E-09
   12.6300001      -2.66396039E-09
   12.6899996      -2.69260658E-09
   12.7500000      -2.70716893E-09
   12.8100004      -2.70169420E-09
   12.8699999      -2.66952416E-09
   12.9300003      -2.60455968E-09
   12.9899998      -2.50261656E-09
   13.0500002      -2.36251685E-09
   13.1099997      -2.18658780E-09
   13.1700001      -1.98042160E-09
   13.2299995      -1.75196890E-09
   13.2900000      -1.51023882E-09
   13.3500004      -1.26399902E-09
   13.4099998      -1.02081921E-09
   13.4700003      -7.86646026E-10
   13.5299997      -5.65867353E-10
   13.5900002      -3.61639219E-10
   13.6499996      -1.76170897E-10
   13.7100000      -1.07369894E-11
   13.7700005       1.34632389E-10
   13.8299999       2.61620503E-10
   13.8900003       3.73946485E-10
   13.9499998       4.77235584E-10
   14.0100002       5.78281867E-10
   14.0699997       6.83792079E-10
   14.1300001       7.98940525E-10
   14.1899996       9.26194565E-10
   14.2500000       1.06482301E-09
   14.3100004       1.21128885E-09
   14.3699999       1.36042311E-09
   14.4300003       1.50700408E-09
   14.4899998       1.64723180E-09
   14.5500002       1.77964754E-09
   14.6099997       1.90527927E-09
   14.6700001       2.02709183E-09
   14.7299995       2.14906204E-09
   14.7900000       2.27529062E-09
   14.8500004       2.40946751E-09
   14.9099998       2.55478305E-09
   14.9700003       2.71413580E-09
   15.0299997       2.89034285E-09
   15.0900002       3.08606762E-09
   15.1499996       3.30333583E-09
   15.2100000       3.54273055E-09
   15.2700005       3.80255782E-09
   15.3299999       4.07831369E-09
   15.3900003       4.36273950E-09
   15.4499998       4.64652805E-09
   15.5100002       4.91954921E-09
   15.5699997       5.17226040E-09
   15.6300001       5.39693445E-09
   15.6899996       5.58837421E-09
   15.7500000       5.74396175E-09
   15.8100004       5.86310289E-09
   15.8699999       5.94630878E-09
   15.9300003       5.99427352E-09
   15.9899998       6.00728933E-09
   16.0499992       5.98518524E-09
   16.1100006       5.92778449E-09
   16.1700001       5.83564308E-09
   16.2299995       5.71070258E-09
   16.2900009       5.55652102E-09
   16.3500004       5.37791545E-09
   16.4099998       5.18011234E-09
   16.4699993       4.96774089E-09
   16.5300007       4.74411355E-09
   16.5900002       4.51113813E-09
   16.6499996       4.26994617E-09
   16.7099991       4.02199785E-09
   16.7700005       3.77017573E-09
   16.8299999       3.51933926E-09
   16.8899994       3.27600103E-09
   16.9500008       3.04715542E-09
   17.0100002       2.83865886E-09
   17.0699997       2.65379563E-09
   17.1299992       2.49262833E-09
   17.1900005       2.35243203E-09
   17.2500000       2.22908358E-09
   17.3099995       2.11887463E-09
   17.3700008       2.02003925E-09
   17.4300003       1.93340588E-09
   17.4899998       1.86195159E-09
   17.5499992       1.80951021E-09
   17.6100006       1.77922532E-09
   17.6700001       1.77244430E-09
   17.7299995       1.78852588E-09
   17.7900009       1.82563420E-09
   17.8500004       1.88215910E-09
   17.9099998       1.95814298E-09
   17.9699993       2.05610196E-09
   18.0300007       2.18086971E-09
   18.0900002       2.33846476E-09
   18.1499996       2.53430454E-09
   18.2099991       2.77128809E-09
   18.2700005       3.04825454E-09
   18.3299999       3.35920602E-09
   18.3899994       3.69346798E-09
   18.4500008       4.03675138E-09
   18.5100002       4.37291270E-09
   18.5699997       4.68604133E-09
   18.6299992       4.96244468E-09
   18.6900005       5.19206855E-09
   18.7500000       5.36905187E-09
   18.8099995       5.49132917E-09
   18.8700008       5.55951596E-09
   18.9300003       5.57555513E-09
   18.9899998       5.54166757E-09
   19.0499992       5.46001244E-09
   19.1100006       5.33312550E-09
   19.1700001       5.16486365E-09
   19.2299995       4.96134511E-09
   19.2900009       4.73141526E-09
   19.3500004       4.48637572E-09
   19.4099998       4.23907176E-09
   19.4699993       4.00267597E-09
   19.5300007       3.78959664E-09
   19.5900002       3.61080654E-09
   19.6499996       3.47565932E-09
   19.7099991       3.39202422E-09
   19.7700005       3.36648553E-09
   19.8299999       3.40437079E-09
   19.8899994       3.50951157E-09
   19.9500008       3.68377262E-09
   20.0100002       3.92648714E-09
   20.0699997       4.23395807E-09
   20.1299992       4.59918770E-09
   20.1900005       5.01195796E-09
   20.2500000       5.45935963E-09
   20.3099995       5.92678173E-09
   20.3700008       6.39928022E-09
   20.4300003       6.86311141E-09
   20.4899998       7.30711802E-09
   20.5499992       7.72362796E-09
   20.6100006       8.10863465E-09
   20.6700001       8.46120773E-09
   20.7299995       8.78230200E-09
   20.7900009       9.07329412E-09
   20.8500004       9.33465572E-09
   20.9099998       9.56505808E-09
   20.9699993       9.76108527E-09
   21.0300007       9.91753168E-09
   21.0900002       1.00281214E-08
   21.1499996       1.00864028E-08
   21.2099991       1.00866044E-08
   21.2700005       1.00243103E-08
   21.3299999       9.89691706E-09
   21.3899994       9.70389458E-09
   21.4500008       9.44691703E-09
   21.5100002       9.12988618E-09
   21.5699997       8.75876527E-09
   21.6299992       8.34117220E-09
   21.6900005       7.88566723E-09
   21.7500000       7.40087591E-09
   21.8099995       6.89469770E-09
   21.8700008       6.37396802E-09
   21.9300003       5.84480730E-09
   21.9899998       5.31361177E-09
   22.0499992       4.78826445E-09
   22.1100006       4.27890656E-09
   22.1700001       3.79767950E-09
   22.2299995       3.35722583E-09
   22.2900009       2.96831093E-09
   22.3500004       2.63741851E-09
   22.4099998       2.36527375E-09
   22.4699993       2.14692419E-09
   22.5300007       1.97332906E-09
   22.5900002       1.83375670E-09
   22.6499996       1.71794623E-09
   22.7099991       1.61716629E-09
   22.7700005       1.52389568E-09
   22.8299999       1.43055734E-09
   22.8899994       1.32821731E-09
   22.9500008       1.20616228E-09
   23.0100002       1.05283582E-09
   23.0699997       8.57948546E-10
   23.1299992       6.15022033E-10
   23.1900005       3.23415267E-10
   23.2500000      -1.09254506E-11
   23.3099995      -3.76276094E-10
   23.3700008      -7.57256591E-10
   23.4300003      -1.13764276E-09
   23.4899998      -1.50313217E-09
   23.5499992      -1.84345916E-09
   23.6100006      -2.15353246E-09
   23.6700001      -2.43357245E-09
   23.7299995      -2.68844857E-09
   23.7900009      -2.92654345E-09
   23.8500004      -3.15844173E-09
   23.9099998      -3.39566797E-09
   23.9699993      -3.64956887E-09
   24.0300007      -3.93032540E-09
   24.0900002      -4.24605462E-09
   24.1499996      -4.60199079E-09
   24.2099991      -4.99979258E-09
   24.2700005      -5.43712764E-09
   24.3299999      -5.90766369E-09
   24.3899994      -6.40157127E-09
   24.4500008      -6.90650204E-09
   24.5100002      -7.40890060E-09
   24.5699997      -7.89541676E-09
   24.6299992      -8.35416269E-09
   24.6900005      -8.77562378E-09
   24.7500000      -9.15311826E-09
   24.8099995      -9.48284562E-09
   24.8700008      -9.76361036E-09
   24.9300003      -9.99643479E-09
   24.9899998      -1.01842019E-08
   25.0499992      -1.03314486E-08
   25.1100006      -1.04443245E-08
   25.1700001      -1.05305844E-08
   25.2299995      -1.05994369E-08
   25.2900009      -1.06610880E-08
   25.3500004      -1.07258993E-08
   25.4099998      -1.08032543E-08
   25.4699993      -1.09003446E-08
   25.5300007      -1.10211209E-08
   25.5900002      -1.11656195E-08
   25.6499996      -1.13297514E-08
   25.7099991      -1.15055405E-08
   25.7700005      -1.16817551E-08
   25.8299999      -1.18448522E-08
   25.8899994      -1.19801999E-08
   25.9500008      -1.20734818E-08
   26.0100002      -1.21121646E-08
   26.0699997      -1.20867956E-08
   26.1299992      -1.19919106E-08
   26.1900005      -1.18264287E-08
   26.2500000      -1.15935430E-08
   26.3099995      -1.13002967E-08
   26.3700008      -1.09570815E-08
   26.4300003      -1.05772386E-08
   26.4899998      -1.01767954E-08
   26.5499992      -9.77417880E-09
   26.6100006      -9.38972544E-09
   26.6700001      -9.04479425E-09
   26.7299995      -8.76048123E-09
   26.7900009      -8.55601279E-09
   26.8500004      -8.44705905E-09
   26.9099998      -8.44421066E-09
   26.9699993      -8.55188453E-09
   27.0300007      -8.76788064E-09
   27.0900002      -9.08376308E-09
   27.1499996      -9.48609546E-09
   27.2099991      -9.95834792E-09
   27.2700005      -1.04830615E-08
   27.3299999      -1.10436895E-08
   27.3899994      -1.16255938E-08
   27.4500008      -1.22159891E-08
   27.5100002      -1.28030182E-08
   27.5699997      -1.33746187E-08
   27.6299992      -1.39179166E-08
   27.6900005      -1.44196752E-08
   27.7500000      -1.48678216E-08
   27.8099995      -1.52534536E-08
   27.8700008      -1.55724358E-08
   27.9300003      -1.58257407E-08
   27.9899998      -1.60181628E-08
   28.0499992      -1.61557381E-08
   28.1100006      -1.62427156E-08
   28.1700001      -1.62791896E-08
   28.2299995      -1.62602838E-08
   28.2900009      -1.61771752E-08
   28.3500004      -1.60196656E-08
   28.4099998      -1.57794293E-08
   28.4699993      -1.54528710E-08
   28.5300007      -1.50426942E-08
   28.5900002      -1.45577053E-08
   28.6499996      -1.40109861E-08
   28.7099991      -1.34171056E-08
   28.7700005      -1.27893438E-08
   28.8299999      -1.21378587E-08
   28.8899994      -1.14693641E-08
   28.9500008      -1.07882530E-08
   29.0100002      -1.00985336E-08
   29.0699997      -9.40561318E-09
   29.1299992      -8.71705641E-09
   29.1900005      -8.04189337E-09
   29.2500000      -7.38876516E-09
   29.3099995      -6.76368694E-09
   29.3700008      -6.16841822E-09
   29.4300003      -5.60013325E-09
   29.4899998      -5.05253306E-09
   29.5499992      -4.51791404E-09
   29.6100006      -3.98938882E-09
   29.6700001      -3.46247786E-09
   29.7299995      -2.93563729E-09
   29.7900009      -2.40973841E-09
   29.8500004      -1.88684846E-09
   29.9099998      -1.36879319E-09
   29.9699993      -8.55904736E-10
   30.0300007      -3.46240037E-10
   30.0900002       1.64568789E-10
   30.1499996       6.82740753E-10
   30.2099991       1.21506349E-09
   30.2700005       1.76709314E-09
   30.3299999       2.34125408E-09
   30.3899994       2.93541613E-09
   30.4500008       3.54248675E-09
   30.5100002       4.15126689E-09
   30.5699997       4.74837458E-09
   30.6299992       5.32064481E-09
   30.6900005       5.85725468E-09
   30.7500000       6.35099795E-09
   30.8099995       6.79849954E-09
   30.8700008       7.19957693E-09
   30.9300003       7.55615392E-09
   30.9899998       7.87113752E-09
   31.0499992       8.14747825E-09
   31.1100006       8.38746939E-09
   31.1700001       8.59227001E-09
   31.2299995       8.76165984E-09
   31.2900009       8.89409879E-09
   31.3500004       8.98709374E-09
   31.4099998       9.03777142E-09
   31.4699993       9.04339625E-09
   31.5300007       9.00161012E-09
   31.5900002       8.91027607E-09
   31.6499996       8.76709638E-09
   31.7099991       8.56933546E-09
   31.7700005       8.31396019E-09
   31.8299999       7.99831934E-09
   31.8899994       7.62115349E-09
   31.9500008       7.18357906E-09
   32.0099983       6.68964928E-09
   32.0699997       6.14631501E-09
   32.1300011       5.56282176E-09
   32.1899986       4.94974994E-09
   32.2500000       4.31794600E-09
   32.3100014       3.67755026E-09
   32.3699989       3.03729419E-09
   32.4300003       2.40422682E-09
   32.4900017       1.78397985E-09
   32.5499992       1.18152510E-09
   32.6100006       6.02140393E-10
   32.6699982       5.20742373E-11
   32.7299995      -4.61591210E-10
   32.7900009      -9.32062094E-10
   32.8499985      -1.35458411E-09
   32.9099998      -1.72800119E-09
   32.9700012      -2.05520578E-09
   33.0299988      -2.34199571E-09
   33.0900002      -2.59463206E-09
   33.1500015      -2.81710055E-09
   33.2099991      -3.00932257E-09
   33.2700005      -3.16713700E-09
   33.3300018      -3.28402217E-09
   33.3899994      -3.35364403E-09
   33.4500008      -3.37195916E-09
   33.5099983      -3.33785355E-09
   33.5699997      -3.25208305E-09
   33.6300011      -3.11512105E-09
   33.6899986      -2.92500535E-09
   33.7500000      -2.67622391E-09
   33.8100014      -2.36016517E-09
   33.8699989      -1.96701255E-09
   33.9300003      -1.48844059E-09
   33.9900017      -9.20278187E-10
   34.0499992      -2.64381878E-10
   34.1100006       4.70757100E-10
   34.1699982       1.27081734E-09
   34.2299995       2.11766893E-09
   34.2900009       2.99211456E-09
   34.3499985       3.87665100E-09
   34.4099998       4.75750639E-09
   34.4700012       5.62541125E-09
   34.5299988       6.47493259E-09
   34.5900002       7.30268646E-09
   34.6500015       8.10510858E-09
   34.7099991       8.87659191E-09
   34.7700005       9.60865165E-09
   34.8300018       1.02903952E-08
   34.8899994       1.09101750E-08
   34.9500008       1.14578631E-08
   35.0099983       1.19270247E-08
   35.0699997       1.23161810E-08
   35.1300011       1.26286119E-08
   35.1899986       1.28705731E-08
   35.2500000       1.30483482E-08
   35.3100014       1.31651099E-08
   35.3699989       1.32187852E-08
   35.4300003       1.32018876E-08
   35.4900017       1.31036160E-08
   35.5499992       1.29135742E-08
   35.6100006       1.26257724E-08
   35.6699982       1.22413288E-08
   35.7299995       1.17687904E-08
   35.7900009       1.12219194E-08
   35.8499985       1.06157900E-08
   35.9099998       9.96270355E-09
   35.9700012       9.26943944E-09
   36.0299988       8.53678639E-09
   36.0900002       7.76141817E-09
   36.1500015       6.93932733E-09
   36.2099991       6.06947292E-09
   36.2700005       5.15627097E-09
   36.3300018       4.20993240E-09
   36.3899994       3.24445937E-09
   36.4500008       2.27396635E-09
   36.5099983       1.30872335E-09
   36.5699997       3.52524065E-10
   36.6300011      -5.97438488E-10
   36.6899986      -1.54799684E-09
   36.7500000      -2.50571031E-09
   36.8100014      -3.47261642E-09
   36.8699989      -4.44381820E-09
   36.9300003      -5.40786038E-09
   36.9900017      -6.34956132E-09
   37.0499992      -7.25388682E-09
   37.1100006      -8.10911871E-09
   37.1699982      -8.90811336E-09
   37.2299995      -9.64754943E-09
   37.2900009      -1.03260058E-08
   37.3499985      -1.09420828E-08
   37.4099998      -1.14933956E-08
   37.4700012      -1.19765584E-08
   37.5299988      -1.23876420E-08
   37.5900002      -1.27225741E-08
   37.6500015      -1.29772788E-08
   37.7099991      -1.31478108E-08
   37.7700005      -1.32308999E-08
   37.8300018      -1.32250166E-08
   37.8899994      -1.31315927E-08
   37.9500008      -1.29556899E-08
   38.0099983      -1.27056117E-08
   38.0699997      -1.23914443E-08
   38.1300011      -1.20231762E-08
   38.1899986      -1.16091901E-08
   38.2500000      -1.11557474E-08
   38.3100014      -1.06674420E-08
   38.3699989      -1.01481463E-08
   38.4300003      -9.60180735E-09
   38.4900017      -9.03278519E-09
   38.5499992      -8.44581738E-09
   38.6100006      -7.84595322E-09
   38.6699982      -7.23869542E-09
   38.7299995      -6.63027722E-09
   38.7900009      -6.02771966E-09
   38.8499985      -5.43837197E-09
   38.9099998      -4.86895368E-09
   38.9700012      -4.32451763E-09
   39.0299988      -3.80791754E-09
   39.0900002      -3.32017547E-09
   39.1500015      -2.86167112E-09
   39.2099991      -2.43365350E-09
   39.2700005      -2.03939376E-09
   39.3300018      -1.68445402E-09
   39.3899994      -1.37594303E-09
   39.4500008      -1.12099785E-09
   39.5099983      -9.24971100E-10
   39.5699997      -7.89839583E-10
   39.6300011      -7.13284432E-10
   39.6899986      -6.88752388E-10
   39.7500000      -7.06631476E-10
   39.8100014      -7.56382013E-10
   39.8699989      -8.29134206E-10
   39.9300003      -9.19984422E-10
   39.9900017      -1.02918540E-09
   40.0499992      -1.16172627E-09
   40.1100006      -1.32537881E-09
   40.1699982      -1.52787449E-09
   40.2299995      -1.77420678E-09
   40.2900009      -2.06493356E-09
   40.3499985      -2.39589637E-09
   40.4099998      -2.75919509E-09
   40.4700012      -3.14488480E-09
   40.5299988      -3.54278828E-09
   40.5900002      -3.94400868E-09
   40.6500015      -4.34194281E-09
   40.7099991      -4.73271511E-09
   40.7700005      -5.11495823E-09
   40.8300018      -5.48887202E-09
   40.8899994      -5.85465498E-09
   40.9500008      -6.21070617E-09
   41.0099983      -6.55228716E-09
   41.0699997      -6.87133372E-09
   41.1300011      -7.15777837E-09
   41.1899986      -7.40207184E-09
   41.2500000      -7.59796404E-09
   41.3100014      -7.74434916E-09
   41.3699989      -7.84523024E-09
   41.4300003      -7.90764254E-09
   41.4900017      -7.93823585E-09
   41.5499992      -7.93986121E-09
   41.6100006      -7.90959476E-09
   41.6699982      -7.83909826E-09
   41.7299995      -7.71734676E-09
   41.7900009      -7.53477192E-09
   41.8499985      -7.28732807E-09
   41.9099998      -6.97889657E-09
   41.9700012      -6.62104682E-09
   42.0299988      -6.23011820E-09
   42.0900002      -5.82262905E-09
   42.1500015      -5.41069012E-09
   42.2099991      -4.99914643E-09
   42.2700005      -4.58553640E-09
   42.3300018      -4.16283408E-09
   42.3899994      -3.72385189E-09
   42.4500008      -3.26551763E-09
   42.5099983      -2.79135892E-09
   42.5699997      -2.31131048E-09
   42.6300011      -1.83909310E-09
   42.6899986      -1.38835154E-09
   42.7500000      -9.69107461E-10
   42.8100014      -5.85783311E-10
   42.8699989      -2.37287384E-10
   42.9300003       8.11867379E-11
   42.9900017       3.75551312E-10
   43.0499992       6.50427601E-10
   43.1100006       9.07720121E-10
   43.1699982       1.14647414E-09
   43.2299995       1.36390077E-09
   43.2900009       1.55715063E-09
   43.3499985       1.72525361E-09
   43.4099998       1.87061100E-09
   43.4700012       1.99951100E-09
   43.5299988       2.12137752E-09
   43.5900002       2.24682140E-09
   43.6500015       2.38499753E-09
   43.7099991       2.54109067E-09
   43.7700005       2.71480638E-09
   43.8300018       2.90047231E-09
   43.8899994       3.08879300E-09
   43.9500008       3.26969607E-09
   44.0099983       3.43528983E-09
   44.0699997       3.58190566E-09
   44.1300011       3.71053388E-09
   44.1899986       3.82558119E-09
   44.2500000       3.93247257E-09
   44.3100014       4.03506917E-09
   44.3699989       4.13390833E-09
   44.4300003       4.22598889E-09
   44.4900017       4.30621938E-09
   44.5499992       4.37001590E-09
   44.6100006       4.41602532E-09
   44.6699982       4.44785053E-09
   44.7299995       4.47397008E-09
   44.7900009       4.50575310E-09
   44.8499985       4.55425697E-09
   44.9099998       4.62705030E-09
   44.9700012       4.72631267E-09
   45.0299988       4.84891371E-09
   45.0900002       4.98829067E-09
   45.1500015       5.13715293E-09
   45.2099991       5.28971178E-09
   45.2700005       5.44251089E-09
   45.3300018       5.59369973E-09
   45.3899994       5.74141179E-09
   45.4500008       5.88229243E-09
   45.5099983       6.01100236E-09
   45.5699997       6.12088158E-09
   45.6300011       6.20529672E-09
   45.6899986       6.25892937E-09
   45.7500000       6.27849239E-09
   45.8100014       6.26284979E-09
   45.8699989       6.21289242E-09
   45.9300003       6.13149620E-09
   45.9900017       6.02349148E-09
   46.0499992       5.89518256E-09
   46.1100006       5.75293457E-09
   46.1699982       5.60084823E-09
   46.2299995       5.43831780E-09
   46.2900009       5.25878097E-09
   46.3499985       5.05074427E-09
   46.4099998       4.80120121E-09
   46.4700012       4.50029214E-09
   46.5299988       4.14520018E-09
   46.5900002       3.74141473E-09
   46.6500015       3.30062599E-09
   46.7099991       2.83611068E-09
   46.7700005       2.35767894E-09
   46.8300018       1.86845983E-09
   46.8899994       1.36490197E-09
   46.9500008       8.39843861E-10
   47.0099983       2.87165014E-10
   47.0699997      -2.94052532E-10
   47.1300011      -8.97547814E-10
   47.1899986      -1.51075297E-09
   47.2500000      -2.11804219E-09
   47.3100014      -2.70509770E-09
   47.3699989      -3.26288530E-09
   47.4300003      -3.78999188E-09
   47.4900017      -4.29263292E-09
   47.5499992      -4.78234830E-09
   47.6100006      -5.27206057E-09
   47.6699982      -5.77173775E-09
   47.7299995      -6.28506092E-09
   47.7900009      -6.80823842E-09
   47.8499985      -7.33137995E-09
   47.9099998      -7.84185072E-09
   47.9700012      -8.32829450E-09
   48.0299988      -8.78378614E-09
   48.0900002      -9.20706622E-09
   48.1500015      -9.60168833E-09
   48.2099991      -9.97379512E-09
   48.2700005      -1.03296030E-08
   48.3300018      -1.06735119E-08
   48.3899994      -1.10071872E-08
   48.4500008      -1.13294991E-08
   48.5099983      -1.16369838E-08
   48.5699997      -1.19246897E-08
   48.6300011      -1.21874324E-08
   48.6899986      -1.24214639E-08
   48.7500000      -1.26262334E-08
   48.8100014      -1.28055033E-08
   48.8699989      -1.29670639E-08
   48.9300003      -1.31206761E-08
   48.9900017      -1.32747582E-08
   49.0499992      -1.34330493E-08
   49.1100006      -1.35927500E-08
   49.1699982      -1.37450789E-08
   49.2299995      -1.38781262E-08
   49.2900009      -1.39808467E-08
   49.3499985      -1.40464902E-08
   49.4099998      -1.40740655E-08
   49.4700012      -1.40673349E-08
   49.5299988      -1.40319205E-08
   49.5900002      -1.39718574E-08
   49.6500015      -1.38870666E-08
   49.7099991      -1.37727323E-08
   49.7700005      -1.36207721E-08
   49.8300018      -1.34227331E-08
   49.8899994      -1.31729498E-08
   49.9500008      -1.28706912E-08
   50.0099983      -1.25204895E-08
   50.0699997      -1.21305286E-08
   50.1300011      -1.17097887E-08
   50.1899986      -1.12650964E-08
   50.2500000      -1.07992966E-08
   50.3100014      -1.03111484E-08
   50.3699989      -9.79681403E-09
   50.4300003      -9.25208710E-09
   50.4900017      -8.67433148E-09
   50.5499992      -8.06346989E-09
   50.6100006      -7.42201989E-09