  -2.400000      0.0000000E+00
  -2.340000      0.0000000E+00
  -2.280000      0.0000000E+00
  -2.220000      0.0000000E+00
  -2.160000      0.0000000E+00
  -2.100000      0.0000000E+00
  -2.040000      0.0000000E+00
  -1.980000      0.0000000E+00
  -1.920000      0.0000000E+00
  -1.860000     -6.4327362E-30
  -1.800000      7.9858125E-29
  -1.740000      1.5928290E-27
  -1.680000      1.1034824E-26
  -1.620000      4.4073723E-26
  -1.560000      1.0774642E-25
  -1.500000      1.1547230E-25
  -1.440000     -2.7193169E-25
  -1.380000     -1.6850341E-24
  -1.320000     -4.4514490E-24
  -1.260000     -6.8688209E-24
  -1.200000     -2.9696316E-24
  -1.140000      1.7167584E-23
  -1.080000      5.9629510E-23
  -1.020000      1.0933854E-22
 -0.9600000      1.1203726E-22
 -0.9000000     -2.0602584E-23
 -0.8400000     -3.5523129E-22
 -0.7800000     -8.2966125E-22
 -0.7200000     -1.1526523E-21
 -0.6600000     -8.2445673E-22
 -0.6000000      6.2273982E-22
 -0.5400000      3.1945051E-21
 -0.4800000      6.0396714E-21
 -0.4200000      7.4247522E-21
 -0.3600000      5.2721148E-21
 -0.3000000     -1.9033692E-21
 -0.2400000     -1.4111727E-20
 -0.1800000     -2.9356356E-20
 -0.1200000     -4.3162876E-20
 -5.9999999E-02 -4.7567305E-20
  0.0000000E+00 -2.9961774E-20
  5.9999999E-02  2.5358060E-20
  0.1200000      1.2819414E-19
  0.1800000      2.6364870E-19
  0.2400000      3.7044020E-19
  0.3000000      3.3621276E-19
  0.3600000      3.5523494E-20
  0.4200000     -5.7894526E-19
  0.4800000     -1.3619826E-18
  0.5400000     -1.9170461E-18
  0.6000000     -1.6894347E-18
  0.6600000     -2.5393525E-19
  0.7200000      2.2901587E-18
  0.7800000      5.0489384E-18
  0.8400000      6.4693982E-18
  0.9000000      5.0145380E-18
  0.9600000      1.7807885E-19
   1.020000     -6.7159514E-18
   1.080000     -1.2589990E-17
   1.140000     -1.3883601E-17
   1.200000     -8.6044982E-18
   1.260000      1.9746431E-18
   1.320000      1.3260158E-17
   1.380000      1.9452835E-17
   1.440000      1.6946055E-17
   1.500000      6.8996922E-18
   1.560000     -5.1025347E-18
   1.620000     -1.2730030E-17
   1.680000     -1.3759503E-17
   1.740000     -1.2258722E-17
   1.800000     -1.5194646E-17
   1.860000     -2.4396834E-17
   1.920000     -2.9501036E-17
   1.980000     -9.4546852E-18
   2.040000      5.3486637E-17
   2.100000      1.5214591E-16
   2.160000      2.3924747E-16
   2.220000      2.3518587E-16
   2.280000      6.6105131E-17
   2.340000     -2.7923632E-16
   2.400000     -7.0424484E-16
   2.460000     -1.0069021E-15
   2.520000     -9.4924971E-16
   2.580000     -3.7814767E-16
   2.640000      6.5551403E-16
   2.700000      1.8478096E-15
   2.760000      2.7108328E-15
   2.820000      2.7539595E-15
   2.880000      1.7096215E-15
   2.940000     -2.9972195E-16
   3.000000     -2.7419039E-15
   3.060000     -4.8279942E-15
   3.120000     -5.7822984E-15
   3.180000     -5.1183114E-15
   3.240000     -2.8099213E-15
   3.300000      6.9789993E-16
   3.360000      4.6187063E-15
   3.420000      8.0220161E-15
   3.480000      1.0024791E-14
   3.540000      9.9442058E-15
   3.600000      7.4243420E-15
   3.660000      2.5593871E-15
   3.720000     -4.0002651E-15
   3.780000     -1.1025607E-14
   3.840000     -1.6856015E-14
   3.900000     -1.9752475E-14
   3.960000     -1.8390317E-14
   4.020000     -1.2325808E-14
   4.080000     -2.2461249E-15
   4.140000      1.0109191E-14
   4.200000      2.2322486E-14
   4.260000      3.1810773E-14
   4.320000      3.6294620E-14
   4.380000      3.4128394E-14
   4.440000      2.4529751E-14
   4.500000      7.8166437E-15
   4.560000     -1.4300691E-14
   4.620000     -3.8489929E-14
   4.680000     -5.9894371E-14
   4.740000     -7.2819497E-14
   4.800000     -7.2059058E-14
   4.860000     -5.4576467E-14
   4.920000     -2.0980794E-14
   4.980000      2.3808209E-14
   5.040000      7.1076493E-14
   5.100000      1.0998203E-13
   5.160000      1.2997516E-13
   5.220000      1.2340873E-13
   5.280000      8.7810395E-14
   5.340000      2.7397088E-14
   5.400000     -4.6558420E-14
   5.460000     -1.1695572E-13
   5.520000     -1.6409502E-13
   5.580000     -1.7090317E-13
   5.640000     -1.2927482E-13
   5.700000     -4.5548065E-14
   5.760000      5.7564874E-14
   5.820000      1.4488115E-13
   5.880000      1.7897253E-13
   5.940000      1.3440101E-13
   6.000000      1.1003282E-14
   6.060000     -1.5979168E-13
   6.120000     -3.2008250E-13
   6.180000     -4.0247224E-13
   6.240000     -3.5416093E-13
   6.300000     -1.5939161E-13
   6.360000      1.4928607E-13
   6.420000      4.9708035E-13
   6.480000      7.8986687E-13
   6.540000      9.4616773E-13
   6.600000      9.2569442E-13
   6.660000      7.4222545E-13
   6.720000      4.5431543E-13
   6.780000      1.3652663E-13
   6.840000     -1.5722318E-13
   6.900000     -4.2200358E-13
   6.960000     -7.0787652E-13
   7.020000     -1.0981316E-12
   7.080000     -1.6660832E-12
   7.140000     -2.4266921E-12
   7.200000     -3.3027405E-12
   7.260000     -4.1201569E-12
   7.320000     -4.6349764E-12
   7.380000     -4.5803383E-12
   7.440000     -3.7123256E-12
   7.500000     -1.8334889E-12
   7.560000      1.2163059E-12
   7.620000      5.5942239E-12
   7.680000      1.1489312E-11
   7.740000      1.9125106E-11
   7.800000      2.8703847E-11
   7.860000      4.0287183E-11
   7.920000      5.3636661E-11
   7.980000      6.8061640E-11
   8.040000      8.2331801E-11
   8.100000      9.4699269E-11
   8.160000      1.0304460E-10
   8.220000      1.0512206E-10
   8.280000      9.8847583E-11
   8.340000      8.2561485E-11
   8.400000      5.5212741E-11
   8.460000      1.6445697E-11
   8.520000     -3.3390637E-11
   8.580000     -9.3265382E-11
   8.640000     -1.6147683E-10
   8.700000     -2.3563626E-10
   8.760000     -3.1265202E-10
   8.820000     -3.8877668E-10
   8.880000     -4.5978660E-10
   8.940000     -5.2133398E-10
   9.000000     -5.6945154E-10
   9.060000     -6.0112421E-10
   9.120000     -6.1480127E-10
   9.180000     -6.1071997E-10
   9.240000     -5.9096250E-10
   9.300000     -5.5924138E-10
   9.360000     -5.2048432E-10
   9.420000     -4.8033166E-10
   9.480000     -4.4465465E-10
   9.540000     -4.1915563E-10
   9.600000     -4.0905121E-10
   9.660000     -4.1879225E-10
   9.720000     -4.5177087E-10
   9.780000     -5.1000054E-10
   9.840000     -5.9381461E-10
   9.900000     -7.0167877E-10
   9.960000     -8.3022061E-10
   10.02000     -9.7454045E-10
   10.08000     -1.1287874E-09
   10.14000     -1.2868963E-09
   10.20000     -1.4433268E-09
   10.26000     -1.5936417E-09
   10.32000     -1.7348075E-09
   10.38000     -1.8651998E-09
   10.44000     -1.9843738E-09
   10.50000     -2.0927242E-09
   10.56000     -2.1911588E-09
   10.62000     -2.2808697E-09
   10.68000     -2.3631956E-09
   10.74000     -2.4395193E-09
   10.80000     -2.5110900E-09
   10.86000     -2.5786966E-09
   10.92000     -2.6421911E-09
   10.98000     -2.6999560E-09
   11.04000     -2.7485056E-09
   11.10000     -2.7824325E-09
   11.16000     -2.7948543E-09
   11.22000     -2.7783795E-09
   11.28000     -2.7264311E-09
   11.34000     -2.6346167E-09
   11.40000     -2.5017726E-09
   11.46000     -2.3303719E-09
   11.52000     -2.1261706E-09
   11.58000     -1.8972066E-09
   11.64000     -1.6524612E-09
   11.70000     -1.4005912E-09
   11.76000     -1.1490662E-09
   11.82000     -9.0385699E-10
   11.88000     -6.6958933E-10
   11.94000     -4.4989110E-10
   12.00000     -2.4762631E-10
   12.06000     -6.4808256E-11
   12.12000      9.7805923E-11
   12.18000      2.4123037E-10
   12.24000      3.6855186E-10
   12.30000      4.8473553E-10
   12.36000      5.9583444E-10
   12.42000      7.0775208E-10
   12.48000      8.2491680E-10
   12.54000      9.4930752E-10
   12.60000      1.0801749E-09
   12.66000      1.2145737E-09
   12.72000      1.3485352E-09
   12.78000      1.4784898E-09
   12.84000      1.6024736E-09
   12.90000      1.7207562E-09
   12.96000      1.8357558E-09
   13.02000      1.9513751E-09
   13.08000      2.0720849E-09
   13.14000      2.2021163E-09
   13.20000      2.3450144E-09
   13.26000      2.5035956E-09
   13.32000      2.6801410E-09
   13.38000      2.8765599E-09
   13.44000      3.0942799E-09
   13.50000      3.3337924E-09
   13.56000      3.5939667E-09
   13.62000      3.8714130E-09
   13.68000      4.1601895E-09
   13.74000      4.4520712E-09
   13.80000      4.7373869E-09
   13.86000      5.0062536E-09
   13.92000      5.2498810E-09
   13.98000      5.4615983E-09
   14.04000      5.6373515E-09
   14.10000      5.7755756E-09
   14.16000      5.8765548E-09
   14.22000      5.9415224E-09
   14.28000      5.9718359E-09
   14.34000      5.9684955E-09
   14.40000      5.9321539E-09
   14.46000      5.8635510E-09
   14.52000      5.7641367E-09
   14.58000      5.6365614E-09
   14.64000      5.4847518E-09
   14.70000      5.3134692E-09
   14.76000      5.1274824E-09
   14.82000      4.9306843E-09
   14.88000      4.7255457E-09
   14.94000      4.5131876E-09
   15.00000      4.2940989E-09
   15.06000      4.0692338E-09
   15.12000      3.8410231E-09
   15.18000      3.6138257E-09
   15.24000      3.3935605E-09
   15.30000      3.1865817E-09
   15.36000      2.9982090E-09
   15.42000      2.8314757E-09
   15.48000      2.6866138E-09
   15.54000      2.5614975E-09
   15.60000      2.4528892E-09
   15.66000      2.3579991E-09
   15.72000      2.2757485E-09
   15.78000      2.2072491E-09
   15.84000      2.1553479E-09
   15.90000      2.1234672E-09
   15.96000      2.1142639E-09
   16.02000      2.1286890E-09
   16.08000      2.1658451E-09
   16.14000      2.2236994E-09
   16.20000      2.3003539E-09
   16.26000      2.3953464E-09
   16.32000      2.5104554E-09
   16.38000      2.6496694E-09
   16.44000      2.8182667E-09
   16.50000      3.0212552E-09
   16.56000      3.2615830E-09
   16.62000      3.5385845E-09
   16.68000      3.8470414E-09
   16.74000      4.1770924E-09
   16.80000      4.5150492E-09
   16.86000      4.8449849E-09
   16.92000      5.1507856E-09
   16.98000      5.4182321E-09
   17.04000      5.6366201E-09
   17.10000      5.7995324E-09
   17.16000      5.9046190E-09
   17.22000      5.9525447E-09
   17.28000      5.9455818E-09
   17.34000      5.8864127E-09
   17.40000      5.7776171E-09
   17.46000      5.6219913E-09
   17.52000      5.4234688E-09
   17.58000      5.1881535E-09
   17.64000      4.9249369E-09
   17.70000      4.6453938E-09
   17.76000      4.3629589E-09
   17.82000      4.0916994E-09
   17.88000      3.8450994E-09
   17.94000      3.6351948E-09
   18.00000      3.4721732E-09
   18.06000      3.3643406E-09
   18.12000      3.3182401E-09
   18.18000      3.3387153E-09
   18.24000      3.4288123E-09
   18.30000      3.5895176E-09
   18.36000      3.8194026E-09
   18.42000      4.1142707E-09
   18.48000      4.4669211E-09
   18.54000      4.8671591E-09
   18.60000      5.3021889E-09
   18.66000      5.7574816E-09
   18.72000      6.2181003E-09
   18.78000      6.6702901E-09
   18.84000      7.1029809E-09
   18.90000      7.5088096E-09
   18.96000      7.8843483E-09
   19.02000      8.2294767E-09
   19.08000      8.5460696E-09
   19.14000      8.8364116E-09
   19.20000      9.1017380E-09
   19.26000      9.3412638E-09
   19.32000      9.5518198E-09
   19.38000      9.7280815E-09
   19.44000      9.8632045E-09
   19.50000      9.9496953E-09
   19.56000      9.9803215E-09
   19.62000      9.9489741E-09
   19.68000      9.8513935E-09
   19.74000      9.6857136E-09
   19.80000      9.4527772E-09
   19.86000      9.1561709E-09
   19.92000      8.8019352E-09
   19.98000      8.3979428E-09
   20.04000      7.9530293E-09
   20.10000      7.4760527E-09
   20.16000      6.9751764E-09
   20.22000      6.4576504E-09
   20.28000      5.9302470E-09
   20.34000      5.4002123E-09
   20.40000      4.8763238E-09
   20.46000      4.3694404E-09
   20.52000      3.8920605E-09
   20.58000      3.4567469E-09
   20.64000      3.0738263E-09
   20.70000      2.7491627E-09
   20.76000      2.4828997E-09
   20.82000      2.2697106E-09
   20.88000      2.1004645E-09
   20.94000      1.9645978E-09
   21.00000      1.8521834E-09
   21.06000      1.7548786E-09
   21.12000      1.6655144E-09
   21.18000      1.5767773E-09
   21.24000      1.4798860E-09
   21.30000      1.3641669E-09
   21.36000      1.2179986E-09
   21.42000      1.0309441E-09
   21.48000      7.9633888E-10
   21.54000      5.1337495E-10
   21.60000      1.8790063E-10
   21.66000     -1.6838364E-10
   21.72000     -5.4010790E-10
   21.78000     -9.1115682E-10
   21.84000     -1.2675417E-09
   21.90000     -1.5995356E-09
   21.96000     -1.9026911E-09
   22.02000     -2.1777287E-09
   22.08000     -2.4295965E-09
   22.14000     -2.6661544E-09
   22.20000     -2.8969085E-09
   22.26000     -3.1320353E-09
   22.32000     -3.3817023E-09
   22.38000     -3.6554981E-09
   22.44000     -3.9617531E-09
   22.50000     -4.3066493E-09
   22.56000     -4.6932156E-09
   22.62000     -5.1204827E-09
   22.68000     -5.5831308E-09
   22.74000     -6.0718346E-09
   22.80000     -6.5743047E-09
   22.86000     -7.0767996E-09
   22.92000     -7.5657507E-09
   22.98000     -8.0291338E-09
   23.04000     -8.4573673E-09
   23.10000     -8.8436547E-09
   23.16000     -9.1838848E-09
   23.22000     -9.4762918E-09
   23.28000     -9.7210924E-09
   23.34000     -9.9203037E-09
   23.40000     -1.0077785E-08
   23.46000     -1.0199430E-08
   23.52000     -1.0293297E-08
   23.58000     -1.0369426E-08
   23.64000     -1.0439162E-08
   23.70000     -1.0514006E-08
   23.76000     -1.0604169E-08
   23.82000     -1.0717205E-08
   23.88000     -1.0856979E-08
   23.94000     -1.1023174E-08
   24.00000     -1.1211267E-08
   24.06000     -1.1412874E-08
   24.12000     -1.1616306E-08
   24.18000     -1.1807356E-08
   24.24000     -1.1970388E-08
   24.30000     -1.2089767E-08
   24.36000     -1.2151522E-08
   24.42000     -1.2144935E-08
   24.48000     -1.2063678E-08
   24.54000     -1.1906257E-08
   24.60000     -1.1675791E-08
   24.66000     -1.1379438E-08
   24.72000     -1.1027860E-08
   24.78000     -1.0634952E-08
   24.84000     -1.0217795E-08
   24.90000     -9.7964579E-09
   24.96000     -9.3933243E-09
   25.02000     -9.0317389E-09
   25.08000     -8.7341467E-09
   25.14000     -8.5201188E-09
   25.20000     -8.4047125E-09
   25.26000     -8.3973983E-09
   25.32000     -8.5016225E-09
   25.38000     -8.7148440E-09
   25.44000     -9.0289811E-09
   25.50000     -9.4312789E-09
   25.56000     -9.9056514E-09
   25.62000     -1.0434415E-08
   25.68000     -1.1000099E-08
   25.74000     -1.1586818E-08
   25.80000     -1.2180754E-08
   25.86000     -1.2769656E-08
   25.92000     -1.3341746E-08
   25.98000     -1.3884831E-08
   26.04000     -1.4386297E-08
   26.10000     -1.4834316E-08
   26.16000     -1.5219838E-08
   26.22000     -1.5538419E-08
   26.28000     -1.5790889E-08
   26.34000     -1.5982259E-08
   26.40000     -1.6119067E-08
   26.46000     -1.6206103E-08
   26.52000     -1.6243746E-08
   26.58000     -1.6227039E-08
   26.64000     -1.6146824E-08
   26.70000     -1.5992599E-08
   26.76000     -1.5756031E-08
   26.82000     -1.5433910E-08
   26.88000     -1.5029560E-08
   26.94000     -1.4552372E-08
   27.00000     -1.4015692E-08
   27.06000     -1.3433960E-08
   27.12000     -1.2820053E-08
   27.18000     -1.2183714E-08
   27.24000     -1.1531428E-08
   27.30000     -1.0867572E-08
   27.36000     -1.0196160E-08
   27.42000     -9.5223385E-09
   27.48000     -8.8529664E-09
   27.54000     -8.1960225E-09
   27.60000     -7.5591124E-09
   27.66000     -6.9477011E-09
   27.72000     -6.3637979E-09
   27.78000     -5.8055942E-09
   27.84000     -5.2681579E-09
   27.90000     -4.7449102E-09
   27.96000     -4.2293786E-09
   28.02000     -3.7166819E-09
   28.08000     -3.2043708E-09
   28.14000     -2.6924332E-09
   28.20000     -2.1825193E-09
   28.26000     -1.6766109E-09
   28.32000     -1.1755191E-09
   28.38000     -6.7768374E-10
   28.44000     -1.7873754E-10
   28.50000      3.2787673E-10
   28.56000      8.4927532E-10
   28.62000      1.3909187E-09
   28.68000      1.9545265E-09
   28.74000      2.5368623E-09
   28.80000      3.1298431E-09
   28.86000      3.7219470E-09
   28.92000      4.3004098E-09
   28.98000      4.8534781E-09
   29.04000      5.3720499E-09
   29.10000      5.8504077E-09
   29.16000      6.2861054E-09
   29.22000      6.6793464E-09
   29.28000      7.0321748E-09
   29.34000      7.3476749E-09
   29.40000      7.6291879E-09
   29.46000      7.8795290E-09
   29.52000      8.1002502E-09
   29.58000      8.2911296E-09
   29.64000      8.4500780E-09
   29.70000      8.5735286E-09
   29.76000      8.6571630E-09
   29.82000      8.6966532E-09
   29.88000      8.6881009E-09
   29.94000      8.6280689E-09
   30.00000      8.5133234E-09
   30.06000      8.3406198E-09
   30.12000      8.1068130E-09
   30.18000      7.8094153E-09
   30.24000      7.4474604E-09
   30.30000      7.0223636E-09
   30.36000      6.5384733E-09
   30.42000      6.0030971E-09
   30.48000      5.4259837E-09
   30.54000      4.8183608E-09
   30.60000      4.1917434E-09
   30.66000      3.5567707E-09
   30.72000      2.9223581E-09
   30.78000      2.2954199E-09
   30.84000      1.6812700E-09
   30.90000      1.0845586E-09
   30.96000      5.1031884E-10
   31.02000     -3.5435418E-11
   31.08000     -5.4599941E-10
   31.14000     -1.0151786E-09
   31.20000     -1.4389249E-09
   31.26000     -1.8165899E-09
   31.32000     -2.1510491E-09
   31.38000     -2.4474278E-09
   31.44000     -2.7108438E-09
   31.50000     -2.9441038E-09
   31.56000     -3.1463498E-09
   31.62000     -3.3132346E-09
   31.68000     -3.4384700E-09
   31.74000     -3.5159746E-09
   31.80000     -3.5416021E-09
   31.86000     -3.5136880E-09
   31.92000     -3.4322374E-09
   31.98000     -3.2971914E-09
   32.04000     -3.1065881E-09
   32.10000     -2.8554552E-09
   32.16000     -2.5359634E-09
   32.22000     -2.1389150E-09
   32.28000     -1.6561970E-09
   32.34000     -1.0835086E-09
   32.40000     -4.2255774E-10
   32.46000      3.1796918E-10
   32.52000      1.1230453E-09
   32.58000      1.9734669E-09
   32.64000      2.8489808E-09
   32.70000      3.7314800E-09
   32.76000      4.6073354E-09
   32.82000      5.4681966E-09
   32.88000      6.3101218E-09
   32.94000      7.1314292E-09
   33.00000      7.9300744E-09
   33.06000      8.7014476E-09
   33.12000      9.4373247E-09
   33.18000      1.0126335E-08
   33.24000      1.0755811E-08
   33.30000      1.1314465E-08
   33.36000      1.1795009E-08
   33.42000      1.2195758E-08
   33.48000      1.2520488E-08
   33.54000      1.2776357E-08
   33.60000      1.2970484E-08
   33.66000      1.3106360E-08
   33.72000      1.3181534E-08
   33.78000      1.3187630E-08
   33.84000      1.3112881E-08
   33.90000      1.2946319E-08
   33.96000      1.2682015E-08
   34.02000      1.2321712E-08
   34.08000      1.1874804E-08
   34.14000      1.1355701E-08
   34.20000      1.0779629E-08
   34.26000      1.0158467E-08
   34.32000      9.4981143E-09
   34.38000      8.7982581E-09
   34.44000      8.0544984E-09
   34.50000      7.2619568E-09
   34.56000      6.4190289E-09
   34.62000      5.5298730E-09
   34.68000      4.6046753E-09
   34.74000      3.6574950E-09
   34.80000      2.7024190E-09
   34.86000      1.7494896E-09
   34.92000      8.0208523E-10
   34.98000     -1.4305408E-10
   35.04000     -1.0930207E-09
   35.10000     -2.0542450E-09
   35.16000     -3.0281890E-09
   35.22000     -4.0090491E-09
   35.28000     -4.9843627E-09
   35.34000     -5.9380749E-09
   35.40000     -6.8545551E-09
   35.46000     -7.7217832E-09
   35.52000     -8.5325560E-09
   35.58000     -9.2836636E-09
   35.64000     -9.9739212E-09
   35.70000     -1.0602236E-08
   35.76000     -1.1166511E-08
   35.82000     -1.1663486E-08
   35.88000     -1.2089073E-08
   35.94000     -1.2438738E-08
   36.00000     -1.2707768E-08
   36.06000     -1.2891669E-08
   36.12000     -1.2986966E-08
   36.18000     -1.2992384E-08
   36.24000     -1.2909966E-08
   36.30000     -1.2745480E-08
   36.36000     -1.2507746E-08
   36.42000     -1.2207050E-08
   36.48000     -1.1853320E-08
   36.54000     -1.1454850E-08
   36.60000     -1.1017991E-08
   36.66000     -1.0547669E-08
   36.72000     -1.0048208E-08
   36.78000     -9.5238555E-09
   36.84000     -8.9788763E-09
   36.90000     -8.4173726E-09
   36.96000     -7.8432638E-09
   37.02000     -7.2606197E-09
   37.08000     -6.6741879E-09
   37.14000     -6.0897269E-09
   37.20000     -5.5137650E-09
   37.26000     -4.9527813E-09
   37.32000     -4.4122084E-09
   37.38000     -3.8957970E-09
   37.44000     -3.4057475E-09
   37.50000     -2.9435796E-09
   37.56000     -2.5113371E-09
   37.62000     -2.1125486E-09
   37.68000     -1.7525028E-09
   37.74000     -1.4376862E-09
   37.80000     -1.1745500E-09
   37.86000     -9.6796948E-10
   37.92000     -8.1982260E-10
   37.98000     -7.2810058E-10
   38.04000     -6.8687361E-10
   38.10000     -6.8727918E-10
   38.16000     -7.1942557E-10
   38.22000     -7.7477197E-10
   38.28000     -8.4828389E-10
   38.34000     -9.3962671E-10
   38.40000     -1.0529324E-09
   38.46000     -1.1951815E-09
   38.52000     -1.3737462E-09
   38.58000     -1.5939212E-09
   38.64000     -1.8571942E-09
   38.70000     -2.1606634E-09
   38.76000     -2.4975852E-09
   38.82000     -2.8587412E-09
   38.88000     -3.2342018E-09
   38.94000     -3.6150909E-09
   39.00000     -3.9950101E-09
   39.06000     -4.3707873E-09
   39.12000     -4.7422670E-09
   39.18000     -5.1110414E-09
   39.24000     -5.4783529E-09
   39.30000     -5.8428404E-09
   39.36000     -6.1990129E-09
   39.42000     -6.5372254E-09
   39.48000     -6.8454176E-09
   39.54000     -7.1121034E-09
   39.60000     -7.3295179E-09
   39.66000     -7.4956228E-09
   39.72000     -7.6140703E-09
   39.78000     -7.6920115E-09
   39.84000     -7.7365332E-09
   39.90000     -7.7510771E-09
   39.96000     -7.7332913E-09
   40.02000     -7.6752427E-09
   40.08000     -7.5660633E-09
   40.14000     -7.3961464E-09
   40.20000     -7.1613555E-09
   40.26000     -6.8656307E-09
   40.32000     -6.5208643E-09
   40.38000     -6.1439365E-09
   40.44000     -5.7519216E-09
   40.50000     -5.3572387E-09
   40.56000     -4.9646172E-09
   40.62000     -4.5710626E-09
   40.68000     -4.1687902E-09
   40.74000     -3.7498928E-09
   40.80000     -3.3108172E-09
   40.86000     -2.8548979E-09
   40.92000     -2.3920599E-09
   40.98000     -1.9360296E-09
   41.04000     -1.5003430E-09
   41.10000     -1.0947652E-09
   41.16000     -7.2337286E-10
   41.22000     -3.8473727E-10
   41.28000     -7.3818632E-11
   41.34000      2.1534578E-10
   41.40000      4.8716947E-10
   41.46000      7.4302031E-10
   41.52000      9.8105191E-10
   41.58000      1.1973141E-09
   41.64000      1.3877609E-09
   41.70000      1.5505353E-09
   41.76000      1.6877910E-09
   41.82000      1.8063581E-09
   41.88000      1.9168469E-09
   41.94000      2.0312843E-09
   42.00000      2.1599418E-09
   42.06000      2.3084143E-09
   42.12000      2.4760163E-09
   42.18000      2.6561362E-09
   42.24000      2.8384701E-09
   42.30000      3.0123355E-09
   42.36000      3.1698593E-09
   42.42000      3.3079179E-09
   42.48000      3.4282168E-09
   42.54000      3.5356242E-09
   42.60000      3.6355148E-09
   42.66000      3.7312056E-09
   42.72000      3.8224801E-09
   42.78000      3.9057553E-09
   42.84000      3.9758206E-09
   42.90000      4.0284887E-09
   42.96000      4.0631187E-09
   43.02000      4.0839954E-09
   43.08000      4.0999359E-09
   43.14000      4.1221697E-09
   43.20000      4.1612389E-09
   43.26000      4.2240837E-09
   43.32000      4.3124344E-09
   43.38000      4.4230632E-09
   43.44000      4.5496571E-09
   43.50000      4.6853645E-09
   43.56000      4.8248410E-09
   43.62000      4.9649702E-09
   43.68000      5.1041593E-09
   43.74000      5.2408327E-09
   43.80000      5.3720650E-09
   43.86000      5.4930833E-09
   43.92000      5.5977782E-09
   43.98000      5.6798117E-09
   44.04000      5.7336940E-09
   44.10000      5.7554295E-09
   44.16000      5.7427663E-09
   44.22000      5.6953549E-09
   44.28000      5.6150347E-09
   44.34000      5.5060601E-09
   44.40000      5.3747118E-09
   44.46000      5.2278093E-09
   44.52000      5.0701998E-09
   44.58000      4.9020970E-09
   44.64000      4.7176529E-09
   44.70000      4.5058846E-09
   44.76000      4.2540842E-09
   44.82000      3.9525330E-09
   44.88000      3.5984908E-09
   44.94000      3.1975416E-09
   45.00000      2.7615379E-09
   45.06000      2.3039801E-09
   45.12000      1.8349007E-09
   45.18000      1.3575580E-09
   45.24000      8.6835883E-10
   45.30000      3.5990777E-10
   45.36000     -1.7429366E-10
   45.42000     -7.3558420E-10
   45.48000     -1.3180479E-09
   45.54000     -1.9092985E-09
   45.60000     -2.4936972E-09
   45.66000     -3.0567389E-09
   45.72000     -3.5890930E-09
   45.78000     -4.0890247E-09
   45.84000     -4.5624993E-09
   45.90000     -5.0209610E-09
   45.96000     -5.4774651E-09
   46.02000     -5.9423462E-09
   46.08000     -6.4198233E-09
   46.14000     -6.9066775E-09
   46.20000     -7.3934499E-09
   46.26000     -7.8676816E-09
   46.32000     -8.3179277E-09
   46.38000     -8.7370307E-09
   46.44000     -9.1235481E-09
   46.50000     -9.4810737E-09
   46.56000     -9.8160653E-09
   46.62000     -1.0135265E-08
   46.68000     -1.0443662E-08
   46.74000     -1.0743478E-08
   46.80000     -1.1034093E-08
   46.86000     -1.1312601E-08
   46.92000     -1.1574725E-08
   46.98000     -1.1816032E-08
   47.04000     -1.2033382E-08
   47.10000     -1.2226396E-08
   47.16000     -1.2398361E-08
   47.22000     -1.2555982E-08
   47.28000     -1.2707657E-08
   47.34000     -1.2860659E-08
   47.40000     -1.3018250E-08
   47.46000     -1.3177972E-08
   47.52000     -1.3331994E-08
   47.58000     -1.3469493E-08
   47.64000     -1.3580148E-08
   47.70000     -1.3657292E-08
   47.76000     -1.3699418E-08
   47.82000     -1.3709480E-08
   47.88000     -1.3692374E-08
   47.94000     -1.3651759E-08
   48.00000     -1.3587554E-08
   48.06000     -1.3495170E-08
   48.12000     -1.3366720E-08
   48.18000     -1.3193698E-08
   48.24000     -1.2969993E-08
   48.30000     -1.2694019E-08
   48.36000     -1.2369110E-08
   48.42000     -1.2002080E-08
   48.48000     -1.1600643E-08
   48.54000     -1.1170804E-08
   48.60000     -1.0715289E-08
   48.66000     -1.0233538E-08
   48.72000     -9.7229593E-09
   48.78000     -9.1806944E-09
   48.84000     -8.6050154E-09
   48.90000     -7.9959914E-09
   48.96000     -7.3555864E-09
   49.02000     -6.6877237E-09
   49.08000     -5.9986625E-09
   49.14000     -5.2974869E-09
   49.20000     -4.5960475E-09
   49.26000     -3.9076826E-09
   49.32000     -3.2446508E-09
   49.38000     -2.6151006E-09
   49.44000     -2.0209707E-09
   49.50000     -1.4580678E-09
   49.56000     -9.1862373E-10
   49.62000     -3.9537362E-10
   49.68000      1.1466355E-10
   49.74000      6.0848043E-10
   49.80000      1.0782643E-09
   49.86000      1.5148899E-09
   49.92000      1.9120594E-09
   49.98000      2.2691715E-09
   50.04000      2.5916780E-09
   50.10000      2.8888663E-09
   50.16000      3.1701404E-09
   50.22000      3.4414147E-09
   50.28000      3.7030794E-09
   50.34000      3.9502672E-09
   50.40000      4.1752219E-09
   50.46000      4.3707913E-09
   50.52000      4.5336854E-09
   50.58000      4.6662509E-09
   50.64000      4.7760511E-09
   50.70000      4.8734052E-09
   50.76000      4.9678466E-09
   50.82000      5.0649924E-09
   50.88000      5.1652229E-09
   50.94000      5.2648699E-09
   51.00000      5.3595293E-09
   51.06000      5.4481331E-09
   51.12000      5.5360174E-09
   51.18000      5.6356013E-09
   51.24000      5.7643170E-09
   51.30000      5.9405676E-09
   51.36000      6.1792989E-09
   51.42000      6.4888224E-09
   51.48000      6.8699824E-09
   51.54000      7.3178841E-09
   51.60000      7.8256024E-09
   51.66000      8.3888319E-09
   51.72000      9.0103089E-09
   51.78000      9.7029460E-09
   51.84000      1.0490909E-08
   51.90000      1.1408288E-08
   51.96000      1.2495700E-08
   52.02000      1.3795919E-08
   52.08000      1.5350233E-08
   52.14000      1.7197205E-08
   52.20000      1.9374724E-08
   52.26000      2.1924802E-08
   52.32000      2.4899055E-08
   52.38000      2.8362344E-08
   52.44000      3.2392514E-08
   52.50000      3.7076134E-08
   52.56000      4.2501966E-08
   52.62000      4.8755229E-08
   52.68000      5.5915319E-08
   52.74000      6.4058042E-08
   52.80000      7.3261063E-08
   52.86000      8.3610175E-08
   52.92000      9.5203241E-08
   52.98000      1.0815075E-07
   53.04000      1.2257280E-07
   53.10000      1.3859429E-07
   53.16000      1.5634012E-07
   53.22000      1.7593145E-07
   53.28000      1.9748310E-07
   53.34000      2.2110194E-07
   53.40000      2.4688518E-07
   53.46000      2.7491851E-07
   53.52000      3.0527391E-07
   53.58000      3.3800646E-07
   53.64000      3.7315061E-07
   53.70000      4.1071476E-07
   53.76000      4.5067540E-07
   53.82000      4.9297051E-07
   53.88000      5.3749409E-07
   53.94000      5.8409148E-07
   54.00000      6.3255533E-07
   54.06000      6.8262131E-07
   54.12000      7.3396171E-07
   54.18000      7.8617791E-07
   54.24000      8.3879235E-07
   54.30000      8.9124239E-07
   54.36000      9.4287634E-07
   54.42000      9.9295266E-07
   54.48000      1.0406403E-06
   54.54000      1.0850180E-06
   54.60000      1.1250728E-06
   54.66000      1.1596978E-06
   54.72000      1.1876922E-06
   54.78000      1.2077636E-06
   54.84000      1.2185352E-06
   54.90000      1.2185557E-06
   54.96000      1.2063107E-06
   55.02000      1.1802344E-06
   55.08000      1.1387223E-06
   55.14000      1.0801438E-06
   55.20000      1.0028589E-06
   55.26000      9.0523645E-07
   55.32000      7.8567604E-07
   55.38000      6.4263088E-07
   55.44000      4.7463365E-07
   55.50000      2.8032298E-07
   55.56000      5.8471247E-08