  -2.400000      0.0000000E+00
  -2.340000      0.0000000E+00
  -2.280000      0.0000000E+00
  -2.220000      0.0000000E+00
  -2.160000      0.0000000E+00
  -2.100000      0.0000000E+00
  -2.040000      0.0000000E+00
  -1.980000      0.0000000E+00
  -1.920000      0.0000000E+00
  -1.860000      3.9439931E-30
  -1.800000      4.6568828E-30
  -1.740000     -2.7521833E-28
  -1.680000     -2.3577683E-27
  -1.620000     -9.8655761E-27
  -1.560000     -2.2884180E-26
  -1.500000     -1.3336897E-26
  -1.440000      1.1508260E-25
  -1.380000      5.0665366E-25
  -1.320000      1.0923732E-24
  -1.260000      9.6171266E-25
  -1.200000     -2.2030371E-24
  -1.140000     -1.1076364E-23
  -1.080000     -2.3794645E-23
  -1.020000     -2.5223518E-23
 -0.9600000      1.8236200E-23
 -0.9000000      1.4292732E-22
 -0.8400000      3.3307376E-22
 -0.7800000      4.3519323E-22
 -0.7200000      1.1193926E-22
 -0.6600000     -1.0288970E-21
 -0.6000000     -3.0095830E-21
 -0.5400000     -4.8369112E-21
 -0.4800000     -4.0946967E-21
 -0.4200000      2.4090543E-21
 -0.3600000      1.6242079E-20
 -0.3000000      3.3535107E-20
 -0.2400000      4.1988948E-20
 -0.1800000      2.2633211E-20
 -0.1200000     -4.0150345E-20
 -5.9999999E-02 -1.4105737E-19
  0.0000000E+00 -2.3707469E-19
  5.9999999E-02 -2.4680011E-19
  0.1200000     -8.0724239E-20
  0.1800000      2.9625055E-19
  0.2400000      7.9400447E-19
  0.3000000      1.1664159E-18
  0.3600000      1.0719153E-18
  0.4200000      2.4188418E-19
  0.4800000     -1.2955856E-18
  0.5400000     -3.0593298E-18
  0.6000000     -4.1681073E-18
  0.6600000     -3.6719606E-18
  0.7200000     -1.0741165E-18
  0.7800000      3.2096262E-18
  0.8400000      7.7645674E-18
  0.9000000      1.0638077E-17
  0.9600000      1.0215191E-17
   1.020000      6.0592452E-18
   1.080000     -8.2749298E-19
   1.140000     -8.5905279E-18
   1.200000     -1.5651007E-17
   1.260000     -2.1539029E-17
   1.320000     -2.6553881E-17
   1.380000     -3.0059204E-17
   1.440000     -2.8405779E-17
   1.500000     -1.4431430E-17
   1.560000      1.9658779E-17
   1.620000      7.5907023E-17
   1.680000      1.4327734E-16
   1.740000      1.9418118E-16
   1.800000      1.8963341E-16
   1.860000      9.4614540E-17
   1.920000     -1.0039425E-16
   1.980000     -3.6113591E-16
   2.040000     -6.0583899E-16
   2.100000     -7.2337408E-16
   2.160000     -6.1157351E-16
   2.220000     -2.2346008E-16
   2.280000      3.9744051E-16
   2.340000      1.1099466E-15
   2.400000      1.7033621E-15
   2.460000      1.9537202E-15
   2.520000      1.6894995E-15
   2.580000      8.4567955E-16
   2.640000     -5.0745029E-16
   2.700000     -2.1617852E-15
   2.760000     -3.7874892E-15
   2.820000     -4.9617593E-15
   2.880000     -5.2161479E-15
   2.940000     -4.1204405E-15
   3.000000     -1.4192345E-15
   3.060000      2.7880464E-15
   3.120000      7.8774335E-15
   3.180000      1.2636517E-14
   3.240000      1.5409671E-14
   3.300000      1.4505244E-14
   3.360000      8.8106978E-15
   3.420000     -1.5655183E-15
   3.480000     -1.4891847E-14
   3.540000     -2.7902063E-14
   3.600000     -3.6485334E-14
   3.660000     -3.6861563E-14
   3.720000     -2.6900347E-14
   3.780000     -7.1246914E-15
   3.840000      1.8998973E-14
   3.900000      4.5654361E-14
   3.960000      6.6015925E-14
   4.020000      7.3947921E-14
   4.080000      6.5580618E-14
   4.140000      4.0371244E-14
   4.200000      1.4582114E-15
   4.260000     -4.4686124E-14
   4.320000     -8.9195348E-14
   4.380000     -1.2222543E-13
   4.440000     -1.3474391E-13
   4.500000     -1.2052349E-13
   4.560000     -7.8006449E-14
   4.620000     -1.1525464E-14
   4.680000      6.8668548E-14
   4.740000      1.4788354E-13
   4.800000      2.0979624E-13
   4.860000      2.3989141E-13
   4.920000      2.2853778E-13
   4.980000      1.7286088E-13
   5.040000      7.7124193E-14
   5.100000     -4.8017315E-14
   5.160000     -1.8667656E-13
   5.220000     -3.1878946E-13
   5.280000     -4.2119409E-13
   5.340000     -4.6951939E-13
   5.400000     -4.4179536E-13
   5.460000     -3.2401450E-13
   5.520000     -1.1658341E-13
   5.580000      1.6061586E-13
   5.640000      4.6721063E-13
   5.700000      7.4711033E-13
   5.760000      9.3884319E-13
   5.820000      9.8904923E-13
   5.880000      8.6536599E-13
   5.940000      5.6506449E-13
   6.000000      1.1732444E-13
   6.060000     -4.2082692E-13
   6.120000     -9.7317575E-13
   6.180000     -1.4552458E-12
   6.240000     -1.7856283E-12
   6.300000     -1.8967566E-12
   6.360000     -1.7446526E-12
   6.420000     -1.3168815E-12
   6.480000     -6.3723180E-13
   6.540000      2.3471199E-13
   6.600000      1.2101518E-12
   6.660000      2.1829572E-12
   6.720000      3.0437890E-12
   6.780000      3.6922436E-12
   6.840000      4.0435905E-12
   6.900000      4.0293623E-12
   6.960000      3.5943865E-12
   7.020000      2.6950356E-12
   7.080000      1.3031930E-12
   7.140000     -5.8232206E-13
   7.200000     -2.9189262E-12
   7.260000     -5.6028879E-12
   7.320000     -8.4564361E-12
   7.380000     -1.1222125E-11
   7.440000     -1.3564056E-11
   7.500000     -1.5074034E-11
   7.560000     -1.5282482E-11
   7.620000     -1.3678602E-11
   7.680000     -9.7494209E-12
   7.740000     -3.0493067E-12
   7.800000      6.6926117E-12
   7.860000      1.9430318E-11
   7.920000      3.4642098E-11
   7.980000      5.1186982E-11
   8.040000      6.7216954E-11
   8.100000      8.0184456E-11
   8.160000      8.6973984E-11
   8.220000      8.4167152E-11
   8.280000      6.8426778E-11
   8.340000      3.6960348E-11
   8.400000     -1.1997884E-11
   8.460000     -7.8760623E-11
   8.520000     -1.6189336E-10
   8.580000     -2.5811570E-10
   8.640000     -3.6243411E-10
   8.700000     -4.6850318E-10
   8.760000     -5.6917276E-10
   8.820000     -6.5714517E-10
   8.880000     -7.2565565E-10
   8.940000     -7.6909662E-10
   9.000000     -7.8353324E-10
   9.060000     -7.6708984E-10
   9.120000     -7.2020817E-10
   9.180000     -6.4578148E-10
   9.240000     -5.4915367E-10
   9.300000     -4.3794787E-10
   9.360000     -3.2167999E-10
   9.420000     -2.1112485E-10
   9.480000     -1.1744870E-10
   9.540000     -5.1184747E-11
   9.600000     -2.1189526E-11
   9.660000     -3.3747557E-11
   9.720000     -9.1977946E-11
   9.780000     -1.9563767E-10
   9.840000     -3.4133191E-10
   9.900000     -5.2306104E-10
   9.960000     -7.3298267E-10
   10.02000     -9.6225761E-10
   10.08000     -1.2018720E-09
   10.14000     -1.4433704E-09
   10.20000     -1.6794633E-09
   10.26000     -1.9044881E-09
   10.32000     -2.1146913E-09
   10.38000     -2.3082967E-09
   10.44000     -2.4853268E-09
   10.50000     -2.6471878E-09
   10.56000     -2.7960676E-09
   10.62000     -2.9342635E-09
   10.68000     -3.0635650E-09
   10.74000     -3.1848024E-09
   10.80000     -3.2976253E-09
   10.86000     -3.4004974E-09
   10.92000     -3.4908472E-09
   10.98000     -3.5653007E-09
   11.04000     -3.6199475E-09
   11.10000     -3.6506249E-09
   11.16000     -3.6532599E-09
   11.22000     -3.6242964E-09
   11.28000     -3.5612231E-09
   11.34000     -3.4631407E-09
   11.40000     -3.3312608E-09
   11.46000     -3.1691798E-09
   11.52000     -2.9827834E-09
   11.58000     -2.7796945E-09
   11.64000     -2.5682811E-09
   11.70000     -2.3563718E-09
   11.76000     -2.1499373E-09
   11.82000     -1.9520736E-09
   11.88000     -1.7625851E-09
   11.94000     -1.5783498E-09
   12.00000     -1.3944362E-09
   12.06000     -1.2056987E-09
   12.12000     -1.0083999E-09
   12.18000     -8.0136864E-10
   12.24000     -5.8632749E-10
   12.30000     -3.6730616E-10
   12.36000     -1.4937943E-10
   12.42000      6.2783195E-11
   12.48000      2.6601535E-10
   12.54000      4.5901738E-10
   12.60000      6.4192934E-10
   12.66000      8.1540191E-10
   12.72000      9.7967556E-10
   12.78000      1.1341702E-09
   12.84000      1.2778529E-09
   12.90000      1.4102828E-09
   12.96000      1.5328979E-09
   13.02000      1.6499454E-09
   13.08000      1.7685489E-09
   13.14000      1.8977082E-09
   13.20000      2.0464397E-09
   13.26000      2.2215816E-09
   13.32000      2.4259375E-09
   13.38000      2.6573099E-09
   13.44000      2.9086771E-09
   13.50000      3.1693907E-09
   13.56000      3.4269831E-09
   13.62000      3.6690515E-09
   13.68000      3.8847614E-09
   13.74000      4.0657295E-09
   13.80000      4.2062793E-09
   13.86000      4.3032324E-09
   13.92000      4.3554560E-09
   13.98000      4.3633315E-09
   14.04000      4.3282102E-09
   14.10000      4.2518802E-09
   14.16000      4.1360377E-09
   14.22000      3.9818362E-09
   14.28000      3.7896006E-09
   14.34000      3.5588215E-09
   14.40000      3.2884722E-09
   14.46000      2.9775813E-09
   14.52000      2.6259019E-09
   14.58000      2.2344728E-09
   14.64000      1.8059105E-09
   14.70000      1.3443715E-09
   14.76000      8.5526281E-10
   14.82000      3.4488276E-10
   14.88000     -1.7978040E-10
   14.94000     -7.1090833E-10
   15.00000     -1.2393152E-09
   15.06000     -1.7536442E-09
   15.12000     -2.2396229E-09
   15.18000     -2.6798312E-09
   15.24000     -3.0544172E-09
   15.30000     -3.3429863E-09
   15.36000     -3.5275127E-09
   15.42000     -3.5956838E-09
   15.48000     -3.5437615E-09
   15.54000     -3.3780179E-09
   15.60000     -3.1141190E-09
   15.66000     -2.7744662E-09
   15.72000     -2.3842039E-09
   15.78000     -1.9671063E-09
   15.84000     -1.5426265E-09
   15.90000     -1.1249740E-09
   15.96000     -7.2432094E-10
   16.02000     -3.4943687E-10
   16.08000     -1.0521676E-11
   16.14000      2.7903560E-10
   16.20000      5.0279025E-10
   16.26000      6.4332373E-10
   16.32000      6.8555744E-10
   16.38000      6.2008865E-10
   16.44000      4.4528847E-10
   16.50000      1.6730786E-10
   16.56000     -2.0215384E-10
   16.62000     -6.4969286E-10
   16.68000     -1.1644385E-09
   16.74000     -1.7412601E-09
   16.80000     -2.3817670E-09
   16.86000     -3.0925720E-09
   16.92000     -3.8811638E-09
   16.98000     -4.7505444E-09
   17.04000     -5.6942966E-09
   17.10000     -6.6937340E-09
   17.16000     -7.7182225E-09
   17.22000     -8.7288381E-09
   17.28000     -9.6844897E-09
   17.34000     -1.0548854E-08
   17.40000     -1.1296208E-08
   17.46000     -1.1914596E-08
   17.52000     -1.2405601E-08
   17.58000     -1.2781057E-08
   17.64000     -1.3057924E-08
   17.70000     -1.3253098E-08
   17.76000     -1.3379789E-08
   17.82000     -1.3446482E-08
   17.88000     -1.3458561E-08
   17.94000     -1.3421670E-08
   18.00000     -1.3345269E-08
   18.06000     -1.3244755E-08
   18.12000     -1.3140994E-08
   18.18000     -1.3057090E-08
   18.24000     -1.3013236E-08
   18.30000     -1.3021337E-08
   18.36000     -1.3081259E-08
   18.42000     -1.3180155E-08
   18.48000     -1.3295328E-08
   18.54000     -1.3399900E-08
   18.60000     -1.3469638E-08
   18.66000     -1.3488870E-08
   18.72000     -1.3453810E-08
   18.78000     -1.3372422E-08
   18.84000     -1.3261174E-08
   18.90000     -1.3139912E-08
   18.96000     -1.3026663E-08
   19.02000     -1.2933969E-08
   19.08000     -1.2867724E-08
   19.14000     -1.2828545E-08
   19.20000     -1.2814860E-08
   19.26000     -1.2826376E-08
   19.32000     -1.2866610E-08
   19.38000     -1.2943572E-08
   19.44000     -1.3068429E-08
   19.50000     -1.3252666E-08
   19.56000     -1.3504769E-08
   19.62000     -1.3827565E-08
   19.68000     -1.4217069E-08
   19.74000     -1.4663119E-08
   19.80000     -1.5151462E-08
   19.86000     -1.5666510E-08
   19.92000     -1.6193775E-08
   19.98000     -1.6721255E-08
   20.04000     -1.7239493E-08
   20.10000     -1.7740570E-08
   20.16000     -1.8216646E-08
   20.22000     -1.8658744E-08
   20.28000     -1.9056282E-08
   20.34000     -1.9397417E-08
   20.40000     -1.9669985E-08
   20.46000     -1.9862620E-08
   20.52000     -1.9965780E-08
   20.58000     -1.9972545E-08
   20.64000     -1.9879273E-08
   20.70000     -1.9686153E-08
   20.76000     -1.9397557E-08
   20.82000     -1.9021879E-08
   20.88000     -1.8570576E-08
   20.94000     -1.8056296E-08
   21.00000     -1.7490489E-08
   21.06000     -1.6881193E-08
   21.12000     -1.6231896E-08
   21.18000     -1.5541984E-08
   21.24000     -1.4808802E-08
   21.30000     -1.4030582E-08
   21.36000     -1.3209212E-08
   21.42000     -1.2351800E-08
   21.48000     -1.1470505E-08
   21.54000     -1.0580703E-08
   21.60000     -9.6981108E-09
   21.66000     -8.8357313E-09
   21.72000     -8.0014013E-09
   21.78000     -7.1964457E-09
   21.84000     -6.4155770E-09
   21.90000     -5.6479368E-09
   21.96000     -4.8789519E-09
   22.02000     -4.0925405E-09
   22.08000     -3.2731697E-09
   22.14000     -2.4073099E-09
   22.20000     -1.4840644E-09
   22.26000     -4.9507765E-10
   22.32000      5.6585386E-10
   22.38000      1.7029229E-09
   22.44000      2.9178180E-09
   22.50000      4.2086037E-09
   22.56000      5.5684066E-09
   22.62000      6.9845489E-09
   22.68000      8.4386311E-09
   22.74000      9.9076933E-09
   22.80000      1.1366129E-08
   22.86000      1.2787843E-08
   22.92000      1.4148215E-08
   22.98000      1.5425728E-08
   23.04000      1.6603398E-08
   23.10000      1.7670134E-08
   23.16000      1.8622032E-08
   23.22000      1.9463222E-08
   23.28000      2.0205883E-08
   23.34000      2.0869063E-08
   23.40000      2.1476387E-08
   23.46000      2.2052994E-08
   23.52000      2.2622288E-08
   23.58000      2.3203013E-08
   23.64000      2.3806905E-08
   23.70000      2.4437171E-08
   23.76000      2.5087912E-08
   23.82000      2.5744697E-08
   23.88000      2.6386404E-08
   23.94000      2.6988117E-08
   24.00000      2.7524482E-08
   24.06000      2.7972584E-08
   24.12000      2.8313517E-08
   24.18000      2.8532336E-08
   24.24000      2.8616794E-08
   24.30000      2.8555888E-08
   24.36000      2.8339230E-08
   24.42000      2.7957784E-08
   24.48000      2.7405751E-08
   24.54000      2.6682597E-08
   24.60000      2.5794236E-08
   24.66000      2.4752671E-08
   24.72000      2.3574124E-08
   24.78000      2.2276350E-08
   24.84000      2.0876056E-08
   24.90000      1.9387176E-08
   24.96000      1.7820426E-08
   25.02000      1.6184137E-08
   25.08000      1.4486092E-08
   25.14000      1.2735959E-08
   25.20000      1.0947727E-08
   25.26000      9.1414387E-09
   25.32000      7.3434494E-09
   25.38000      5.5846994E-09
   25.44000      3.8970183E-09
   25.50000      2.3081943E-09
   25.56000      8.3714718E-10
   25.62000     -5.0934057E-10
   25.68000     -1.7372821E-09
   25.74000     -2.8633409E-09
   25.80000     -3.9105910E-09
   25.86000     -4.9035052E-09
   25.92000     -5.8636158E-09
   25.98000     -6.8069395E-09
   26.04000     -7.7436155E-09
   26.10000     -8.6795140E-09
   26.16000     -9.6190345E-09
   26.22000     -1.0567966E-08
   26.28000     -1.1535298E-08
   26.34000     -1.2533192E-08
   26.40000     -1.3574900E-08
   26.46000     -1.4671249E-08
   26.52000     -1.5826860E-08
   26.58000     -1.7037502E-08
   26.64000     -1.8289635E-08
   26.70000     -1.9562316E-08
   26.76000     -2.0830813E-08
   26.82000     -2.2070614E-08
   26.88000     -2.3260629E-08
   26.94000     -2.4384784E-08
   27.00000     -2.5432088E-08
   27.06000     -2.6395655E-08
   27.12000     -2.7271373E-08
   27.18000     -2.8056689E-08
   27.24000     -2.8749678E-08
   27.30000     -2.9348392E-08
   27.36000     -2.9850622E-08
   27.42000     -3.0254185E-08
   27.48000     -3.0557899E-08
   27.54000     -3.0763033E-08
   27.60000     -3.0874578E-08
   27.66000     -3.0901671E-08
   27.72000     -3.0856572E-08
   27.78000     -3.0752211E-08
   27.84000     -3.0599118E-08
   27.90000     -3.0402788E-08
   27.96000     -3.0162497E-08
   28.02000     -2.9871924E-08
   28.08000     -2.9521237E-08
   28.14000     -2.9099859E-08
   28.20000     -2.8599061E-08
   28.26000     -2.8013753E-08
   28.32000     -2.7343381E-08
   28.38000     -2.6591991E-08
   28.44000     -2.5767726E-08
   28.50000     -2.4881887E-08
   28.56000     -2.3947727E-08
   28.62000     -2.2979210E-08
   28.68000     -2.1990042E-08
   28.74000     -2.0993273E-08
   28.80000     -2.0001631E-08
   28.86000     -1.9028350E-08
   28.92000     -1.8088079E-08
   28.98000     -1.7197246E-08
   29.04000     -1.6373511E-08
   29.10000     -1.5634225E-08
   29.16000     -1.4994207E-08
   29.22000     -1.4463403E-08
   29.28000     -1.4045065E-08
   29.34000     -1.3734991E-08
   29.40000     -1.3522107E-08
   29.46000     -1.3390407E-08
   29.52000     -1.3321915E-08
   29.58000     -1.3300014E-08
   29.64000     -1.3312354E-08
   29.70000     -1.3352535E-08
   29.76000     -1.3420103E-08
   29.82000     -1.3518877E-08
   29.88000     -1.3654142E-08
   29.94000     -1.3829634E-08
   30.00000     -1.4045247E-08
   30.06000     -1.4296151E-08
   30.12000     -1.4573529E-08
   30.18000     -1.4866592E-08
   30.24000     -1.5165206E-08
   30.30000     -1.5462248E-08
   30.36000     -1.5754958E-08
   30.42000     -1.6044767E-08
   30.48000     -1.6335573E-08
   30.54000     -1.6630842E-08
   30.60000     -1.6930329E-08
   30.66000     -1.7227320E-08
   30.72000     -1.7507254E-08
   30.78000     -1.7748162E-08
   30.84000     -1.7922924E-08
   30.90000     -1.8002826E-08
   30.96000     -1.7961630E-08
   31.02000     -1.7779218E-08
   31.08000     -1.7444011E-08
   31.14000     -1.6953562E-08
   31.20000     -1.6313141E-08
   31.26000     -1.5532665E-08
   31.32000     -1.4622837E-08
   31.38000     -1.3591756E-08
   31.44000     -1.2443308E-08
   31.50000     -1.1178076E-08
   31.56000     -9.7966097E-09
   31.62000     -8.3038278E-09
   31.68000     -6.7127375E-09
   31.74000     -5.0457016E-09
   31.80000     -3.3324561E-09
   31.86000     -1.6053394E-09
   31.92000      1.0665029E-10
   31.98000      1.7828801E-09
   32.04000      3.4134851E-09
   32.10000      4.9984181E-09
   32.16000      6.5435608E-09
   32.22000      8.0552027E-09
   32.28000      9.5345838E-09
   32.34000      1.0974136E-08
   32.40000      1.2356592E-08
   32.46000      1.3657420E-08
   32.52000      1.4850142E-08
   32.58000      1.5913121E-08
   32.64000      1.6835719E-08
   32.70000      1.7621550E-08
   32.76000      1.8287389E-08
   32.82000      1.8857619E-08
   32.88000      1.9355953E-08
   32.94000      1.9797268E-08
   33.00000      2.0182503E-08
   33.06000      2.0498467E-08
   33.12000      2.0722542E-08
   33.18000      2.0830463E-08
   33.24000      2.0804446E-08
   33.30000      2.0639009E-08
   33.36000      2.0342885E-08
   33.42000      1.9936856E-08
   33.48000      1.9448454E-08
   33.54000      1.8905267E-08
   33.60000      1.8328821E-08
   33.66000      1.7730713E-08
   33.72000      1.7112182E-08
   33.78000      1.6467224E-08
   33.84000      1.5788340E-08
   33.90000      1.5072871E-08
   33.96000      1.4327532E-08
   34.02000      1.3569160E-08
   34.08000      1.2821174E-08
   34.14000      1.2106872E-08
   34.20000      1.1442091E-08
   34.26000      1.0830025E-08
   34.32000      1.0260142E-08
   34.38000      9.7115347E-09
   34.44000      9.1594323E-09
   34.50000      8.5826599E-09
   34.56000      7.9697164E-09
   34.62000      7.3217739E-09
   34.68000      6.6518786E-09
   34.74000      5.9805951E-09
   34.80000      5.3292575E-09
   34.86000      4.7126774E-09
   34.92000      4.1335579E-09
   34.98000      3.5806536E-09
   35.04000      3.0317098E-09
   35.10000      2.4605753E-09
   35.16000      1.8461450E-09
   35.22000      1.1798044E-09
   35.28000      4.6841792E-10
   35.34000     -2.6837385E-10
   35.40000     -1.0054485E-09
   35.46000     -1.7210947E-09
   35.52000     -2.4039839E-09
   35.58000     -3.0557006E-09
   35.64000     -3.6882608E-09
   35.70000     -4.3179904E-09
   35.76000     -4.9582423E-09
   35.82000     -5.6134630E-09
   35.88000     -6.2763643E-09
   35.94000     -6.9288864E-09
   36.00000     -7.5466771E-09
   36.06000     -8.1060039E-09
   36.12000     -8.5913356E-09
   36.18000     -9.0013934E-09
   36.24000     -9.3514938E-09
   36.30000     -9.6708979E-09
   36.36000     -9.9955120E-09
   36.42000     -1.0358191E-08
   36.48000     -1.0780107E-08
   36.54000     -1.1266498E-08
   36.60000     -1.1808357E-08
   36.66000     -1.2389189E-08
   36.72000     -1.2993800E-08
   36.78000     -1.3615421E-08
   36.84000     -1.4258508E-08
   36.90000     -1.4936564E-08
   36.96000     -1.5666481E-08
   37.02000     -1.6461925E-08
   37.08000     -1.7328192E-08
   37.14000     -1.8259913E-08
   37.20000     -1.9241782E-08
   37.26000     -2.0251690E-08
   37.32000     -2.1265210E-08
   37.38000     -2.2260309E-08
   37.44000     -2.3221105E-08
   37.50000     -2.4139521E-08
   37.56000     -2.5014119E-08
   37.62000     -2.5846282E-08
   37.68000     -2.6634970E-08
   37.74000     -2.7372192E-08
   37.80000     -2.8041196E-08
   37.86000     -2.8618347E-08
   37.92000     -2.9078054E-08
   37.98000     -2.9398663E-08
   38.04000     -2.9566886E-08
   38.10000     -2.9579240E-08
   38.16000     -2.9440287E-08
   38.22000     -2.9159001E-08
   38.28000     -2.8744989E-08
   38.34000     -2.8205928E-08
   38.40000     -2.7546651E-08
   38.46000     -2.6769586E-08
   38.52000     -2.5875984E-08
   38.58000     -2.4867557E-08
   38.64000     -2.3748324E-08
   38.70000     -2.2526445E-08
   38.76000     -2.1215431E-08
   38.82000     -1.9834056E-08
   38.88000     -1.8404442E-08
   38.94000     -1.6948677E-08
   39.00000     -1.5485092E-08
   39.06000     -1.4025733E-08
   39.12000     -1.2576145E-08
   39.18000     -1.1137447E-08
   39.24000     -9.7096580E-09
   39.30000     -8.2947160E-09
   39.36000     -6.8980603E-09
   39.42000     -5.5286100E-09
   39.48000     -4.1978017E-09
   39.54000     -2.9186120E-09
   39.60000     -1.7050160E-09
   39.66000     -5.7164640E-10
   39.72000      4.6694942E-10
   39.78000      1.3977677E-09
   39.84000      2.2111268E-09
   39.90000      2.9017753E-09
   39.96000      3.4683947E-09
   40.02000      3.9113313E-09
   40.08000      4.2294341E-09
   40.14000      4.4175539E-09
   40.20000      4.4660879E-09
   40.26000      4.3629869E-09
   40.32000      4.0974530E-09
   40.38000      3.6637307E-09
   40.44000      3.0633904E-09
   40.50000      2.3052515E-09
   40.56000      1.4031208E-09
   40.62000      3.7236000E-10
   40.68000     -7.7339934E-10
   40.74000     -2.0242659E-09
   40.80000     -3.3742138E-09
   40.86000     -4.8193090E-09
   40.92000     -6.3545738E-09
   40.98000     -7.9704758E-09
   41.04000     -9.6502699E-09
   41.10000     -1.1369320E-08
   41.16000     -1.3097008E-08
   41.22000     -1.4800910E-08
   41.28000     -1.6451963E-08
   41.34000     -1.8028780E-08
   41.40000     -1.9519504E-08
   41.46000     -2.0920433E-08
   41.52000     -2.2232069E-08
   41.58000     -2.3454147E-08
   41.64000     -2.4581647E-08
   41.70000     -2.5603129E-08
   41.76000     -2.6501812E-08
   41.82000     -2.7258732E-08
   41.88000     -2.7856707E-08
   41.94000     -2.8283830E-08
   42.00000     -2.8535517E-08
   42.06000     -2.8614664E-08
   42.12000     -2.8529884E-08
   42.18000     -2.8292174E-08
   42.24000     -2.7910891E-08
   42.30000     -2.7390199E-08
   42.36000     -2.6727381E-08
   42.42000     -2.5914039E-08
   42.48000     -2.4940281E-08
   42.54000     -2.3800796E-08
   42.60000     -2.2500592E-08
   42.66000     -2.1058023E-08
   42.72000     -1.9503441E-08
   42.78000     -1.7873500E-08
   42.84000     -1.6202813E-08
   42.90000     -1.4515910E-08
   42.96000     -1.2822305E-08
   43.02000     -1.1116383E-08
   43.08000     -9.3820125E-09
   43.14000     -7.6000806E-09
   43.20000     -5.7562861E-09
   43.26000     -3.8465702E-09
   43.32000     -1.8786221E-09
   43.38000      1.3072449E-10
   43.44000      2.1610314E-09
   43.50000      4.1947334E-09
   43.56000      6.2223968E-09
   43.62000      8.2451086E-09
   43.68000      1.0273287E-08
   43.74000      1.2322324E-08
   43.80000      1.4406401E-08
   43.86000      1.6532386E-08
   43.92000      1.8695708E-08
   43.98000      2.0879506E-08
   44.04000      2.3057442E-08
   44.10000      2.5199411E-08
   44.16000      2.7278517E-08
   44.22000      2.9277189E-08
   44.28000      3.1190460E-08
   44.34000      3.3025263E-08
   44.40000      3.4795796E-08
   44.46000      3.6516290E-08
   44.52000      3.8193619E-08
   44.58000      3.9822272E-08
   44.64000      4.1383728E-08
   44.70000      4.2850647E-08
   44.76000      4.4194664E-08
   44.82000      4.5395026E-08
   44.88000      4.6444928E-08
   44.94000      4.7353023E-08
   45.00000      4.8139380E-08
   45.06000      4.8827243E-08
   45.12000      4.9433474E-08
   45.18000      4.9961205E-08
   45.24000      5.0397283E-08
   45.30000      5.0715428E-08
   45.36000      5.0883820E-08
   45.42000      5.0874437E-08
   45.48000      5.0671026E-08
   45.54000      5.0273176E-08
   45.60000      4.9695661E-08
   45.66000      4.8963752E-08
   45.72000      4.8106436E-08
   45.78000      4.7149854E-08
   45.84000      4.6112792E-08
   45.90000      4.5005205E-08
   45.96000      4.3829644E-08
   46.02000      4.2584713E-08
   46.08000      4.1269267E-08
   46.14000      3.9886082E-08
   46.20000      3.8444007E-08
   46.26000      3.6958056E-08
   46.32000      3.5447435E-08
   46.38000      3.3932103E-08
   46.44000      3.2428890E-08
   46.50000      3.0948435E-08
   46.56000      2.9494080E-08
   46.62000      2.8063043E-08
   46.68000      2.6649628E-08
   46.74000      2.5249259E-08
   46.80000      2.3861887E-08
   46.86000      2.2493586E-08
   46.92000      2.1155783E-08
   46.98000      1.9862609E-08
   47.04000      1.8627393E-08
   47.10000      1.7459628E-08
   47.16000      1.6363368E-08
   47.22000      1.5337351E-08
   47.28000      1.4376590E-08
   47.34000      1.3474636E-08
   47.40000      1.2625677E-08
   47.46000      1.1825826E-08
   47.52000      1.1073316E-08
   47.58000      1.0367851E-08
   47.64000      9.7096162E-09
   47.70000      9.0986756E-09
   47.76000      8.5352037E-09
   47.82000      8.0205913E-09
   47.88000      7.5588398E-09
   47.94000      7.1573290E-09
   48.00000      6.8261352E-09
   48.06000      6.5757311E-09
   48.12000      6.4137491E-09
   48.18000      6.3421717E-09
   48.24000      6.3563035E-09
   48.30000      6.4461418E-09
   48.36000      6.5995871E-09
   48.42000      6.8059949E-09
   48.48000      7.0583597E-09
   48.54000      7.3531066E-09
   48.60000      7.6876487E-09
   48.66000      8.0569524E-09
   48.72000      8.4507494E-09
   48.78000      8.8526004E-09
   48.84000      9.2411900E-09
   48.90000      9.5933803E-09
   48.96000      9.8881525E-09
   49.02000      1.0110604E-08
   49.08000      1.0255240E-08
   49.14000      1.0327906E-08
   49.20000      1.0345525E-08
   49.26000      1.0333025E-08
   49.32000      1.0317410E-08
   49.38000      1.0320115E-08
   49.44000      1.0349954E-08
   49.50000      1.0399415E-08
   49.56000      1.0446290E-08
   49.62000      1.0460714E-08
   49.68000      1.0415415E-08
   49.74000      1.0295446E-08
   49.80000      1.0103665E-08
   49.86000      9.8598107E-09
   49.92000      9.5935562E-09
   49.98000      9.3341148E-09
   50.04000      9.1001899E-09
   50.10000      8.8936414E-09
   50.16000      8.6987946E-09
   50.22000      8.4873522E-09
   50.28000      8.2271541E-09
   50.34000      7.8920026E-09
   50.40000      7.4695841E-09
   50.46000      6.9650685E-09
   50.52000      6.3992407E-09
   50.58000      5.8016658E-09
   50.64000      5.2010503E-09
   50.70000      4.6160311E-09
   50.76000      4.0496686E-09
   50.82000      3.4896810E-09
   50.88000      2.9143814E-09
   50.94000      2.3021181E-09
   51.00000      1.6406949E-09
   51.06000      9.3332109E-10
   51.12000      1.9902789E-10
   51.18000     -5.3245491E-10
   51.24000     -1.2294813E-09
   51.30000     -1.8680177E-09
   51.36000     -2.4390141E-09
   51.42000     -2.9515688E-09
   51.48000     -3.4311145E-09
   51.54000     -3.9131902E-09
   51.60000     -4.4344923E-09
   51.66000     -5.0236699E-09
   51.72000     -5.6945137E-09
   51.78000     -6.4436789E-09
   51.84000     -7.2537816E-09
   51.90000     -8.1009839E-09
   51.96000     -8.9645900E-09
   52.02000     -9.8353814E-09
   52.08000     -1.0719847E-08
   52.14000     -1.1638964E-08
   52.20000     -1.2622186E-08
   52.26000     -1.3699014E-08
   52.32000     -1.4891151E-08
   52.38000     -1.6207915E-08
   52.44000     -1.7646197E-08
   52.50000     -1.9194790E-08
   52.56000     -2.0841535E-08
   52.62000     -2.2580995E-08
   52.68000     -2.4420251E-08
   52.74000     -2.6381063E-08
   52.80000     -2.8497629E-08
   52.86000     -3.0810618E-08
   52.92000     -3.3359370E-08
   52.98000     -3.6174924E-08
   53.04000     -3.9276273E-08
   53.10000     -4.2671093E-08
   53.16000     -4.6360515E-08
   53.22000     -5.0345864E-08
   53.28000     -5.4634775E-08
   53.34000     -5.9244304E-08
   53.40000     -6.4200130E-08
   53.46000     -6.9532263E-08
   53.52000     -7.5268822E-08
   53.58000     -8.1429725E-08
   53.64000     -8.8021629E-08
   53.70000     -9.5035105E-08
   53.76000     -1.0244406E-07
   53.82000     -1.1020740E-07
   53.88000     -1.1827238E-07
   53.94000     -1.2657853E-07
   54.00000     -1.3506119E-07
   54.06000     -1.4365330E-07
   54.12000     -1.5228460E-07
   54.18000     -1.6087832E-07
   54.24000     -1.6934642E-07
   54.30000     -1.7758451E-07
   54.36000     -1.8546824E-07
   54.42000     -1.9285129E-07
   54.48000     -1.9956514E-07
   54.54000     -2.0541967E-07
   54.60000     -2.1020419E-07
   54.66000     -2.1368842E-07
   54.72000     -2.1562379E-07
   54.78000     -2.1574509E-07
   54.84000     -2.1377295E-07
   54.90000     -2.0941624E-07
   54.96000     -2.0237454E-07
   55.02000     -1.9233971E-07
   55.08000     -1.7899700E-07
   55.14000     -1.6202588E-07
   55.20000     -1.4110157E-07
   55.26000     -1.1589766E-07
   55.32000     -8.6090971E-08
   55.38000     -5.1368438E-08
   55.44000     -1.1435840E-08
   55.50000      3.3972370E-08
   55.56000      8.5083791E-08