 -0.750000000       0.00000000    
 -0.689999998       0.00000000    
 -0.629999995       0.00000000    
 -0.569999993       0.00000000    
 -0.509999990       0.00000000    
 -0.449999988       0.00000000    
 -0.389999986      -4.11951022E-23
 -0.330000013      -2.79575284E-22
 -0.270000011      -6.33473583E-22
 -0.209999993       1.00579387E-21
 -0.150000006       1.19784469E-20
  -9.00000036E-02   4.50679599E-20
  -2.99999993E-02   1.05774945E-19
   2.99999993E-02   1.59030500E-19
   9.00000036E-02   8.83893408E-20
  0.150000006      -3.03433553E-19
  0.209999993      -1.18276529E-18
  0.270000011      -2.43261390E-18
  0.330000013      -3.35499287E-18
  0.389999986      -2.58014570E-18
  0.449999988       1.50650786E-18
  0.509999990       9.68432455E-18
  0.569999993       2.04542625E-17
  0.629999995       2.90143096E-17
  0.689999998       2.76691584E-17
  0.750000000       8.39166708E-18
  0.810000002      -3.26070395E-17
  0.870000005      -8.96067751E-17
  0.930000007      -1.43770833E-16
  0.990000010      -1.64101649E-16
   1.04999995      -1.15478927E-16
   1.11000001       2.54707638E-17
   1.16999996       2.49500040E-16
   1.23000002       4.96785565E-16
   1.28999996       6.54497170E-16
   1.35000002       5.82936968E-16
   1.40999997       1.75292026E-16
   1.47000003      -5.61571409E-16
   1.52999997      -1.43970804E-15
   1.59000003      -2.08432913E-15
   1.64999998      -2.02930227E-15
   1.71000004      -9.15548595E-16
   1.76999998       1.26445311E-15
   1.83000004       3.98550474E-15
   1.88999999       6.19505159E-15
   1.95000005       6.58085308E-15
   2.00999999       4.07374609E-15
   2.06999993      -1.56352520E-15
   2.13000011      -9.29646442E-15
   2.19000006      -1.67659703E-14
   2.25000000      -2.07639336E-14
   2.30999994      -1.82057772E-14
   2.36999989      -7.37235454E-15
   2.43000007       1.09616567E-14
   2.49000001       3.29548468E-14
   2.54999995       5.20512351E-14
   2.60999990       6.04135475E-14
   2.67000008       5.12647345E-14
   2.73000002       2.15917829E-14
   2.78999996      -2.56333905E-14
   2.84999990      -8.06444619E-14
   2.91000009      -1.28172334E-13
   2.97000003      -1.50958984E-13
   3.02999997      -1.34852836E-13
   3.08999991      -7.41404347E-14
   3.15000010       2.45978486E-14
   3.21000004       1.41665840E-13
   3.26999998       2.47328959E-13
   3.32999992       3.08595922E-13
   3.39000010       2.98357882E-13
   3.45000005       2.04598288E-13
   3.50999999       3.69283563E-14
   3.56999993      -1.72066558E-13
   3.63000011      -3.72149360E-13
   3.69000006      -5.07120929E-13
   3.75000000      -5.30403087E-13
   3.80999994      -4.20158645E-13
   3.86999989      -1.88873480E-13
   3.93000007       1.16574678E-13
   3.99000001       4.25419709E-13
   4.05000019       6.61338009E-13
   4.11000013       7.62766478E-13
   4.17000008       6.98526632E-13
   4.23000002       4.74085994E-13
   4.28999996       1.27788689E-13
   4.34999990      -2.79635879E-13
   4.40999985      -6.77128817E-13
   4.46999979      -9.92964717E-13
   4.53000021      -1.16137818E-12
   4.59000015      -1.12861565E-12
   4.65000010      -8.61501517E-13
   4.71000004      -3.59082013E-13
   4.76999998       3.36211473E-13
   4.82999992       1.13422216E-12
   4.88999987       1.90493584E-12
   4.94999981       2.49913306E-12
   5.01000023       2.77630241E-12
   5.07000017       2.63070425E-12
   5.13000011       2.00796671E-12
   5.19000006       9.10601455E-13
   5.25000000      -6.02392431E-13
   5.30999994      -2.41377448E-12
   5.36999989      -4.33968963E-12
   5.42999983      -6.11882203E-12
   5.48999977      -7.41177432E-12
   5.55000019      -7.82599766E-12
   5.61000013      -6.97549050E-12
   5.67000008      -4.57146994E-12
   5.73000002      -5.26525167E-13
   5.78999996       4.95320234E-12
   5.84999990       1.13115932E-11
   5.90999985       1.76362761E-11
   5.96999979       2.27049126E-11
   6.03000021       2.50777350E-11
   6.09000015       2.32271424E-11
   6.15000010       1.56956288E-11
   6.21000004       1.27250066E-12
   6.26999998      -2.08264517E-11
   6.32999992      -5.08034032E-11
   6.38999987      -8.81841752E-11
   6.44999981      -1.31822595E-10
   6.51000023      -1.80025925E-10
   6.57000017      -2.30792288E-10
   6.63000011      -2.82114609E-10
   6.69000006      -3.32276290E-10
   6.75000000      -3.80056792E-10
   6.80999994      -4.24789509E-10
   6.86999989      -4.66258254E-10
   6.92999983      -5.04474906E-10
   6.98999977      -5.39419676E-10
   7.05000019      -5.70834491E-10
   7.11000013      -5.98133987E-10
   7.17000008      -6.20446083E-10
   7.23000002      -6.36741992E-10
   7.28999996      -6.45985876E-10
   7.34999990      -6.47239484E-10
   7.40999985      -6.39695852E-10
   7.46999979      -6.22660146E-10
   7.53000021      -5.95528349E-10
   7.59000015      -5.57808522E-10
   7.65000010      -5.09196463E-10
   7.71000004      -4.49675880E-10
   7.76999998      -3.79589749E-10
   7.82999992      -2.99642366E-10
   7.88999987      -2.10834877E-10
   7.94999981      -1.14381796E-10
   8.01000023      -1.16738164E-11
   8.06999969       9.56757382E-11
   8.13000011       2.05724340E-10
   8.18999958       3.16116411E-10
   8.25000000       4.24123542E-10
   8.31000042       5.26868771E-10
   8.36999989       6.21707741E-10
   8.43000031       7.06649794E-10
   8.48999977       7.80659537E-10
   8.55000019       8.43711545E-10
   8.60999966       8.96566710E-10
   8.67000008       9.40356348E-10
   8.72999954       9.76139058E-10
   8.78999996       1.00460495E-09
   8.85000038       1.02603037E-09
   8.90999985       1.04047848E-09
   8.97000027       1.04813880E-09
   9.02999973       1.04964681E-09
   9.09000015       1.04624076E-09
   9.14999962       1.03968179E-09
   9.21000004       1.03194897E-09
   9.27000046       1.02479869E-09
   9.32999992       1.01931941E-09
   9.39000034       1.01561559E-09
   9.44999981       1.01272146E-09
   9.51000023       1.00878661E-09
   9.56999969       1.00150188E-09
   9.63000011       9.88668147E-10
   9.68999958       9.68752856E-10
   9.75000000       9.41280942E-10
   9.81000042       9.06942133E-10
   9.86999989       8.67387606E-10
   9.93000031       8.24799284E-10
   9.98999977       7.81393839E-10
   10.0500002       7.39047934E-10
   10.1099997       6.99175440E-10
   10.1700001       6.62872202E-10
   10.2299995       6.31217134E-10
   10.2900000       6.05534622E-10
   10.3500004       5.87436932E-10
   10.4099998       5.78561365E-10
   10.4700003       5.80070936E-10
   10.5299997       5.92120575E-10
   10.5900002       6.13535389E-10
   10.6499996       6.41877440E-10
   10.7100000       6.73912315E-10
   10.7700005       7.06304182E-10
   10.8299999       7.36256167E-10
   10.8900003       7.61832208E-10
   10.9499998       7.81846976E-10
   11.0100002       7.95421173E-10
   11.0699997       8.01467614E-10
   11.1300001       7.98411004E-10
   11.1899996       7.84323939E-10
   11.2500000       7.57447494E-10
   11.3100004       7.16859849E-10
   11.3699999       6.62973565E-10
   11.4300003       5.97624006E-10
   11.4899998       5.23711408E-10
   11.5500002       4.44567633E-10
   11.6099997       3.63324926E-10
   11.6700001       2.82508766E-10
   11.7299995       2.03907530E-10
   11.7900000       1.28595551E-10
   11.8500004       5.69173042E-11
   11.9099998      -1.16723931E-11
   11.9700003      -7.88311430E-11
   12.0299997      -1.47369977E-10
   12.0900002      -2.20853322E-10
   12.1499996      -3.02670361E-10
   12.2100000      -3.94778071E-10
   12.2700005      -4.96560015E-10
   12.3299999      -6.04303163E-10
   12.3900003      -7.11600612E-10
   12.4499998      -8.10622236E-10
   12.5100002      -8.93834395E-10
   12.5699997      -9.55563628E-10
   12.6300001      -9.92891547E-10
   12.6899996      -1.00567510E-09
   12.7500000      -9.95866389E-10
   12.8100004      -9.66560054E-10
   12.8699999      -9.21224930E-10
   12.9300003      -8.63385752E-10
   12.9899998      -7.96723798E-10
   13.0500002      -7.25330851E-10
   13.1099997      -6.53779753E-10
   13.1700001      -5.86792837E-10
   13.2299995      -5.28519895E-10
   13.2900000      -4.81658380E-10
   13.3500004      -4.46764875E-10
   13.4099998      -4.22058805E-10
   13.4700003      -4.03847455E-10
   13.5299997      -3.87467142E-10
   13.5900002      -3.68440334E-10
   13.6499996      -3.43471196E-10
   13.7100000      -3.10968862E-10
   13.7700005      -2.70986317E-10
   13.8299999      -2.24699273E-10
   13.8900003      -1.73735568E-10
   13.9499998      -1.19700264E-10
   14.0100002      -6.41060052E-11
   14.0699997      -8.67225302E-12
   14.1300001       4.42736958E-11
   14.1899996       9.16454551E-11
   14.2500000       1.29930788E-10
   14.3100004       1.55975427E-10
   14.3699999       1.67910824E-10
   14.4300003       1.65798375E-10
   14.4899998       1.51666762E-10
   14.5500002       1.28898031E-10
   14.6099997       1.01221330E-10
   14.6700001       7.17344656E-11
   14.7299995       4.23197900E-11
   14.7900000       1.35987176E-11
   14.8500004      -1.46802032E-11
   14.9099998      -4.30754737E-11
   14.9700003      -7.19571278E-11
   15.0299997      -1.01220574E-10
   15.0900002      -1.30230618E-10
   15.1499996      -1.57955954E-10
   15.2100000      -1.83248069E-10
   15.2700005      -2.05207532E-10
   15.3299999      -2.23530930E-10
   15.3900003      -2.38667502E-10
   15.4499998      -2.51619725E-10
   15.5100002      -2.63360583E-10
   15.5699997      -2.74083034E-10
   15.6300001      -2.82706358E-10
   15.6899996      -2.87071089E-10
   15.7500000      -2.84981011E-10
   15.8100004      -2.75793804E-10
   15.8699999      -2.61862892E-10
   15.9300003      -2.49042287E-10
   15.9899998      -2.45791276E-10
   16.0499992      -2.61026450E-10
   16.1100006      -3.01462133E-10
   16.1700001      -3.69448583E-10
   16.2299995      -4.62130390E-10
   16.2900009      -5.72198455E-10
   16.3500004      -6.89883817E-10
   16.4099998      -8.05423672E-10
   16.4699993      -9.11154430E-10
   16.5300007      -1.00262887E-09
   16.5900002      -1.07854348E-09
   16.6499996      -1.13964305E-09
   16.7099991      -1.18704657E-09
   16.7700005      -1.22058808E-09
   16.8299999      -1.23777211E-09
   16.8899994      -1.23378785E-09
   16.9500008      -1.20269161E-09
   17.0100002      -1.13941911E-09
   17.0699997      -1.04188635E-09
   17.1299992      -9.12304843E-10
   17.1900005      -7.57092389E-10
   17.2500000      -5.85345716E-10
   17.3099995      -4.06490008E-10
   17.3700008      -2.28096389E-10
   17.4300003      -5.47592423E-11
   17.4899998       1.11596350E-10
   17.5499992       2.70260953E-10
   17.6100006       4.19877466E-10
   17.6700001       5.56961421E-10
   17.7299995       6.75319800E-10
   17.7900009       7.66496366E-10
   17.8500004       8.21089696E-10
   17.9099998       8.30668367E-10
   17.9699993       7.89945775E-10
   18.0300007       6.98752500E-10
   18.0900002       5.63181335E-10
   18.1499996       3.95254274E-10
   18.2099991       2.10791079E-10
   18.2700005       2.58464083E-11
   18.3299999      -1.47151485E-10
   18.3899994      -3.02045194E-10
   18.4500008      -4.39210945E-10
   18.5100002      -5.63300628E-10
   18.5699997      -6.79533763E-10
   18.6299992      -7.90330468E-10
   18.6900005      -8.93861707E-10
   18.7500000      -9.85047932E-10
   18.8099995      -1.05824161E-09
   18.8700008      -1.11003773E-09
   18.9300003      -1.14077769E-09
   18.9899998      -1.15420040E-09
   19.0499992      -1.15574528E-09
   19.1100006      -1.15058718E-09
   19.1700001      -1.14232301E-09
   19.2299995      -1.13257881E-09
   19.2900009      -1.12120746E-09
   19.3500004      -1.10660603E-09
   19.4099998      -1.08600684E-09
   19.4699993      -1.05599185E-09
   19.5300007      -1.01353126E-09
   19.5900002      -9.57431467E-10
   19.6499996      -8.89504415E-10
   19.7099991      -8.14556977E-10
   19.7700005      -7.38747230E-10
   19.8299999      -6.66783295E-10
   19.8899994      -5.99274796E-10
   19.9500008      -5.31680644E-10
   20.0100002      -4.55561533E-10
   20.0699997      -3.61631725E-10
   20.1299992      -2.43148057E-10
   20.1900005      -9.80539053E-11
   20.2500000       7.09343695E-11
   20.3099995       2.57967203E-10
   20.3700008       4.56287147E-10
   20.4300003       6.59855726E-10
   20.4899998       8.63833782E-10
   20.5499992       1.06415643E-09
   20.6100006       1.25686961E-09
   20.6700001       1.43776158E-09
   20.7299995       1.60239000E-09
   20.7900009       1.74629600E-09
   20.8500004       1.86523996E-09
   20.9099998       1.95557304E-09
   20.9699993       2.01500150E-09
   21.0300007       2.04375139E-09
   21.0900002       2.04562500E-09
   21.1499996       2.02807637E-09
   21.2099991       2.00066119E-09
   21.2700005       1.97206296E-09
   21.3299999       1.94689642E-09
   21.3899994       1.92393879E-09
   21.4500008       1.89693417E-09
   21.5100002       1.85782523E-09
   21.5699997       1.80091964E-09
   21.6299992       1.72594339E-09
   21.6900005       1.63850855E-09
   21.7500000       1.54791391E-09
   21.8099995       1.46354262E-09
   21.8700008       1.39165823E-09
   21.9300003       1.33389400E-09
   21.9899998       1.28761901E-09
   22.0499992       1.24741806E-09
   22.1100006       1.20667232E-09
   22.1700001       1.15867493E-09
   22.2299995       1.09736453E-09
   22.2900009       1.01805331E-09
   22.3500004       9.18285226E-10
   22.4099998       7.98471345E-10
   22.4699993       6.61719513E-10
   22.5300007       5.12600740E-10
   22.5900002       3.55293822E-10
   22.6499996       1.92091204E-10
   22.7099991       2.31643680E-11
   22.7700005      -1.52251531E-10
   22.8299999      -3.34029721E-10
   22.8899994      -5.19927046E-10
   22.9500008      -7.05863090E-10
   23.0100002      -8.87643514E-10
   23.0699997      -1.06312081E-09
   23.1299992      -1.23348132E-09
   23.1900005      -1.40287193E-09
   23.2500000      -1.57656765E-09
   23.3099995      -1.75867432E-09
   23.3700008      -1.95048622E-09
   23.4300003      -2.15008522E-09
   23.4899998      -2.35301267E-09
   23.5499992      -2.55338861E-09
   23.6100006      -2.74493739E-09
   23.6700001      -2.92179103E-09
   23.7299995      -3.07927839E-09
   23.7900009      -3.21486771E-09
   23.8500004      -3.32906658E-09
   23.9099998      -3.42574857E-09
   23.9699993      -3.51140916E-09
   24.0300007      -3.59332608E-09
   24.0900002      -3.67719855E-09
   24.1499996      -3.76519216E-09
   24.2099991      -3.85515087E-09
   24.2700005      -3.94120070E-09
   24.3299999      -4.01535649E-09
   24.3899994      -4.06948519E-09
   24.4500008      -4.09703649E-09
   24.5100002      -4.09427692E-09
   24.5699997      -4.06095424E-09
   24.6299992      -4.00037292E-09
   24.6900005      -3.91880173E-09
   24.7500000      -3.82419030E-09
   24.8099995      -3.72441922E-09
   24.8700008      -3.62559760E-09
   24.9300003      -3.53103324E-09
   24.9899998      -3.44121909E-09
   25.0499992      -3.35470429E-09
   25.1100006      -3.26928928E-09
   25.1700001      -3.18296522E-09
   25.2299995      -3.09434345E-09
   25.2900009      -3.00277292E-09
   25.3500004      -2.90850255E-09
   25.4099998      -2.81300649E-09
   25.4699993      -2.71916845E-09
   25.5300007      -2.63083133E-09
   25.5900002      -2.55153165E-09
   25.6499996      -2.48289722E-09
   25.7099991      -2.42369058E-09
   25.7700005      -2.37032660E-09
   25.8299999      -2.31885955E-09
   25.8899994      -2.26739449E-09
   25.9500008      -2.21740959E-09
   26.0100002      -2.17300444E-09
   26.0699997      -2.13839568E-09
   26.1299992      -2.11518891E-09
   26.1900005      -2.10123452E-09
   26.2500000      -2.09190820E-09
   26.3099995      -2.08304818E-09
   26.3700008      -2.07360951E-09
   26.4300003      -2.06618966E-09
   26.4899998      -2.06496309E-09
   26.5499992      -2.07231099E-09
   26.6100006      -2.08636752E-09
   26.6700001      -2.10116480E-09
   26.7299995      -2.10936668E-09
   26.7900009      -2.10590390E-09
   26.8500004      -2.09025797E-09
   26.9099998      -2.06608308E-09
   26.9699993      -2.03863593E-09
   27.0300007      -2.01185157E-09
   27.0900002      -1.98699079E-09
   27.1499996      -1.96353511E-09
   27.2099991      -1.94139371E-09
   27.2700005      -1.92259897E-09
   27.3299999      -1.91113347E-09
   27.3899994      -1.91094740E-09
   27.4500008      -1.92354577E-09
   27.5100002      -1.94684602E-09
   27.5699997      -1.97610972E-09
   27.6299992      -2.00633798E-09
   27.6900005      -2.03457873E-09
   27.7500000      -2.06075534E-09
   27.8099995      -2.08670392E-09
   27.8700008      -2.11428275E-09
   27.9300003      -2.14389195E-09
   27.9899998      -2.17423390E-09
   28.0499992      -2.20314189E-09
   28.1100006      -2.22858421E-09
   28.1700001      -2.24899543E-09
   28.2299995      -2.26281216E-09
   28.2900009      -2.26782793E-09
   28.3500004      -2.26117747E-09
   28.4099998      -2.24024421E-09
   28.4699993      -2.20398766E-09
   28.5300007      -2.15377405E-09
   28.5900002      -2.09306283E-09
   28.6499996      -2.02607864E-09
   28.7099991      -1.95628691E-09
   28.7700005      -1.88555505E-09
   28.8299999      -1.81431614E-09
   28.8899994      -1.74230186E-09
   28.9500008      -1.66905190E-09
   29.0100002      -1.59375069E-09
   29.0699997      -1.51464385E-09
   29.1299992      -1.42880752E-09
   29.1900005      -1.33290667E-09
   29.2500000      -1.22483390E-09
   29.3099995      -1.10532361E-09
   29.3700008      -9.78406023E-10
   29.4300003      -8.50158055E-10
   29.4899998      -7.26266880E-10
   29.5499992      -6.09726547E-10
   29.6100006      -4.99979003E-10
   29.6700001      -3.93948485E-10
   29.7299995      -2.88266744E-10
   29.7900009      -1.81303916E-10
   29.8500004      -7.38364786E-11
   29.9099998       3.18731291E-11
   29.9699993       1.33788342E-10
   30.0300007       2.31380679E-10
   30.0900002       3.25669547E-10
   30.1499996       4.18128060E-10
   30.2099991       5.09334963E-10
   30.2700005       5.98375405E-10
   30.3299999       6.83409884E-10
   30.3899994       7.62982955E-10
   30.4500008       8.37107217E-10
   30.5100002       9.07295516E-10
   30.5699997       9.75406755E-10
   30.6299992       1.04196329E-09
   30.6900005       1.10497334E-09
   30.7500000       1.16004706E-09
   30.8099995       1.20186039E-09
   30.8700008       1.22627186E-09
   30.9300003       1.23202870E-09
   30.9899998       1.22119870E-09
   31.0499992       1.19810506E-09
   31.1100006       1.16728305E-09
   31.1700001       1.13143672E-09
   31.2299995       1.09036824E-09
   31.2900009       1.04138420E-09
   31.3500004       9.80987180E-10
   31.4099998       9.07045494E-10
   31.4699993       8.20398027E-10
   31.5300007       7.25095484E-10
   31.5900002       6.27130015E-10
   31.6499996       5.32244082E-10
   31.7099991       4.43880183E-10
   31.7700005       3.62270602E-10
   31.8299999       2.85084845E-10
   31.8899994       2.09235490E-10
   31.9500008       1.32842112E-10
   32.0099983       5.62990418E-11
   32.0699997      -1.80692215E-11
   32.1300011      -8.74591927E-11
   32.1899986      -1.50213730E-10
   32.2500000      -2.06630726E-10
   32.3100014      -2.58498861E-10
   32.3699989      -3.07710635E-10
   32.4300003      -3.54879376E-10
   32.4900017      -3.98880540E-10
   32.5499992      -4.37664682E-10
   32.6100006      -4.69891792E-10
   32.6699982      -4.96409802E-10
   32.7299995      -5.20663956E-10
   32.7900009      -5.47718038E-10
   32.8499985      -5.82350834E-10
   32.9099998      -6.27182972E-10
   32.9700012      -6.81733836E-10
   33.0299988      -7.42749362E-10
   33.0900002      -8.05464140E-10
   33.1500015      -8.65025607E-10
   33.2099991      -9.17381615E-10
   33.2700005      -9.59398005E-10
   33.3300018      -9.88516602E-10
   33.3899994      -1.00252573E-09
   33.4500008      -9.99842209E-10
   33.5099983      -9.80209691E-10
   33.5699997      -9.45264755E-10
   33.6300011      -8.98317420E-10
   33.6899986      -8.43071779E-10
   33.7500000      -7.81688825E-10
   33.8100014      -7.13142656E-10
   33.8699989      -6.32897068E-10
   33.9300003      -5.34387312E-10
   33.9900017      -4.11885526E-10
   34.0499992      -2.63534500E-10
   34.1100006      -9.31136557E-11
   34.1699982       9.03814801E-11
   34.2299995       2.75245882E-10
   34.2900009       4.50567667E-10
   34.3499985       6.09185979E-10
   34.4099998       7.48900608E-10
   34.4700012       8.71625216E-10
   34.5299988       9.81157044E-10
   34.5900002       1.08077380E-09
   34.6500015       1.17174437E-09
   34.7099991       1.25320743E-09
   34.7700005       1.32314015E-09
   34.8300018       1.37969980E-09
   34.8899994       1.42224965E-09
   34.9500008       1.45171919E-09
   35.0099983       1.47033519E-09
   35.0699997       1.48095736E-09
   35.1300011       1.48624291E-09
   35.1899986       1.48778367E-09
   35.2500000       1.48535262E-09
   35.3100014       1.47647383E-09
   35.3699989       1.45659007E-09
   35.4300003       1.41996659E-09
   35.4900017       1.36115719E-09
   35.5499992       1.27651556E-09
   35.6100006       1.16511290E-09
   35.6699982       1.02865672E-09
   35.7299995       8.70499783E-10
   35.7900009       6.94282742E-10
   35.8499985       5.02887676E-10
   35.9099998       2.98115643E-10
   35.9700012       8.10184211E-11
   36.0299988      -1.47534165E-10
   36.0900002      -3.86474547E-10
   36.1500015      -6.34457653E-10
   36.2099991      -8.89849361E-10
   36.2700005      -1.15047671E-09
   36.3300018      -1.41310907E-09
   36.3899994      -1.67304404E-09
   36.4500008      -1.92435334E-09
   36.5099983      -2.16107177E-09
   36.5699997      -2.37899989E-09
   36.6300011      -2.57723576E-09
   36.6899986      -2.75849787E-09
   36.7500000      -2.92784197E-09
   36.8100014      -3.09026871E-09
   36.8699989      -3.24838068E-09
   36.9300003      -3.40126594E-09
   36.9900017      -3.54509133E-09
   37.0499992      -3.67494235E-09
   37.1100006      -3.78678422E-09
   37.1699982      -3.87847798E-09
   37.2299995      -3.94946964E-09
   37.2900009      -3.99961086E-09
   37.3499985      -4.02804590E-09
   37.4099998      -4.03289713E-09
   37.4700012      -4.01186284E-09
   37.5299988      -3.96320265E-09
   37.5900002      -3.88639521E-09
   37.6500015      -3.78210618E-09
   37.7099991      -3.65167896E-09
   37.7700005      -3.49673601E-09
   37.8300018      -3.31940031E-09
   37.8899994      -3.12310755E-09
   37.9500008      -2.91345859E-09
   38.0099983      -2.69835887E-09
   38.0699997      -2.48701348E-09
   38.1300011      -2.28799091E-09
   38.1899986      -2.10714624E-09
   38.2500000      -1.94633443E-09
   38.3100014      -1.80350512E-09
   38.3699989      -1.67412051E-09
   38.4300003      -1.55323832E-09
   38.4900017      -1.43735979E-09
   38.5499992      -1.32531919E-09
   38.6100006      -1.21796484E-09
   38.6699982      -1.11691034E-09
   38.7299995      -1.02299702E-09
   38.7900009      -9.35166944E-10
   38.8499985      -8.50240212E-10
   38.9099998      -7.63680785E-10
   38.9700012      -6.71015465E-10
   39.0299988      -5.69300218E-10
   39.0900002      -4.58020094E-10
   39.1500015      -3.39085593E-10
   39.2099991      -2.16011251E-10
   39.2700005      -9.27201788E-11
   39.3300018       2.74834756E-11
   39.3899994       1.42439047E-10
   39.4500008       2.51181242E-10
   39.5099983       3.53824026E-10
   39.5699997       4.51568866E-10
   39.6300011       5.46851120E-10
   39.6899986       6.43312792E-10
   39.7500000       7.45212336E-10
   39.8100014       8.56174409E-10
   39.8699989       9.77695036E-10
   39.9300003       1.10819076E-09
   39.9900017       1.24330291E-09
   40.0499992       1.37758027E-09
   40.1100006       1.50689239E-09
   40.1699982       1.63042224E-09
   40.2299995       1.75120984E-09
   40.2900009       1.87492999E-09
   40.3499985       2.00749528E-09
   40.4099998       2.15265317E-09
   40.4700012       2.31068431E-09
   40.5299988       2.47868437E-09
   40.5900002       2.65210631E-09
   40.6500015       2.82671486E-09
   40.7099991       3.00006864E-09
   40.7700005       3.17202087E-09
   40.8300018       3.34419981E-09
   40.8899994       3.51878127E-09
   40.9500008       3.69698405E-09
   41.0099983       3.87772570E-09
   41.0699997       4.05686240E-09
   41.1300011       4.22737534E-09
   41.1899986       4.38069270E-09
   41.2500000       4.50891058E-09
   41.3100014       4.60720928E-09
   41.3699989       4.67544092E-09
   41.4300003       4.71807882E-09
   41.4900017       4.74237449E-09
   41.5499992       4.75546846E-09
   41.6100006       4.76175233E-09
   41.6699982       4.76166928E-09
   41.7299995       4.75238782E-09
   41.7900009       4.72980499E-09
   41.8499985       4.69074823E-09
   41.9099998       4.63433381E-09
   41.9700012       4.56210314E-09
   42.0299988       4.47730519E-09
   42.0900002       4.38402692E-09
   42.1500015       4.28663194E-09
   42.2099991       4.18944079E-09
   42.2700005       4.09623269E-09
   42.3300018       4.00928313E-09
   42.3899994       3.92818178E-09
   42.4500008       3.84915477E-09
   42.5099983       3.76561227E-09
   42.5699997       3.67007202E-09
   42.6300011       3.55678087E-09
   42.6899986       3.42384121E-09
   42.7500000       3.27380989E-09
   42.8100014       3.11249204E-09
   42.8699989       2.94655944E-09
   42.9300003       2.78111201E-09
   42.9900017       2.61818123E-09
   43.0499992       2.45656850E-09
   43.1100006       2.29276909E-09
   43.1699982       2.12244111E-09
   43.2299995       1.94193617E-09
   43.2900009       1.74963088E-09
   43.3499985       1.54687596E-09
   43.4099998       1.33828837E-09
   43.4700012       1.13104237E-09
   43.5299988       9.33023547E-10
   43.5900002       7.50252971E-10
   43.6500015       5.84569171E-10
   43.7099991       4.32731795E-10
   43.7700005       2.87600055E-10
   43.8300018       1.41029202E-10
   43.8899994      -1.28235972E-11
   43.9500008      -1.75369066E-10
   44.0099983      -3.43591489E-10
   44.0699997      -5.11974685E-10
   44.1300011      -6.75116185E-10
   44.1899986      -8.29567526E-10
   44.2500000      -9.74106795E-10
   44.3100014      -1.10873066E-09
   44.3699989      -1.23341648E-09
   44.4300003      -1.34765887E-09
   44.4900017      -1.45101642E-09
   44.5499992      -1.54399915E-09
   44.6100006      -1.62826752E-09
   44.6699982      -1.70557235E-09
   44.7299995      -1.77584492E-09
   44.7900009      -1.83564930E-09
   44.8499985      -1.87825067E-09
   44.9099998      -1.89574068E-09
   44.9700012      -1.88244575E-09
   45.0299988      -1.83799820E-09
   45.0900002      -1.76846904E-09
   45.1500015      -1.68486591E-09
   45.2099991      -1.59958791E-09
   45.2700005      -1.52238944E-09
   45.3300018      -1.45757495E-09
   45.3899994      -1.40350487E-09
   45.4500008      -1.35442524E-09
   45.5099983      -1.30368982E-09
   45.5699997      -1.24701283E-09
   45.6300011      -1.18456556E-09
   45.6899986      -1.12131937E-09
   45.7500000      -1.06572751E-09
   45.8100014      -1.02735664E-09
   45.8699989      -1.01429454E-09
   45.9300003      -1.03107078E-09
   45.9900017      -1.07755060E-09
   46.0499992      -1.14893595E-09
   46.1100006      -1.23674793E-09
   46.1699982      -1.33052880E-09
   46.2299995      -1.41995382E-09
   46.2900009      -1.49700796E-09
   46.3499985      -1.55781177E-09
   46.4099998      -1.60359193E-09
   46.4700012      -1.64033109E-09
   46.5299988      -1.67692438E-09
   46.5900002      -1.72221282E-09
   46.6500015      -1.78187232E-09
   46.7099991      -1.85643934E-09
   46.7700005      -1.94146388E-09
   46.8300018      -2.02990580E-09
   46.8899994      -2.11579532E-09
   46.9500008      -2.19746510E-09
   47.0099983      -2.27878338E-09
   47.0699997      -2.36777864E-09
   47.1300011      -2.47337018E-09
   47.1899986      -2.60185695E-09
   47.2500000      -2.75482948E-09
   47.3100014      -2.92929747E-09
   47.3699989      -3.11959991E-09
   47.4300003      -3.31983352E-09
   47.4900017      -3.52554097E-09
   47.5499992      -3.73413256E-09
   47.6100006      -3.94437683E-09
   47.6699982      -4.15572377E-09
   47.7299995      -4.36795178E-09
   47.7900009      -4.58104799E-09
   47.8499985      -4.79480766E-09
   47.9099998      -5.00783948E-09
   47.9700012      -5.21629628E-09
   48.0299988      -5.41324718E-09
   48.0900002      -5.58954216E-09
   48.1500015      -5.73628833E-09
   48.2099991      -5.84797988E-09
   48.2700005      -5.92471938E-09
   48.3300018      -5.97225691E-09
   48.3899994      -5.99967631E-09
   48.4500008      -6.01581363E-09
   48.5099983      -6.02613026E-09
   48.5699997      -6.03140782E-09
   48.6300011      -6.02857542E-09
   48.6899986      -6.01287464E-09
   48.7500000      -5.98012262E-09
   48.8100014      -5.92814642E-09
   48.8699989      -5.85718096E-09
   48.9300003      -5.76959502E-09
   48.9900017      -5.66936187E-09
   49.0499992      -5.56137048E-09
   49.1100006      -5.45040990E-09
   49.1699982      -5.33979172E-09
   49.2299995      -5.23002930E-09
   49.2900009      -5.11834131E-09
   49.3499985      -4.99957586E-09
   49.4099998      -4.86837104E-09
   49.4700012      -4.72152140E-09
   49.5299988      -4.55917260E-09
   49.5900002      -4.38407355E-09
   49.6500015      -4.19929869E-09
   49.7099991      -4.00590050E-09
   49.7700005      -3.80208220E-09
   49.8300018      -3.58451913E-09
   49.8899994      -3.35100814E-09
   49.9500008      -3.10268145E-09
   50.0099983      -2.84424528E-09
   50.0699997      -2.58200683E-09
   50.1300011      -2.32098452E-09
   50.1899986      -2.06305728E-09
   50.2500000      -1.80747495E-09
   50.3100014      -1.55345947E-09
   50.3699989      -1.30319755E-09
   50.4300003      -1.06318443E-09
   50.4900017      -8.42888870E-10
   50.5499992      -6.51372345E-10
   50.6100006      -4.93740326E-10