  -2.400000      0.0000000E+00
  -2.340000      0.0000000E+00
  -2.280000      0.0000000E+00
  -2.220000      0.0000000E+00
  -2.160000      0.0000000E+00
  -2.100000      0.0000000E+00
  -2.040000     -3.8854454E-23
  -1.980000     -2.6789080E-22
  -1.920000     -6.7516724E-22
  -1.860000      3.3231850E-22
  -1.800000      8.3286804E-21
  -1.740000      3.2664568E-20
  -1.680000      7.6470508E-20
  -1.620000      1.1282431E-19
  -1.560000      5.9064244E-20
  -1.500000     -2.1543702E-19
  -1.440000     -8.0531466E-19
  -1.380000     -1.6035344E-18
  -1.320000     -2.1338243E-18
  -1.260000     -1.5470637E-18
  -1.200000      1.0524798E-18
  -1.140000      5.9354055E-18
  -1.080000      1.1981761E-17
  -1.020000      1.6308670E-17
 -0.9600000      1.4790874E-17
 -0.9000000      3.6740687E-18
 -0.8400000     -1.8039985E-17
 -0.7800000     -4.6274628E-17
 -0.7200000     -7.0774427E-17
 -0.6600000     -7.6389898E-17
 -0.6000000     -4.7628120E-17
 -0.5400000      2.3449204E-17
 -0.4800000      1.2751426E-16
 -0.4200000      2.3045289E-16
 -0.3600000      2.7443089E-16
 -0.3000000      1.9408627E-16
 -0.2400000     -5.0189442E-17
 -0.1800000     -4.2987597E-16
 -0.1200000     -8.1694215E-16
 -5.9999999E-02 -9.9047586E-16
  0.0000000E+00 -7.0198830E-16
  5.9999999E-02  2.0303138E-16
  0.1200000      1.6435900E-15
  0.1800000      3.2073049E-15
  0.2400000      4.1722636E-15
  0.3000000      3.6909812E-15
  0.3600000      1.1220752E-15
  0.4200000     -3.5758965E-15
  0.4800000     -9.5310781E-15
  0.5400000     -1.4886990E-14
  0.6000000     -1.7101082E-14
  0.6600000     -1.3651639E-14
  0.7200000     -3.0545465E-15
  0.7800000      1.4070340E-14
  0.8400000      3.4284614E-14
  0.9000000      5.1419301E-14
  0.9600000      5.7795233E-14
   1.020000      4.6571874E-14
   1.080000      1.4723681E-14
   1.140000     -3.4348619E-14
   1.200000     -8.9797988E-14
   1.260000     -1.3487997E-13
   1.320000     -1.5126283E-13
   1.380000     -1.2517629E-13
   1.440000     -5.3467796E-14
   1.500000      5.2772999E-14
   1.560000      1.6886685E-13
   1.620000      2.6199157E-13
   1.680000      3.0023643E-13
   1.740000      2.6265700E-13
   1.800000      1.4715510E-13
   1.860000     -2.6486669E-14
   1.920000     -2.1969618E-13
   1.980000     -3.8382714E-13
   2.040000     -4.7237838E-13
   2.100000     -4.5357297E-13
   2.160000     -3.1994427E-13
   2.220000     -9.2220489E-14
   2.280000      1.8382375E-13
   2.340000      4.4703843E-13
   2.400000      6.3474405E-13
   2.460000      6.9716341E-13
   2.520000      6.0873024E-13
   2.580000      3.7370766E-13
   2.640000      2.5514779E-14
   2.700000     -3.7895362E-13
   2.760000     -7.6783995E-13
   2.820000     -1.0639341E-12
   2.880000     -1.1948900E-12
   2.940000     -1.1044544E-12
   3.000000     -7.6470194E-13
   3.060000     -1.8750076E-13
   3.120000      5.6851680E-13
   3.180000      1.3996578E-12
   3.240000      2.1696280E-12
   3.300000      2.7307677E-12
   3.360000      2.9482616E-12
   3.420000      2.7204820E-12
   3.480000      1.9915350E-12
   3.540000      7.5752778E-13
   3.600000     -9.2746785E-13
   3.660000     -2.9399046E-12
   3.720000     -5.0697333E-12
   3.780000     -7.0069801E-12
   3.840000     -8.3479256E-12
   3.900000     -8.6363078E-12
   3.960000     -7.4451348E-12
   4.020000     -4.4888663E-12
   4.080000      2.5904390E-13
   4.140000      6.4746927E-12
   4.200000      1.3444599E-11
   4.260000      2.0090825E-11
   4.320000      2.5055683E-11
   4.380000      2.6829965E-11
   4.440000      2.3905907E-11
   4.500000      1.4940198E-11
   4.560000     -1.0832732E-12
   4.620000     -2.4702221E-11
   4.680000     -5.5855476E-11
   4.740000     -9.3822408E-11
   4.800000     -1.3725444E-10
   4.860000     -1.8431924E-10
   4.920000     -2.3294999E-10
   4.980000     -2.8115585E-10
   5.040000     -3.2731898E-10
   5.100000     -3.7039494E-10
   5.160000     -4.0995449E-10
   5.220000     -4.4605278E-10
   5.280000     -4.7897020E-10
   5.340000     -5.0891358E-10
   5.400000     -5.3577914E-10
   5.460000     -5.5905131E-10
   5.520000     -5.7785515E-10
   5.580000     -5.9111854E-10
   5.640000     -5.9776267E-10
   5.700000     -5.9683924E-10
   5.760000     -5.8757194E-10
   5.820000     -5.6931526E-10
   5.880000     -5.4148674E-10
   5.940000     -5.0353904E-10
   6.000000     -4.5500961E-10
   6.060000     -3.9563922E-10
   6.120000     -3.2551056E-10
   6.180000     -2.4514854E-10
   6.240000     -1.5554769E-10
   6.300000     -5.8132579E-11
   6.360000      4.5312899E-11
   6.420000      1.5271075E-10
   6.480000      2.6173988E-10
   6.540000      3.6990055E-10
   6.600000      4.7463661E-10
   6.660000      5.7353983E-10
   6.720000      6.6461137E-10
   6.780000      7.4650358E-10
   6.840000      8.1864482E-10
   6.900000      8.8117758E-10
   6.960000      9.3471253E-10
   7.020000      9.7997710E-10
   7.080000      1.0174891E-09
   7.140000      1.0473807E-09
   7.200000      1.0694401E-09
   7.260000      1.0833529E-09
   7.320000      1.0890505E-09
   7.380000      1.0870322E-09
   7.440000      1.0785383E-09
   7.500000      1.0655004E-09
   7.560000      1.0502627E-09
   7.620000      1.0351369E-09
   7.680000      1.0219032E-09
   7.740000      1.0113983E-09
   7.800000      1.0033127E-09
   7.860000      9.9627928E-10
   7.920000      9.8824904E-10
   7.980000      9.7706010E-10
   8.040000      9.6103359E-10
   8.100000      9.3940877E-10
   8.160000      9.1247454E-10
   8.220000      8.8136515E-10
   8.280000      8.4761292E-10
   8.340000      8.1264800E-10
   8.400000      7.7745649E-10
   8.460000      7.4253820E-10
   8.520000      7.0816863E-10
   8.580000      6.7483052E-10
   8.640000      6.4359207E-10
   8.700000      6.1622046E-10
   8.760000      5.9493066E-10
   8.820000      5.8182886E-10
   8.880000      5.7825644E-10
   8.940000      5.8429733E-10
   9.000000      5.9865718E-10
   9.060000      6.1896754E-10
   9.120000      6.4238737E-10
   9.180000      6.6624323E-10
   9.240000      6.8843625E-10
   9.300000      7.0746181E-10
   9.360000      7.2207762E-10
   9.420000      7.3083961E-10
   9.480000      7.3179579E-10
   9.540000      7.2256162E-10
   9.600000      7.0080830E-10
   9.660000      6.6498296E-10
   9.720000      6.1494870E-10
   9.780000      5.5224852E-10
   9.840000      4.7986165E-10
   9.900000      4.0153972E-10
   9.960000      3.2097880E-10
   10.02000      2.4111818E-10
   10.08000      1.6374976E-10
   10.14000      8.9450322E-11
   10.20000      1.7713284E-11
   10.26000     -5.2864987E-11
   10.32000     -1.2440358E-10
   10.38000     -1.9949348E-10
   10.44000     -2.8076899E-10
   10.50000     -3.7023526E-10
   10.56000     -4.6845428E-10
   10.62000     -5.7385546E-10
   10.68000     -6.8248679E-10
   10.74000     -7.8840418E-10
   10.80000     -8.8465590E-10
   10.86000     -9.6456820E-10
   10.92000     -1.0229163E-09
   10.98000     -1.0566361E-09
   11.04000     -1.0649496E-09
   11.10000     -1.0490318E-09
   11.16000     -1.0114996E-09
   11.22000     -9.5598707E-10
   11.28000     -8.8691743E-10
   11.34000     -8.0939189E-10
   11.40000     -7.2900708E-10
   11.46000     -6.5143735E-10
   11.52000     -5.8176119E-10
   11.58000     -5.2367505E-10
   11.64000     -4.7884241E-10
   11.70000     -4.4661497E-10
   11.76000     -4.2424439E-10
   11.82000     -4.0754766E-10
   11.88000     -3.9184178E-10
   11.94000     -3.7289113E-10
   12.00000     -3.4761838E-10
   12.06000     -3.1442041E-10
   12.12000     -2.7306990E-10
   12.18000     -2.2433144E-10
   12.24000     -1.6952217E-10
   12.30000     -1.1024672E-10
   12.36000     -4.8420785E-11
   12.42000      1.3494769E-11
   12.48000      7.2296308E-11
   12.54000      1.2416637E-10
   12.60000      1.6527656E-10
   12.66000      1.9273998E-10
   12.72000      2.0552945E-10
   12.78000      2.0489446E-10
   12.84000      1.9398803E-10
   12.90000      1.7678381E-10
   12.96000      1.5673322E-10
   13.02000      1.3576852E-10
   13.08000      1.1409417E-10
   13.14000      9.0806355E-11
   13.20000      6.4956755E-11
   13.26000      3.6472998E-11
   13.32000      6.4698837E-12
   13.38000     -2.3150261E-11
   13.44000     -5.0523318E-11
   13.50000     -7.4601443E-11
   13.56000     -9.5502523E-11
   13.62000     -1.1432921E-10
   13.68000     -1.3263156E-10
   13.74000     -1.5180145E-10
   13.80000     -1.7260963E-10
   13.86000     -1.9494427E-10
   13.92000     -2.1771471E-10
   13.98000     -2.3892191E-10
   14.04000     -2.5599148E-10
   14.10000     -2.6648830E-10
   14.16000     -2.6918512E-10
   14.22000     -2.6519043E-10
   14.28000     -2.5862074E-10
   14.34000     -2.5631910E-10
   14.40000     -2.6644179E-10
   14.46000     -2.9623867E-10
   14.52000     -3.4978653E-10
   14.58000     -4.2654708E-10
   14.64000     -5.2133942E-10
   14.70000     -6.2575140E-10
   14.76000     -7.3044254E-10
   14.82000     -8.2747020E-10
   14.88000     -9.1182278E-10
   14.94000     -9.8171582E-10
   15.00000     -1.0377015E-09
   15.06000     -1.0810633E-09
   15.12000     -1.1121710E-09
   15.18000     -1.1294269E-09
   15.24000     -1.1291901E-09
   15.30000     -1.1067097E-09
   15.36000     -1.0577400E-09
   15.42000     -9.8025577E-10
   15.48000     -8.7562857E-10
   15.54000     -7.4879247E-10
   15.60000     -6.0729943E-10
   15.66000     -4.5958740E-10
   15.72000     -3.1309214E-10
   15.78000     -1.7289782E-10
   15.84000     -4.1399464E-11
   15.90000      8.0942135E-11
   15.96000      1.9407745E-10
   16.02000      2.9666627E-10
   16.08000      3.8484119E-10
   16.14000      4.5194590E-10
   16.20000      4.8948590E-10
   16.26000      4.8917731E-10
   16.32000      4.4559903E-10
   16.38000      3.5863162E-10
   16.44000      2.3474389E-10
   16.50000      8.6405119E-11
   16.56000     -7.0500918E-11
   16.62000     -2.2057262E-10
   16.68000     -3.5274011E-10
   16.74000     -4.6256324E-10
   16.80000     -5.5203248E-10
   16.86000     -6.2700206E-10
   16.92000     -6.9346762E-10
   16.98000     -7.5441331E-10
   17.04000     -8.0860946E-10
   17.10000     -8.5170482E-10
   17.16000     -8.7880964E-10
   17.22000     -8.8712315E-10
   17.28000     -8.7733648E-10
   17.34000     -8.5335872E-10
   17.40000     -8.2082602E-10
   17.46000     -7.8532558E-10
   17.52000     -7.5111123E-10
   17.58000     -7.2054535E-10
   17.64000     -6.9402895E-10
   17.70000     -6.7010775E-10
   17.76000     -6.4572026E-10
   17.82000     -6.1684358E-10
   17.88000     -5.7973565E-10
   17.94000     -5.3252491E-10
   18.00000     -4.7638521E-10
   18.06000     -4.1542134E-10
   18.12000     -3.5491601E-10
   18.18000     -2.9852890E-10
   18.24000     -2.4580249E-10
   18.30000     -1.9137057E-10
   18.36000     -1.2645426E-10
   18.42000     -4.2016050E-11
   18.48000      6.7951499E-11
   18.54000      2.0454434E-10
   18.60000      3.6416423E-10
   18.66000      5.4036514E-10
   18.72000      7.2610123E-10
   18.78000      9.1521457E-10
   18.84000      1.1027275E-09
   18.90000      1.2843254E-09
   18.96000      1.4557833E-09
   19.02000      1.6128373E-09
   19.08000      1.7514725E-09
   19.14000      1.8682498E-09
   19.20000      1.9604203E-09
   19.26000      2.0259845E-09
   19.32000      2.0640929E-09
   19.38000      2.0759636E-09
   19.44000      2.0658688E-09
   19.50000      2.0412649E-09
   19.56000      2.0112987E-09
   19.62000      1.9838144E-09
   19.68000      1.9620972E-09
   19.74000      1.9431468E-09
   19.80000      1.9187556E-09
   19.86000      1.8792261E-09
   19.92000      1.8180517E-09
   19.98000      1.7352391E-09
   20.04000      1.6376289E-09
   20.10000      1.5361729E-09
   20.16000      1.4417033E-09
   20.22000      1.3613147E-09
   20.28000      1.2968281E-09
   20.34000      1.2454445E-09
   20.40000      1.2015562E-09
   20.46000      1.1584482E-09
   20.52000      1.1092730E-09
   20.58000      1.0475587E-09
   20.64000      9.6790032E-10
   20.70000      8.6709839E-10
   20.76000      7.4525264E-10
   20.82000      6.0589717E-10
   20.88000      4.5463508E-10
   20.94000      2.9670733E-10
   21.00000      1.3480164E-10
   21.06000     -3.1538005E-11
   21.12000     -2.0446336E-10
   21.18000     -3.8521736E-10
   21.24000     -5.7207683E-10
   21.30000     -7.6026385E-10
   21.36000     -9.4400077E-10
   21.42000     -1.1195006E-09
   21.48000     -1.2870631E-09
   21.54000     -1.4510058E-09
   21.60000     -1.6174860E-09
   21.66000     -1.7914953E-09
   21.72000     -1.9746442E-09
   21.78000     -2.1647002E-09
   21.84000     -2.3567008E-09
   21.90000     -2.5446718E-09
   21.96000     -2.7229583E-09
   22.02000     -2.8868177E-09
   22.08000     -3.0326286E-09
   22.14000     -3.1582683E-09
   22.20000     -3.2638312E-09
   22.26000     -3.3522578E-09
   22.32000     -3.4291594E-09
   22.38000     -3.5014502E-09
   22.44000     -3.5751047E-09
   22.50000     -3.6529613E-09
   22.56000     -3.7335530E-09
   22.62000     -3.8114401E-09
   22.68000     -3.8787920E-09
   22.74000     -3.9274983E-09
   22.80000     -3.9510564E-09
   22.86000     -3.9458370E-09
   22.92000     -3.9116594E-09
   22.98000     -3.8517460E-09
   23.04000     -3.7720898E-09
   23.10000     -3.6802323E-09
   23.16000     -3.5836252E-09
   23.22000     -3.4880263E-09
   23.28000     -3.3965195E-09
   23.34000     -3.3095364E-09
   23.40000     -3.2257679E-09
   23.46000     -3.1433993E-09
   23.52000     -3.0610086E-09
   23.58000     -2.9778340E-09
   23.64000     -2.8936389E-09
   23.70000     -2.8086529E-09
   23.76000     -2.7238531E-09
   23.82000     -2.6413263E-09
   23.88000     -2.5641265E-09
   23.94000     -2.4952727E-09
   24.00000     -2.4362301E-09
   24.06000     -2.3858608E-09
   24.12000     -2.3408084E-09
   24.18000     -2.2974644E-09
   24.24000     -2.2544888E-09
   24.30000     -2.2142406E-09
   24.36000     -2.1819340E-09
   24.42000     -2.1627584E-09
   24.48000     -2.1586353E-09
   24.54000     -2.1667290E-09
   24.60000     -2.1808277E-09
   24.66000     -2.1948601E-09
   24.72000     -2.2063351E-09
   24.78000     -2.2174349E-09
   24.84000     -2.2329836E-09
   24.90000     -2.2565785E-09
   24.96000     -2.2874262E-09
   25.02000     -2.3199809E-09
   25.08000     -2.3466358E-09
   25.14000     -2.3617186E-09
   25.20000     -2.3642364E-09
   25.26000     -2.3577467E-09
   25.32000     -2.3477023E-09
   25.38000     -2.3382536E-09
   25.44000     -2.3306777E-09
   25.50000     -2.3242754E-09
   25.56000     -2.3187468E-09
   25.62000     -2.3160338E-09
   25.68000     -2.3201066E-09
   25.74000     -2.3347566E-09
   25.80000     -2.3609650E-09
   25.86000     -2.3957494E-09
   25.92000     -2.4333633E-09
   25.98000     -2.4680875E-09
   26.04000     -2.4968165E-09
   26.10000     -2.5198814E-09
   26.16000     -2.5398226E-09
   26.22000     -2.5591902E-09
   26.28000     -2.5789042E-09
   26.34000     -2.5980667E-09
   26.40000     -2.6149241E-09
   26.46000     -2.6279015E-09
   26.52000     -2.6357954E-09
   26.58000     -2.6371179E-09
   26.64000     -2.6294211E-09
   26.70000     -2.6095235E-09
   26.76000     -2.5748046E-09
   26.82000     -2.5247779E-09
   26.88000     -2.4617597E-09
   26.94000     -2.3899969E-09
   27.00000     -2.3137126E-09
   27.06000     -2.2353297E-09
   27.12000     -2.1550239E-09
   27.18000     -2.0717812E-09
   27.24000     -1.9850250E-09
   27.30000     -1.8954704E-09
   27.36000     -1.8044931E-09
   27.42000     -1.7124963E-09
   27.48000     -1.6176263E-09
   27.54000     -1.5160375E-09
   27.60000     -1.4038247E-09
   27.66000     -1.2794807E-09
   27.72000     -1.1452500E-09
   27.78000     -1.0064003E-09
   27.84000     -8.6880225E-10
   27.90000     -7.3632589E-10
   27.96000     -6.0965583E-10
   28.02000     -4.8712884E-10
   28.08000     -3.6682504E-10
   28.14000     -2.4835875E-10
   28.20000     -1.3313893E-10
   28.26000     -2.3040164E-11
   28.32000      8.1410989E-11
   28.38000      1.8189747E-10
   28.44000      2.8149499E-10
   28.50000      3.8267459E-10
   28.56000      4.8548765E-10
   28.62000      5.8720317E-10
   28.68000      6.8369410E-10
   28.74000      7.7170076E-10
   28.80000      8.5052188E-10
   28.86000      9.2206459E-10
   28.92000      9.8923902E-10
   28.98000      1.0537103E-09
   29.04000      1.1143735E-09
   29.10000      1.1674279E-09
   29.16000      1.2079636E-09
   29.22000      1.2321328E-09
   29.28000      1.2387472E-09
   29.34000      1.2295454E-09
   29.40000      1.2081199E-09
   29.46000      1.1781428E-09
   29.52000      1.1417584E-09
   29.58000      1.0988367E-09
   29.64000      1.0473362E-09
   29.70000      9.8455766E-10
   29.76000      9.0873875E-10
   29.82000      8.2032964E-10
   29.88000      7.2240119E-10
   29.94000      6.1997169E-10
   30.00000      5.1848870E-10
   30.06000      4.2210629E-10
   30.12000      3.3254491E-10
   30.18000      2.4907990E-10
   30.24000      1.6964910E-10
   30.30000      9.2467527E-11
   30.36000      1.7243540E-11
   30.42000     -5.4685426E-11
   30.48000     -1.2133547E-10
   30.54000     -1.8152534E-10
   30.60000     -2.3583202E-10
   30.66000     -2.8638897E-10
   30.72000     -3.3559894E-10
   30.78000     -3.8455214E-10
   30.84000     -4.3218806E-10
   30.90000     -4.7582921E-10
   30.96000     -5.1288673E-10
   31.02000     -5.4279248E-10
   31.08000     -5.6801802E-10
   31.14000     -5.9352218E-10
   31.20000     -6.2484062E-10
   31.26000     -6.6577793E-10
   31.32000     -7.1684619E-10
   31.38000     -7.7513940E-10
   31.44000     -8.3553275E-10
   31.50000     -8.9243385E-10
   31.56000     -9.4117114E-10
   31.62000     -9.7849229E-10
   31.68000     -1.0022867E-09
   31.74000     -1.0110969E-09
   31.80000     -1.0039828E-09
   31.86000     -9.8087805E-10
   31.92000     -9.4305830E-10
   31.98000     -8.9310898E-10
   32.04000     -8.3402657E-10
   32.10000     -7.6767104E-10
   32.16000     -6.9334494E-10
   32.22000     -6.0741934E-10
   32.28000     -5.0449867E-10
   32.34000     -3.7982448E-10
   32.40000     -2.3190369E-10
   32.46000     -6.4118148E-11
   32.52000      1.1550472E-10
   32.58000      2.9632302E-10
   32.64000      4.6804266E-10
   32.70000      6.2335076E-10
   32.76000      7.5920348E-10
   32.82000      8.7644531E-10
   32.88000      9.7819364E-10
   32.94000      1.0678590E-09
   33.00000      1.1476414E-09
   33.06000      1.2179533E-09
   33.12000      1.2777432E-09
   33.18000      1.3253765E-09
   33.24000      1.3596412E-09
   33.30000      1.3805300E-09
   33.36000      1.3895616E-09
   33.42000      1.3895186E-09
   33.48000      1.3835985E-09
   33.54000      1.3741630E-09
   33.60000      1.3615005E-09
   33.66000      1.3431406E-09
   33.72000      1.3141459E-09
   33.78000      1.2684157E-09
   33.84000      1.2005391E-09
   33.90000      1.1074081E-09
   33.96000      9.8888386E-10
   34.02000      8.4728319E-10
   34.08000      6.8606382E-10
   34.14000      5.0847221E-10
   34.20000      3.1682926E-10
   34.26000      1.1265460E-10
   34.32000     -1.0271976E-10
   34.38000     -3.2763783E-10
   34.44000     -5.6009763E-10
   34.50000     -7.9812212E-10
   34.56000     -1.0400534E-09
   34.62000     -1.2843253E-09
   34.68000     -1.5287102E-09
   34.74000     -1.7695573E-09
   34.80000     -2.0017388E-09
   34.86000     -2.2196853E-09
   34.92000     -2.4191926E-09
   34.98000     -2.5990783E-09
   35.04000     -2.7616920E-09
   35.10000     -2.9118414E-09
   35.16000     -3.0545790E-09
   35.22000     -3.1929486E-09
   35.28000     -3.3268170E-09
   35.34000     -3.4532770E-09
   35.40000     -3.5682159E-09
   35.46000     -3.6680528E-09
   35.52000     -3.7506798E-09
   35.58000     -3.8152508E-09
   35.64000     -3.8612074E-09
   35.70000     -3.8873313E-09
   35.76000     -3.8914822E-09
   35.82000     -3.8711172E-09
   35.88000     -3.8241721E-09
   35.94000     -3.7496983E-09
   36.00000     -3.6479346E-09
   36.06000     -3.5199628E-09
   36.12000     -3.3674159E-09
   36.18000     -3.1926473E-09
   36.24000     -2.9993614E-09
   36.30000     -2.7932658E-09
   36.36000     -2.5821374E-09
   36.42000     -2.3749336E-09
   36.48000     -2.1800961E-09
   36.54000     -2.0036732E-09
   36.60000     -1.8480615E-09
   36.66000     -1.7119178E-09
   36.72000     -1.5912703E-09
   36.78000     -1.4813343E-09
   36.84000     -1.3782546E-09
   36.90000     -1.2800815E-09
   36.96000     -1.1866680E-09
   37.02000     -1.0986742E-09
   37.08000     -1.0162432E-09
   37.14000     -9.3802999E-10
   37.20000     -8.6106117E-10
   37.26000     -7.8149087E-10
   37.32000     -6.9588330E-10
   37.38000     -6.0239985E-10
   37.44000     -5.0134019E-10
   37.50000     -3.9483028E-10
   37.56000     -2.8588981E-10
   37.62000     -1.7739384E-10
   37.68000     -7.1405895E-11
   37.74000      3.0955724E-11
   37.80000      1.2933507E-10
   37.86000      2.2402491E-10
   37.92000      3.1614747E-10
   37.98000      4.0797971E-10
   38.04000      5.0297833E-10
   38.10000      6.0510802E-10
   38.16000      7.1750378E-10
   38.22000      8.4103552E-10
   38.28000      9.7361574E-10
   38.34000      1.1108312E-09
   38.40000      1.2477888E-09
   38.46000      1.3813365E-09
   38.52000      1.5115321E-09
   38.58000      1.6415862E-09
   38.64000      1.7763275E-09
   38.70000      1.9200233E-09
   38.76000      2.0746733E-09
   38.82000      2.2395352E-09
   38.88000      2.4119025E-09
   38.94000      2.5885185E-09
   39.00000      2.7668359E-09
   39.06000      2.9456315E-09
   39.12000      3.1249590E-09
   39.18000      3.3057082E-09
   39.24000      3.4889989E-09
   39.30000      3.6754280E-09
   39.36000      3.8641184E-09
   39.42000      4.0517385E-09
   39.48000      4.2320112E-09
   39.54000      4.3963384E-09
   39.60000      4.5357869E-09
   39.66000      4.6439039E-09
   39.72000      4.7191215E-09
   39.78000      4.7654316E-09
   39.84000      4.7907429E-09
   39.90000      4.8035473E-09
   39.96000      4.8094821E-09
   40.02000      4.8094875E-09
   40.08000      4.8003805E-09
   40.14000      4.7773323E-09
   40.20000      4.7367714E-09
   40.26000      4.6781814E-09
   40.32000      4.6041255E-09
   40.38000      4.5189408E-09
   40.44000      4.4271995E-09
   40.50000      4.3328434E-09
   40.56000      4.2390984E-09
   40.62000      4.1485722E-09
   40.68000      4.0628367E-09
   40.74000      3.9814001E-09
   40.80000      3.9007499E-09
   40.86000      3.8144705E-09
   40.92000      3.7149619E-09
   40.98000      3.5962833E-09
   41.04000      3.4567751E-09
   41.10000      3.3000349E-09
   41.16000      3.1336016E-09
   41.22000      2.9659140E-09
   41.28000      2.8029936E-09
   41.34000      2.6463574E-09
   41.40000      2.4929432E-09
   41.46000      2.3368116E-09
   41.52000      2.1716802E-09
   41.58000      1.9932640E-09
   41.64000      1.8007567E-09
   41.70000      1.5972494E-09
   41.76000      1.3891449E-09
   41.82000      1.1846780E-09
   41.88000      9.9174657E-10
   41.94000      8.1551466E-10
   42.00000      6.5658728E-10
   42.06000      5.1064136E-10
   42.12000      3.6995521E-10
   42.18000      2.2640989E-10
   42.24000      7.4692141E-11
   42.30000     -8.5808541E-11
   42.36000     -2.5129893E-10
   42.42000     -4.1579340E-10
   42.48000     -5.7392358E-10
   42.54000     -7.2280526E-10
   42.60000     -8.6213320E-10
   42.66000     -9.9284914E-10
   42.72000     -1.1155744E-09
   42.78000     -1.2299652E-09
   42.84000     -1.3352943E-09
   42.90000     -1.4315404E-09
   42.96000     -1.5198187E-09
   43.02000     -1.6014627E-09
   43.08000     -1.6761366E-09
   43.14000     -1.7402573E-09
   43.20000     -1.7870619E-09
   43.26000     -1.8087729E-09
   43.32000     -1.8000214E-09
   43.38000     -1.7608227E-09
   43.44000     -1.6974969E-09
   43.50000     -1.6209539E-09
   43.56000     -1.5430982E-09
   43.62000     -1.4729838E-09
   43.68000     -1.4143566E-09
   43.74000     -1.3654433E-09
   43.80000     -1.3208037E-09
   43.86000     -1.2742988E-09
   43.92000     -1.2220066E-09
   43.98000     -1.1641701E-09
   44.04000     -1.1057116E-09
   44.10000     -1.0552749E-09
   44.16000     -1.0230750E-09
   44.22000     -1.0181037E-09
   44.28000     -1.0454427E-09
   44.34000     -1.1045069E-09
   44.40000     -1.1888533E-09
   44.46000     -1.2877139E-09
   44.52000     -1.3888058E-09
   44.58000     -1.4815125E-09
   44.64000     -1.5594204E-09
   44.70000     -1.6214874E-09
   44.76000     -1.6716322E-09
   44.82000     -1.7170253E-09
   44.88000     -1.7656661E-09
   44.94000     -1.8239347E-09
   45.00000     -1.8947774E-09
   45.06000     -1.9770607E-09
   45.12000     -2.0663724E-09
   45.18000     -2.1571205E-09
   45.24000     -2.2452369E-09
   45.30000     -2.3304130E-09
   45.36000     -2.4168132E-09
   45.42000     -2.5118239E-09
   45.48000     -2.6232996E-09
   45.54000     -2.7565725E-09
   45.60000     -2.9126159E-09
   45.66000     -3.0881651E-09
   45.72000     -3.2775369E-09
   45.78000     -3.4750478E-09
   45.84000     -3.6767609E-09
   45.90000     -3.8808925E-09
   45.96000     -4.0870924E-09
   46.02000     -4.2954023E-09
   46.08000     -4.5056123E-09
   46.14000     -4.7171387E-09
   46.20000     -4.9289706E-09
   46.26000     -5.1391718E-09
   46.32000     -5.3439422E-09
   46.38000     -5.5369300E-09
   46.44000     -5.7097109E-09
   46.50000     -5.8538134E-09
   46.56000     -5.9636567E-09
   46.62000     -6.0389316E-09
   46.68000     -6.0849916E-09
   46.74000     -6.1107648E-09
   46.80000     -6.1250733E-09
   46.86000     -6.1331558E-09
   46.92000     -6.1350733E-09
   46.98000     -6.1266126E-09
   47.04000     -6.1019692E-09
   47.10000     -6.0566809E-09
   47.16000     -5.9894520E-09
   47.22000     -5.9023484E-09
   47.28000     -5.7997704E-09
   47.34000     -5.6870291E-09
   47.40000     -5.5691314E-09
   47.46000     -5.4499054E-09
   47.52000     -5.3313323E-09
   47.58000     -5.2130664E-09
   47.64000     -5.0924318E-09
   47.70000     -4.9652402E-09
   47.76000     -4.8273718E-09
   47.82000     -4.6764490E-09
   47.88000     -4.5126285E-09
   47.94000     -4.3378887E-09
   48.00000     -4.1541406E-09
   48.06000     -3.9613490E-09
   48.12000     -3.7570129E-09
   48.18000     -3.5375356E-09
   48.24000     -3.3007497E-09
   48.30000     -3.0479528E-09
   48.36000     -2.7840263E-09
   48.42000     -2.5154181E-09
   48.48000     -2.2472317E-09
   48.54000     -1.9813513E-09
   48.60000     -1.7169252E-09
   48.66000     -1.4529844E-09
   48.72000     -1.1915252E-09
   48.78000     -9.3898811E-10
   48.84000     -7.0502526E-10
   48.90000     -4.9910970E-10
   48.96000     -3.2683975E-10
   49.02000     -1.8790759E-10
   49.08000     -7.6648007E-11
   49.14000      1.5391542E-11
   49.20000      9.6361807E-11
   49.26000      1.7193243E-10
   49.32000      2.4460656E-10
   49.38000      3.1420583E-10
   49.44000      3.7883580E-10
   49.50000      4.3588441E-10
   49.56000      4.8303311E-10
   49.62000      5.1936355E-10
   49.68000      5.4630661E-10
   49.74000      5.6777039E-10
   49.80000      5.8884098E-10
   49.86000      6.1316480E-10
   49.92000      6.4011441E-10
   49.98000      6.6337508E-10
   50.04000      6.7211181E-10
   50.10000      6.5453087E-10
   50.16000      6.0221689E-10
   50.22000      5.1305132E-10
   50.28000      3.9125209E-10
   50.34000      2.4469518E-10
   50.40000      8.1172194E-11
   50.46000     -9.4341777E-11
   50.52000     -2.8020208E-10
   50.58000     -4.7670295E-10
   50.64000     -6.8422601E-10
   50.70000     -9.0238261E-10
   50.76000     -1.1305751E-09
   50.82000     -1.3691625E-09
   50.88000     -1.6198864E-09
   50.94000     -1.8847861E-09
   51.00000     -2.1640931E-09
   51.06000     -2.4545850E-09
   51.12000     -2.7498470E-09
   51.18000     -3.0427751E-09
   51.24000     -3.3291763E-09
   51.30000     -3.6104626E-09
   51.36000     -3.8938164E-09
   51.42000     -4.1895540E-09
   51.48000     -4.5069743E-09
   51.54000     -4.8506883E-09
   51.60000     -5.2190239E-09
   51.66000     -5.6048552E-09
   51.72000     -5.9979328E-09
   51.78000     -6.3873040E-09
   51.84000     -6.7627570E-09
   51.90000     -7.1150899E-09
   51.96000     -7.4356654E-09
   52.02000     -7.7158360E-09
   52.08000     -7.9464595E-09
   52.14000     -8.1173370E-09
   52.20000     -8.2164284E-09
   52.26000     -8.2290201E-09
   52.32000     -8.1374099E-09
   52.38000     -7.9216118E-09
   52.44000     -7.5610220E-09
   52.50000     -7.0362773E-09
   52.56000     -6.3302341E-09
   52.62000     -5.4274172E-09
   52.68000     -4.3122474E-09
   52.74000     -2.9671345E-09
   52.80000     -1.3716440E-09
   52.86000      4.9675170E-10
   52.92000      2.6608713E-09
   52.98000      5.1421232E-09
   53.04000      7.9598319E-09
   53.10000      1.1131633E-08
   53.16000      1.4674149E-08
   53.22000      1.8602949E-08
   53.28000      2.2931500E-08
   53.34000      2.7669746E-08
   53.40000      3.2823309E-08
   53.46000      3.8393985E-08
   53.52000      4.4381057E-08
   53.58000      5.0782361E-08
   53.64000      5.7593972E-08
   53.70000      6.4808503E-08
   53.76000      7.2412959E-08
   53.82000      8.0387593E-08
   53.88000      8.8706429E-08
   53.94000      9.7338713E-08
   54.00000      1.0625006E-07
   54.06000      1.1540199E-07
   54.12000      1.2475007E-07
   54.18000      1.3424193E-07
   54.24000      1.4381655E-07
   54.30000      1.5340531E-07
   54.36000      1.6293417E-07
   54.42000      1.7232533E-07
   54.48000      1.8149761E-07
   54.54000      1.9036574E-07
   54.60000      1.9884030E-07
   54.66000      2.0682924E-07
   54.72000      2.1424081E-07
   54.78000      2.2098639E-07
   54.84000      2.2698116E-07
   54.90000      2.3214231E-07
   54.96000      2.3638586E-07
   55.02000      2.3962494E-07
   55.08000      2.4177112E-07
   55.14000      2.4273845E-07
   55.20000      2.4244807E-07
   55.26000      2.4083045E-07
   55.32000      2.3782407E-07
   55.38000      2.3337233E-07
   55.44000      2.2742100E-07
   55.50000      2.1991879E-07
   55.56000      2.1082107E-07