 -0.750000000       0.00000000    
 -0.689999998       0.00000000    
 -0.629999995       0.00000000    
 -0.569999993       0.00000000    
 -0.509999990       0.00000000    
 -0.449999988       0.00000000    
 -0.389999986       2.66298868E-23
 -0.330000013       2.24363578E-22
 -0.270000011       8.23601835E-22
 -0.209999993       1.28112192E-21
 -0.150000006      -1.91638724E-21
  -9.00000036E-02  -1.64209052E-20
  -2.99999993E-02  -4.65210932E-20
   2.99999993E-02  -6.88331626E-20
   9.00000036E-02   3.44903594E-22
  0.150000006       3.01671503E-19
  0.209999993       9.22435527E-19
  0.270000011       1.64832064E-18
  0.330000013       1.69105930E-18
  0.389999986      -3.01222602E-19
  0.449999988      -5.58256544E-18
  0.509999990      -1.39056555E-17
  0.569999993      -2.19305367E-17
  0.629999995      -2.26926628E-17
  0.689999998      -7.51655135E-18
  0.750000000       2.91557972E-17
  0.810000002       8.34323747E-17
  0.870000005       1.37477127E-16
  0.930000007       1.60805645E-16
  0.990000010       1.19618760E-16
   1.04999995      -7.36424176E-18
   1.11000001      -2.12333610E-16
   1.16999996      -4.49138691E-16
   1.23000002      -6.38018144E-16
   1.28999996      -6.85814625E-16
   1.35000002      -5.16307398E-16
   1.40999997      -1.00075302E-16
   1.47000003       5.27125703E-16
   1.52999997       1.26315101E-15
   1.59000003       1.95248146E-15
   1.64999998       2.40430641E-15
   1.71000004       2.40879632E-15
   1.76999998       1.75703390E-15
   1.83000004       2.85309019E-16
   1.88999999      -2.03287611E-15
   1.95000005      -4.94865066E-15
   2.00999999      -7.80752196E-15
   2.06999993      -9.53532094E-15
   2.13000011      -8.85784874E-15
   2.19000006      -4.79485192E-15
   2.25000000       2.69157721E-15
   2.30999994       1.21891505E-14
   2.36999989       2.08350640E-14
   2.43000007       2.50581331E-14
   2.49000001       2.19597019E-14
   2.54999995       1.08226662E-14
   2.60999990      -6.00285982E-15
   2.67000008      -2.34597091E-14
   2.73000002      -3.54890711E-14
   2.78999996      -3.74802762E-14
   2.84999990      -2.83642941E-14
   2.91000009      -1.12787248E-14
   2.97000003       7.64909800E-15
   3.02999997       2.19267997E-14
   3.08999991       2.75130142E-14
   3.15000010       2.44723827E-14
   3.21000004       1.66782769E-14
   3.26999998       9.72653947E-15
   3.32999992       8.05934231E-15
   3.39000010       1.26065176E-14
   3.45000005       1.99552899E-14
   3.50999999       2.34051754E-14
   3.56999993       1.56022436E-14
   3.63000011      -8.02035084E-15
   3.69000006      -4.60503014E-14
   3.75000000      -8.93740648E-14
   3.80999994      -1.22111170E-13
   3.86999989      -1.25876103E-13
   3.93000007      -8.68326407E-14
   3.99000001      -3.34832378E-15
   4.05000019       1.09215764E-13
   4.11000013       2.19858799E-13
   4.17000008       2.90529590E-13
   4.23000002       2.89510576E-13
   4.28999996       2.04105260E-13
   4.34999990       4.66327314E-14
   4.40999985      -1.49334213E-13
   4.46999979      -3.40419994E-13
   4.53000021      -4.86170132E-13
   4.59000015      -5.56111960E-13
   4.65000010      -5.28471960E-13
   4.71000004      -3.84646823E-13
   4.76999998      -1.08283892E-13
   4.82999992       3.03529120E-13
   4.88999987       8.17597184E-13
   4.94999981       1.34202740E-12
   5.01000023       1.72201576E-12
   5.07000017       1.76895911E-12
   5.13000011       1.32355888E-12
   5.19000006       3.34202799E-13
   5.25000000      -1.08244642E-12
   5.30999994      -2.63194414E-12
   5.36999989      -3.90021912E-12
   5.42999983      -4.46836882E-12
   5.48999977      -4.04691124E-12
   5.55000019      -2.58036539E-12
   5.61000013      -2.81834045E-13
   5.67000008       2.41635249E-12
   5.73000002       4.97747460E-12
   5.78999996       6.89813311E-12
   5.84999990       7.82042053E-12
   5.90999985       7.58396644E-12
   5.96999979       6.20920980E-12
   6.03000021       3.82906467E-12
   6.09000015       6.01224745E-13
   6.15000010      -3.36675457E-12
   6.21000004      -8.05937608E-12
   6.26999998      -1.35577756E-11
   6.32999992      -2.00144415E-11
   6.38999987      -2.76096541E-11
   6.44999981      -3.64994493E-11
   6.51000023      -4.67622885E-11
   6.57000017      -5.83522466E-11
   6.63000011      -7.10700596E-11
   6.69000006      -8.45652021E-11
   6.75000000      -9.83761614E-11
   6.80999994      -1.12000985E-10
   6.86999989      -1.24971311E-10
   6.92999983      -1.36892178E-10
   6.98999977      -1.47418314E-10
   7.05000019      -1.56167176E-10
   7.11000013      -1.62608219E-10
   7.17000008      -1.65995856E-10
   7.23000002      -1.65409367E-10
   7.28999996      -1.59919286E-10
   7.34999990      -1.48833681E-10
   7.40999985      -1.31921238E-10
   7.46999979      -1.09497210E-10
   7.53000021      -8.23083754E-11
   7.59000015      -5.12484048E-11
   7.65000010      -1.70304829E-11
   7.71000004       2.00144033E-11
   7.76999998       5.98866859E-11
   7.82999992       1.02604765E-10
   7.88999987       1.47756724E-10
   7.94999981       1.94134708E-10
   8.01000023       2.39659764E-10
   8.06999969       2.81690227E-10
   8.13000011       3.17638693E-10
   8.18999958       3.45680345E-10
   8.25000000       3.65289854E-10
   8.31000042       3.77419762E-10
   8.36999989       3.84293680E-10
   8.43000031       3.88953342E-10
   8.48999977       3.94788702E-10
   8.55000019       4.05254830E-10
   8.60999966       4.23851232E-10
   8.67000008       4.54283250E-10
   8.72999954       5.00613717E-10
   8.78999996       5.67205005E-10
   8.85000038       6.58339716E-10
   8.90999985       7.77550357E-10
   8.97000027       9.26807797E-10
   9.02999973       1.10576714E-09
   9.09000015       1.31123812E-09
   9.14999962       1.53696333E-09
   9.21000004       1.77370696E-09
   9.27000046       2.00961980E-09
   9.32999992       2.23084973E-09
   9.39000034       2.42240006E-09
   9.44999981       2.56924038E-09
   9.51000023       2.65763500E-09
   9.56999969       2.67657985E-09
   9.63000011       2.61914446E-09
   9.68999958       2.48348209E-09
   9.75000000       2.27329733E-09
   9.81000042       1.99765982E-09
   9.86999989       1.67018976E-09
   9.93000031       1.30775035E-09
   9.98999977       9.28863264E-10
   10.0500002       5.52060064E-10
   10.1099997       1.94360514E-10
   10.1700001      -1.29993516E-10
   10.2299995      -4.10463358E-10
   10.2900000      -6.40762554E-10
   10.3500004      -8.19033508E-10
   10.4099998      -9.47694589E-10
   10.4700003      -1.03302433E-09
   10.5299997      -1.08454168E-09
   10.5900002      -1.11421050E-09
   10.6499996      -1.13544452E-09
   10.7100000      -1.16187648E-09
   10.7700005      -1.20591559E-09
   10.8299999      -1.27723276E-09
   10.8900003      -1.38147027E-09
   10.9499998      -1.51954571E-09
   11.0100002      -1.68785796E-09
   11.0699997      -1.87947324E-09
   11.1300001      -2.08603934E-09
   11.1899996      -2.29989472E-09
   11.2500000      -2.51572585E-09
   11.3100004      -2.73127032E-09
   11.3699999      -2.94691249E-09
   11.4300003      -3.16442472E-09
   11.4899998      -3.38540240E-09
   11.5500002      -3.61000008E-09
   11.6099997      -3.83638765E-09
   11.6700001      -4.06100531E-09
   11.7299995      -4.27938174E-09
   11.7900000      -4.48709203E-09
   11.8500004      -4.68043160E-09
   11.9099998      -4.85656759E-09
   11.9700003      -5.01313124E-09
   12.0299997      -5.14746512E-09
   12.0900002      -5.25584598E-09
   12.1499996      -5.33305267E-09
   12.2100000      -5.37254152E-09
   12.2700005      -5.36732969E-09
   12.3299999      -5.31140687E-09
   12.3900003      -5.20126520E-09
   12.4499998      -5.03702324E-09
   12.5100002      -4.82265561E-09
   12.5699997      -4.56517446E-09
   12.6300001      -4.27299485E-09
   12.6899996      -3.95410549E-09
   12.7500000      -3.61477848E-09
   12.8100004      -3.25935212E-09
   12.8699999      -2.89115643E-09
   12.9300003      -2.51413601E-09
   12.9899998      -2.13441376E-09
   13.0500002      -1.76106518E-09
   13.1099997      -1.40572731E-09
   13.1700001      -1.08114651E-09
   13.2299995      -7.99170174E-10
   13.2900000      -5.68820491E-10
   13.3500004      -3.94966643E-10
   13.4099998      -2.77838336E-10
   13.4700003      -2.13353279E-10
   13.5299997      -1.94060157E-10
   13.5900002      -2.10441706E-10
   13.6499996      -2.52323495E-10
   13.7100000      -3.10156428E-10
   13.7700005      -3.75986742E-10
   13.8299999      -4.44018655E-10
   13.8900003      -5.10809062E-10
   13.9499998      -5.75262116E-10
   14.0100002      -6.38615216E-10
   14.0699997      -7.04486081E-10
   14.1300001      -7.78832498E-10
   14.1899996      -8.69507577E-10
   14.2500000      -9.85132087E-10
   14.3100004      -1.13328524E-09
   14.3699999      -1.31842037E-09
   14.4300003      -1.54019464E-09
   14.4899998      -1.79286286E-09
   14.5500002      -2.06598649E-09
   14.6099997      -2.34614728E-09
   14.6700001      -2.61893796E-09
   14.7299995      -2.87046764E-09
   14.7900000      -3.08799408E-09
   14.8500004      -3.25983462E-09
   14.9099998      -3.37511508E-09
   14.9700003      -3.42392648E-09
   15.0299997      -3.39812467E-09
   15.0900002      -3.29254002E-09
   15.1499996      -3.10606008E-09
   15.2100000      -2.84209634E-09
   15.2700005      -2.50828225E-09
   15.3299999      -2.11563544E-09
   15.3900003      -1.67762448E-09
   15.4499998      -1.20950117E-09
   15.5100002      -7.27975957E-10
   15.5699997      -2.51038551E-10
   15.6300001       2.02392894E-10
   15.6899996       6.13205819E-10
   15.7500000       9.63207514E-10
   15.8100004       1.23640909E-09
   15.8699999       1.42016932E-09
   15.9300003       1.50591306E-09
   15.9899998       1.48924140E-09
   16.0499992       1.36940415E-09
   16.1100006       1.14828413E-09
   16.1700001       8.29244617E-10
   16.2299995       4.16322865E-10
   16.2900009      -8.57737978E-11
   16.3500004      -6.70685507E-10
   16.4099998      -1.32871536E-09
   16.4699993      -2.04519668E-09
   16.5300007      -2.79985146E-09
   16.5900002      -3.56781826E-09
   16.6499996      -4.32233627E-09
   16.7099991      -5.03829245E-09
   16.7700005      -5.69533620E-09
   16.8299999      -6.27937302E-09
   16.8899994      -6.78190126E-09
   16.9500008      -7.19760562E-09
   17.0100002      -7.52134000E-09
   17.0699997      -7.74585818E-09
   17.1299992      -7.86125653E-09
   17.1900005      -7.85636711E-09
   17.2500000      -7.72156827E-09
   17.3099995      -7.45203099E-09
   17.3700008      -7.05029146E-09
   17.4300003      -6.52733556E-09
   17.4899998      -5.90176352E-09
   17.5499992      -5.19717913E-09
   17.6100006      -4.43842918E-09
   17.6700001      -3.64774033E-09
   17.7299995      -2.84191870E-09
   17.7900009      -2.03152850E-09
   17.8500004      -1.22229227E-09
   17.9099998      -4.18094975E-10
   17.9699993       3.75714210E-10
   18.0300007       1.15019105E-09
   18.0900002       1.89276483E-09
   18.1499996       2.58924260E-09
   18.2099991       3.22679350E-09
   18.2700005       3.79639431E-09
   18.3299999       4.29352642E-09
   18.3899994       4.71685668E-09
   18.4500008       5.06568343E-09
   18.5100002       5.33759303E-09
   18.5699997       5.52766544E-09
   18.6299992       5.62980462E-09
   18.6900005       5.63973490E-09
   18.7500000       5.55839685E-09
   18.8099995       5.39425571E-09
   18.8700008       5.16347720E-09
   18.9300003       4.88777996E-09
   18.9899998       4.59065674E-09
   19.0499992       4.29325953E-09
   19.1100006       4.01130462E-09
   19.1700001       3.75390563E-09
   19.2299995       3.52452223E-09
   19.2900009       3.32339400E-09
   19.3500004       3.15034887E-09
   19.4099998       3.00680214E-09
   19.4699993       2.89620750E-09
   19.5300007       2.82293189E-09
   19.5900002       2.79024537E-09
   19.6499996       2.79849233E-09
   19.7099991       2.84439650E-09
   19.7700005       2.92192492E-09
   19.8299999       3.02441294E-09
   19.8899994       3.14710524E-09
   19.9500008       3.28909255E-09
   20.0100002       3.45388451E-09
   20.0699997       3.64839048E-09
   20.1299992       3.88067534E-09
   20.1900005       4.15725943E-09
   20.2500000       4.48085480E-09
   20.3099995       4.84926721E-09
   20.3700008       5.25577626E-09
   20.4300003       5.69086644E-09
   20.4899998       6.14471807E-09
   20.5499992       6.60964528E-09
   20.6100006       7.08169301E-09
   20.6700001       7.56091634E-09
   20.7299995       8.05032041E-09
   20.7900009       8.55392734E-09
   20.8500004       9.07466102E-09
   20.9099998       9.61269553E-09
   20.9699993       1.01646238E-08
   21.0300007       1.07234523E-08
   21.0900002       1.12791545E-08
   21.1499996       1.18194832E-08
   21.2099991       1.23308652E-08
   21.2700005       1.27993376E-08
   21.3299999       1.32115643E-08
   21.3899994       1.35559590E-08
   21.4500008       1.38237759E-08
   21.5100002       1.40100029E-08
   21.5699997       1.41138088E-08
   21.6299992       1.41384007E-08
   21.6900005       1.40901948E-08
   21.7500000       1.39773819E-08
   21.8099995       1.38080942E-08
   21.8700008       1.35885578E-08
   21.9300003       1.33217339E-08
   21.9899998       1.30068836E-08
   22.0499992       1.26402204E-08
   22.1100006       1.22164332E-08
   22.1700001       1.17305134E-08
   22.2299995       1.11792247E-08
   22.2900009       1.05618003E-08
   22.3500004       9.87990401E-09
   22.4099998       9.13722609E-09
   22.4699993       8.33914182E-09
   22.5300007       7.49253193E-09
   22.5900002       6.60551347E-09
   22.6499996       5.68666980E-09
   22.7099991       4.74367701E-09
   22.7700005       3.78177267E-09
   22.8299999       2.80290302E-09
   22.8899994       1.80629167E-09
   22.9500008       7.90477905E-10
   23.0100002      -2.43990522E-10
   23.0699997      -1.29251987E-09
   23.1299992      -2.34614950E-09
   23.1900005      -3.39311090E-09
   23.2500000      -4.42141879E-09
   23.3099995      -5.42116529E-09
   23.3700008      -6.38550635E-09
   23.4300003      -7.31023997E-09
   23.4899998      -8.19271850E-09
   23.5499992      -9.03106034E-09
   23.6100006      -9.82416903E-09
   23.6700001      -1.05722355E-08
   23.7299995      -1.12769545E-08
   23.7900009      -1.19407755E-08
   23.8500004      -1.25653239E-08
   23.9099998      -1.31497311E-08
   23.9699993      -1.36898848E-08
   24.0300007      -1.41790260E-08
   24.0900002      -1.46093670E-08
   24.1499996      -1.49737946E-08
   24.2099991      -1.52667905E-08
   24.2700005      -1.54843409E-08
   24.3299999      -1.56232680E-08
   24.3899994      -1.56807847E-08
   24.4500008      -1.56546847E-08
   24.5100002      -1.55441313E-08
   24.5699997      -1.53504729E-08
   24.6299992      -1.50775925E-08
   24.6900005      -1.47315866E-08
   24.7500000      -1.43200269E-08
   24.8099995      -1.38511176E-08
   24.8700008      -1.33329090E-08
   24.9300003      -1.27724924E-08
   24.9899998      -1.21751116E-08
   25.0499992      -1.15434124E-08
   25.1100006      -1.08772724E-08
   25.1700001      -1.01746265E-08
   25.2299995      -9.43314316E-09
   25.2900009      -8.65200267E-09
   25.3500004      -7.83276111E-09
   25.4099998      -6.97871938E-09
   25.4699993      -6.09313977E-09
   25.5300007      -5.17750065E-09
   25.5900002      -4.23106350E-09
   25.6499996      -3.25230154E-09
   25.7099991      -2.24154917E-09
   25.7700005      -1.20344468E-09
   25.8299999      -1.47832691E-10
   25.8899994       9.11262676E-10
   25.9500008       1.95788630E-09
   26.0100002       2.97639891E-09
   26.0699997       3.95286825E-09
   26.1299992       4.87564034E-09
   26.1900005       5.73575587E-09
   26.2500000       6.52778986E-09
   26.3099995       7.25090654E-09
   26.3700008       7.90922083E-09
   26.4300003       8.51053095E-09
   26.4899998       9.06338204E-09
   26.5499992       9.57361568E-09
   26.6100006       1.00421476E-08
   26.6700001       1.04652145E-08
   26.7299995       1.08368861E-08
   26.7900009       1.11522738E-08
   26.8500004       1.14094485E-08
   26.9099998       1.16089414E-08
   26.9699993       1.17512853E-08
   27.0300007       1.18341719E-08
   27.0900002       1.18508785E-08
   27.1499996       1.17905721E-08
   27.2099991       1.16397976E-08
   27.2700005       1.13839063E-08
   27.3299999       1.10076561E-08
   27.3899994       1.04953166E-08
   27.4500008       9.83134818E-09
   27.5100002       9.00250630E-09
   27.5699997       8.00108513E-09
   27.6299992       6.82793599E-09
   27.6900005       5.49363310E-09
   27.7500000       4.01709643E-09
   27.8099995       2.42244980E-09
   27.8700008       7.35911054E-10
   27.9300003      -1.01566389E-09
   27.9899998      -2.80420442E-09
   28.0499992      -4.59885774E-09
   28.1100006      -6.36512398E-09
   28.1700001      -8.06583866E-09
   28.2299995      -9.66392388E-09
   28.2900009      -1.11257235E-08
   28.3500004      -1.24236497E-08
   28.4099998      -1.35375080E-08
   28.4699993      -1.44548133E-08
   28.5300007      -1.51708139E-08
   28.5900002      -1.56885296E-08
   28.6499996      -1.60184790E-08
   28.7099991      -1.61773848E-08
   28.7700005      -1.61856928E-08
   28.8299999      -1.60645488E-08
   28.8899994      -1.58335194E-08
   28.9500008      -1.55100466E-08
   29.0100002      -1.51104960E-08
   29.0699997      -1.46515422E-08
   29.1299992      -1.41502490E-08
   29.1900005      -1.36220812E-08
   29.2500000      -1.30775524E-08
   29.3099995      -1.25193420E-08
   29.3700008      -1.19416246E-08
   29.4300003      -1.13321175E-08
   29.4899998      -1.06757581E-08
   29.5499992      -9.95808502E-09
   29.6100006      -9.16683085E-09
   29.6700001      -8.29160118E-09
   29.7299995      -7.32285299E-09
   29.7900009      -6.25165697E-09
   29.8500004      -5.07099385E-09
   29.9099998      -3.77804721E-09
   29.9699993      -2.37617681E-09
   30.0300007      -8.75505668E-10
   30.0900002       7.07952030E-10
   30.1499996       2.35374986E-09
   30.2099991       4.03801703E-09
   30.2700005       5.73369308E-09
   30.3299999       7.41062900E-09
   30.3899994       9.03660080E-09
   30.4500008       1.05797611E-08
   30.5100002       1.20119523E-08
   30.5699997       1.33114666E-08
   30.6299992       1.44639500E-08
   30.6900005       1.54611737E-08
   30.7500000       1.62986602E-08
   30.8099995       1.69737451E-08
   30.8700008       1.74852222E-08
   30.9300003       1.78344788E-08
   30.9899998       1.80268920E-08
   31.0499992       1.80721500E-08
   31.1100006       1.79828028E-08
   31.1700001       1.77716863E-08
   31.2299995       1.74495316E-08
   31.2900009       1.70240160E-08
   31.3500004       1.65005041E-08
   31.4099998       1.58836837E-08
   31.4699993       1.51788857E-08
   31.5300007       1.43922501E-08
   31.5900002       1.35298137E-08
   31.6499996       1.25964057E-08
   31.7099991       1.15953132E-08
   31.7700005       1.05292024E-08
   31.8299999       9.40194411E-09
   31.8899994       8.22045543E-09
   31.9500008       6.99563563E-09
   32.0099983       5.74192160E-09
   32.0699997       4.47560611E-09
   32.1300011       3.21255333E-09
   32.1899986       1.96609307E-09
   32.2500000       7.45805528E-10
   32.3100014      -4.42409803E-10
   32.3699989      -1.59502511E-09
   32.4300003      -2.70884648E-09
   32.4900017      -3.77912457E-09
   32.5499992      -4.79875162E-09
   32.6100006      -5.75907499E-09
   32.6699982      -6.65213884E-09
   32.7299995      -7.47338191E-09
   32.7900009      -8.22349566E-09
   32.8499985      -8.90842955E-09
   32.9099998      -9.53739754E-09
   32.9700012      -1.01196376E-08
   33.0299988      -1.06611671E-08
   33.0900002      -1.11626202E-08
   33.1500015      -1.16186465E-08
   33.2099991      -1.20187016E-08
   33.2700005      -1.23488384E-08
   33.3300018      -1.25941355E-08
   33.3899994      -1.27415882E-08
   33.4500008      -1.27831532E-08
   33.5099983      -1.27182682E-08
   33.5699997      -1.25548709E-08
   33.6300011      -1.23081714E-08
   33.6899986      -1.19972814E-08
   33.7500000      -1.16409344E-08
   33.8100014      -1.12541532E-08
   33.8699989      -1.08473426E-08
   33.9300003      -1.04279181E-08
   33.9900017      -1.00031343E-08
   34.0499992      -9.58202762E-09
   34.1100006      -9.17503673E-09
   34.1699982      -8.79143336E-09
   34.2299995      -8.43621351E-09
   34.2900009      -8.10851386E-09
   34.3499985      -7.80265275E-09
   34.4099998      -7.51117835E-09
   34.4700012      -7.22803239E-09
   34.5299988      -6.94998192E-09
   34.5900002      -6.67578703E-09
   34.6500015      -6.40421982E-09
   34.7099991      -6.13279694E-09
   34.7700005      -5.85846571E-09
   34.8300018      -5.57985080E-09
   34.8899994      -5.29934985E-09
   34.9500008      -5.02325515E-09
   35.0099983      -4.75944839E-09
   35.0699997      -4.51401849E-09
   35.1300011      -4.28912594E-09
   35.1899986      -4.08378487E-09
   35.2500000      -3.89730603E-09
   35.3100014      -3.73320752E-09
   35.3699989      -3.60084518E-09
   35.4300003      -3.51326346E-09
   35.4900017      -3.48208373E-09
   35.5499992      -3.51213081E-09
   35.6100006      -3.59872554E-09
   35.6699982      -3.72903841E-09
   35.7299995      -3.88659371E-09
   35.7900009      -4.05644629E-09
   35.8499985      -4.22857438E-09
   35.9099998      -4.39847936E-09
   35.9700012      -4.56574645E-09
   36.0299988      -4.73218886E-09
   36.0900002      -4.90075669E-09
   36.1500015      -5.07520204E-09
   36.2099991      -5.25957855E-09
   36.2700005      -5.45679590E-09
   36.3300018      -5.66647129E-09
   36.3899994      -5.88339688E-09
   36.4500008      -6.09806339E-09
   36.5099983      -6.29963282E-09
   36.5699997      -6.48012710E-09
   36.6300011      -6.63755495E-09
   36.6899986      -6.77605971E-09
   36.7500000      -6.90274415E-09
   36.8100014      -7.02279790E-09
   36.8699989      -7.13556769E-09
   36.9300003      -7.23370652E-09
   36.9900017      -7.30584704E-09
   37.0499992      -7.34139993E-09
   37.1100006      -7.33507788E-09
   37.1699982      -7.28911509E-09
   37.2299995      -7.21243643E-09
   37.2900009      -7.11742221E-09
   37.3499985      -7.01569602E-09
   37.4099998      -6.91438551E-09
   37.4700012      -6.81384282E-09
   37.5299988      -6.70729872E-09
   37.5900002      -6.58253274E-09
   37.6500015      -6.42529230E-09
   37.7099991      -6.22369312E-09
   37.7700005      -5.97230088E-09
   37.8300018      -5.67436720E-09
   37.8899994      -5.34116307E-09
   37.9500008      -4.98849095E-09
   38.0099983      -4.63179495E-09
   38.0699997      -4.28198677E-09
   38.1300011      -3.94373600E-09
   38.1899986      -3.61662700E-09
   38.2500000      -3.29808092E-09
   38.3100014      -2.98620551E-09
   38.3699989      -2.68118994E-09
   38.4300003      -2.38507569E-09
   38.4900017      -2.10086415E-09
   38.5499992      -1.83210735E-09
   38.6100006      -1.58331115E-09
   38.6699982      -1.36035838E-09
   38.7299995      -1.16969967E-09
   38.7900009      -1.01575626E-09
   38.8499985      -8.97458996E-10
   38.9099998      -8.06026246E-10
   38.9700012      -7.25970339E-10
   39.0299988      -6.39753306E-10
   39.0900002      -5.34323752E-10
   39.1500015      -4.06335576E-10
   39.2099991      -2.63198241E-10
   39.2700005      -1.19140767E-10
   39.3300018       1.19138111E-11
   39.3899994       1.23185420E-10
   39.4500008       2.18301169E-10
   39.5099983       3.09588188E-10
   39.5699997       4.12460371E-10
   39.6300011       5.38650569E-10
   39.6899986       6.91208424E-10
   39.7500000       8.63019822E-10
   39.8100014       1.03896680E-09
   39.8699989       1.20061128E-09
   39.9300003       1.33183631E-09
   39.9900017       1.42400436E-09
   40.0499992       1.47945756E-09
   40.1100006       1.51238677E-09
   40.1699982       1.54637769E-09
   40.2299995       1.60865243E-09
   40.2900009       1.72220249E-09
   40.3499985       1.89823002E-09
   40.4099998       2.13182338E-09
   40.4700012       2.40301268E-09
   40.5299988       2.68337486E-09
   40.5900002       2.94599700E-09
   40.6500015       3.17503379E-09
   40.7099991       3.37114225E-09
   40.7700005       3.55075103E-09
   40.8300018       3.73966369E-09
   40.8899994       3.96367872E-09
   40.9500008       4.23984092E-09
   41.0099983       4.57138372E-09
   41.0699997       4.94779639E-09
   41.1300011       5.34958966E-09
   41.1899986       5.75586778E-09
   41.2500000       6.15217255E-09
   41.3100014       6.53614629E-09
   41.3699989       6.91929225E-09
   41.4300003       7.32423988E-09
   41.4900017       7.77821363E-09
   41.5499992       8.30464320E-09
   41.6100006       8.91555718E-09
   41.6699982       9.60732649E-09
   41.7299995       1.03612736E-08
   41.7900009       1.11490097E-08
   41.8499985       1.19406360E-08
   41.9099998       1.27129063E-08
   41.9700012       1.34545051E-08
   42.0299988       1.41666723E-08
   42.0900002       1.48591655E-08
   42.1500015       1.55431632E-08
   42.2099991       1.62237566E-08
   42.2700005       1.68947647E-08
   42.3300018       1.75378432E-08
   42.3899994       1.81263946E-08
   42.4500008       1.86332301E-08
   42.5099983       1.90395042E-08
   42.5699997       1.93418508E-08
   42.6300011       1.95549390E-08
   42.6899986       1.97080947E-08
   42.7500000       1.98367154E-08
   42.8100014       1.99711145E-08
   42.8699989       2.01266577E-08
   42.9300003       2.02986552E-08
   42.9900017       2.04638262E-08
   43.0499992       2.05877324E-08
   43.1100006       2.06353814E-08
   43.1699982       2.05811990E-08
   43.2299995       2.04149906E-08
   43.2900009       2.01422008E-08
   43.3499985       1.97789021E-08
   43.4099998       1.93436804E-08
   43.4700012       1.88494269E-08
   43.5299988       1.82978397E-08
   43.5900002       1.76783495E-08
   43.6500015       1.69717644E-08
   43.7099991       1.61574363E-08
   43.7700005       1.52216817E-08
   43.8300018       1.41647281E-08
   43.8899994       1.30038602E-08
   43.9500008       1.17715331E-08
   44.0099983       1.05089057E-08
   44.0699997       9.25686994E-09
   44.1300011       8.04754574E-09
   44.1899986       6.89916968E-09
   44.2500000       5.81597215E-09
   44.3100014       4.79284612E-09
   44.3699989       3.82280163E-09
   44.4300003       2.90428237E-09
   44.4900017       2.04562101E-09
   44.5499992       1.26511679E-09
   44.6100006       5.86867333E-10
   44.6699982       3.39575486E-11
   44.7299995      -3.78603759E-10
   44.7900009      -6.48843757E-10
   44.8499985      -7.89093346E-10
   44.9099998      -8.23149660E-10
   44.9700012      -7.80181864E-10
   45.0299988      -6.87222168E-10
   45.0900002      -5.62565827E-10
   45.1500015      -4.12179374E-10
   45.2099991      -2.30300168E-10
   45.2700005      -4.03894973E-12
   45.3300018       2.79592349E-10
   45.3899994       6.26689589E-10
   45.4500008       1.03197451E-09
   45.5099983       1.47839652E-09
   45.5699997       1.94091210E-09
   45.6300011       2.39305686E-09
   45.6899986       2.81400281E-09
   45.7500000       3.19372995E-09
   45.8100014       3.53471075E-09
   45.8699989       3.84973387E-09
   45.9300003       4.15677359E-09
   45.9900017       4.47268267E-09
   46.0499992       4.80780349E-09
   46.1100006       5.16321075E-09
   46.1699982       5.53142421E-09
   46.2299995       5.90026383E-09
   46.2900009       6.25842045E-09
   46.3499985       6.60066712E-09
   46.4099998       6.93070046E-09
   46.4700012       7.26046245E-09
   46.5299988       7.60614594E-09
   46.5900002       7.98237831E-09
   46.6500015       8.39682013E-09
   46.7099991       8.84717100E-09
   46.7700005       9.32153998E-09
   46.8300018       9.80172654E-09
   46.8899994       1.02678834E-08
   46.9500008       1.07027027E-08
   47.0099983       1.10937854E-08
   47.0699997       1.14338157E-08
   47.1300011       1.17191039E-08
   47.1899986       1.19475274E-08
   47.2500000       1.21167707E-08
   47.3100014       1.22233423E-08
   47.3699989       1.22623982E-08
   47.4300003       1.22281829E-08
   47.4900017       1.21149473E-08
   47.5499992       1.19182433E-08
   47.6100006       1.16365033E-08
   47.6699982       1.12725083E-08
   47.7299995       1.08341665E-08
   47.7900009       1.03340048E-08
   47.8499985       9.78717107E-09
   47.9099998       9.20834609E-09
   47.9700012       8.60867200E-09
   48.0299988       7.99388822E-09
   48.0900002       7.36457473E-09
   48.1500015       6.71843647E-09
   48.2099991       6.05364558E-09
   48.2700005       5.37169109E-09
   48.3300018       4.67840877E-09
   48.3899994       3.98272748E-09
   48.4500008       3.29380945E-09
   48.5099983       2.61809263E-09
   48.5699997       1.95778194E-09
   48.6300011       1.31160027E-09
   48.6899986       6.77421397E-10
   48.7500000       5.54320409E-11
   48.8100014      -5.49794488E-10
   48.8699989      -1.12935417E-09
   48.9300003      -1.67213665E-09
   48.9900017      -2.16794116E-09
   49.0499992      -2.61010724E-09
   49.1100006      -2.99656344E-09
   49.1699982      -3.32909700E-09
   49.2299995      -3.61150843E-09
   49.2900009      -3.84771015E-09
   49.3499985      -4.04057676E-09
   49.4099998      -4.19173807E-09
   49.4700012      -4.30194680E-09
   49.5299988      -4.37149295E-09
   49.5900002      -4.40036585E-09
   49.6500015      -4.38830794E-09
   49.7099991      -4.33508518E-09
   49.7700005      -4.24115054E-09
   49.8300018      -4.10848111E-09
   49.8899994      -3.94100041E-09
   49.9500008      -3.74406017E-09
   50.0099983      -3.52288709E-09
   50.0699997      -3.28052630E-09
   50.1300011      -3.01623237E-09
   50.1899986      -2.72514722E-09
   50.2500000      -2.39953701E-09
   50.3100014      -2.03110151E-09
   50.3699989      -1.61335711E-09
   50.4300003      -1.14309651E-09
   50.4900017      -6.20436036E-10
   50.5499992      -4.76645459E-11
   50.6100006       5.72359549E-10