  -2.400000      0.0000000E+00
  -2.340000      0.0000000E+00
  -2.280000      0.0000000E+00
  -2.220000      0.0000000E+00
  -2.160000      0.0000000E+00
  -2.100000      0.0000000E+00
  -2.040000     -2.0701454E-23
  -1.980000     -2.0594225E-22
  -1.920000     -1.0749750E-21
  -1.860000     -3.8197904E-21
  -1.800000     -9.8495966E-21
  -1.740000     -1.7388089E-20
  -1.680000     -1.2279770E-20
  -1.620000      4.5341773E-20
  -1.560000      2.2287606E-19
  -1.500000      5.7178570E-19
  -1.440000      1.0067300E-18
  -1.380000      1.1300734E-18
  -1.320000      1.3807821E-19
  -1.260000     -2.9497068E-18
  -1.200000     -8.5376479E-18
  -1.140000     -1.5284223E-17
  -1.080000     -1.9142541E-17
  -1.020000     -1.3662272E-17
 -0.9600000      7.5336525E-18
 -0.9000000      4.6177229E-17
 -0.8400000      9.4379713E-17
 -0.7800000      1.3231474E-16
 -0.7200000      1.3164366E-16
 -0.6600000      6.5789724E-17
 -0.6000000     -7.5363770E-17
 -0.5400000     -2.7226386E-16
 -0.4800000     -4.7125001E-16
 -0.4200000     -5.9400610E-16
 -0.3600000     -5.6055619E-16
 -0.3000000     -3.1885295E-16
 -0.2400000      1.3034776E-16
 -0.1800000      7.2373507E-16
 -0.1200000      1.3444003E-15
 -5.9999999E-02  1.8433927E-15
  0.0000000E+00  2.0615232E-15
  5.9999999E-02  1.8426808E-15
  0.1200000      1.0445792E-15
  0.1800000     -4.2990104E-16
  0.2400000     -2.5545038E-15
  0.3000000     -5.0546882E-15
  0.3600000     -7.2909293E-15
  0.4200000     -8.2597901E-15
  0.4800000     -6.8279741E-15
  0.5400000     -2.2305825E-15
  0.6000000      5.3022619E-15
  0.6600000      1.4100572E-14
  0.7200000      2.1159911E-14
  0.7800000      2.3007419E-14
  0.8400000      1.7171294E-14
  0.9000000      3.6756919E-15
  0.9600000     -1.4238332E-14
   1.020000     -3.0776922E-14
   1.080000     -3.9646814E-14
   1.140000     -3.6734718E-14
   1.200000     -2.2149483E-14
   1.260000     -4.9148541E-16
   1.320000      2.0986713E-14
   1.380000      3.5556834E-14
   1.440000      3.9952996E-14
   1.500000      3.5508566E-14
   1.560000      2.6836408E-14
   1.620000      1.8744400E-14
   1.680000      1.3108018E-14
   1.740000      7.5185228E-15
   1.800000     -3.4016443E-15
   1.860000     -2.4568831E-14
   1.920000     -5.6603116E-14
   1.980000     -9.3550757E-14
   2.040000     -1.2339829E-13
   2.100000     -1.3136546E-13
   2.160000     -1.0486157E-13
   2.220000     -3.8476814E-14
   2.280000      6.2518214E-14
   2.340000      1.8124408E-13
   2.400000      2.9138714E-13
   2.460000      3.6239165E-13
   2.520000      3.6679316E-13
   2.580000      2.8792458E-13
   2.640000      1.2565414E-13
   2.700000     -1.0184385E-13
   2.760000     -3.6081042E-13
   2.820000     -6.0761563E-13
   2.880000     -7.9468994E-13
   2.940000     -8.7457868E-13
   3.000000     -8.0270740E-13
   3.060000     -5.4250392E-13
   3.120000     -7.7302388E-14
   3.180000      5.6996026E-13
   3.240000      1.3152755E-12
   3.300000      2.0033356E-12
   3.360000      2.4233417E-12
   3.420000      2.3585695E-12
   3.480000      1.6623585E-12
   3.540000      3.3630813E-13
   3.600000     -1.4231644E-12
   3.660000     -3.2388523E-12
   3.720000     -4.6360429E-12
   3.780000     -5.1753194E-12
   3.840000     -4.5912978E-12
   3.900000     -2.8864968E-12
   3.960000     -3.4397284E-13
   4.020000      2.5468002E-12
   4.080000      5.2224952E-12
   4.140000      7.1871437E-12
   4.200000      8.1124231E-12
   4.260000      7.8683535E-12
   4.320000      6.4864195E-12
   4.380000      4.0827793E-12
   4.440000      7.7875748E-13
   4.500000     -3.3525732E-12
   4.560000     -8.3038116E-12
   4.620000     -1.4122238E-11
   4.680000     -2.0885200E-11
   4.740000     -2.8672393E-11
   4.800000     -3.7536561E-11
   4.860000     -4.7469431E-11
   4.920000     -5.8364868E-11
   4.980000     -6.9991977E-11
   5.040000     -8.1998179E-11
   5.100000     -9.3955385E-11
   5.160000     -1.0544087E-10
   5.220000     -1.1611755E-10
   5.280000     -1.2576527E-10
   5.340000     -1.3422796E-10
   5.400000     -1.4128340E-10
   5.460000     -1.4649194E-10
   5.520000     -1.4911157E-10
   5.580000     -1.4815189E-10
   5.640000     -1.4258057E-10
   5.700000     -1.3161357E-10
   5.760000     -1.1496212E-10
   5.820000     -9.2909964E-11
   5.880000     -6.6165885E-11
   5.940000     -3.5548994E-11
   6.000000     -1.6611540E-12
   6.060000      3.5274124E-11
   6.120000      7.5295978E-11
   6.180000      1.1834118E-10
   6.240000      1.6379630E-10
   6.300000      2.1019940E-10
   6.360000      2.5527741E-10
   6.420000      2.9635955E-10
   6.480000      3.3103453E-10
   6.540000      3.5780276E-10
   6.600000      3.7647652E-10
   6.660000      3.8819778E-10
   6.720000      3.9512171E-10
   6.780000      3.9995587E-10
   6.840000      4.0559020E-10
   6.900000      4.1497519E-10
   6.960000      4.3125437E-10
   7.020000      4.5800966E-10
   7.080000      4.9940868E-10
   7.140000      5.6007765E-10
   7.200000      6.4464006E-10
   7.260000      7.5699319E-10
   7.320000      8.9948365E-10
   7.380000      1.0721589E-09
   7.440000      1.2722242E-09
   7.500000      1.4937710E-09
   7.560000      1.7277932E-09
   7.620000      1.9625024E-09
   7.680000      2.1839484E-09
   7.740000      2.3769597E-09
   7.800000      2.5263676E-09
   7.860000      2.6184046E-09
   7.920000      2.6421130E-09
   7.980000      2.5905520E-09
   8.040000      2.4616249E-09
   8.100000      2.2584250E-09
   8.160000      1.9890762E-09
   8.220000      1.6661185E-09
   8.280000      1.3055100E-09
   8.340000      9.2532842E-10
   8.400000      5.4426047E-10
   8.460000      1.8000779E-10
   8.520000     -1.5221481E-10
   8.580000     -4.4088491E-10
   8.640000     -6.7891243E-10
   8.700000     -8.6385005E-10
   8.760000     -9.9764941E-10
   8.820000     -1.0861402E-09
   8.880000     -1.1384067E-09
   8.940000     -1.1661327E-09
   9.000000     -1.1828251E-09
   9.060000     -1.2027400E-09
   9.120000     -1.2393976E-09
   9.180000     -1.3037934E-09
   9.240000     -1.4026966E-09
   9.300000     -1.5376012E-09
   9.360000     -1.7048225E-09
   9.420000     -1.8968851E-09
   9.480000     -2.1048510E-09
   9.540000     -2.3208278E-09
   9.600000     -2.5397799E-09
   9.660000     -2.7600362E-09
   9.720000     -2.9824261E-09
   9.780000     -3.2085479E-09
   9.840000     -3.4389909E-09
   9.900000     -3.6722658E-09
   9.960000     -3.9047934E-09
   10.02000     -4.1317865E-09
   10.08000     -4.3484820E-09
   10.14000     -4.5510964E-09
   10.20000     -4.7371214E-09
   10.26000     -4.9049196E-09
   10.32000     -5.0529043E-09
   10.38000     -5.1787050E-09
   10.44000     -5.2786344E-09
   10.50000     -5.3476361E-09
   10.56000     -5.3797096E-09
   10.62000     -5.3687295E-09
   10.68000     -5.3095195E-09
   10.74000     -5.1989808E-09
   10.80000     -5.0370019E-09
   10.86000     -4.8268256E-09
   10.92000     -4.5746558E-09
   10.98000     -4.2884971E-09
   11.04000     -3.9765675E-09
   11.10000     -3.6458638E-09
   11.16000     -3.3014858E-09
   11.22000     -2.9470371E-09
   11.28000     -2.5859634E-09
   11.34000     -2.2232258E-09
   11.40000     -1.8665278E-09
   11.46000     -1.5264624E-09
   11.52000     -1.2153953E-09
   11.58000     -9.4542063E-10
   11.64000     -7.2607337E-10
   11.70000     -5.6254434E-10
   11.76000     -4.5490611E-10
   11.82000     -3.9847192E-10
   11.88000     -3.8504661E-10
   11.94000     -4.0461173E-10
   12.00000     -4.4696366E-10
   12.06000     -5.0295706E-10
   12.12000     -5.6522387E-10
   12.18000     -6.2845512E-10
   12.24000     -6.8947231E-10
   12.30000     -7.4732642E-10
   12.36000     -8.0352974E-10
   12.42000     -8.6230900E-10
   12.48000     -9.3056923E-10
   12.54000     -1.0172213E-09
   12.60000     -1.1317116E-09
   12.66000     -1.2819543E-09
   12.72000     -1.4722256E-09
   12.78000     -1.7017200E-09
   12.84000     -1.9642790E-09
   12.90000     -2.2493292E-09
   12.96000     -2.5435680E-09
   13.02000     -2.8326668E-09
   13.08000     -3.1023939E-09
   13.14000     -3.3389955E-09
   13.20000     -3.5291565E-09
   13.26000     -3.6601027E-09
   13.32000     -3.7202523E-09
   13.38000     -3.7004051E-09
   13.44000     -3.5950531E-09
   13.50000     -3.4032566E-09
   13.56000     -3.1287568E-09
   13.62000     -2.7794129E-09
   13.68000     -2.3663786E-09
   13.74000     -1.9034703E-09
   13.80000     -1.4069018E-09
   13.86000     -8.9518903E-10
   13.92000     -3.8880138E-10
   13.98000      9.0765374E-11
   14.04000      5.2249727E-10
   14.10000      8.8758584E-10
   14.16000      1.1708363E-09
   14.22000      1.3613437E-09
   14.28000      1.4523307E-09
   14.34000      1.4403593E-09
   14.40000      1.3243092E-09
   14.46000      1.1045134E-09
   14.52000      7.8232720E-10
   14.58000      3.6026404E-10
   14.64000     -1.5730402E-10
   14.70000     -7.6302298E-10
   14.76000     -1.4453384E-09
   14.82000     -2.1876638E-09
   14.88000     -2.9684590E-09
   14.94000     -3.7625392E-09
   15.00000     -4.5435118E-09
   15.06000     -5.2867404E-09
   15.12000     -5.9719083E-09
   15.18000     -6.5842931E-09
   15.24000     -7.1143251E-09
   15.30000     -7.5556486E-09
   15.36000     -7.9025018E-09
   15.42000     -8.1475040E-09
   15.48000     -8.2807752E-09
   15.54000     -8.2908196E-09
   15.60000     -8.1669809E-09
   15.66000     -7.9027096E-09
   15.72000     -7.4985769E-09
   15.78000     -6.9639836E-09
   15.84000     -6.3168462E-09
   15.90000     -5.5811560E-09
   15.96000     -4.7830375E-09
   16.02000     -3.9465027E-09
   16.08000     -3.0902936E-09
   16.14000     -2.2268585E-09
   16.20000     -1.3636733E-09
   16.26000     -5.0618171E-10
   16.32000      3.3904210E-10
   16.38000      1.1623168E-09
   16.44000      1.9508424E-09
   16.50000      2.6904525E-09
   16.56000      3.3681071E-09
   16.62000      3.9738408E-09
   16.68000      4.5012962E-09
   16.74000      4.9467839E-09
   16.80000      5.3075828E-09
   16.86000      5.5805538E-09
   16.92000      5.7619038E-09
   16.98000      5.8483605E-09
   17.04000      5.8393068E-09
   17.10000      5.7390137E-09
   17.16000      5.5580216E-09
   17.22000      5.3130123E-09
   17.28000      5.0250284E-09
   17.34000      4.7164344E-09
   17.40000      4.4074615E-09
   17.46000      4.1133763E-09
   17.52000      3.8431787E-09
   17.58000      3.6002274E-09
   17.64000      3.3844885E-09
   17.70000      3.1954448E-09
   17.76000      3.0344176E-09
   17.82000      2.9053084E-09
   17.88000      2.8135103E-09
   17.94000      2.7636118E-09
   18.00000      2.7570923E-09
   18.06000      2.7912193E-09
   18.12000      2.8597649E-09
   18.18000      2.9553064E-09
   18.24000      3.0721568E-09
   18.30000      3.2087213E-09
   18.36000      3.3683552E-09
   18.42000      3.5584060E-09
   18.48000      3.7877999E-09
   18.54000      4.0639900E-09
   18.60000      4.3902681E-09
   18.66000      4.7642841E-09
   18.72000      5.1782898E-09
   18.78000      5.6210645E-09
   18.84000      6.0809726E-09
   18.90000      6.5491261E-09
   18.96000      7.0215491E-09
   19.02000      7.4995432E-09
   19.08000      7.9881257E-09
   19.14000      8.4931848E-09
   19.20000      9.0184749E-09
   19.26000      9.5635642E-09
   19.32000      1.0123284E-08
   19.38000      1.0688517E-08
   19.44000      1.1247627E-08
   19.50000      1.1787739E-08
   19.56000      1.2295507E-08
   19.62000      1.2757507E-08
   19.68000      1.3160710E-08
   19.74000      1.3493424E-08
   19.80000      1.3746682E-08
   19.86000      1.3915621E-08
   19.92000      1.4000232E-08
   19.98000      1.4005058E-08
   20.04000      1.3937792E-08
   20.10000      1.3807248E-08
   20.16000      1.3621277E-08
   20.22000      1.3385201E-08
   20.28000      1.3101102E-08
   20.34000      1.2767970E-08
   20.40000      1.2382525E-08
   20.46000      1.1940425E-08
   20.52000      1.1437514E-08
   20.58000      1.0870881E-08
   20.64000      1.0239566E-08
   20.70000      9.5449231E-09
   20.76000      8.7907290E-09
   20.82000      7.9830684E-09
   20.88000      7.1299628E-09
   20.94000      6.2405858E-09
   21.00000      5.3239964E-09
   21.06000      4.3875739E-09
   21.12000      3.4356706E-09
   21.18000      2.4691622E-09
   21.24000      1.4863464E-09
   21.30000      4.8506177E-10
   21.36000     -5.3476612E-10
   21.42000     -1.5692713E-09
   21.48000     -2.6103411E-09
   21.54000     -3.6469630E-09
   21.60000     -4.6674962E-09
   21.66000     -5.6617533E-09
   21.72000     -6.6220176E-09
   21.78000     -7.5428961E-09
   21.84000     -8.4205700E-09
   21.90000     -9.2522470E-09
   21.96000     -1.0036223E-08
   22.02000     -1.0772294E-08
   22.08000     -1.1461844E-08
   22.14000     -1.2107092E-08
   22.20000     -1.2709572E-08
   22.26000     -1.3268574E-08
   22.32000     -1.3780418E-08
   22.38000     -1.4239008E-08
   22.44000     -1.4637336E-08
   22.50000     -1.4969048E-08
   22.56000     -1.5229267E-08
   22.62000     -1.5414400E-08
   22.68000     -1.5521405E-08
   22.74000     -1.5547291E-08
   22.80000     -1.5489420E-08
   22.86000     -1.5346524E-08
   22.92000     -1.5119863E-08
   22.98000     -1.4813770E-08
   23.04000     -1.4435269E-08
   23.10000     -1.3992914E-08
   23.16000     -1.3495376E-08
   23.22000     -1.2950260E-08
   23.28000     -1.2363397E-08
   23.34000     -1.1738593E-08
   23.40000     -1.1077748E-08
   23.46000     -1.0381326E-08
   23.52000     -9.6491446E-09
   23.58000     -8.8813144E-09
   23.64000     -8.0789295E-09
   23.70000     -7.2441142E-09
   23.76000     -6.3792691E-09
   23.82000     -5.4859419E-09
   23.88000     -4.5640776E-09
   23.94000     -3.6123589E-09
   24.00000     -2.6297633E-09
   24.06000     -1.6177160E-09
   24.12000     -5.8181066E-10
   24.18000      4.6771964E-10
   24.24000      1.5169103E-09
   24.30000      2.5497864E-09
   24.36000      3.5501113E-09
   24.42000      4.5027297E-09
   24.48000      5.3946398E-09
   24.54000      6.2161827E-09
   24.60000      6.9624289E-09
   24.66000      7.6342115E-09
   24.72000      8.2378788E-09
   24.78000      8.7831982E-09
   24.84000      9.2798258E-09
   24.90000      9.7338058E-09
   24.96000      1.0145786E-08
   25.02000      1.0511874E-08
   25.08000      1.0826547E-08
   25.14000      1.1085874E-08
   25.20000      1.1289129E-08
   25.26000      1.1437941E-08
   25.32000      1.1533642E-08
   25.38000      1.1574478E-08
   25.44000      1.1554211E-08
   25.50000      1.1462534E-08
   25.56000      1.1286502E-08
   25.62000      1.1011734E-08
   25.68000      1.0622756E-08
   25.74000      1.0102946E-08
   25.80000      9.4352304E-09
   25.86000      8.6043759E-09
   25.92000      7.6005628E-09
   25.98000      6.4228032E-09
   26.04000      5.0805000E-09
   26.10000      3.5923475E-09
   26.16000      1.9832478E-09
   26.22000      2.8096186E-10
   26.28000     -1.4858355E-09
   26.34000     -3.2875498E-09
   26.40000     -5.0925291E-09
   26.46000     -6.8663208E-09
   26.52000     -8.5724849E-09
   26.58000     -1.0175013E-08
   26.64000     -1.1641398E-08
   26.70000     -1.2945129E-08
   26.76000     -1.4066925E-08
   26.82000     -1.4994889E-08
   26.88000     -1.5724185E-08
   26.94000     -1.6256713E-08
   27.00000     -1.6600728E-08
   27.06000     -1.6769953E-08
   27.12000     -1.6781961E-08
   27.18000     -1.6656186E-08
   27.24000     -1.6412292E-08
   27.30000     -1.6069528E-08
   27.36000     -1.5646982E-08
   27.42000     -1.5163856E-08
   27.48000     -1.4638755E-08
   27.54000     -1.4087590E-08
   27.60000     -1.3520689E-08
   27.66000     -1.2940547E-08
   27.72000     -1.2341417E-08
   27.78000     -1.1711078E-08
   27.84000     -1.1033939E-08
   27.90000     -1.0294046E-08
   27.96000     -9.4769037E-09
   28.02000     -8.5699998E-09
   28.08000     -7.5627522E-09
   28.14000     -6.4468479E-09
   28.20000     -5.2173563E-09
   28.26000     -3.8742280E-09
   28.32000     -2.4233306E-09
   28.38000     -8.7647645E-10
   28.44000      7.4944745E-10
   28.50000      2.4335565E-09
   28.56000      4.1516266E-09
   28.62000      5.8763008E-09
   28.68000      7.5774693E-09
   28.74000      9.2235961E-09
   28.80000      1.0784210E-08
   28.86000      1.2232906E-08
   28.92000      1.3549632E-08
   28.98000      1.4721207E-08
   29.04000      1.5740012E-08
   29.10000      1.6601684E-08
   29.16000      1.7303243E-08
   29.22000      1.7842591E-08
   29.28000      1.8219426E-08
   29.34000      1.8436648E-08
   29.40000      1.8501140E-08
   29.46000      1.8423220E-08
   29.52000      1.8214966E-08
   29.58000      1.7888294E-08
   29.64000      1.7453633E-08
   29.70000      1.6919641E-08
   29.76000      1.6293630E-08
   29.82000      1.5582073E-08
   29.88000      1.4790701E-08
   29.94000      1.3924125E-08
   30.00000      1.2985470E-08
   30.06000      1.1976602E-08
   30.12000      1.0899263E-08
   30.18000      9.7568700E-09
   30.24000      8.5563290E-09
   30.30000      7.3090303E-09
   30.36000      6.0304677E-09
   30.42000      4.7384527E-09
   30.48000      3.4504828E-09
   30.54000      2.1812256E-09
   30.60000      9.4107688E-10
   30.66000     -2.6368407E-10
   30.72000     -1.4292938E-09
   30.78000     -2.5522926E-09
   30.84000     -3.6278296E-09
   30.90000     -4.6493547E-09
   30.96000     -5.6098561E-09
   31.02000     -6.5039849E-09
   31.08000     -7.3299420E-09
   31.14000     -8.0901472E-09
   31.20000     -8.7903533E-09
   31.26000     -9.4376329E-09
   31.32000     -1.0038084E-08
   31.38000     -1.0594984E-08
   31.44000     -1.1107690E-08
   31.50000     -1.1571158E-08
   31.56000     -1.1975979E-08
   31.62000     -1.2309076E-08
   31.68000     -1.2555470E-08
   31.74000     -1.2701323E-08
   31.80000     -1.2737751E-08
   31.86000     -1.2664152E-08
   31.92000     -1.2489447E-08
   31.98000     -1.2230431E-08
   32.04000     -1.1907638E-08
   32.10000     -1.1540547E-08
   32.16000     -1.1144310E-08
   32.22000     -1.0729291E-08
   32.28000     -1.0303131E-08
   32.34000     -9.8735580E-09
   32.40000     -9.4498729E-09
   32.46000     -9.0420462E-09
   32.52000     -8.6580494E-09
   32.58000     -8.3012512E-09
   32.64000     -7.9696783E-09
   32.70000     -7.6576914E-09
   32.76000     -7.3590241E-09
   32.82000     -7.0692705E-09
   32.88000     -6.7864256E-09
   32.94000     -6.5094916E-09
   33.00000     -6.2365424E-09
   33.06000     -5.9639813E-09
   33.12000     -5.6877720E-09
   33.18000     -5.4058851E-09
   33.24000     -5.1201998E-09
   33.30000     -4.8363562E-09
   33.36000     -4.5614721E-09
   33.42000     -4.3011874E-09
   33.48000     -4.0581187E-09
   33.54000     -3.8329340E-09
   33.60000     -3.6275003E-09
   33.66000     -3.4479961E-09
   33.72000     -3.3056673E-09
   33.78000     -3.2142036E-09
   33.84000     -3.1847447E-09
   33.90000     -3.2210314E-09
   33.96000     -3.3172214E-09
   34.02000     -3.4594543E-09
   34.08000     -3.6302588E-09
   34.14000     -3.8135863E-09
   34.20000     -3.9982924E-09
   34.26000     -4.1791060E-09
   34.32000     -4.3556039E-09
   34.38000     -4.5304756E-09
   34.44000     -4.7081072E-09
   34.50000     -4.8936353E-09
   34.56000     -5.0919033E-09
   34.62000     -5.3058473E-09
   34.68000     -5.5345772E-09
   34.74000     -5.7722156E-09
   34.80000     -6.0086252E-09
   34.86000     -6.2322973E-09
   34.92000     -6.4343477E-09
   34.98000     -6.6116641E-09
   35.04000     -6.7674355E-09
   35.10000     -6.9086017E-09
   35.16000     -7.0414137E-09
   35.22000     -7.1673560E-09
   35.28000     -7.2815078E-09
   35.34000     -7.3741284E-09
   35.40000     -7.4346147E-09
   35.46000     -7.4558875E-09
   35.52000     -7.4372286E-09
   35.58000     -7.3845010E-09
   35.64000     -7.3078681E-09
   35.70000     -7.2180821E-09
   35.76000     -7.1227024E-09
   35.82000     -7.0233948E-09
   35.88000     -6.9150401E-09
   35.94000     -6.7869119E-09
   36.00000     -6.6257160E-09
   36.06000     -6.4197665E-09
   36.12000     -6.1630501E-09
   36.18000     -5.8577423E-09
   36.24000     -5.5140563E-09
   36.30000     -5.1473283E-09
   36.36000     -4.7734265E-09
   36.42000     -4.4044040E-09
   36.48000     -4.0461861E-09
   36.54000     -3.6990571E-09
   36.60000     -3.3602816E-09
   36.66000     -3.0272662E-09
   36.72000     -2.6996947E-09
   36.78000     -2.3800071E-09
   36.84000     -2.0726842E-09
   36.90000     -1.7833343E-09
   36.96000     -1.5181870E-09
   37.02000     -1.2837508E-09
   37.08000     -1.0858072E-09
   37.14000     -9.2724389E-10
   37.20000     -8.0531226E-10
   37.26000     -7.0996553E-10
   37.32000     -6.2502248E-10
   37.38000     -5.3267418E-10
   37.44000     -4.1986373E-10
   37.50000     -2.8355621E-10
   37.56000     -1.3197071E-10
   37.62000      1.9338333E-11
   37.68000      1.5499010E-10
   37.74000      2.6731686E-10
   37.80000      3.6022554E-10
   37.86000      4.4750686E-10
   37.92000      5.4649335E-10
   37.98000      6.7016748E-10
   38.04000      8.2131801E-10
   38.10000      9.9106756E-10
   38.16000      1.1619395E-09
   38.22000      1.3138123E-09
   38.28000      1.4304148E-09
   38.34000      1.5044112E-09
   38.40000      1.5400081E-09
   38.46000      1.5527387E-09
   38.52000      1.5664519E-09
   38.58000      1.6078341E-09
   38.64000      1.6993708E-09
   38.70000      1.8525148E-09
   38.76000      2.0634574E-09
   38.82000      2.3136051E-09
   38.88000      2.5753852E-09
   38.94000      2.8217741E-09
   39.00000      3.0360636E-09
   39.06000      3.2179328E-09
   39.12000      3.3832723E-09
   39.18000      3.5578533E-09
   39.24000      3.7675414E-09
   39.30000      4.0290953E-09
   39.36000      4.3450741E-09
   39.42000      4.7044209E-09
   39.48000      5.0879416E-09
   39.54000      5.4762133E-09
   39.60000      5.8570118E-09
   39.66000      6.2299628E-09
   39.72000      6.6073049E-09
   39.78000      7.0108164E-09
   39.84000      7.4658555E-09
   39.90000      7.9940756E-09
   39.96000      8.6067429E-09
   40.02000      9.3006269E-09
   40.08000      1.0057941E-08
   40.14000      1.0850687E-08
   40.20000      1.1648276E-08
   40.26000      1.2425907E-08
   40.32000      1.3170715E-08
   40.38000      1.3883321E-08
   40.44000      1.4574132E-08
   40.50000      1.5255820E-08
   40.56000      1.5934912E-08
   40.62000      1.6605872E-08
   40.68000      1.7250050E-08
   40.74000      1.7840101E-08
   40.80000      1.8348358E-08
   40.86000      1.8756225E-08
   40.92000      1.9061176E-08
   40.98000      1.9278756E-08
   41.04000      1.9438653E-08
   41.10000      1.9575904E-08
   41.16000      1.9720037E-08
   41.22000      1.9885732E-08
   41.28000      2.0068136E-08
   41.34000      2.0244409E-08
   41.40000      2.0380837E-08
   41.46000      2.0442991E-08
   41.52000      2.0405345E-08
   41.58000      2.0257154E-08
   41.64000      2.0002911E-08
   41.70000      1.9657644E-08
   41.76000      1.9239126E-08
   41.82000      1.8759895E-08
   41.88000      1.8221838E-08
   41.94000      1.7615028E-08
   42.00000      1.6921122E-08
   42.06000      1.6120167E-08
   42.12000      1.5198731E-08
   42.18000      1.4156764E-08
   42.24000      1.3010950E-08
   42.30000      1.1793235E-08
   42.36000      1.0544760E-08
   42.42000      9.3069987E-09
   42.48000      8.1130107E-09
   42.54000      6.9818045E-09
   42.60000      5.9177512E-09
   42.66000      4.9151008E-09
   42.72000      3.9656691E-09
   42.78000      3.0666070E-09
   42.84000      2.2252458E-09
   42.90000      1.4592904E-09
   42.96000      7.9252133E-10
   43.02000      2.4779312E-10
   43.08000     -1.6006886E-10
   43.14000     -4.2907322E-10
   43.20000     -5.7112498E-10
   43.26000     -6.0915040E-10
   43.32000     -5.7123234E-10
   43.38000     -4.8349719E-10
   43.44000     -3.6383280E-10
   43.50000     -2.1834357E-10
   43.56000     -4.1731736E-11
   43.62000      1.7839029E-10
   43.68000      4.5461757E-10
   43.74000      7.9270374E-10
   43.80000      1.1869735E-09
   43.86000      1.6199937E-09
   43.92000      2.0666755E-09
   43.98000      2.5012339E-09
   44.04000      2.9043434E-09
   44.10000      3.2678780E-09
   44.16000      3.5957421E-09
   44.22000      3.9008885E-09
   44.28000      4.1999675E-09
   44.34000      4.5076436E-09
   44.40000      4.8323696E-09
   44.46000      5.1746802E-09
   44.52000      5.5281766E-09
   44.58000      5.8827037E-09
   44.64000      6.2287051E-09
   44.70000      6.5614478E-09
   44.76000      6.8837251E-09
   44.82000      7.2059372E-09
   44.88000      7.5432105E-09
   44.94000      7.9103142E-09
   45.00000      8.3161380E-09
   45.06000      8.7598675E-09
   45.12000      9.2304164E-09
   45.18000      9.7092974E-09
   45.24000      1.0175626E-08
   45.30000      1.0611097E-08
   45.36000      1.1002977E-08
   45.42000      1.1344317E-08
   45.48000      1.1631960E-08
   45.54000      1.1863833E-08
   45.60000      1.2036920E-08
   45.66000      1.2146612E-08
   45.72000      1.2187173E-08
   45.78000      1.2152682E-08
   45.84000      1.2037928E-08
   45.90000      1.1839251E-08
   45.96000      1.1555557E-08
   46.02000      1.1189610E-08
   46.08000      1.0749091E-08
   46.14000      1.0246628E-08
   46.20000      9.6980903E-09
   46.26000      9.1193488E-09
   46.32000      8.5226244E-09
   46.38000      7.9140721E-09
   46.44000      7.2938433E-09
   46.50000      6.6586772E-09
   46.56000      6.0057794E-09
   46.62000      5.3360587E-09
   46.68000      4.6551514E-09
   46.74000      3.9718548E-09
   46.80000      3.2949747E-09
   46.86000      2.6303586E-09
   46.92000      1.9796811E-09
   46.98000      1.3415359E-09
   47.04000      7.1414985E-10
   47.10000      9.8262377E-11
   47.16000     -5.0126608E-10
   47.22000     -1.0758184E-09
   47.28000     -1.6150643E-09
   47.34000     -2.1096576E-09
   47.40000     -2.5533959E-09
   47.46000     -2.9440526E-09
   47.52000     -3.2827807E-09
   47.58000     -3.5726127E-09
   47.64000     -3.8168464E-09
   47.70000     -4.0179784E-09
   47.76000     -4.1774224E-09
   47.82000     -4.2958237E-09
   47.88000     -4.3735375E-09
   47.94000     -4.4109374E-09
   48.00000     -4.4084691E-09
   48.06000     -4.3666768E-09
   48.12000     -4.2864552E-09
   48.18000     -4.1695847E-09
   48.24000     -4.0192396E-09
   48.30000     -3.8399413E-09
   48.36000     -3.6365995E-09
   48.42000     -3.4127392E-09
   48.48000     -3.1686223E-09
   48.54000     -2.9002181E-09
   48.60000     -2.5997358E-09
   48.66000     -2.2576838E-09
   48.72000     -1.8656334E-09
   48.78000     -1.4184570E-09
   48.84000     -9.1508384E-10
   48.90000     -3.5759529E-10
   48.96000      2.5064462E-10
   49.02000      9.0670593E-10
   49.08000      1.6087626E-09
   49.14000      2.3555420E-09
   49.20000      3.1451444E-09
   49.26000      3.9741672E-09
   49.32000      4.8378492E-09
   49.38000      5.7313181E-09
   49.44000      6.6513937E-09
   49.50000      7.5981186E-09
   49.56000      8.5753298E-09
   49.62000      9.5900825E-09
   49.68000      1.0651212E-08
   49.74000      1.1767620E-08
   49.80000      1.2946855E-08
   49.86000      1.4194343E-08
   49.92000      1.5513299E-08
   49.98000      1.6905185E-08
   50.04000      1.8370455E-08
   50.10000      1.9909416E-08
   50.16000      2.1523080E-08
   50.22000      2.3213941E-08
   50.28000      2.4986528E-08
   50.34000      2.6847516E-08
   50.40000      2.8805111E-08
   50.46000      3.0867614E-08
   50.52000      3.3041385E-08
   50.58000      3.5328771E-08
   50.64000      3.7726842E-08
   50.70000      4.0227352E-08
   50.76000      4.2817874E-08
   50.82000      4.5483290E-08
   50.88000      4.8206452E-08
   50.94000      5.0967152E-08
   51.00000      5.3739310E-08
   51.06000      5.6487316E-08
   51.12000      5.9162897E-08
   51.18000      6.1703702E-08
   51.24000      6.4033969E-08
   51.30000      6.6066669E-08
   51.36000      6.7706075E-08
   51.42000      6.8849801E-08
   51.48000      6.9389763E-08
   51.54000      6.9212263E-08
   51.60000      6.8197402E-08
   51.66000      6.6218114E-08
   51.72000      6.3138856E-08
   51.78000      5.8814365E-08
   51.84000      5.3088911E-08
   51.90000      4.5797059E-08
   51.96000      3.6766465E-08
   52.02000      2.5822638E-08
   52.08000      1.2794384E-08
   52.14000     -2.4814208E-09
   52.20000     -2.0157193E-08
   52.26000     -4.0374189E-08
   52.32000     -6.3263272E-08
   52.38000     -8.8945121E-08
   52.44000     -1.1752844E-07
   52.50000     -1.4910577E-07
   52.56000     -1.8374762E-07
   52.62000     -2.2149628E-07
   52.68000     -2.6236069E-07
   52.74000     -3.0631278E-07
   52.80000     -3.5328529E-07
   52.86000     -4.0317028E-07
   52.92000     -4.5581746E-07
   52.98000     -5.1103257E-07
   53.04000     -5.6857544E-07
   53.10000     -6.2815786E-07
   53.16000     -6.8944246E-07
   53.22000     -7.5204196E-07
   53.28000     -8.1552014E-07
   53.34000     -8.7939321E-07
   53.40000     -9.4313236E-07
   53.46000     -1.0061663E-06
   53.52000     -1.0678842E-06
   53.58000     -1.1276392E-06
   53.64000     -1.1847512E-06
   53.70000     -1.2385143E-06
   53.76000     -1.2882022E-06
   53.82000     -1.3330782E-06
   53.88000     -1.3724054E-06
   53.94000     -1.4054555E-06
   54.00000     -1.4315164E-06
   54.06000     -1.4499000E-06
   54.12000     -1.4599468E-06
   54.18000     -1.4610331E-06
   54.24000     -1.4525784E-06
   54.30000     -1.4340541E-06
   54.36000     -1.4049922E-06
   54.42000     -1.3649933E-06
   54.48000     -1.3137325E-06
   54.54000     -1.2509646E-06
   54.60000     -1.1765279E-06
   54.66000     -1.0903483E-06
   54.72000     -9.9244176E-07
   54.78000     -8.8291722E-07
   54.84000     -7.6197711E-07
   54.90000     -6.2991649E-07
   54.96000     -4.8712104E-07
   55.02000     -3.3406570E-07
   55.08000     -1.7131325E-07
   55.14000      4.8700438E-10
   55.20000      1.8060251E-07
   55.26000      3.6822459E-07
   55.32000      5.6247904E-07
   55.38000      7.6243884E-07
   55.44000      9.6713632E-07
   55.50000      1.1755719E-06
   55.56000      1.3867198E-06