 -0.750000000       0.00000000    
 -0.689999998       0.00000000    
 -0.629999995       0.00000000    
 -0.569999993       0.00000000    
 -0.509999990       0.00000000    
 -0.449999988       0.00000000    
 -0.389999986      -2.84143880E-23
 -0.330000013      -2.66933592E-22
 -0.270000011      -1.25311158E-21
 -0.209999993      -3.78686677E-21
 -0.150000006      -7.69051626E-21
  -9.00000036E-02  -8.63280099E-21
  -2.99999993E-02   6.15692825E-21
   2.99999993E-02   5.87445383E-20
   9.00000036E-02   1.69112979E-19
  0.150000006       3.23025765E-19
  0.209999993       4.22684769E-19
  0.270000011       2.50153014E-19
  0.330000013      -4.98043275E-19
  0.389999986      -2.04650191E-18
  0.449999988      -4.24783880E-18
  0.509999990      -6.27969837E-18
  0.569999993      -6.56211024E-18
  0.629999995      -3.12240374E-18
  0.689999998       5.55518493E-18
  0.750000000       1.94740749E-17
  0.810000002       3.63689114E-17
  0.870000005       5.16447833E-17
  0.930000007       5.89295512E-17
  0.990000010       5.06449867E-17
   1.04999995       1.80626368E-17
   1.11000001      -4.86396064E-17
   1.16999996      -1.58110849E-16
   1.23000002      -3.10172454E-16
   1.28999996      -4.81244681E-16
   1.35000002      -6.06713871E-16
   1.40999997      -5.71991344E-16
   1.47000003      -2.29984030E-16
   1.52999997       5.39838026E-16
   1.59000003       1.73194680E-15
   1.64999998       3.10530198E-15
   1.71000004       4.12569462E-15
   1.76999998       4.03476013E-15
   1.83000004       2.09405751E-15
   1.88999999      -2.02167240E-15
   1.95000005      -7.81136664E-15
   2.00999999      -1.37275928E-14
   2.06999993      -1.73643194E-14
   2.13000011      -1.61459015E-14
   2.19000006      -8.38409051E-15
   2.25000000       5.67132011E-15
   2.30999994       2.32838210E-14
   2.36999989       3.95722510E-14
   2.43000007       4.87941291E-14
   2.49000001       4.61865789E-14
   2.54999995       2.96759450E-14
   2.60999990       7.82608521E-16
   2.67000008      -3.55885365E-14
   2.73000002      -7.22578396E-14
   2.78999996      -1.01198577E-13
   2.84999990      -1.14734353E-13
   2.91000009      -1.06385393E-13
   2.97000003      -7.17544717E-14
   3.02999997      -1.00026180E-14
   3.08999991       7.39904354E-14
   3.15000010       1.67591811E-13
   3.21000004       2.50099149E-13
   3.26999998       2.95709204E-13
   3.32999992       2.80187413E-13
   3.39000010       1.89737915E-13
   3.45000005       2.88538284E-14
   3.50999999      -1.76525136E-13
   3.56999993      -3.82874288E-13
   3.63000011      -5.39565571E-13
   3.69000006      -6.02703271E-13
   3.75000000      -5.47469405E-13
   3.80999994      -3.74674765E-13
   3.86999989      -1.09642350E-13
   3.93000007       2.05314986E-13
   3.99000001       5.21203469E-13
   4.05000019       7.91280507E-13
   4.11000013       9.75838117E-13
   4.17000008       1.04263397E-12
   4.23000002       9.65317453E-13
   4.28999996       7.23599349E-13
   4.34999990       3.08451154E-13
   4.40999985      -2.66798546E-13
   4.46999979      -9.52383571E-13
   4.53000021      -1.65172617E-12
   4.59000015      -2.22333154E-12
   4.65000010      -2.50163605E-12
   4.71000004      -2.33723110E-12
   4.76999998      -1.64774097E-12
   4.82999992      -4.62432555E-13
   4.88999987       1.05890470E-12
   4.94999981       2.64600689E-12
   5.01000023       3.97623080E-12
   5.07000017       4.75351919E-12
   5.13000011       4.78069841E-12
   5.19000006       3.99952684E-12
   5.25000000       2.48754771E-12
   5.30999994       4.21398430E-13
   5.36999989      -1.96835733E-12
   5.42999983      -4.42485675E-12
   5.48999977      -6.66419741E-12
   5.55000019      -8.35896456E-12
   5.61000013      -9.13649104E-12
   5.67000008      -8.62238839E-12
   5.73000002      -6.53919106E-12
   5.78999996      -2.83729030E-12
   5.84999990       2.19233811E-12
   5.90999985       7.88095630E-12
   5.96999979       1.32572833E-11
   6.03000021       1.72313882E-11
   6.09000015       1.88403182E-11
   6.15000010       1.74819759E-11
   6.21000004       1.30653301E-11
   6.26999998       6.03391122E-12
   6.32999992      -2.73757015E-12
   6.38999987      -1.21340091E-11
   6.44999981      -2.10175471E-11
   6.51000023      -2.84144010E-11
   6.57000017      -3.36357817E-11
   6.63000011      -3.63281558E-11
   6.69000006      -3.64728248E-11
   6.75000000      -3.43641192E-11
   6.80999994      -3.05871405E-11
   6.86999989      -2.59963891E-11
   6.92999983      -2.16766466E-11
   6.98999977      -1.88604202E-11
   7.05000019      -1.87878949E-11
   7.11000013      -2.25238803E-11
   7.17000008      -3.07777345E-11
   7.23000002      -4.37899092E-11
   7.28999996      -6.13376641E-11
   7.34999990      -8.28717373E-11
   7.40999985      -1.07738929E-10
   7.46999979      -1.35397790E-10
   7.53000021      -1.65520306E-10
   7.59000015      -1.97903915E-10
   7.65000010      -2.32185729E-10
   7.71000004      -2.67429606E-10
   7.76999998      -3.01713238E-10
   7.82999992      -3.31855765E-10
   7.88999987      -3.53392732E-10
   7.94999981      -3.60840996E-10
   8.01000023      -3.48229529E-10
   8.06999969      -3.09826192E-10
   8.13000011      -2.40971687E-10
   8.18999958      -1.38934850E-10
   8.25000000      -3.70938566E-12
   8.31000042       1.61332323E-10
   8.36999989       3.49024115E-10
   8.43000031       5.48335433E-10
   8.48999977       7.44733109E-10
   8.55000019       9.21010324E-10
   8.60999966       1.05853626E-09
   8.67000008       1.13878873E-09
   8.72999954       1.14497511E-09
   8.78999996       1.06354414E-09
   8.85000038       8.85444662E-10
   8.90999985       6.07079498E-10
   8.97000027       2.30974184E-10
   9.02999973      -2.33793901E-10
   9.09000015      -7.71415209E-10
   9.14999962      -1.35952305E-09
   9.21000004      -1.96992267E-09
   9.27000046      -2.57009569E-09
   9.32999992      -3.12559334E-09
   9.39000034      -3.60323149E-09
   9.44999981      -3.97472322E-09
   9.51000023      -4.22016910E-09
   9.56999969      -4.33072644E-09
   9.63000011      -4.30987868E-09
   9.68999958      -4.17296775E-09
   9.75000000      -3.94504207E-09
   9.81000042      -3.65740593E-09
   9.86999989      -3.34352346E-09
   9.93000031      -3.03503156E-09
   9.98999977      -2.75851164E-09
   10.0500002      -2.53345922E-09
   10.1099997      -2.37157227E-09
   10.1700001      -2.27717756E-09
   10.2299995      -2.24838947E-09
   10.2900000      -2.27850649E-09
   10.3500004      -2.35722397E-09
   10.4099998      -2.47146148E-09
   10.4700003      -2.60588084E-09
   10.5299997      -2.74341971E-09
   10.5900002      -2.86625856E-09
   10.6499996      -2.95750335E-09
   10.7100000      -3.00354719E-09
   10.7700005      -2.99665737E-09
   10.8299999      -2.93700975E-09
   10.8900003      -2.83334600E-09
   10.9499998      -2.70170064E-09
   11.0100002      -2.56221511E-09
   11.0699997      -2.43469023E-09
   11.1300001      -2.33401098E-09
   11.1899996      -2.26668684E-09
   11.2500000      -2.22943530E-09
   11.3100004      -2.21014140E-09
   11.3699999      -2.19084062E-09
   11.4300003      -2.15188378E-09
   11.4899998      -2.07627293E-09
   11.5500002      -1.95328576E-09
   11.6099997      -1.78084425E-09
   11.6700001      -1.56640623E-09
   11.7299995      -1.32640510E-09
   11.7900000      -1.08440001E-09
   11.8500004      -8.68209005E-10
   11.9099998      -7.06438463E-10
   11.9700003      -6.24991725E-10
   12.0299997      -6.44235276E-10
   12.0900002      -7.77406528E-10
   12.1499996      -1.03050157E-09
   12.2100000      -1.40338485E-09
   12.2700005      -1.89141014E-09
   12.3299999      -2.48669285E-09
   12.3900003      -3.17842996E-09
   12.4499998      -3.95226474E-09
   12.5100002      -4.78934847E-09
   12.5699997      -5.66613734E-09
   12.6300001      -6.55583854E-09
   12.6899996      -7.43177209E-09
   12.7500000      -8.27201774E-09
   12.8100004      -9.06398689E-09
   12.8699999      -9.80728299E-09
   12.9300003      -1.05136566E-08
   12.9899998      -1.12037251E-08
   13.0500002      -1.19012453E-08
   13.1099997      -1.26265318E-08
   13.1700001      -1.33908413E-08
   13.2299995      -1.41932386E-08
   13.2900000      -1.50205874E-08
   13.3500004      -1.58504143E-08
   13.4099998      -1.66555765E-08
   13.4700003      -1.74094001E-08
   13.5299997      -1.80899651E-08
   13.5900002      -1.86826732E-08
   13.6499996      -1.91808223E-08
   13.7100000      -1.95843786E-08
   13.7700005      -1.98975698E-08
   13.8299999      -2.01260661E-08
   13.8900003      -2.02746087E-08
   13.9499998      -2.03456541E-08
   14.0100002      -2.03394404E-08
   14.0699997      -2.02553672E-08
   14.1300001      -2.00941717E-08
   14.1899996      -1.98600869E-08
   14.2500000      -1.95620373E-08
   14.3100004      -1.92132816E-08
   14.3699999      -1.88294180E-08
   14.4300003      -1.84253572E-08
   14.4899998      -1.80123312E-08
   14.5500002      -1.75961024E-08
   14.6099997      -1.71771397E-08
   14.6700001      -1.67528142E-08
   14.7299995      -1.63209073E-08
   14.7900000      -1.58832094E-08
   14.8500004      -1.54479309E-08
   14.9099998      -1.50300004E-08
   14.9700003      -1.46490438E-08
   15.0299997      -1.43255239E-08
   15.0900002      -1.40760799E-08
   15.1499996      -1.39093821E-08
   15.2100000      -1.38236738E-08
   15.2700005      -1.38067433E-08
   15.3299999      -1.38383891E-08
   15.3900003      -1.38946898E-08
   15.4499998      -1.39528176E-08
   15.5100002      -1.39949501E-08
   15.5699997      -1.40101486E-08
   15.6300001      -1.39938443E-08
   15.6899996      -1.39454714E-08
   15.7500000      -1.38654919E-08
   15.8100004      -1.37531559E-08
   15.8699999      -1.36058942E-08
   15.9300003      -1.34203351E-08
   15.9899998      -1.31942084E-08
   16.0499992      -1.29279769E-08
   16.1100006      -1.26253363E-08
   16.1700001      -1.22923609E-08
   16.2299995      -1.19357884E-08
   16.2900009      -1.15612719E-08
   16.3500004      -1.11723599E-08
   16.4099998      -1.07704583E-08
   16.4699993      -1.03555458E-08
   16.5300007      -9.92715243E-09
   16.5900002      -9.48512735E-09
   16.6499996      -9.02999897E-09
   16.7099991      -8.56299387E-09
   16.7700005      -8.08589284E-09
   16.8299999      -7.60087282E-09
   16.8899994      -7.11036341E-09
   16.9500008      -6.61691857E-09
   17.0100002      -6.12311890E-09
   17.0699997      -5.63157432E-09
   17.1299992      -5.14506393E-09
   17.1900005      -4.66675010E-09
   17.2500000      -4.20025037E-09
   17.3099995      -3.74933462E-09
   17.3700008      -3.31712524E-09
   17.4300003      -2.90495938E-09
   17.4899998      -2.51129562E-09
   17.5499992      -2.13113371E-09
   17.6100006      -1.75624770E-09
   17.6700001      -1.37621581E-09
   17.7299995      -9.79914816E-10
   17.7900009      -5.56993562E-10
   17.8500004      -9.89168261E-11
   17.9099998       4.00592531E-10
   17.9699993       9.45599266E-10
   18.0300007       1.53818636E-09
   18.0900002       2.17853180E-09
   18.1499996       2.86463098E-09
   18.2099991       3.59170405E-09
   18.2700005       4.35158842E-09
   18.3299999       5.13260234E-09
   18.3899994       5.92035043E-09
   18.4500008       6.69966260E-09
   18.5100002       7.45736095E-09
   18.5699997       8.18500467E-09
   18.6299992       8.88041818E-09
   18.6900005       9.54701562E-09
   18.7500000       1.01906439E-08
   18.8099995       1.08148024E-08
   18.8700008       1.14160343E-08
   18.9300003       1.19816566E-08
   18.9899998       1.24913448E-08
   19.0499992       1.29226354E-08
   19.1100006       1.32587319E-08
   19.1700001       1.34957503E-08
   19.2299995       1.36464831E-08
   19.2900009       1.37388891E-08
   19.3500004       1.38095002E-08
   19.4099998       1.38938816E-08
   19.4699993       1.40174912E-08
   19.5300007       1.41900856E-08
   19.5900002       1.44054813E-08
   19.6499996       1.46464325E-08
   19.7099991       1.48925245E-08
   19.7700005       1.51280144E-08
   19.8299999       1.53467532E-08
   19.8899994       1.55526667E-08
   19.9500008       1.57560081E-08
   20.0100002       1.59672791E-08
   20.0699997       1.61913860E-08
   20.1299992       1.64244280E-08
   20.1900005       1.66542602E-08
   20.2500000       1.68643997E-08
   20.3099995       1.70395715E-08
   20.3700008       1.71705867E-08
   20.4300003       1.72566779E-08
   20.4899998       1.73045684E-08
   20.5499992       1.73249290E-08
   20.6100006       1.73278796E-08
   20.6700001       1.73194241E-08
   20.7299995       1.73001169E-08
   20.7900009       1.72660801E-08
   20.8500004       1.72114856E-08
   20.9099998       1.71309491E-08
   20.9699993       1.70205379E-08
   21.0300007       1.68768342E-08
   21.0900002       1.66945675E-08
   21.1499996       1.64640852E-08
   21.2099991       1.61700591E-08
   21.2700005       1.57923150E-08
   21.3299999       1.53088191E-08
   21.3899994       1.46998778E-08
   21.4500008       1.39521426E-08
   21.5100002       1.30610287E-08
   21.5699997       1.20307249E-08
   21.6299992       1.08717888E-08
   21.6900005       9.59711244E-09
   21.7500000       8.21756885E-09
   21.8099995       6.73876421E-09
   21.8700008       5.15998400E-09
   21.9300003       3.47578477E-09
   21.9899998       1.67983583E-09
   22.0499992      -2.30169508E-10
   22.1100006      -2.24816943E-09
   22.1700001      -4.35753966E-09
   22.2299995      -6.53197763E-09
   22.2900009      -8.73934347E-09
   22.3500004      -1.09472280E-08
   22.4099998      -1.31283926E-08
   22.4699993      -1.52642574E-08
   22.5300007      -1.73454868E-08
   22.5900002      -1.93697929E-08
   22.6499996      -2.13381863E-08
   22.7099991      -2.32512196E-08
   22.7700005      -2.51065337E-08
   22.8299999      -2.68981424E-08
   22.8899994      -2.86171833E-08
   22.9500008      -3.02533181E-08
   23.0100002      -3.17961018E-08
   23.0699997      -3.32359349E-08
   23.1299992      -3.45646711E-08
   23.1900005      -3.57759617E-08
   23.2500000      -3.68654547E-08
   23.3099995      -3.78306844E-08
   23.3700008      -3.86705423E-08
   23.4300003      -3.93844566E-08
   23.4899998      -3.99715816E-08
   23.5499992      -4.04305567E-08
   23.6100006      -4.07601917E-08
   23.6700001      -4.09609200E-08
   23.7299995      -4.10365111E-08
   23.7900009      -4.09951788E-08
   23.8500004      -4.08494465E-08
   23.9099998      -4.06145588E-08
   23.9699993      -4.03057214E-08
   24.0300007      -3.99349993E-08
   24.0900002      -3.95087589E-08
   24.1499996      -3.90263999E-08
   24.2099991      -3.84808665E-08
   24.2700005      -3.78608753E-08
   24.3299999      -3.71543436E-08
   24.3899994      -3.63520307E-08
   24.4500008      -3.54503058E-08
   24.5100002      -3.44520785E-08
   24.5699997      -3.33655521E-08
   24.6299992      -3.22012497E-08
   24.6900005      -3.09684616E-08
   24.7500000      -2.96726022E-08
   24.8099995      -2.83145045E-08
   24.8700008      -2.68919305E-08
   24.9300003      -2.54025512E-08
   24.9899998      -2.38471056E-08
   25.0499992      -2.22313901E-08
   25.1100006      -2.05663095E-08
   25.1700001      -1.88660234E-08
   25.2299995      -1.71448153E-08
   25.2900009      -1.54137094E-08
   25.3500004      -1.36777665E-08
   25.4099998      -1.19348256E-08
   25.4699993      -1.01761346E-08
   25.5300007      -8.38900860E-09
   25.5900002      -6.56122623E-09
   25.6499996      -4.68633932E-09
   25.7099991      -2.76861867E-09
   25.7700005      -8.26133939E-10
   25.8299999       1.10918941E-09
   25.8899994       2.99488168E-09
   25.9500008       4.78388218E-09
   26.0100002       6.43155840E-09
   26.0699997       7.90193599E-09
   26.1299992       9.17170251E-09
   26.1900005       1.02314148E-08
   26.2500000       1.10842588E-08
   26.3099995       1.17432704E-08
   26.3700008       1.22280062E-08
   26.4300003       1.25613244E-08
   26.4899998       1.27665158E-08
   26.5499992       1.28647208E-08
   26.6100006       1.28725555E-08
   26.6700001       1.28000250E-08
   26.7299995       1.26489832E-08
   26.7900009       1.24124773E-08
   26.8500004       1.20752199E-08
   26.9099998       1.16151826E-08
   26.9699993       1.10060574E-08
   27.0300007       1.02201687E-08
   27.0900002       9.23143251E-09
   27.1499996       8.01804756E-09
   27.2099991       6.56480736E-09
   27.2700005       4.86495644E-09
   27.3299999       2.92149749E-09
   27.3899994       7.47705287E-10
   27.4500008      -1.63347080E-09
   27.5100002      -4.19128154E-09
   27.5699997      -6.89012891E-09
   27.6299992      -9.69289982E-09
   27.6900005      -1.25636817E-08
   27.7500000      -1.54690074E-08
   27.8099995      -1.83773441E-08
   27.8700008      -2.12573994E-08
   27.9300003      -2.40763249E-08
   27.9899998      -2.67990163E-08
   28.0499992      -2.93889340E-08
   28.1100006      -3.18101065E-08
   28.1700001      -3.40291137E-08
   28.2299995      -3.60160222E-08
   28.2900009      -3.77436855E-08
   28.3500004      -3.91860340E-08
   28.4099998      -4.03163902E-08
   28.4699993      -4.11071674E-08
   28.5300007      -4.15315640E-08
   28.5900002      -4.15669099E-08
   28.6499996      -4.11986854E-08
   28.7099991      -4.04238989E-08
   28.7700005      -3.92527468E-08
   28.8299999      -3.77080021E-08
   28.8899994      -3.58222536E-08
   28.9500008      -3.36334658E-08
   29.0100002      -3.11799369E-08
   29.0699997      -2.84957533E-08
   29.1299992      -2.56080046E-08
   29.1900005      -2.25363461E-08
   29.2500000      -1.92948839E-08
   29.3099995      -1.58952886E-08
   29.3700008      -1.23497026E-08
   29.4300003      -8.67209415E-09
   29.4899998      -4.87777463E-09
   29.5499992      -9.81844051E-10
   29.6100006       3.00198866E-09
   29.6700001       7.06102021E-09
   29.7299995       1.11814273E-08
   29.7900009       1.53453730E-08
   29.8500004       1.95287910E-08
   29.9099998       2.37009896E-08
   29.9699993       2.78260437E-08
   30.0300007       3.18651736E-08
   30.0900002       3.57790420E-08
   30.1499996       3.95294038E-08
   30.2099991       4.30804619E-08
   30.2700005       4.64005083E-08
   30.3299999       4.94639067E-08
   30.3899994       5.22526804E-08
   30.4500008       5.47563808E-08
   30.5100002       5.69692844E-08
   30.5699997       5.88853517E-08
   30.6299992       6.04929866E-08
   30.6900005       6.17720062E-08
   30.7500000       6.26946814E-08
   30.8099995       6.32306580E-08
   30.8700008       6.33536388E-08
   30.9300003       6.30471035E-08
   30.9899998       6.23066825E-08
   31.0499992       6.11388771E-08
   31.1100006       5.95572835E-08
   31.1700001       5.75783368E-08
   31.2299995       5.52182087E-08
   31.2900009       5.24914725E-08
   31.3500004       4.94113443E-08
   31.4099998       4.59908058E-08
   31.4699993       4.22443911E-08
   31.5300007       3.81903789E-08
   31.5900002       3.38530732E-08
   31.6499996       2.92644202E-08
   31.7099991       2.44639278E-08
   31.7700005       1.94963246E-08
   31.8299999       1.44073171E-08
   31.8899994       9.23894383E-09
   31.9500008       4.02636546E-09
   32.0099983      -1.20265731E-09
   32.0699997      -6.42563780E-09
   32.1300011      -1.16218697E-08
   32.1899986      -1.67691976E-08
   32.2500000      -2.18421761E-08
   32.3100014      -2.68116978E-08
   32.3699989      -3.16454312E-08
   32.4300003      -3.63084318E-08
   32.4900017      -4.07638936E-08
   32.5499992      -4.49744988E-08
   32.6100006      -4.89047451E-08
   32.6699982      -5.25239940E-08
   32.7299995      -5.58091493E-08
   32.7900009      -5.87455240E-08
   32.8499985      -6.13254088E-08
   32.9099998      -6.35446824E-08
   32.9700012      -6.53992700E-08
   33.0299988      -6.68830609E-08
   33.0900002      -6.79882390E-08
   33.1500015      -6.87077204E-08
   33.2099991      -6.90383501E-08
   33.2700005      -6.89835673E-08
   33.3300018      -6.85546269E-08
   33.3899994      -6.77706069E-08
   33.4500008      -6.66574635E-08
   33.5099983      -6.52465033E-08
   33.5699997      -6.35722870E-08
   33.6300011      -6.16697449E-08
   33.6899986      -5.95708443E-08
   33.7500000      -5.73014773E-08
   33.8100014      -5.48796848E-08
   33.8699989      -5.23159471E-08
   33.9300003      -4.96155472E-08
   33.9900017      -4.67820485E-08
   34.0499992      -4.38207586E-08
   34.1100006      -4.07411740E-08
   34.1699982      -3.75580633E-08
   34.2299995      -3.42914817E-08
   34.2900009      -3.09659676E-08
   34.3499985      -2.76091825E-08
   34.4099998      -2.42499354E-08
   34.4700012      -2.09158486E-08
   34.5299988      -1.76312742E-08
   34.5900002      -1.44163339E-08
   34.6500015      -1.12878169E-08
   34.7099991      -8.26171753E-09
   34.7700005      -5.35635269E-09
   34.8300018      -2.59438560E-09
   34.8899994      -2.43080491E-12
   34.9500008       2.39202391E-09
   35.0099983       4.56543825E-09
   35.0699997       6.50308207E-09
   35.1300011       8.20227708E-09
   35.1899986       9.67302238E-09
   35.2500000       1.09358504E-08
   35.3100014       1.20174075E-08
   35.3699989       1.29446613E-08
   35.4300003       1.37388545E-08
   35.4900017       1.44106194E-08
   35.5499992       1.49576795E-08
   35.6100006       1.53662150E-08
   35.6699982       1.56158606E-08
   35.7299995       1.56869220E-08
   35.7900009       1.55671618E-08
   35.8499985       1.52555568E-08
   35.9099998       1.47615253E-08
   35.9700012       1.41002925E-08
   36.0299988       1.32867113E-08
   36.0900002       1.23305677E-08
   36.1500015       1.12353948E-08
   36.2099991       1.00009672E-08
   36.2700005       8.62791616E-09
   36.3300018       7.12219439E-09
   36.3899994       5.49755930E-09
   36.4500008       3.77541198E-09
   36.5099983       1.98236561E-09
   36.5699997       1.46397519E-10
   36.6300011      -1.70759717E-09
   36.6899986      -3.56209462E-09
   36.7500000      -5.41015455E-09
   36.8100014      -7.25636573E-09
   36.8699989      -9.11445852E-09
   36.9300003      -1.10014122E-08
   36.9900017      -1.29294211E-08
   37.0499992      -1.48984567E-08
   37.1100006      -1.68924856E-08
   37.1699982      -1.88812521E-08
   37.2299995      -2.08272546E-08
   37.2900009      -2.26953425E-08
   37.3499985      -2.44612135E-08
   37.4099998      -2.61156821E-08
   37.4700012      -2.76634591E-08
   37.5299988      -2.91173397E-08
   37.5900002      -3.04902628E-08
   37.6500015      -3.17881259E-08
   37.7099991      -3.30056764E-08
   37.7700005      -3.41267743E-08
   37.8300018      -3.51289238E-08
   37.8899994      -3.59908938E-08
   37.9500008      -3.67009818E-08
   38.0099983      -3.72630353E-08
   38.0699997      -3.76972515E-08
   38.1300011      -3.80346563E-08
   38.1899986      -3.83062542E-08
   38.2500000      -3.85305725E-08
   38.3100014      -3.87044921E-08
   38.3699989      -3.88013568E-08
   38.4300003      -3.87775998E-08
   38.4900017      -3.85856183E-08
   38.5499992      -3.81877889E-08
   38.6100006      -3.75665223E-08
   38.6699982      -3.67269521E-08
   38.7299995      -3.56922243E-08
   38.7900009      -3.44939224E-08
   38.8499985      -3.31615944E-08
   38.9099998      -3.17147162E-08
   38.9700012      -3.01591037E-08
   39.0299988      -2.84881221E-08
   39.0900002      -2.66880225E-08
   39.1500015      -2.47460683E-08
   39.2099991      -2.26593890E-08
   39.2700005      -2.04419397E-08
   39.3300018      -1.81267517E-08
   39.3899994      -1.57615627E-08
   39.4500008      -1.33981075E-08
   39.5099983      -1.10781029E-08
   39.5699997      -8.82102658E-09
   39.6300011      -6.61886101E-09
   39.6899986      -4.44051551E-09
   39.7500000      -2.24480368E-09
   39.8100014       2.82338194E-12
   39.8699989       2.31622699E-09
   39.9300003       4.68252281E-09
   39.9900017       7.06604997E-09
   40.0499992       9.42053813E-09
   40.1100006       1.17047829E-08
   40.1699982       1.38963543E-08
   40.2299995       1.59989249E-08
   40.2900009       1.80411703E-08
   40.3499985       2.00677750E-08
   40.4099998       2.21253700E-08
   40.4700012       2.42475515E-08
   40.5299988       2.64436757E-08
   40.5900002       2.86951813E-08
   40.6500015       3.09612140E-08
   40.7099991       3.31922330E-08
   40.7700005       3.53474157E-08
   40.8300018       3.74097517E-08
   40.8899994       3.93932211E-08
   40.9500008       4.13390246E-08
   41.0099983       4.33018741E-08
   41.0699997       4.53311308E-08
   41.1300011       4.74534865E-08
   41.1899986       4.96631962E-08
   41.2500000       5.19229246E-08
   41.3100014       5.41744569E-08
   41.3699989       5.63551446E-08
   41.4300003       5.84144608E-08
   41.4900017       6.03253909E-08
   41.5499992       6.20874445E-08
   41.6100006       6.37208970E-08
   41.6699982       6.52544543E-08
   41.7299995       6.67106121E-08
   41.7900009       6.80934775E-08
   41.8499985       6.93832973E-08
   41.9099998       7.05397483E-08
   41.9700012       7.15131918E-08
   42.0299988       7.22603843E-08
   42.0900002       7.27591001E-08
   42.1500015       7.30163521E-08
   42.2099991       7.30666869E-08
   42.2700005       7.29606455E-08
   42.3300018       7.27470351E-08
   42.3899994       7.24552507E-08
   42.4500008       7.20838145E-08
   42.5099983       7.15996507E-08
   42.5699997       7.09482961E-08
   42.6300011       7.00718132E-08
   42.6899986       6.89282089E-08
   42.7500000       6.75056313E-08
   42.8100014       6.58267467E-08
   42.8699989       6.39418261E-08
   42.9300003       6.19129921E-08
   42.9900017       5.97952123E-08
   43.0499992       5.76201060E-08
   43.1100006       5.53881421E-08
   43.1699982       5.30714743E-08
   43.2299995       5.06267099E-08
   43.2900009       4.80133124E-08
   43.3499985       4.52117490E-08
   43.4099998       4.22353459E-08
   43.4700012       3.91318551E-08
   43.5299988       3.59738834E-08
   43.5900002       3.28410863E-08
   43.6500015       2.97999492E-08
   43.7099991       2.68878537E-08
   43.7700005       2.41068516E-08
   43.8300018       2.14292530E-08
   43.8899994       1.88129174E-08
   43.9500008       1.62207439E-08
   44.0099983       1.36374574E-08
   44.0699997       1.10780185E-08
   44.1300011       8.58509441E-09
   44.1899986       6.21704910E-09
   44.2500000       4.03095646E-09
   44.3100014       2.06643080E-09
   44.3699989       3.35335398E-10
   44.4300003      -1.17985022E-09
   44.4900017      -2.51899990E-09
   44.5499992      -3.73112874E-09
   44.6100006      -4.85906604E-09
   44.6699982      -5.92654192E-09
   44.7299995      -6.93149849E-09
   44.7900009      -7.84770293E-09
   44.8499985      -8.63424976E-09
   44.9099998      -9.25000077E-09
   44.9700012      -9.66822622E-09
   45.0299988      -9.88646587E-09
   45.0900002      -9.92821469E-09
   45.1500015      -9.83595072E-09
   45.2099991      -9.65816671E-09
   45.2700005      -9.43517708E-09
   45.3300018      -9.18869159E-09
   45.3899994      -8.91852370E-09
   45.4500008      -8.60709992E-09
   45.5099983      -8.22976887E-09
   45.5699997      -7.76717091E-09
   45.6300011      -7.21550686E-09
   45.6899986      -6.59139010E-09
   45.7500000      -5.92963811E-09
   45.8100014      -5.27449373E-09
   45.8699989      -4.66689887E-09
   45.9300003      -4.13194279E-09
   45.9900017      -3.67097441E-09
   46.0499992      -3.26156946E-09
   46.1100006      -2.86584911E-09
   46.1699982      -2.44438558E-09
   46.2299995      -1.97052263E-09
   46.2900009      -1.43960599E-09
   46.3499985      -8.69663730E-10
   46.4099998      -2.93634395E-10
   46.4700012       2.53321669E-10
   46.5299988       7.46196271E-10
   46.5900002       1.17763954E-09
   46.6500015       1.55850854E-09
   46.7099991       1.91224703E-09
   46.7700005       2.26582753E-09
   46.8300018       2.64043631E-09
   46.8899994       3.04438719E-09
   46.9500008       3.46968920E-09
   47.0099983       3.89284693E-09
   47.0699997       4.27985958E-09
   47.1300011       4.59464644E-09
   47.1899986       4.80907003E-09
   47.2500000       4.91167640E-09
   47.3100014       4.91196861E-09
   47.3699989       4.83808460E-09
   47.4300003       4.72805173E-09
   47.4900017       4.61743666E-09
   47.5499992       4.52781368E-09
   47.6100006       4.46022774E-09
   47.6699982       4.39577708E-09
   47.7299995       4.30260982E-09
   47.7900009       4.14641654E-09
   47.8499985       3.90070154E-09
   47.9099998       3.55382079E-09
   47.9700012       3.11125103E-09
   48.0299988       2.59307664E-09
   48.0900002       2.02774442E-09
   48.1500015       1.44381518E-09
   48.2099991       8.61871463E-10
   48.2700005       2.88873758E-10
   48.3300018      -2.83165602E-10
   48.3899994      -8.73549288E-10
   48.4500008      -1.50545398E-09
   48.5099983      -2.19743801E-09
   48.5699997      -2.95716807E-09
   48.6300011      -3.77962817E-09
   48.6899986      -4.64997374E-09
   48.7500000      -5.54913981E-09
   48.8100014      -6.45940146E-09
   48.8699989      -7.36774375E-09
   48.9300003      -8.26654034E-09
   48.9900017      -9.15251430E-09
   49.0499992      -1.00253725E-08
   49.1100006      -1.08868266E-08
   49.1699982      -1.17396395E-08
   49.2299995      -1.25859270E-08
   49.2900009      -1.34245157E-08
   49.3499985      -1.42483003E-08
   49.4099998      -1.50432733E-08
   49.4700012      -1.57904338E-08
   49.5299988      -1.64702900E-08
   49.5900002      -1.70680234E-08
   49.6500015      -1.75767632E-08
   49.7099991      -1.79972854E-08
   49.7700005      -1.83343385E-08
   49.8300018      -1.85915923E-08
   49.8899994      -1.87678282E-08
   49.9500008      -1.88560652E-08
   50.0099983      -1.88457392E-08
   50.0699997      -1.87264479E-08
   50.1300011      -1.84914182E-08
   50.1899986      -1.81394189E-08
   50.2500000      -1.76749140E-08
   50.3100014      -1.71070429E-08
   50.3699989      -1.64481300E-08
   50.4300003      -1.57120663E-08
   50.4900017      -1.49125299E-08
   50.5499992      -1.40610608E-08
   50.6100006      -1.31652271E-08