 -0.750000000       0.00000000    
 -0.689999998       0.00000000    
 -0.629999995       0.00000000    
 -0.569999993       0.00000000    
 -0.509999990       0.00000000    
 -0.449999988       0.00000000    
 -0.389999986       0.00000000    
 -0.330000013       0.00000000    
 -0.270000011      -1.00372774E-26
 -0.209999993      -9.89354033E-26
 -0.150000006      -3.36078411E-25
  -9.00000036E-02   3.50626880E-25
  -2.99999993E-02   8.34214727E-24
   2.99999993E-02   4.16765030E-23
   9.00000036E-02   1.25941126E-22
  0.150000006       2.52474743E-22
  0.209999993       2.85137245E-22
  0.270000011      -1.22169386E-22
  0.330000013      -1.43145756E-21
  0.389999986      -3.80549853E-21
  0.449999988      -6.51687702E-21
  0.509999990      -7.70775215E-21
  0.569999993      -4.87218307E-21
  0.629999995       4.70540722E-21
  0.689999998       2.54121016E-20
  0.750000000       6.66431438E-20
  0.810000002       1.41044414E-19
  0.870000005       2.43138652E-19
  0.930000007       2.99690690E-19
  0.990000010       1.17424130E-19
   1.04999995      -5.90814114E-19
   1.11000001      -1.99436058E-18
   1.16999996      -3.72516281E-18
   1.23000002      -4.46377140E-18
   1.28999996      -2.02837694E-18
   1.35000002       5.48655996E-18
   1.40999997       1.74846940E-17
   1.47000003       2.86197213E-17
   1.52999997       2.87096391E-17
   1.59000003       7.00188702E-18
   1.64999998      -3.91475136E-17
   1.71000004      -9.51382046E-17
   1.76999998      -1.27151027E-16
   1.83000004      -9.45893207E-17
   1.88999999       2.28660531E-17
   1.95000005       1.95651945E-16
   2.00999999       3.34578649E-16
   2.06999993       3.21667644E-16
   2.13000011       8.23906896E-17
   2.19000006      -3.32551647E-16
   2.25000000      -7.14003458E-16
   2.30999994      -7.62753804E-16
   2.36999989      -2.63288677E-16
   2.43000007       7.11750033E-16
   2.49000001       1.70261182E-15
   2.54999995       1.99471346E-15
   2.60999990       9.99000399E-16
   2.67000008      -1.27423084E-15
   2.73000002      -3.93875699E-15
   2.78999996      -5.43110538E-15
   2.84999990      -4.24914036E-15
   2.91000009       4.75062101E-17
   2.97000003       6.13605829E-15
   3.02999997       1.10964755E-14
   3.08999991       1.16440679E-14
   3.15000010       6.00537254E-15
   3.21000004      -4.53253895E-15
   3.26999998      -1.54591932E-14
   3.32999992      -2.07684212E-14
   3.39000010      -1.60559178E-14
   3.45000005      -1.49450101E-15
   3.50999999       1.71061810E-14
   3.56999993       3.02379717E-14
   3.63000011       2.91980829E-14
   3.69000006       1.11459719E-14
   3.75000000      -1.80245088E-14
   3.80999994      -4.50285629E-14
   3.86999989      -5.48044073E-14
   3.93000007      -3.81248073E-14
   3.99000001       2.50402950E-15
   4.05000019       5.20106148E-14
   4.11000013       8.81741986E-14
   4.17000008       9.14234237E-14
   4.23000002       5.47181963E-14
   4.28999996      -1.13231830E-14
   4.34999990      -8.11108721E-14
   4.40999985      -1.24225717E-13
   4.46999979      -1.19087452E-13
   4.53000021      -6.41267299E-14
   4.59000015       1.91110199E-14
   4.65000010       9.34714342E-14
   4.71000004       1.22279384E-13
   4.76999998       8.76686012E-14
   4.82999992       2.68378938E-15
   4.88999987      -8.99193846E-14
   4.94999981      -1.34257094E-13
   5.01000023      -8.82998712E-14
   5.07000017       4.99728263E-14
   5.13000011       2.30644442E-13
   5.19000006       3.63556922E-13
   5.25000000       3.53360380E-13
   5.30999994       1.45901561E-13
   5.36999989      -2.34313681E-13
   5.42999983      -6.75563555E-13
   5.48999977      -1.00883071E-12
   5.55000019      -1.06872486E-12
   5.61000013      -7.61932780E-13
   5.67000008      -1.13212113E-13
   5.73000002       7.33425582E-13
   5.78999996       1.56114726E-12
   5.84999990       2.15459725E-12
   5.90999985       2.36823994E-12
   5.96999979       2.15746193E-12
   6.03000021       1.56023653E-12
   6.09000015       6.43822669E-13
   6.15000010      -5.48598547E-13
   6.21000004      -2.01383983E-12
   6.26999998      -3.74788828E-12
   6.32999992      -5.66039490E-12
   6.38999987      -7.48580451E-12
   6.44999981      -8.74463696E-12
   6.51000023      -8.79576620E-12
   6.57000017      -6.98693837E-12
   6.63000011      -2.86984976E-12
   6.69000006       3.58494332E-12
   6.75000000       1.18459392E-11
   6.80999994       2.08055153E-11
   6.86999989       2.89076350E-11
   6.92999983       3.43912954E-11
   6.98999977       3.55899407E-11
   7.05000019       3.12159881E-11
   7.11000013       2.05728195E-11
   7.17000008       3.66813871E-12
   7.23000002      -1.87597854E-11
   7.28999996      -4.52624535E-11
   7.34999990      -7.36987554E-11
   7.40999985      -1.01217097E-10
   7.46999979      -1.24206562E-10
   7.53000021      -1.38265746E-10
   7.59000015      -1.38270853E-10
   7.65000010      -1.18628871E-10
   7.71000004      -7.37698236E-11
   7.76999998       1.13135900E-12
   7.82999992       1.09288426E-10
   7.88999987       2.51439397E-10
   7.94999981       4.25155910E-10
   8.01000023       6.24475416E-10
   8.06999969       8.39939562E-10
   8.13000011       1.05904019E-09
   8.18999958       1.26699606E-09
   8.25000000       1.44774115E-09
   8.31000042       1.58500124E-09
   8.36999989       1.66336178E-09
   8.43000031       1.66927405E-09
   8.48999977       1.59197022E-09
   8.55000019       1.42427414E-09
   8.60999966       1.16327670E-09
   8.67000008       8.10831569E-10
   8.72999954       3.73815590E-10
   8.78999996      -1.35886830E-10
   8.85000038      -7.01692593E-10
   8.90999985      -1.30291078E-09
   8.97000027      -1.91559835E-09
   9.02999973      -2.51367260E-09
   9.09000015      -3.07030046E-09
   9.14999962      -3.55957908E-09
   9.21000004      -3.95850108E-09
   9.27000046      -4.24907620E-09
   9.32999992      -4.42037962E-09
   9.39000034      -4.47015358E-09
   9.44999981      -4.40557457E-09
   9.51000023      -4.24286606E-09
   9.56999969      -4.00565892E-09
   9.63000011      -3.72228648E-09
   9.68999958      -3.42249473E-09
   9.75000000      -3.13418957E-09
   9.81000042      -2.88085888E-09
   9.86999989      -2.68008216E-09
   9.93000031      -2.54321852E-09
   9.98999977      -2.47602294E-09
   10.0500002      -2.47970400E-09
   10.1099997      -2.55190025E-09
   10.1700001      -2.68721534E-09
   10.2299995      -2.87725022E-09
   10.2900000      -3.11039550E-09
   10.3500004      -3.37183481E-09
   10.4099998      -3.64422359E-09
   10.4700003      -3.90928134E-09
   10.5299997      -4.15016377E-09
   10.5900002      -4.35412417E-09
   10.6499996      -4.51471704E-09
   10.7100000      -4.63281502E-09
   10.7700005      -4.71598360E-09
   10.8299999      -4.77622475E-09
   10.8900003      -4.82662843E-09
   10.9499998      -4.87783502E-09
   11.0100002      -4.93532282E-09
   11.0699997      -4.99830133E-09
   11.1300001      -5.06049869E-09
   11.1899996      -5.11254550E-09
   11.2500000      -5.14516785E-09
   11.3100004      -5.15217735E-09
   11.3699999      -5.13237541E-09
   11.4300003      -5.08989340E-09
   11.4899998      -5.03303976E-09
   11.5500002      -4.97219466E-09
   11.6099997      -4.91756103E-09
   11.6700001      -4.87750507E-09
   11.7299995      -4.85790741E-09
   11.7900000      -4.86250951E-09
   11.8500004      -4.89383023E-09
   11.9099998      -4.95405139E-09
   11.9700003      -5.04535835E-09
   12.0299997      -5.16949150E-09
   12.0900002      -5.32668976E-09
   12.1499996      -5.51450396E-09
   12.2100000      -5.72708148E-09
   12.2700005      -5.95539218E-09
   12.3299999      -6.18855323E-09
   12.3900003      -6.41601794E-09
   12.4499998      -6.63009470E-09
   12.5100002      -6.82812384E-09
   12.5699997      -7.01372871E-09
   12.6300001      -7.19676096E-09
   12.6899996      -7.39189199E-09
   12.7500000      -7.61604646E-09
   12.8100004      -7.88515919E-09
   12.8699999      -8.21083468E-09
   12.9300003      -8.59758753E-09
   12.9899998      -9.04129394E-09
   13.0500002      -9.52928048E-09
   13.1099997      -1.00421946E-08
   13.1700001      -1.05572990E-08
   13.2299995      -1.10524754E-08
   13.2900000      -1.15099041E-08
   13.3500004      -1.19184440E-08
   13.4099998      -1.22740804E-08
   13.4700003      -1.25784334E-08
   13.5299997      -1.28359305E-08
   13.5900002      -1.30506752E-08
   13.6499996      -1.32241373E-08
   13.7100000      -1.33544118E-08
   13.7700005      -1.34372202E-08
   13.8299999      -1.34681954E-08
   13.8900003      -1.34455060E-08
   13.9499998      -1.33717979E-08
   14.0100002      -1.32546241E-08
   14.0699997      -1.31050912E-08
   14.1300001      -1.29350264E-08
   14.1899996      -1.27535307E-08
   14.2500000      -1.25640671E-08
   14.3100004      -1.23631612E-08
   14.3699999      -1.21413750E-08
   14.4300003      -1.18865184E-08
   14.4899998      -1.15882610E-08
   14.5500002      -1.12427658E-08
   14.6099997      -1.08557785E-08
   14.6700001      -1.04429576E-08
   14.7299995      -1.00271018E-08
   14.7900000      -9.63292290E-09
   14.8500004      -9.28086141E-09
   14.9099998      -8.98187213E-09
   14.9700003      -8.73478356E-09
   15.0299997      -8.52708748E-09
   15.0900002      -8.33887981E-09
   15.1499996      -8.14871903E-09
   15.2100000      -7.93961075E-09
   15.2700005      -7.70333752E-09
   15.3299999      -7.44198836E-09
   15.3900003      -7.16640436E-09
   15.4499998      -6.89224011E-09
   15.5100002      -6.63496369E-09
   15.5699997      -6.40534603E-09
   15.6300001      -6.20671425E-09
   15.6899996      -6.03458927E-09
   15.7500000      -5.87859272E-09
   15.8100004      -5.72583803E-09
   15.8699999      -5.56467361E-09
   15.9300003      -5.38765832E-09
   15.9899998      -5.19297139E-09
   16.0499992      -4.98396835E-09
   16.1100006      -4.76713824E-09
   16.1700001      -4.54912374E-09
   16.2299995      -4.33371161E-09
   16.2900009      -4.11968770E-09
   16.3500004      -3.90022503E-09
   16.4099998      -3.66405883E-09
   16.4699993      -3.39818240E-09
   16.5300007      -3.09132697E-09
   16.5900002      -2.73719936E-09
   16.6499996      -2.33648856E-09
   16.7099991      -1.89701477E-09
   16.7700005      -1.43199352E-09
   16.8299999      -9.56986601E-10
   16.8899994      -4.86498952E-10
   16.9500008      -3.12133791E-11
   17.0100002       4.03442252E-10
   17.0699997       8.17181045E-10
   17.1299992       1.21343535E-09
   17.1900005       1.59715741E-09
   17.2500000       1.97246086E-09
   17.3099995       2.34067477E-09
   17.3700008       2.69926304E-09
   17.4300003       3.04190673E-09
   17.4899998       3.35982264E-09
   17.5499992       3.64408548E-09
   17.6100006       3.88836563E-09
   17.6700001       4.09124246E-09
   17.7299995       4.25726654E-09
   17.7900009       4.39628911E-09
   17.8500004       4.52118876E-09
   17.9099998       4.64473082E-09
   17.9699993       4.77664175E-09
   18.0300007       4.92186603E-09
   18.0900002       5.08047115E-09
   18.1499996       5.24901411E-09
   18.2099991       5.42264544E-09
   18.2700005       5.59710145E-09
   18.3299999       5.76989079E-09
   18.3899994       5.94042993E-09
   18.4500008       6.10926065E-09
   18.5100002       6.27674890E-09
   18.5699997       6.44176268E-09
   18.6299992       6.60080302E-09
   18.6900005       6.74795730E-09
   18.7500000       6.87588253E-09
   18.8099995       6.97770774E-09
   18.8700008       7.04937353E-09
   18.9300003       7.09157844E-09
   18.9899998       7.11041181E-09
   19.0499992       7.11607839E-09
   19.1100006       7.11983272E-09
   19.1700001       7.13007253E-09
   19.2299995       7.14906179E-09
   19.2900009       7.17169746E-09
   19.3500004       7.18699100E-09
   19.4099998       7.18182314E-09
   19.4699993       7.14554282E-09
   19.5300007       7.07359282E-09
   19.5900002       6.96873936E-09
   19.6499996       6.83945833E-09
   19.7099991       6.69620670E-09
   19.7700005       6.54707577E-09
   19.8299999       6.39450448E-09
   19.8899994       6.23421670E-09
   19.9500008       6.05666184E-09
   20.0100002       5.85034421E-09
   20.0699997       5.60582070E-09
   20.1299992       5.31901678E-09
   20.1900005       4.99280617E-09
   20.2500000       4.63642902E-09
   20.3099995       4.26301705E-09
   20.3700008       3.88609633E-09
   20.4300003       3.51625262E-09
   20.4899998       3.15901061E-09
   20.5499992       2.81450707E-09
   20.6100006       2.47882048E-09
   20.6700001       2.14617324E-09
   20.7299995       1.81093018E-09
   20.7900009       1.46850843E-09
   20.8500004       1.11492016E-09
   20.9099998       7.45411788E-10
   20.9699993       3.53152729E-10
   21.0300007      -7.10644946E-11
   21.0900002      -5.37644984E-10
   21.1499996      -1.05581710E-09
   21.2099991      -1.63098191E-09
   21.2700005      -2.26291763E-09
   21.3299999      -2.94567215E-09
   21.3899994      -3.66931396E-09
   21.4500008      -4.42299175E-09
   21.5100002      -5.19827026E-09
   21.5699997      -5.99162009E-09
   21.6299992      -6.80523060E-09
   21.6900005      -7.64587682E-09
   21.7500000      -8.52213322E-09
   21.8099995      -9.44075307E-09
   21.8700008      -1.04032711E-08
   21.9300003      -1.14038947E-08
   21.9899998      -1.24293891E-08
   22.0499992      -1.34611096E-08
   22.1100006      -1.44786334E-08
   22.1700001      -1.54638897E-08
   22.2299995      -1.64045293E-08
   22.2900009      -1.72954735E-08
   22.3500004      -1.81382749E-08
   22.4099998      -1.89386906E-08
   22.4699993      -1.97033891E-08
   22.5300007      -2.04369108E-08
   22.5900002      -2.11397175E-08
   22.6499996      -2.18076615E-08
   22.7099991      -2.24327348E-08
   22.7700005      -2.30046791E-08
   22.8299999      -2.35130333E-08
   22.8899994      -2.39491840E-08
   22.9500008      -2.43081111E-08
   23.0100002      -2.45893776E-08
   23.0699997      -2.47970551E-08
   23.1299992      -2.49383909E-08
   23.1900005      -2.50214782E-08
   23.2500000      -2.50526657E-08
   23.3099995      -2.50346552E-08
   23.3700008      -2.49661252E-08
   23.4300003      -2.48430858E-08
   23.4899998      -2.46614160E-08
   23.5499992      -2.44195384E-08
   23.6100006      -2.41200393E-08
   23.6700001      -2.37696156E-08
   23.7299995      -2.33774120E-08
   23.7900009      -2.29524932E-08
   23.8500004      -2.25013927E-08
   23.9099998      -2.20265832E-08
   23.9699993      -2.15262705E-08
   24.0300007      -2.09953956E-08
   24.0900002      -2.04275405E-08
   24.1499996      -1.98171115E-08
   24.2099991      -1.91612095E-08
   24.2700005      -1.84605202E-08
   24.3299999      -1.77188291E-08
   24.3899994      -1.69411543E-08
   24.4500008      -1.61310858E-08
   24.5100002      -1.52885260E-08
   24.5699997      -1.44090571E-08
   24.6299992      -1.34856304E-08
   24.6900005      -1.25122659E-08
   24.7500000      -1.14882832E-08
   24.8099995      -1.04211546E-08
   24.8700008      -9.32648092E-09
   24.9300003      -8.22486523E-09
   24.9899998      -7.13687509E-09
   25.0499992      -6.07815709E-09
   25.1100006      -5.05662090E-09
   25.1700001      -4.07254408E-09
   25.2299995      -3.12109671E-09
   25.2900009      -2.19585816E-09
   25.3500004      -1.29181121E-09
   25.4099998      -4.06912198E-10
   25.4699993       4.57805599E-10
   25.5300007       1.29909661E-09
   25.5900002       2.11278217E-09
   25.6499996       2.89514168E-09
   25.7099991       3.64428954E-09
   25.7700005       4.36129577E-09
   25.8299999       5.05053110E-09
   25.8899994       5.71859582E-09
   25.9500008       6.37158326E-09
   26.0100002       7.01122538E-09
   26.0699997       7.63128583E-09
   26.1299992       8.21581558E-09
   26.1900005       8.74033113E-09
   26.2500000       9.17579523E-09
   26.3099995       9.49406509E-09
   26.3700008       9.67294511E-09
   26.4300003       9.69931957E-09
   26.4899998       9.56983559E-09
   26.5499992       9.28965793E-09
   26.6100006       8.87037288E-09
   26.6700001       8.32789837E-09
   26.7299995       7.68073960E-09
   26.7900009       6.94833791E-09
   26.8500004       6.14926465E-09
   26.9099998       5.29925881E-09
   26.9699993       4.40961090E-09
   27.0300007       3.48648466E-09
   27.0900002       2.53148258E-09
   27.1499996       1.54320834E-09
   27.2099991       5.19118304E-10
   27.2700005      -5.43062040E-10
   27.3299999      -1.64471781E-09
   27.3899994      -2.78635559E-09
   27.4500008      -3.96771416E-09
   27.5100002      -5.18748555E-09
   27.5699997      -6.44247633E-09
   27.6299992      -7.72643638E-09
   27.6900005      -9.02900332E-09
   27.7500000      -1.03352003E-08
   27.8099995      -1.16257040E-08
   27.8700008      -1.28779316E-08
   27.9300003      -1.40677745E-08
   27.9899998      -1.51717341E-08
   28.0499992      -1.61690732E-08
   28.1100006      -1.70434493E-08
   28.1700001      -1.77835187E-08
   28.2299995      -1.83822308E-08
   28.2900009      -1.88349372E-08
   28.3500004      -1.91370422E-08
   28.4099998      -1.92820977E-08
   28.4699993      -1.92612166E-08
   28.5300007      -1.90640108E-08
   28.5900002      -1.86806481E-08
   28.6499996      -1.81040694E-08
   28.7099991      -1.73314660E-08
   28.7700005      -1.63645915E-08
   28.8299999      -1.52090998E-08
   28.8899994      -1.38735707E-08
   28.9500008      -1.23689361E-08
   29.0100002      -1.07086384E-08
   29.0699997      -8.90937368E-09
   29.1299992      -6.99194880E-09
   29.1900005      -4.98169195E-09
   29.2500000      -2.90802404E-09
   29.3099995      -8.03110523E-10
   29.3700008       1.30030564E-09
   29.4300003       3.37160100E-09
   29.4899998       5.38509060E-09
   29.5499992       7.32241956E-09
   29.6100006       9.17389364E-09
   29.6700001       1.09382272E-08
   29.7299995       1.26205313E-08
   29.7900009       1.42289460E-08
   29.8500004       1.57708495E-08
   29.9099998       1.72497909E-08
   29.9699993       1.86640943E-08
   30.0300007       2.00074073E-08
   30.0900002       2.12707842E-08
   30.1499996       2.24452918E-08
   30.2099991       2.35241266E-08
   30.2700005       2.45035015E-08
   30.3299999       2.53821621E-08
   30.3899994       2.61598814E-08
   30.4500008       2.68355489E-08
   30.5100002       2.74055356E-08
   30.5699997       2.78628178E-08
   30.6299992       2.81971495E-08
   30.6900005       2.83962933E-08
   30.7500000       2.84480706E-08
   30.8099995       2.83426882E-08
   30.8700008       2.80746342E-08
   30.9300003       2.76434857E-08
   30.9899998       2.70532432E-08
   31.0499992       2.63104027E-08
   31.1100006       2.54214516E-08
   31.1700001       2.43907543E-08
   31.2299995       2.32196946E-08
   31.2900009       2.19072938E-08
   31.3500004       2.04519885E-08
   31.4099998       1.88536635E-08
   31.4699993       1.71151022E-08
   31.5300007       1.52422732E-08
   31.5900002       1.32435067E-08
   31.6499996       1.11279892E-08
   31.7099991       8.90425422E-09
   31.7700005       6.57917498E-09
   31.8299999       4.15770041E-09
   31.8899994       1.64338476E-09
   31.9500008      -9.60412416E-10
   32.0099983      -3.64879926E-09
   32.0699997      -6.41335296E-09
   32.1300011      -9.24029830E-09
   32.1899986      -1.21095072E-08
   32.2500000      -1.49949724E-08
   32.3100014      -1.78671016E-08
   32.3699989      -2.06965236E-08
   32.4300003      -2.34583819E-08
   32.4900017      -2.61356643E-08
   32.5499992      -2.87201782E-08
   32.6100006      -3.12106287E-08
   32.6699982      -3.36082238E-08
   32.7299995      -3.59113699E-08
   32.7900009      -3.81113665E-08
   32.8499985      -4.01907521E-08
   32.9099998      -4.21248778E-08
   32.9700012      -4.38862209E-08
   33.0299988      -4.54497524E-08
   33.0900002      -4.67975738E-08
   33.1500015      -4.79212439E-08
   33.2099991      -4.88211995E-08
   33.2700005      -4.95037682E-08
   33.3300018      -4.99769897E-08
   33.3899994      -5.02467721E-08
   33.4500008      -5.03145827E-08
   33.5099983      -5.01772490E-08
   33.5699997      -4.98287065E-08
   33.6300011      -4.92628907E-08
   33.6899986      -4.84768883E-08
   33.7500000      -4.74733604E-08
   33.8100014      -4.62617677E-08
   33.8699989      -4.48580906E-08
   33.9300003      -4.32831158E-08
   33.9900017      -4.15595771E-08
   34.0499992      -3.97087270E-08
   34.1100006      -3.77470464E-08
   34.1699982      -3.56840282E-08
   34.2299995      -3.35218253E-08
   34.2900009      -3.12572190E-08
   34.3499985      -2.88854611E-08
   34.4099998      -2.64050222E-08
   34.4700012      -2.38216042E-08
   34.5299988      -2.11500719E-08
   34.5900002      -1.84137008E-08
   34.6500015      -1.56412323E-08
   34.7099991      -1.28631266E-08
   34.7700005      -1.01086259E-08
   34.8300018      -7.40469330E-09
   34.8899994      -4.77681583E-09
   34.9500008      -2.25070074E-09
   35.0099983       1.46545873E-10
   35.0699997       2.38674036E-09
   35.1300011       4.44256409E-09
   35.1899986       6.29032870E-09
   35.2500000       7.91236587E-09
   35.3100014       9.29811073E-09
   35.3699989       1.04436255E-08
   35.4300003       1.13500462E-08
   35.4900017       1.20217196E-08
   35.5499992       1.24647022E-08
   35.6100006       1.26858319E-08
   35.6699982       1.26922730E-08
   35.7299995       1.24913253E-08
   35.7900009       1.20904247E-08
   35.8499985       1.14974350E-08
   35.9099998       1.07212772E-08
   35.9700012       9.77271064E-09
   36.0299988       8.66475425E-09
   36.0900002       7.41222994E-09
   36.1500015       6.03018879E-09
   36.2099991       4.53159199E-09
   36.2700005       2.92518321E-09
   36.3300018       1.21465160E-09
   36.3899994      -6.00171135E-10
   36.4500008      -2.52011345E-09
   36.5099983      -4.54234739E-09
   36.5699997      -6.65636835E-09
   36.6300011      -8.84169271E-09
   36.6899986      -1.10681428E-08
   36.7500000      -1.32987878E-08
   36.8100014      -1.54947539E-08
   36.8699989      -1.76205788E-08
   36.9300003      -1.96486738E-08
   36.9900017      -2.15616840E-08
   37.0499992      -2.33521718E-08
   37.1100006      -2.50197889E-08
   37.1699982      -2.65667719E-08
   37.2299995      -2.79930745E-08
   37.2900009      -2.92925844E-08
   37.3499985      -3.04514884E-08
   37.4099998      -3.14493249E-08
   37.4700012      -3.22623102E-08
   37.5299988      -3.28679839E-08
   37.5900002      -3.32496235E-08
   37.6500015      -3.33991501E-08
   37.7099991      -3.33175016E-08
   37.7700005      -3.30125225E-08
   37.8300018      -3.24951976E-08
   37.8899994      -3.17757340E-08
   37.9500008      -3.08611874E-08
   38.0099983      -2.97557818E-08
   38.0699997      -2.84640080E-08
   38.1300011      -2.69953446E-08
   38.1899986      -2.53685872E-08
   38.2500000      -2.36136266E-08
   38.3100014      -2.17692744E-08
   38.3699989      -1.98772643E-08
   38.4300003      -1.79740951E-08
   38.4900017      -1.60834386E-08
   38.5499992      -1.42118575E-08
   38.6100006      -1.23495312E-08
   38.6699982      -1.04759712E-08
   38.7299995      -8.56893223E-09
   38.7900009      -6.61363142E-09
   38.8499985      -4.60920635E-09
   38.9099998      -2.57031063E-09
   38.9700012      -5.23332988E-10
   39.0299988       1.50145774E-09
   39.0900002       3.47914497E-09
   39.1500015       5.39753264E-09
   39.2099991       7.25991312E-09
   39.2700005       9.08196984E-09
   39.3300018       1.08835359E-08
   39.3899994       1.26778668E-08
   39.4500008       1.44621870E-08
   39.5099983       1.62131926E-08
   39.5699997       1.78896915E-08
   39.6300011       1.94422363E-08
   39.6899986       2.08270574E-08
   39.7500000       2.20198899E-08
   39.8100014       2.30249455E-08
   39.8699989       2.38756641E-08
   39.9300003       2.46264644E-08
   39.9900017       2.53376875E-08
   40.0499992       2.60583786E-08
   40.1100006       2.68123799E-08
   40.1699982       2.75923817E-08
   40.2299995       2.83639903E-08
   40.2900009       2.90785831E-08
   40.3499985       2.96907725E-08
   40.4099998       3.01745935E-08
   40.4700012       3.05329912E-08
   40.5299988       3.07973274E-08
   40.5900002       3.10170307E-08
   40.6500015       3.12428554E-08
   40.7099991       3.15093587E-08
   40.7700005       3.18224700E-08
   40.8300018       3.21564144E-08
   40.8899994       3.24610525E-08
   40.9500008       3.26775407E-08
   41.0099983       3.27572920E-08
   41.0699997       3.26782050E-08
   41.1300011       3.24528386E-08
   41.1899986       3.21255698E-08
   41.2500000       3.17593312E-08
   41.3100014       3.14158690E-08
   41.3699989       3.11358903E-08
   41.4300003       3.09257118E-08
   41.4900017       3.07551034E-08
   41.5499992       3.05673780E-08
   41.6100006       3.02984731E-08
   41.6699982       2.98985761E-08
   41.7299995       2.93488664E-08
   41.7900009       2.86675732E-08
   41.8499985       2.79034218E-08
   41.9099998       2.71190022E-08
   41.9700012       2.63700066E-08
   42.0299988       2.56876742E-08
   42.0900002       2.50703529E-08
   42.1500015       2.44867806E-08
   42.2099991       2.38896636E-08
   42.2700005       2.32345592E-08
   42.3300018       2.24975274E-08
   42.3899994       2.16854588E-08
   42.4500008       2.08355022E-08
   42.5099983       2.00037356E-08
   42.5699997       1.92468050E-08
   42.6300011       1.86027762E-08
   42.6899986       1.80778255E-08
   42.7500000       1.76435453E-08
   42.8100014       1.72461299E-08
   42.8699989       1.68245329E-08
   42.9300003       1.63315441E-08
   42.9900017       1.57506488E-08
   43.0499992       1.51028008E-08
   43.1100006       1.44407588E-08
   43.1699982       1.38327385E-08
   43.2299995       1.33408200E-08
   43.2900009       1.30011912E-08
   43.3499985       1.28127251E-08
   43.4099998       1.27376163E-08
   43.4700012       1.27138353E-08
   43.5299988       1.26753061E-08
   43.5900002       1.25731043E-08
   43.6500015       1.23905881E-08
   43.7099991       1.21473240E-08
   43.7700005       1.18904309E-08
   43.8300018       1.16763408E-08
   43.8899994       1.15493588E-08
   43.9500008       1.15246772E-08
   44.0099983       1.15819327E-08
   44.0699997       1.16716894E-08
   44.1300011       1.17325163E-08
   44.1899986       1.17126229E-08
   44.2500000       1.15884315E-08
   44.3100014       1.13737180E-08
   44.3699989       1.11163452E-08
   44.4300003       1.08839355E-08
   44.4900017       1.07433982E-08
   44.5499992       1.07410667E-08
   44.6100006       1.08896705E-08
   44.6699982       1.11659979E-08
   44.7299995       1.15195826E-08
   44.7900009       1.18893642E-08
   44.8499985       1.22228618E-08
   44.9099998       1.24917445E-08
   44.9700012       1.26989548E-08
   45.0299988       1.28752911E-08
   45.0900002       1.30668614E-08
   45.1500015       1.33177966E-08
   45.2099991       1.36541747E-08
   45.2700005       1.40745824E-08
   45.3300018       1.45504062E-08
   45.3899994       1.50354964E-08
   45.4500008       1.54816941E-08
   45.5099983       1.58547433E-08
   45.5699997       1.61452096E-08
   45.6300011       1.63708016E-08
   45.6899986       1.65694676E-08
   45.7500000       1.67857603E-08
   45.8100014       1.70549956E-08
   45.8699989       1.73904979E-08
   45.9300003       1.77780386E-08
   45.9900017       1.81792910E-08
   46.0499992       1.85430959E-08
   46.1100006       1.88208080E-08
   46.1699982       1.89805611E-08
   46.2299995       1.90157206E-08
   46.2900009       1.89448137E-08
   46.3499985       1.88031830E-08
   46.4099998       1.86295495E-08
   46.4700012       1.84523596E-08
   46.5299988       1.82806890E-08
   46.5900002       1.81026341E-08
   46.6500015       1.78912529E-08
   46.7099991       1.76154629E-08
   46.7700005       1.72516277E-08
   46.8300018       1.67917644E-08
   46.8899994       1.62457230E-08
   46.9500008       1.56371307E-08
   47.0099983       1.49949440E-08
   47.0699997       1.43438692E-08
   47.1300011       1.36968277E-08
   47.1899986       1.30518005E-08
   47.2500000       1.23936985E-08
   47.3100014       1.17003536E-08
   47.3699989       1.09505880E-08
   47.4300003       1.01318864E-08
   47.4900017       9.24548171E-09
   47.5499992       8.30752533E-09
   47.6100006       7.34612771E-09
   47.6699982       6.39518705E-09
   47.7299995       5.48675372E-09
   47.7900009       4.64406069E-09
   47.8499985       3.87710442E-09
   47.9099998       3.18191362E-09
   47.9700012       2.54354027E-09
   48.0299988       1.94169836E-09
   48.0900002       1.35720191E-09
   48.1500015       7.77215903E-10
   48.2099991       1.97831571E-10
   48.2700005      -3.76527032E-10
   48.3300018      -9.36271394E-10
   48.3899994      -1.47100232E-09
   48.4500008      -1.97342098E-09
   48.5099983      -2.44152210E-09
   48.5699997      -2.87853164E-09
   48.6300011      -3.29086913E-09
   48.6899986      -3.68501674E-09
   48.7500000      -4.06443235E-09
   48.8100014      -4.42753212E-09
   48.8699989      -4.76739359E-09
   48.9300003      -5.07333064E-09
   48.9900017      -5.33396616E-09
   49.0499992      -5.54098234E-09
   49.1100006      -5.69246383E-09
   49.1699982      -5.79476911E-09
   49.2299995      -5.86219340E-09
   49.2900009      -5.91433524E-09
   49.3499985      -5.97180261E-09
   49.4099998      -6.05145889E-09
   49.4700012      -6.16264417E-09
   49.5299988      -6.30548014E-09
   49.5900002      -6.47173382E-09
   49.6500015      -6.64789246E-09
   49.7099991      -6.81942902E-09
   49.7700005      -6.97496549E-09
   49.8300018      -7.10916082E-09
   49.8899994      -7.22360749E-09
   49.9500008      -7.32569250E-09
   50.0099983      -7.42589368E-09
   50.0699997      -7.53441309E-09
   50.1300011      -7.65810970E-09
   50.1899986      -7.79849429E-09
   50.2500000      -7.95118549E-09
   50.3100014      -8.10676593E-09
   50.3699989      -8.25261726E-09
   50.4300003      -8.37514325E-09
   50.4900017      -8.46179038E-09
   50.5499992      -8.50247162E-09
   50.6100006      -8.49018722E-09