  -2.400000      0.0000000E+00
  -2.340000      0.0000000E+00
  -2.280000      0.0000000E+00
  -2.220000      0.0000000E+00
  -2.160000      0.0000000E+00
  -2.100000      0.0000000E+00
  -2.040000      0.0000000E+00
  -1.980000      0.0000000E+00
  -1.920000     -8.0041599E-26
  -1.860000     -1.9696357E-25
  -1.800000      3.5357700E-24
  -1.740000      3.2412379E-23
  -1.680000      1.4142445E-22
  -1.620000      3.8020084E-22
  -1.560000      5.8681376E-22
  -1.500000     -9.7825477E-25
  -1.440000     -2.9098096E-21
  -1.380000     -9.3740768E-21
  -1.320000     -1.7163839E-20
  -1.260000     -1.6393471E-20
  -1.200000      1.0737531E-20
  -1.140000      7.8763634E-20
  -1.080000      1.7350577E-19
  -1.020000      2.2510226E-19
 -0.9600000      1.1192580E-19
 -0.9000000     -2.6915087E-19
 -0.8400000     -8.6770936E-19
 -0.7800000     -1.3583409E-18
 -0.7200000     -1.1794930E-18
 -0.6600000      1.4727271E-19
 -0.6000000      2.4800866E-18
 -0.5400000      4.6475838E-18
 -0.4800000      4.6865216E-18
 -0.4200000      1.0352237E-18
 -0.3600000     -5.6978968E-18
 -0.3000000     -1.1630329E-17
 -0.2400000     -1.0722488E-17
 -0.1800000      1.2536417E-18
 -0.1200000      2.1442015E-17
 -5.9999999E-02  3.7152480E-17
  0.0000000E+00  2.9839300E-17
  5.9999999E-02 -1.3060531E-17
  0.1200000     -8.3286864E-17
  0.1800000     -1.4429116E-16
  0.2400000     -1.4166944E-16
  0.3000000     -3.3693733E-17
  0.3600000      1.7041601E-16
  0.4200000      3.8923094E-16
  0.4800000      4.8908233E-16
  0.5400000      3.5036737E-16
  0.6000000     -4.6240955E-17
  0.6600000     -5.6580250E-16
  0.7200000     -9.4788397E-16
  0.7800000     -9.3013863E-16
  0.8400000     -4.1709025E-16
  0.9000000      4.0459614E-16
  0.9600000      1.1004548E-15
   1.020000      1.1982608E-15
   1.080000      4.8923358E-16
   1.140000     -7.5184460E-16
   1.200000     -1.7978920E-15
   1.260000     -1.8062171E-15
   1.320000     -3.3032022E-16
   1.380000      2.2717904E-15
   1.440000      4.8170908E-15
   1.500000      5.7742571E-15
   1.560000      4.0629922E-15
   1.620000     -2.3398838E-16
   1.680000     -5.6838537E-15
   1.740000     -1.0041878E-14
   1.800000     -1.1314519E-14
   1.860000     -8.8043713E-15
   1.920000     -3.5318117E-15
   1.980000      2.2734299E-15
   2.040000      6.3926275E-15
   2.100000      7.8756946E-15
   2.160000      7.5661159E-15
   2.220000      7.4944069E-15
   2.280000      9.4069734E-15
   2.340000      1.3279281E-14
   2.400000      1.6787676E-14
   2.460000      1.6247198E-14
   2.520000      8.6778890E-15
   2.580000     -6.0879735E-15
   2.640000     -2.4529881E-14
   2.700000     -4.0505221E-14
   2.760000     -4.7912341E-14
   2.820000     -4.3631494E-14
   2.880000     -2.9123039E-14
   2.940000     -9.6840243E-15
   3.000000      8.3627792E-15
   3.060000      2.1035901E-14
   3.120000      2.8643805E-14
   3.180000      3.5011738E-14
   3.240000      4.4220050E-14
   3.300000      5.6680148E-14
   3.360000      6.7082401E-14
   3.420000      6.6028210E-14
   3.480000      4.5214731E-14
   3.540000      3.8132767E-15
   3.600000     -4.7594324E-14
   3.660000     -8.8597505E-14
   3.720000     -9.6731759E-14
   3.780000     -5.8869698E-14
   3.840000      1.8852910E-14
   3.900000      1.0798024E-13
   3.960000      1.6458591E-13
   4.020000      1.4481293E-13
   4.080000      2.3617157E-14
   4.140000     -1.9095297E-13
   4.200000     -4.5439523E-13
   4.260000     -6.9542061E-13
   4.320000     -8.3516950E-13
   4.380000     -8.0837187E-13
   4.440000     -5.7840370E-13
   4.500000     -1.4190390E-13
   4.560000      4.7528160E-13
   4.620000      1.2239022E-12
   4.680000      2.0310136E-12
   4.740000      2.7904387E-12
   4.800000      3.3493709E-12
   4.860000      3.5044903E-12
   4.920000      3.0231794E-12
   4.980000      1.6986690E-12
   5.040000     -5.6671183E-13
   5.100000     -3.6730241E-12
   5.160000     -7.2629758E-12
   5.220000     -1.0723539E-11
   5.280000     -1.3265458E-11
   5.340000     -1.4071249E-11
   5.400000     -1.2476577E-11
   5.460000     -8.1355070E-12
   5.520000     -1.1240513E-12
   5.580000      8.0421086E-12
   5.640000      1.8469429E-11
   5.700000      2.8995351E-11
   5.760000      3.8300807E-11
   5.820000      4.4992267E-11
   5.880000      4.7643667E-11
   5.940000      4.4817164E-11
   6.000000      3.5100610E-11
   6.060000      1.7200305E-11
   6.120000     -9.8910177E-12
   6.180000     -4.6661491E-11
   6.240000     -9.2823395E-11
   6.300000     -1.4709091E-10
   6.360000     -2.0705045E-10
   6.420000     -2.6916219E-10
   6.480000     -3.2890241E-10
   6.540000     -3.8102393E-10
   6.600000     -4.1989076E-10
   6.660000     -4.3983392E-10
   6.720000     -4.3548398E-10
   6.780000     -4.0205664E-10
   6.840000     -3.3559280E-10
   6.900000     -2.3317875E-10
   6.960000     -9.3182545E-11
   7.020000      8.4462784E-11
   7.080000      2.9792435E-10
   7.140000      5.4311527E-10
   7.200000      8.1339707E-10
   7.260000      1.0994418E-09
   7.320000      1.3893618E-09
   7.380000      1.6691873E-09
   7.440000      1.9237048E-09
   7.500000      2.1376028E-09
   7.560000      2.2967890E-09
   7.620000      2.3897011E-09
   7.680000      2.4084328E-09
   7.740000      2.3495206E-09
   7.800000      2.2143185E-09
   7.860000      2.0089435E-09
   7.920000      1.7438406E-09
   7.980000      1.4330367E-09
   8.040000      1.0931607E-09
   8.100000      7.4228956E-10
   8.160000      3.9867920E-10
   8.220000      7.9442404E-11
   8.280000     -2.0073888E-10
   8.340000     -4.3075626E-10
   8.400000     -6.0395283E-10
   8.460000     -7.1862999E-10
   8.520000     -7.7811602E-10
   8.580000     -7.9038220E-10
   8.640000     -7.6723783E-10
   8.700000     -7.2317730E-10
   8.760000     -6.7397465E-10
   8.820000     -6.3514971E-10
   8.880000     -6.2045957E-10
   8.940000     -6.4060252E-10
   9.000000     -7.0233380E-10
   9.060000     -8.0816615E-10
   9.120000     -9.5673613E-10
   9.180000     -1.1437717E-09
   9.240000     -1.3634388E-09
   9.300000     -1.6097291E-09
   9.360000     -1.8775295E-09
   9.420000     -2.1631172E-09
   9.480000     -2.4640205E-09
   9.540000     -2.7784113E-09
   9.600000     -3.1043506E-09
   9.660000     -3.4392440E-09
   9.720000     -3.7797423E-09
   9.780000     -4.1221075E-09
   9.840000     -4.4628261E-09
   9.900000     -4.7991207E-09
   9.960000     -5.1290274E-09
   10.02000     -5.4508886E-09
   10.08000     -5.7623701E-09
   10.14000     -6.0593663E-09
   10.20000     -6.3352679E-09
   10.26000     -6.5809851E-09
   10.32000     -6.7859034E-09
   10.38000     -6.9395840E-09
   10.44000     -7.0337540E-09
   10.50000     -7.0639743E-09
   10.56000     -7.0304336E-09
   10.62000     -6.9375936E-09
   10.68000     -6.7927584E-09
   10.74000     -6.6040329E-09
   10.80000     -6.3783316E-09
   10.86000     -6.1201200E-09
   10.92000     -5.8313248E-09
   10.98000     -5.5124665E-09
   11.04000     -5.1646181E-09
   11.10000     -4.7914885E-09
   11.16000     -4.4008335E-09
   11.22000     -4.0045931E-09
   11.28000     -3.6175669E-09
   11.34000     -3.2549403E-09
   11.40000     -2.9293747E-09
   11.46000     -2.6485403E-09
   11.52000     -2.4138185E-09
   11.58000     -2.2205202E-09
   11.64000     -2.0594622E-09
   11.70000     -1.9193505E-09
   11.76000     -1.7892413E-09
   11.82000     -1.6604481E-09
   11.88000     -1.5275551E-09
   11.94000     -1.3885554E-09
   12.00000     -1.2443897E-09
   12.06000     -1.0982475E-09
   12.12000     -9.5490871E-10
   12.18000     -8.2022733E-10
   12.24000     -7.0070300E-10
   12.30000     -6.0302602E-10
   12.36000     -5.3352550E-10
   12.42000     -4.9755344E-10
   12.48000     -4.9891563E-10
   12.54000     -5.3946386E-10
   12.60000     -6.1888972E-10
   12.66000     -7.3465911E-10
   12.72000     -8.8197505E-10
   12.78000     -1.0536955E-09
   12.84000     -1.2402603E-09
   12.90000     -1.4298261E-09
   12.96000     -1.6088620E-09
   13.02000     -1.7633733E-09
   13.08000     -1.8806683E-09
   13.14000     -1.9512947E-09
   13.20000     -1.9705599E-09
   13.26000     -1.9390805E-09
   13.32000     -1.8620937E-09
   13.38000     -1.7477357E-09
   13.44000     -1.6049346E-09
   13.50000     -1.4417549E-09
   13.56000     -1.2648534E-09
   13.62000     -1.0801795E-09
   13.68000     -8.9443447E-10
   13.74000     -7.1637601E-10
   13.80000     -5.5706795E-10
   13.86000     -4.2864723E-10
   13.92000     -3.4193157E-10
   13.98000     -3.0381697E-10
   14.04000     -3.1562730E-10
   14.10000     -3.7320619E-10
   14.16000     -4.6876908E-10
   14.22000     -5.9371635E-10
   14.28000     -7.4116502E-10
   14.34000     -9.0711783E-10
   14.40000     -1.0898618E-09
   14.46000     -1.2880566E-09
   14.52000     -1.4985692E-09
   14.58000     -1.7151748E-09
   14.64000     -1.9287387E-09
   14.70000     -2.1287343E-09
   14.76000     -2.3053150E-09
   14.82000     -2.4509759E-09
   14.88000     -2.5611604E-09
   14.94000     -2.6337725E-09
   15.00000     -2.6680989E-09
   15.06000     -2.6638496E-09
   15.12000     -2.6208087E-09
   15.18000     -2.5391342E-09
   15.24000     -2.4199396E-09
   15.30000     -2.2656512E-09
   15.36000     -2.0798248E-09
   15.42000     -1.8664665E-09
   15.48000     -1.6291996E-09
   15.54000     -1.3706906E-09
   15.60000     -1.0925701E-09
   15.66000     -7.9579432E-10
   15.72000     -4.8118648E-10
   15.78000     -1.4987898E-10
   15.84000      1.9648691E-10
   15.90000      5.5576377E-10
   15.96000      9.2538427E-10
   16.02000      1.3024616E-09
   16.08000      1.6839481E-09
   16.14000      2.0669371E-09
   16.20000      2.4490914E-09
   16.26000      2.8289913E-09
   16.32000      3.2060608E-09
   16.38000      3.5798056E-09
   16.44000      3.9484234E-09
   16.50000      4.3072612E-09
   16.56000      4.6478807E-09
   16.62000      4.9584123E-09
   16.68000      5.2254068E-09
   16.74000      5.4367173E-09
   16.80000      5.5844018E-09
   16.86000      5.6665290E-09
   16.92000      5.6871752E-09
   16.98000      5.6546701E-09
   17.04000      5.5788880E-09
   17.10000      5.4687646E-09
   17.16000      5.3310227E-09
   17.22000      5.1704876E-09
   17.28000      4.9915774E-09
   17.34000      4.8000643E-09
   17.40000      4.6041131E-09
   17.46000      4.4140274E-09
   17.52000      4.2407819E-09
   17.58000      4.0939798E-09
   17.64000      3.9801185E-09
   17.70000      3.9018881E-09
   17.76000      3.8587529E-09
   17.82000      3.8485464E-09
   17.88000      3.8694292E-09
   17.94000      3.9214858E-09
   18.00000      4.0074175E-09
   18.06000      4.1321515E-09
   18.12000      4.3015653E-09
   18.18000      4.5207731E-09
   18.24000      4.7925162E-09
   18.30000      5.1161173E-09
   18.36000      5.4872973E-09
   18.42000      5.8988938E-09
   18.48000      6.3422925E-09
   18.54000      6.8091555E-09
   18.60000      7.2929049E-09
   18.66000      7.7894544E-09
   18.72000      8.2968752E-09
   18.78000      8.8140908E-09
   18.84000      9.3390771E-09
   18.90000      9.8673700E-09
   18.96000      1.0391607E-08
   19.02000      1.0902476E-08
   19.08000      1.1390801E-08
   19.14000      1.1849919E-08
   19.20000      1.2277290E-08
   19.26000      1.2674526E-08
   19.32000      1.3045717E-08
   19.38000      1.3394695E-08
   19.44000      1.3722383E-08
   19.50000      1.4025312E-08
   19.56000      1.4295858E-08
   19.62000      1.4524008E-08
   19.68000      1.4699826E-08
   19.74000      1.4815634E-08
   19.80000      1.4867187E-08
   19.86000      1.4853647E-08
   19.92000      1.4776675E-08
   19.98000      1.4639121E-08
   20.04000      1.4443819E-08
   20.10000      1.4192763E-08
   20.16000      1.3886746E-08
   20.22000      1.3525462E-08
   20.28000      1.3107998E-08
   20.34000      1.2633593E-08
   20.40000      1.2102436E-08
   20.46000      1.1516200E-08
   20.52000      1.0878071E-08
   20.58000      1.0192233E-08
   20.64000      9.4630668E-09
   20.70000      8.6944691E-09
   20.76000      7.8896480E-09
   20.82000      7.0514621E-09
   20.88000      6.1830265E-09
   20.94000      5.2881588E-09
   21.00000      4.3713650E-09
   21.06000      3.4374192E-09
   21.12000      2.4908926E-09
   21.18000      1.5360595E-09
   21.24000      5.7733324E-10
   21.30000     -3.8001022E-10
   21.36000     -1.3293274E-09
   21.42000     -2.2627598E-09
   21.48000     -3.1720966E-09
   21.54000     -4.0499724E-09
   21.60000     -4.8908153E-09
   21.66000     -5.6911063E-09
   21.72000     -6.4489476E-09
   21.78000     -7.1633002E-09
   21.84000     -7.8333775E-09
   21.90000     -8.4584624E-09
   21.96000     -9.0380796E-09
   22.02000     -9.5721742E-09
   22.08000     -1.0061037E-08
   22.14000     -1.0504892E-08
   22.20000     -1.0903388E-08
   22.26000     -1.1255254E-08
   22.32000     -1.1558246E-08
   22.38000     -1.1809307E-08
   22.44000     -1.2004719E-08
   22.50000     -1.2140172E-08
   22.56000     -1.2210892E-08
   22.62000     -1.2212083E-08
   22.68000     -1.2139838E-08
   22.74000     -1.1992338E-08
   22.80000     -1.1770829E-08
   22.86000     -1.1479808E-08
   22.92000     -1.1126142E-08
   22.98000     -1.0717325E-08
   23.04000     -1.0259545E-08
   23.10000     -9.7563433E-09
   23.16000     -9.2083727E-09
   23.22000     -8.6143590E-09
   23.28000     -7.9728446E-09
   23.34000     -7.2840969E-09
   23.40000     -6.5515744E-09
   23.46000     -5.7824914E-09
   23.52000     -4.9872826E-09
   23.58000     -4.1780455E-09
   23.64000     -3.3663503E-09
   23.70000     -2.5610831E-09
   23.76000     -1.7671216E-09
   23.82000     -9.8543662E-10
   23.88000     -2.1467958E-10
   23.94000      5.4637950E-10
   24.00000      1.2966741E-09
   24.06000      2.0319741E-09
   24.12000      2.7457243E-09
   24.18000      3.4310637E-09
   24.24000      4.0828367E-09
   24.30000      4.6984141E-09
   24.36000      5.2768363E-09
   24.42000      5.8167733E-09
   24.48000      6.3144414E-09
   24.54000      6.7625847E-09
   24.60000      7.1509887E-09
   24.66000      7.4681479E-09
   24.72000      7.7032816E-09
   24.78000      7.8479987E-09
   24.84000      7.8974347E-09
   24.90000      7.8510753E-09
   24.96000      7.7134477E-09
   25.02000      7.4944788E-09
   25.08000      7.2089246E-09
   25.14000      6.8743709E-09
   25.20000      6.5079786E-09
   25.26000      6.1229750E-09
   25.32000      5.7263385E-09
   25.38000      5.3187335E-09
   25.44000      4.8966453E-09
   25.50000      4.4555089E-09
   25.56000      3.9921066E-09
   25.62000      3.5050189E-09
   25.68000      2.9931169E-09
   25.74000      2.4532707E-09
   25.80000      1.8788626E-09
   25.86000      1.2601233E-09
   25.92000      5.8617777E-10
   25.98000     -1.5228775E-10
   26.04000     -9.6102648E-10
   26.10000     -1.8415848E-09
   26.16000     -2.7917582E-09
   26.22000     -3.8062842E-09
   26.28000     -4.8769686E-09
   26.34000     -5.9920735E-09
   26.40000     -7.1354878E-09
   26.46000     -8.2864862E-09
   26.52000     -9.4205701E-09
   26.58000     -1.0511282E-08
   26.64000     -1.1532366E-08
   26.70000     -1.2459540E-08
   26.76000     -1.3271467E-08
   26.82000     -1.3949996E-08
   26.88000     -1.4480012E-08
   26.94000     -1.4849381E-08
   27.00000     -1.5049215E-08
   27.06000     -1.5074582E-08
   27.12000     -1.4925600E-08
   27.18000     -1.4608674E-08
   27.24000     -1.4137456E-08
   27.30000     -1.3533000E-08
   27.36000     -1.2822540E-08
   27.42000     -1.2036740E-08
   27.48000     -1.1205939E-08
   27.54000     -1.0356491E-08
   27.60000     -9.5085291E-09
   27.66000     -8.6758805E-09
   27.72000     -7.8679134E-09
   27.78000     -7.0920390E-09
   27.84000     -6.3552990E-09
   27.90000     -5.6640217E-09
   27.96000     -5.0216968E-09
   28.02000     -4.4263597E-09
   28.08000     -3.8691388E-09
   28.14000     -3.3350602E-09
   28.20000     -2.8060054E-09
   28.26000     -2.2646696E-09
   28.32000     -1.6979474E-09
   28.38000     -1.0986461E-09
   28.44000     -4.6531459E-10
   28.50000      1.9920178E-10
   28.56000      8.8958191E-10
   28.62000      1.5995330E-09
   28.68000      2.3227074E-09
   28.74000      3.0530456E-09
   28.80000      3.7845886E-09
   28.86000      4.5107518E-09
   28.92000      5.2231424E-09
   28.98000      5.9103038E-09
   29.04000      6.5570811E-09
   29.10000      7.1453119E-09
   29.16000      7.6560722E-09
   29.22000      8.0729183E-09
   29.28000      8.3849381E-09
   29.34000      8.5883016E-09
   29.40000      8.6856549E-09
   29.46000      8.6836662E-09
   29.52000      8.5898746E-09
   29.58000      8.4102298E-09
   29.64000      8.1482394E-09
   29.70000      7.8058235E-09
   29.76000      7.3851831E-09
   29.82000      6.8907862E-09
   29.88000      6.3306564E-09
   29.94000      5.7166218E-09
   30.00000      5.0635083E-09
   30.06000      4.3874642E-09
   30.12000      3.7037089E-09
   30.18000      3.0241494E-09
   30.24000      2.3555047E-09
   30.30000      1.6986683E-09
   30.36000      1.0497959E-09
   30.42000      4.0299841E-10
   30.48000     -2.4622568E-10
   30.54000     -8.9816832E-10
   30.60000     -1.5479078E-09
   30.66000     -2.1865587E-09
   30.72000     -2.8041591E-09
   30.78000     -3.3928087E-09
   30.84000     -3.9486037E-09
   30.90000     -4.4715813E-09
   30.96000     -4.9639248E-09
   31.02000     -5.4275087E-09
   31.08000     -5.8621046E-09
   31.14000     -6.2651053E-09
   31.20000     -6.6327845E-09
   31.26000     -6.9623649E-09
   31.32000     -7.2537949E-09
   31.38000     -7.5103541E-09
   31.44000     -7.7377420E-09
   31.50000     -7.9419742E-09
   31.56000     -8.1268521E-09
   31.62000     -8.2919582E-09
   31.68000     -8.4318996E-09
   31.74000     -8.5371124E-09
   31.80000     -8.5959879E-09
   31.86000     -8.5976417E-09
   31.92000     -8.5344496E-09
   31.98000     -8.4036138E-09
   32.04000     -8.2074596E-09
   32.10000     -7.9526279E-09
   32.16000     -7.6487225E-09
   32.22000     -7.3069510E-09
   32.28000     -6.9390933E-09
   32.34000     -6.5567929E-09
   32.40000     -6.1709855E-09
   32.46000     -5.7913581E-09
   32.52000     -5.4259344E-09
   32.58000     -5.0810147E-09
   32.64000     -4.7615805E-09
   32.70000     -4.4719162E-09
   32.76000     -4.2159400E-09
   32.82000     -3.9967412E-09
   32.88000     -3.8153081E-09
   32.94000     -3.6690619E-09
   33.00000     -3.5512304E-09
   33.06000     -3.4519059E-09
   33.12000     -3.3608407E-09
   33.18000     -3.2710052E-09
   33.24000     -3.1813239E-09
   33.30000     -3.0971896E-09
   33.36000     -3.0283440E-09
   33.42000     -2.9849847E-09
   33.48000     -2.9738207E-09
   33.54000     -2.9957876E-09
   33.60000     -3.0462675E-09
   33.66000     -3.1174259E-09
   33.72000     -3.2013845E-09
   33.78000     -3.2927754E-09
   33.84000     -3.3897973E-09
   33.90000     -3.4937619E-09
   33.96000     -3.6077790E-09
   34.02000     -3.7353747E-09
   34.08000     -3.8795287E-09
   34.14000     -4.0421484E-09
   34.20000     -4.2237387E-09
   34.26000     -4.4230792E-09
   34.32000     -4.6369584E-09
   34.38000     -4.8602327E-09
   34.44000     -5.0864482E-09
   34.50000     -5.3090017E-09
   34.56000     -5.5224985E-09
   34.62000     -5.7237588E-09
   34.68000     -5.9119878E-09
   34.74000     -6.0879470E-09
   34.80000     -6.2523511E-09
   34.86000     -6.4040919E-09
   34.92000     -6.5390440E-09
   34.98000     -6.6500712E-09
   35.04000     -6.7284791E-09
   35.10000     -6.7665709E-09
   35.16000     -6.7604522E-09
   35.22000     -6.7119488E-09
   35.28000     -6.6287140E-09
   35.34000     -6.5222805E-09
   35.40000     -6.4046759E-09
   35.46000     -6.2849241E-09
   35.52000     -6.1668746E-09
   35.58000     -6.0492602E-09
   35.64000     -5.9278591E-09
   35.70000     -5.7987175E-09
   35.76000     -5.6609366E-09
   35.82000     -5.5178302E-09
   35.88000     -5.3760414E-09
   35.94000     -5.2431033E-09
   36.00000     -5.1244582E-09
   36.06000     -5.0210058E-09
   36.12000     -4.9278963E-09
   36.18000     -4.8348645E-09
   36.24000     -4.7280344E-09
   36.30000     -4.5928843E-09
   36.36000     -4.4178208E-09
   36.42000     -4.1975419E-09
   36.48000     -3.9351686E-09
   36.54000     -3.6422514E-09
   36.60000     -3.3363468E-09
   36.66000     -3.0367606E-09
   36.72000     -2.7598948E-09
   36.78000     -2.5158828E-09
   36.84000     -2.3077040E-09
   36.90000     -2.1328663E-09
   36.96000     -1.9866542E-09
   37.02000     -1.8653568E-09
   37.08000     -1.7681211E-09
   37.14000     -1.6968680E-09
   37.20000     -1.6546012E-09
   37.26000     -1.6429783E-09
   37.32000     -1.6600520E-09
   37.38000     -1.6988453E-09
   37.44000     -1.7471490E-09
   37.50000     -1.7887735E-09
   37.56000     -1.8063294E-09
   37.62000     -1.7852378E-09
   37.68000     -1.7180529E-09
   37.74000     -1.6076114E-09
   37.80000     -1.4674554E-09
   37.86000     -1.3187141E-09
   37.92000     -1.1840319E-09
   37.98000     -1.0805260E-09
   38.04000     -1.0144207E-09
   38.10000     -9.7943686E-10
   38.16000     -9.5948427E-10
   38.22000     -9.3440000E-10
   38.28000     -8.8634355E-10
   38.34000     -8.0444240E-10
   38.40000     -6.8628442E-10
   38.46000     -5.3623583E-10
   38.52000     -3.6165962E-10
   38.58000     -1.6854347E-10
   38.64000      4.2090571E-11
   38.70000      2.7603070E-10
   38.76000      5.4544341E-10
   38.82000      8.6607638E-10
   38.88000      1.2525795E-09
   38.94000      1.7131331E-09
   39.00000      2.2451594E-09
   39.06000      2.8339235E-09
   39.12000      3.4550411E-09
   39.18000      4.0804502E-09
   39.24000      4.6858784E-09
   39.30000      5.2570654E-09
   39.36000      5.7923950E-09
   39.42000      6.3010801E-09
   39.48000      6.7978698E-09
   39.54000      7.2965700E-09
   39.60000      7.8049149E-09
   39.66000      8.3224938E-09
   39.72000      8.8420817E-09
   39.78000      9.3534513E-09
   39.84000      9.8480406E-09
   39.90000      1.0322836E-08
   39.96000      1.0782228E-08
   40.02000      1.1237285E-08
   40.08000      1.1702597E-08
   40.14000      1.2191533E-08
   40.20000      1.2711350E-08
   40.26000      1.3259768E-08
   40.32000      1.3824377E-08
   40.38000      1.4385305E-08
   40.44000      1.4920472E-08
   40.50000      1.5411679E-08
   40.56000      1.5849487E-08
   40.62000      1.6235196E-08
   40.68000      1.6579397E-08
   40.74000      1.6897715E-08
   40.80000      1.7205295E-08
   40.86000      1.7511834E-08
   40.92000      1.7818643E-08
   40.98000      1.8118545E-08
   41.04000      1.8398580E-08
   41.10000      1.8644675E-08
   41.16000      1.8846869E-08
   41.22000      1.9003387E-08
   41.28000      1.9122041E-08
   41.34000      1.9218213E-08
   41.40000      1.9309859E-08
   41.46000      1.9411138E-08
   41.52000      1.9526997E-08
   41.58000      1.9650782E-08
   41.64000      1.9765913E-08
   41.70000      1.9851122E-08
   41.76000      1.9887329E-08
   41.82000      1.9863714E-08
   41.88000      1.9780767E-08
   41.94000      1.9649276E-08
   42.00000      1.9485567E-08
   42.06000      1.9304599E-08
   42.12000      1.9113266E-08
   42.18000      1.8906267E-08
   42.24000      1.8666253E-08
   42.30000      1.8368596E-08
   42.36000      1.7989469E-08
   42.42000      1.7514616E-08
   42.48000      1.6945492E-08
   42.54000      1.6300341E-08
   42.60000      1.5609359E-08
   42.66000      1.4905718E-08
   42.72000      1.4215757E-08
   42.78000      1.3552222E-08
   42.84000      1.2913095E-08
   42.90000      1.2286226E-08
   42.96000      1.1657606E-08
   43.02000      1.1019825E-08
   43.08000      1.0377463E-08
   43.14000      9.7476853E-09
   43.20000      9.1562411E-09
   43.26000      8.6306464E-09
   43.32000      8.1929201E-09
   43.38000      7.8540596E-09
   43.44000      7.6116526E-09
   43.50000      7.4510966E-09
   43.56000      7.3500632E-09
   43.62000      7.2849979E-09
   43.68000      7.2378881E-09
   43.74000      7.2012196E-09
   43.80000      7.1794091E-09
   43.86000      7.1860327E-09
   43.92000      7.2376367E-09
   43.98000      7.3462862E-09
   44.04000      7.5135622E-09
   44.10000      7.7282376E-09
   44.16000      7.9684588E-09
   44.22000      8.2075324E-09
   44.28000      8.4211944E-09
   44.34000      8.5937959E-09
   44.40000      8.7214724E-09
   44.46000      8.8114911E-09
   44.52000      8.8782794E-09
   44.58000      8.9376000E-09
   44.64000      9.0008525E-09
   44.70000      9.0713606E-09
   44.76000      9.1438537E-09
   44.82000      9.2073282E-09
   44.88000      9.2502672E-09
   44.94000      9.2662518E-09
   45.00000      9.2577714E-09
   45.06000      9.2365990E-09
   45.12000      9.2205381E-09
   45.18000      9.2277803E-09
   45.24000      9.2711785E-09
   45.30000      9.3546770E-09
   45.36000      9.4730952E-09
   45.42000      9.6149719E-09
   45.48000      9.7669304E-09
   45.54000      9.9176338E-09
   45.60000      1.0059913E-08
   45.66000      1.0190702E-08
   45.72000      1.0309362E-08
   45.78000      1.0415405E-08
   45.84000      1.0506489E-08
   45.90000      1.0577190E-08
   45.96000      1.0618655E-08
   46.02000      1.0619185E-08
   46.08000      1.0565743E-08
   46.14000      1.0446367E-08
   46.20000      1.0253083E-08
   46.26000      9.9845092E-09
   46.32000      9.6471400E-09
   46.38000      9.2545127E-09
   46.44000      8.8242551E-09
   46.50000      8.3738829E-09
   46.56000      7.9168752E-09
   46.62000      7.4604696E-09
   46.68000      7.0059030E-09
   46.74000      6.5507550E-09
   46.80000      6.0921885E-09
   46.86000      5.6296177E-09
   46.92000      5.1657714E-09
   46.98000      4.7059392E-09
   47.04000      4.2560018E-09
   47.10000      3.8202419E-09
   47.16000      3.3998457E-09
   47.22000      2.9925371E-09
   47.28000      2.5932869E-09
   47.34000      2.1957052E-09
   47.40000      1.7936338E-09
   47.46000      1.3825669E-09
   47.52000      9.6067354E-10
   47.58000      5.2929400E-10
   47.64000      9.2838369E-11
   47.70000     -3.4192649E-10
   47.76000     -7.6711260E-10
   47.82000     -1.1752384E-09
   47.88000     -1.5607071E-09
   47.94000     -1.9208743E-09
   48.00000     -2.2564253E-09
   48.06000     -2.5709408E-09
   48.12000     -2.8697023E-09
   48.18000     -3.1579395E-09
   48.24000     -3.4388645E-09
   48.30000     -3.7119461E-09
   48.36000     -3.9719388E-09
   48.42000     -4.2091073E-09
   48.48000     -4.4108059E-09
   48.54000     -4.5641344E-09
   48.60000     -4.6589226E-09
   48.66000     -4.6900488E-09
   48.72000     -4.6582374E-09
   48.78000     -4.5690167E-09
   48.84000     -4.4302433E-09
   48.90000     -4.2491410E-09
   48.96000     -4.0299333E-09
   49.02000     -3.7727688E-09
   49.08000     -3.4739935E-09
   49.14000     -3.1272829E-09
   49.20000     -2.7249381E-09
   49.26000     -2.2588758E-09
   49.32000     -1.7212198E-09
   49.38000     -1.1046964E-09
   49.44000     -4.0303139E-10
   49.50000      3.8868481E-10
   49.56000      1.2739277E-09
   49.62000      2.2552289E-09
   49.68000      3.3352141E-09
   49.74000      4.5178159E-09
   49.80000      5.8090803E-09
   49.86000      7.2171340E-09
   49.92000      8.7512770E-09
   49.98000      1.0420585E-08
   50.04000      1.2232626E-08
   50.10000      1.4192715E-08
   50.16000      1.6303840E-08
   50.22000      1.8567052E-08
   50.28000      2.0982053E-08
   50.34000      2.3547772E-08
   50.40000      2.6262862E-08
   50.46000      2.9126094E-08
   50.52000      3.2136512E-08
   50.58000      3.5293141E-08
   50.64000      3.8594070E-08
   50.70000      4.2035005E-08
   50.76000      4.5607443E-08
   50.82000      4.9296958E-08
   50.88000      5.3081695E-08
   50.94000      5.6931224E-08
   51.00000      6.0805519E-08
   51.06000      6.4654131E-08
   51.12000      6.8415687E-08
   51.18000      7.2017890E-08
   51.24000      7.5377969E-08
   51.30000      7.8403147E-08
   51.36000      8.0990361E-08
   51.42000      8.3024773E-08
   51.48000      8.4377618E-08
   51.54000      8.4904407E-08
   51.60000      8.4445070E-08
   51.66000      8.2826574E-08
   51.72000      7.9867419E-08
   51.78000      7.5381763E-08
   51.84000      6.9181205E-08
   51.90000      6.1073159E-08
   51.96000      5.0856855E-08
   52.02000      3.8319882E-08
   52.08000      2.3237936E-08
   52.14000      5.3793023E-09
   52.20000     -1.5486895E-08
   52.26000     -3.9581405E-08
   52.32000     -6.7107273E-08
   52.38000     -9.8245387E-08
   52.44000     -1.3315270E-07
   52.50000     -1.7196115E-07
   52.56000     -2.1477565E-07
   52.62000     -2.6167055E-07
   52.68000     -3.1268519E-07
   52.74000     -3.6781958E-07
   52.80000     -4.2703039E-07
   52.86000     -4.9022714E-07
   52.92000     -5.5726792E-07
   52.98000     -6.2795408E-07
   53.04000     -7.0202492E-07
   53.10000     -7.7915416E-07
   53.16000     -8.5894868E-07
   53.22000     -9.4094901E-07
   53.28000     -1.0246318E-06
   53.34000     -1.1094112E-06
   53.40000     -1.1946389E-06
   53.46000     -1.2796058E-06
   53.52000     -1.3635422E-06
   53.58000     -1.4456226E-06
   53.64000     -1.5249701E-06
   53.70000     -1.6006637E-06
   53.76000     -1.6717436E-06
   53.82000     -1.7372175E-06
   53.88000     -1.7960687E-06
   53.94000     -1.8472639E-06
   54.00000     -1.8897663E-06
   54.06000     -1.9225486E-06
   54.12000     -1.9446045E-06
   54.18000     -1.9549614E-06
   54.24000     -1.9526885E-06
   54.30000     -1.9369079E-06
   54.36000     -1.9068037E-06
   54.42000     -1.8616372E-06
   54.48000     -1.8007587E-06
   54.54000     -1.7236204E-06
   54.60000     -1.6297845E-06
   54.66000     -1.5189305E-06
   54.72000     -1.3908598E-06
   54.78000     -1.2455017E-06
   54.84000     -1.0829182E-06
   54.90000     -9.0330946E-07
   54.96000     -7.0701566E-07
   55.02000     -4.9451603E-07
   55.08000     -2.6642624E-07
   55.14000     -2.3494296E-08
   55.20000      2.3340239E-07
   55.26000      5.0326071E-07
   55.32000      7.8495697E-07
   55.38000      1.0772550E-06
   55.44000      1.3788164E-06
   55.50000      1.6882129E-06
   55.56000      2.0039379E-06