  -2.400000      0.0000000E+00
  -2.340000      0.0000000E+00
  -2.280000      0.0000000E+00
  -2.220000      0.0000000E+00
  -2.160000      0.0000000E+00
  -2.100000      0.0000000E+00
  -2.040000      0.0000000E+00
  -1.980000      0.0000000E+00
  -1.920000     -1.0574392E-26
  -1.860000     -1.1041426E-25
  -1.800000     -6.9051539E-25
  -1.740000     -3.5829932E-24
  -1.680000     -1.5902183E-23
  -1.620000     -5.6819076E-23
  -1.560000     -1.5382608E-22
  -1.500000     -2.8488567E-22
  -1.440000     -2.0985438E-22
  -1.380000      7.6520412E-22
  -1.320000      3.7442650E-21
  -1.260000      9.1999803E-21
  -1.200000      1.4354269E-20
  -1.140000      9.8827905E-21
  -1.080000     -2.0198477E-20
  -1.020000     -8.9146327E-20
 -0.9600000     -1.8470867E-19
 -0.9000000     -2.4048299E-19
 -0.8400000     -1.2739701E-19
 -0.7800000      2.9649162E-19
 -0.7200000      1.0555141E-18
 -0.6600000      1.8815114E-18
 -0.6000000      2.1164706E-18
 -0.5400000      8.6780790E-19
 -0.4800000     -2.4701514E-18
 -0.4200000     -7.4357300E-18
 -0.3600000     -1.1881684E-17
 -0.3000000     -1.2147678E-17
 -0.2400000     -4.5010313E-18
 -0.1800000      1.2307696E-17
 -0.1200000      3.4449095E-17
 -5.9999999E-02  5.2138097E-17
  0.0000000E+00  5.2049539E-17
  5.9999999E-02  2.3242202E-17
  0.1200000     -3.5320731E-17
  0.1800000     -1.0936007E-16
  0.2400000     -1.6985798E-16
  0.3000000     -1.8143712E-16
  0.3600000     -1.1669741E-16
  0.4200000      2.8774794E-17
  0.4800000      2.2725759E-16
  0.5400000      4.2032525E-16
  0.6000000      5.3165659E-16
  0.6600000      4.8818220E-16
  0.7200000      2.4466113E-16
  0.7800000     -1.9308524E-16
  0.8400000     -7.5078083E-16
  0.9000000     -1.2802399E-15
  0.9600000     -1.5750301E-15
   1.020000     -1.4170949E-15
   1.080000     -6.5692212E-16
   1.140000      6.8772378E-16
   1.200000      2.3522361E-15
   1.260000      3.8172696E-15
   1.320000      4.4164340E-15
   1.380000      3.5639305E-15
   1.440000      1.0447934E-15
   1.500000     -2.7470896E-15
   1.560000     -6.7573409E-15
   1.620000     -9.4970088E-15
   1.680000     -9.5339089E-15
   1.740000     -6.1080223E-15
   1.800000      3.6910231E-16
   1.860000      8.1833835E-15
   1.920000      1.4706760E-14
   1.980000      1.7260937E-14
   2.040000      1.4190279E-14
   2.100000      5.7252676E-15
   2.160000     -5.7795442E-15
   2.220000     -1.6456829E-14
   2.280000     -2.2274600E-14
   2.340000     -2.0654531E-14
   2.400000     -1.1687689E-14
   2.460000      1.6502338E-15
   2.520000      1.4504474E-14
   2.580000      2.2038351E-14
   2.640000      2.1424045E-14
   2.700000      1.3002894E-14
   2.760000      3.3204168E-17
   2.820000     -1.2863077E-14
   2.880000     -2.1740957E-14
   2.940000     -2.4744982E-14
   3.000000     -2.2117235E-14
   3.060000     -1.4888984E-14
   3.120000     -3.2661383E-15
   3.180000      1.3897707E-14
   3.240000      3.7668589E-14
   3.300000      6.6049522E-14
   3.360000      9.1226390E-14
   3.420000      9.9394587E-14
   3.480000      7.4717474E-14
   3.540000      6.9312884E-15
   3.600000     -1.0024611E-13
   3.660000     -2.2413903E-13
   3.720000     -3.2526022E-13
   3.780000     -3.5770787E-13
   3.840000     -2.8533502E-13
   3.900000     -9.8173971E-14
   3.960000      1.7740189E-13
   4.020000      4.7965896E-13
   4.080000      7.2480422E-13
   4.140000      8.2946226E-13
   4.200000      7.3589561E-13
   4.260000      4.3239376E-13
   4.320000     -3.7505738E-14
   4.380000     -5.8026549E-13
   4.440000     -1.0715311E-12
   4.500000     -1.3850781E-12
   4.560000     -1.4246830E-12
   4.620000     -1.1509270E-12
   4.680000     -5.9564072E-13
   4.740000      1.4066593E-13
   4.800000      9.0885725E-13
   4.860000      1.5444139E-12
   4.920000      1.9056577E-12
   4.980000      1.9071034E-12
   5.040000      1.5394109E-12
   5.100000      8.7133561E-13
   5.160000      3.4147337E-14
   5.220000     -8.0665487E-13
   5.280000     -1.4852533E-12
   5.340000     -1.8681311E-12
   5.400000     -1.8802228E-12
   5.460000     -1.5213865E-12
   5.520000     -8.7115731E-13
   5.580000     -8.0067768E-14
   5.640000      6.5381267E-13
   5.700000      1.1228769E-12
   5.760000      1.1588136E-12
   5.820000      6.8386800E-13
   5.880000     -2.4810519E-13
   5.940000     -1.4348944E-12
   6.000000     -2.5445527E-12
   6.060000     -3.1727082E-12
   6.120000     -2.9310094E-12
   6.180000     -1.5483052E-12
   6.240000      1.0408482E-12
   6.300000      4.6458835E-12
   6.360000      8.8257075E-12
   6.420000      1.2953159E-11
   6.480000      1.6324797E-11
   6.540000      1.8288744E-11
   6.600000      1.8357926E-11
   6.660000      1.6281705E-11
   6.720000      1.2063800E-11
   6.780000      5.9334742E-12
   6.840000     -1.7076604E-12
   6.900000     -1.0335918E-11
   6.960000     -1.9333875E-11
   7.020000     -2.7996121E-11
   7.080000     -3.5531977E-11
   7.140000     -4.1096234E-11
   7.200000     -4.3874498E-11
   7.260000     -4.3227685E-11
   7.320000     -3.8868884E-11
   7.380000     -3.1017994E-11
   7.440000     -2.0469491E-11
   7.500000     -8.5244511E-12
   7.560000      3.2228261E-12
   7.620000      1.3204144E-11
   7.680000      2.0222895E-11
   7.740000      2.3731189E-11
   7.800000      2.3962566E-11
   7.860000      2.1888859E-11
   7.920000      1.9023829E-11
   7.980000      1.7137946E-11
   8.040000      1.7963468E-11
   8.100000      2.2953394E-11
   8.160000      3.3122529E-11
   8.220000      4.8962320E-11
   8.280000      7.0399873E-11
   8.340000      9.6774075E-11
   8.400000      1.2682320E-10
   8.460000      1.5870506E-10
   8.520000      1.9008527E-10
   8.580000      2.1832264E-10
   8.640000      2.4075167E-10
   8.700000      2.5502364E-10
   8.760000      2.5943594E-10
   8.820000      2.5316876E-10
   8.880000      2.3636715E-10
   8.940000      2.1004867E-10
   9.000000      1.7586745E-10
   9.060000      1.3580631E-10
   9.120000      9.1885166E-11
   9.180000      4.5954934E-11
   9.240000     -3.9326127E-13
   9.300000     -4.5824438E-11
   9.360000     -8.9217043E-11
   9.420000     -1.2964219E-10
   9.480000     -1.6639927E-10
   9.540000     -1.9909657E-10
   9.600000     -2.2772426E-10
   9.660000     -2.5265184E-10
   9.720000     -2.7450636E-10
   9.780000     -2.9393937E-10
   9.840000     -3.1134970E-10
   9.900000     -3.2666536E-10
   9.960000     -3.3928038E-10
   10.02000     -3.4819364E-10
   10.08000     -3.5232076E-10
   10.14000     -3.5088524E-10
   10.20000     -3.4376116E-10
   10.26000     -3.3165595E-10
   10.32000     -3.1607744E-10
   10.38000     -2.9910191E-10
   10.44000     -2.8302241E-10
   10.50000     -2.6998512E-10
   10.56000     -2.6171013E-10
   10.62000     -2.5935140E-10
   10.68000     -2.6349348E-10
   10.74000     -2.7423425E-10
   10.80000     -2.9128125E-10
   10.86000     -3.1399613E-10
   10.92000     -3.4136005E-10
   10.98000     -3.7187969E-10
   11.04000     -4.0349701E-10
   11.10000     -4.3358342E-10
   11.16000     -4.5908541E-10
   11.22000     -4.7684395E-10
   11.28000     -4.8405213E-10
   11.34000     -4.7876364E-10
   11.40000     -4.6033716E-10
   11.46000     -4.2970796E-10
   11.52000     -3.8941608E-10
   11.58000     -3.4337405E-10
   11.64000     -2.9641151E-10
   11.70000     -2.5367411E-10
   11.76000     -2.1997063E-10
   11.82000     -1.9915733E-10
   11.88000     -1.9363150E-10
   11.94000     -2.0398525E-10
   12.00000     -2.2885414E-10
   12.06000     -2.6498898E-10
   12.12000     -3.0757111E-10
   12.18000     -3.5077574E-10
   12.24000     -3.8854792E-10
   12.30000     -4.1549589E-10
   12.36000     -4.2774143E-10
   12.42000     -4.2352899E-10
   12.48000     -4.0342130E-10
   12.54000     -3.7000997E-10
   12.60000     -3.2722358E-10
   12.66000     -2.7946107E-10
   12.72000     -2.3084379E-10
   12.78000     -1.8481415E-10
   12.84000     -1.4412681E-10
   12.90000     -1.1105972E-10
   12.96000     -8.7534001E-11
   13.02000     -7.4865045E-11
   13.08000     -7.3085801E-11
   13.14000     -8.0093043E-11
   13.20000     -9.1105665E-11
   13.26000     -9.8940217E-11
   13.32000     -9.5345454E-11
   13.38000     -7.3181440E-11
   13.44000     -2.8780485E-11
   13.50000      3.6386911E-11
   13.56000      1.1546218E-10
   13.62000      1.9759312E-10
   13.68000      2.7056818E-10
   13.74000      3.2379152E-10
   13.80000      3.5056960E-10
   13.86000      3.4897774E-10
   13.92000      3.2117145E-10
   13.98000      2.7163569E-10
   14.04000      2.0524363E-10
   14.10000      1.2597053E-10
   14.16000      3.6706145E-11
   14.22000     -5.9966920E-11
   14.28000     -1.6063303E-10
   14.34000     -2.6029978E-10
   14.40000     -3.5258538E-10
   14.46000     -4.3089135E-10
   14.52000     -4.9011539E-10
   14.58000     -5.2817634E-10
   14.64000     -5.4668731E-10
   14.70000     -5.5047433E-10
   14.76000     -5.4612725E-10
   14.82000     -5.4014404E-10
   14.88000     -5.3733806E-10
   14.94000     -5.3998783E-10
   15.00000     -5.4784571E-10
   15.06000     -5.5877725E-10
   15.12000     -5.6963817E-10
   15.18000     -5.7706001E-10
   15.24000     -5.7802763E-10
   15.30000     -5.7032984E-10
   15.36000     -5.5302096E-10
   15.42000     -5.2691035E-10
   15.48000     -4.9489407E-10
   15.54000     -4.6181756E-10
   15.60000     -4.3363338E-10
   15.66000     -4.1590645E-10
   15.72000     -4.1208434E-10
   15.78000     -4.2219958E-10
   15.84000     -4.4262979E-10
   15.90000     -4.6718573E-10
   15.96000     -4.8925480E-10
   16.02000     -5.0424226E-10
   16.08000     -5.1135129E-10
   16.14000     -5.1393961E-10
   16.20000     -5.1821591E-10
   16.26000     -5.3068211E-10
   16.32000     -5.5523142E-10
   16.38000     -5.9097144E-10
   16.44000     -6.3160704E-10
   16.50000     -6.6667649E-10
   16.56000     -6.8429257E-10
   16.62000     -6.7451894E-10
   16.68000     -6.3228617E-10
   16.74000     -5.5889443E-10
   16.80000     -4.6161064E-10
   16.86000     -3.5149481E-10
   16.92000     -2.4018298E-10
   16.98000     -1.3670634E-10
   17.04000     -4.5408687E-11
   17.10000      3.4365927E-11
   17.16000      1.0678286E-10
   17.22000      1.7684774E-10
   17.28000      2.4761174E-10
   17.34000      3.1833988E-10
   17.40000      3.8435577E-10
   17.46000      4.3863019E-10
   17.52000      4.7451593E-10
   17.58000      4.8859156E-10
   17.64000      4.8252996E-10
   17.70000      4.6325424E-10
   17.76000      4.4125367E-10
   17.82000      4.2758511E-10
   17.88000      4.3054968E-10
   17.94000      4.5316007E-10
   18.00000      4.9225540E-10
   18.06000      5.3956600E-10
   18.12000      5.8436139E-10
   18.18000      6.1676231E-10
   18.24000      6.3056510E-10
   18.30000      6.2461181E-10
   18.36000      6.0229460E-10
   18.42000      5.6950655E-10
   18.48000      5.3195615E-10
   18.54000      4.9299642E-10
   18.60000      4.5286833E-10
   18.66000      4.0961981E-10
   18.72000      3.6120698E-10
   18.78000      3.0774844E-10
   18.84000      2.5282712E-10
   18.90000      2.0315144E-10
   18.96000      1.6661235E-10
   19.02000      1.4948105E-10
   19.08000      1.5387588E-10
   19.14000      1.7653175E-10
   19.20000      2.0938755E-10
   19.26000      2.4179736E-10
   19.32000      2.6356575E-10
   19.38000      2.6773198E-10
   19.44000      2.5216715E-10
   19.50000      2.1951631E-10
   19.56000      1.7562476E-10
   19.62000      1.2710732E-10
   19.68000      7.8978574E-11
   19.74000      3.3186950E-11
   19.80000     -1.1471166E-11
   19.86000     -5.8100844E-11
   19.92000     -1.0965340E-10
   19.98000     -1.6688186E-10
   20.04000     -2.2710664E-10
   20.10000     -2.8428240E-10
   20.16000     -3.3037470E-10
   20.22000     -3.5757938E-10
   20.28000     -3.6062170E-10
   20.34000     -3.3835787E-10
   20.40000     -2.9416236E-10
   20.46000     -2.3501659E-10
   20.52000     -1.6965311E-10
   20.58000     -1.0640504E-10
   20.64000     -5.1469041E-11
   20.70000     -8.1001169E-12
   20.76000      2.3105280E-11
   20.82000      4.3087471E-11
   20.88000      5.2917309E-11
   20.94000      5.2749763E-11
   21.00000      4.1615506E-11
   21.06000      1.8160898E-11
   21.12000     -1.7982390E-11
   21.18000     -6.4827463E-11
   21.24000     -1.1734165E-10
   21.30000     -1.6786676E-10
   21.36000     -2.0762495E-10
   21.42000     -2.2881975E-10
   21.48000     -2.2656958E-10
   21.54000     -1.9996287E-10
   21.60000     -1.5187740E-10
   21.66000     -8.7707591E-11
   21.72000     -1.3568015E-11
   21.78000      6.5289031E-11
   21.84000      1.4525731E-10
   21.90000      2.2416988E-10
   21.96000      3.0036482E-10
   22.02000      3.7160319E-10
   22.08000      4.3446619E-10
   22.14000      4.8461968E-10
   22.20000      5.1791510E-10
   22.26000      5.3187699E-10
   22.32000      5.2689414E-10
   22.38000      5.0649512E-10
   22.44000      4.7644377E-10
   22.50000      4.4289503E-10
   22.56000      4.1029088E-10
   22.62000      3.7984707E-10
   22.68000      3.4928335E-10
   22.74000      3.1395303E-10
   22.80000      2.6893826E-10
   22.86000      2.1125936E-10
   22.92000      1.4129228E-10
   22.98000      6.2823288E-11
   23.04000     -1.8252531E-11
   23.10000     -9.6020594E-11
   23.16000     -1.6654481E-10
   23.22000     -2.2895238E-10
   23.28000     -2.8516228E-10
   23.34000     -3.3834738E-10
   23.40000     -3.9070133E-10
   23.46000     -4.4134904E-10
   23.52000     -4.8521653E-10
   23.58000     -5.1338273E-10
   23.64000     -5.1495885E-10
   23.70000     -4.8001436E-10
   23.76000     -4.0266063E-10
   23.82000     -2.8325689E-10
   23.88000     -1.2891800E-10
   23.94000      4.7960181E-11
   24.00000      2.3274142E-10
   24.06000      4.1215012E-10
   24.12000      5.7719873E-10
   24.18000      7.2446554E-10
   24.24000      8.5539731E-10
   24.30000      9.7409003E-10
   24.36000      1.0845578E-09
   24.42000      1.1886175E-09
   24.48000      1.2851492E-09
   24.54000      1.3708432E-09
   24.60000      1.4419116E-09
   24.66000      1.4958930E-09
   24.72000      1.5327484E-09
   24.78000      1.5548394E-09
   24.84000      1.5659198E-09
   24.90000      1.5696929E-09
   24.96000      1.5686477E-09
   25.02000      1.5637104E-09
   25.08000      1.5548517E-09
   25.14000      1.5423243E-09
   25.20000      1.5278975E-09
   25.26000      1.5154237E-09
   25.32000      1.5103604E-09
   25.38000      1.5183511E-09
   25.44000      1.5434267E-09
   25.50000      1.5865924E-09
   25.56000      1.6454201E-09
   25.62000      1.7148182E-09
   25.68000      1.7886299E-09
   25.74000      1.8613741E-09
   25.80000      1.9294482E-09
   25.86000      1.9914257E-09
   25.92000      2.0475173E-09
   25.98000      2.0985829E-09
   26.04000      2.1451549E-09
   26.10000      2.1867737E-09
   26.16000      2.2217175E-09
   26.22000      2.2470603E-09
   26.28000      2.2589761E-09
   26.34000      2.2532527E-09
   26.40000      2.2259696E-09
   26.46000      2.1741853E-09
   26.52000      2.0963731E-09
   26.58000      1.9923492E-09
   26.64000      1.8626578E-09
   26.70000      1.7077244E-09
   26.76000      1.5273406E-09
   26.82000      1.3210006E-09
   26.88000      1.0892042E-09
   26.94000      8.3524920E-10
   27.00000      5.6660321E-10
   27.06000      2.9493952E-10
   27.12000      3.4432058E-11
   27.18000     -2.0131026E-10
   27.24000     -4.0261036E-10
   27.30000     -5.6610588E-10
   27.36000     -6.9521272E-10
   27.42000     -7.9848261E-10
   27.48000     -8.8647811E-10
   27.54000     -9.6831110E-10
   27.60000     -1.0490394E-09
   27.66000     -1.1287282E-09
   27.72000     -1.2033342E-09
   27.78000     -1.2669236E-09
   27.84000     -1.3143029E-09
   27.90000     -1.3430576E-09
   27.96000     -1.3542796E-09
   28.02000     -1.3518170E-09
   28.08000     -1.3404989E-09
   28.14000     -1.3242060E-09
   28.20000     -1.3046937E-09
   28.26000     -1.2816835E-09
   28.32000     -1.2540868E-09
   28.38000     -1.2216589E-09
   28.44000     -1.1861691E-09
   28.50000     -1.1514545E-09
   28.56000     -1.1223199E-09
   28.62000     -1.1028484E-09
   28.68000     -1.0949395E-09
   28.74000     -1.0977211E-09
   28.80000     -1.1079910E-09
   28.86000     -1.1213690E-09
   28.92000     -1.1336161E-09
   28.98000     -1.1416714E-09
   29.04000     -1.1442215E-09
   29.10000     -1.1418456E-09
   29.16000     -1.1368304E-09
   29.22000     -1.1326837E-09
   29.28000     -1.1333264E-09
   29.34000     -1.1420281E-09
   29.40000     -1.1603319E-09
   29.46000     -1.1873499E-09
   29.52000     -1.2197369E-09
   29.58000     -1.2523707E-09
   29.64000     -1.2794367E-09
   29.70000     -1.2954411E-09
   29.76000     -1.2957938E-09
   29.82000     -1.2769154E-09
   29.88000     -1.2361251E-09
   29.94000     -1.1716389E-09
   30.00000     -1.0828149E-09
   30.06000     -9.7048924E-10
   30.12000     -8.3707608E-10
   30.18000     -6.8620520E-10
   30.24000     -5.2197757E-10
   30.30000     -3.4820338E-10
   30.36000     -1.6803987E-10
   30.42000      1.5787446E-11
   30.48000      2.0036076E-10
   30.54000      3.8197959E-10
   30.60000      5.5602078E-10
   30.66000      7.1739698E-10
   30.72000      8.6142843E-10
   30.78000      9.8474662E-10
   30.84000      1.0858787E-09
   30.90000      1.1653503E-09
   30.96000      1.2253434E-09
   31.02000      1.2690591E-09
   31.08000      1.2999469E-09
   31.14000      1.3209602E-09
   31.20000      1.3340110E-09
   31.26000      1.3398052E-09
   31.32000      1.3381628E-09
   31.38000      1.3287282E-09
   31.44000      1.3117417E-09
   31.50000      1.2884415E-09
   31.56000      1.2608140E-09
   31.62000      1.2307795E-09
   31.68000      1.1992739E-09
   31.74000      1.1658146E-09
   31.80000      1.1288825E-09
   31.86000      1.0869611E-09
   31.92000      1.0396264E-09
   31.98000      9.8800856E-10
   32.04000      9.3428676E-10
   32.10000      8.8045715E-10
   32.16000      8.2704782E-10
   32.22000      7.7249213E-10
   32.28000      7.1348827E-10
   32.34000      6.4613226E-10
   32.40000      5.6724009E-10
   32.46000      4.7526583E-10
   32.52000      3.7052433E-10
   32.58000      2.5480132E-10
   32.64000      1.3065039E-10
   32.70000      6.6768314E-13
   32.76000     -1.3309860E-10
   32.82000     -2.6954691E-10
   32.88000     -4.0866527E-10
   32.94000     -5.5131016E-10
   33.00000     -6.9856182E-10
   33.06000     -8.5078061E-10
   33.12000     -1.0067243E-09
   33.18000     -1.1631724E-09
   33.24000     -1.3153354E-09
   33.30000     -1.4579532E-09
   33.36000     -1.5866304E-09
   33.42000     -1.6988482E-09
   33.48000     -1.7943050E-09
   33.54000     -1.8746174E-09
   33.60000     -1.9426971E-09
   33.66000     -2.0021442E-09
   33.72000     -2.0567532E-09
   33.78000     -2.1100011E-09
   33.84000     -2.1643400E-09
   33.90000     -2.2203435E-09
   33.96000     -2.2760782E-09
   34.02000     -2.3271740E-09
   34.08000     -2.3678401E-09
   34.14000     -2.3925841E-09
   34.20000     -2.3979483E-09
   34.26000     -2.3835098E-09
   34.32000     -2.3517392E-09
   34.38000     -2.3069058E-09
   34.44000     -2.2536597E-09
   34.50000     -2.1959559E-09
   34.56000     -2.1366369E-09
   34.62000     -2.0775124E-09
   34.68000     -2.0195086E-09
   34.74000     -1.9625710E-09
   34.80000     -1.9053676E-09
   34.86000     -1.8451533E-09
   34.92000     -1.7781836E-09
   34.98000     -1.7007534E-09
   35.04000     -1.6105125E-09
   35.10000     -1.5074684E-09
   35.16000     -1.3941855E-09
   35.22000     -1.2750792E-09
   35.28000     -1.1551400E-09
   35.34000     -1.0386552E-09
   35.40000     -9.2841362E-10
   35.46000     -8.2559171E-10
   35.52000     -7.3018669E-10
   35.58000     -6.4168276E-10
   35.64000     -5.5962640E-10
   35.70000     -4.8390569E-10
   35.76000     -4.1468529E-10
   35.82000     -3.5208275E-10
   35.88000     -2.9576686E-10
   35.94000     -2.4470964E-10
   36.00000     -1.9729088E-10
   36.06000     -1.5181591E-10
   36.12000     -1.0728565E-10
   36.18000     -6.4055157E-11
   36.24000     -2.3972836E-11
   36.30000      1.0216032E-11
   36.36000      3.6059364E-11
   36.42000      5.2703321E-11
   36.48000      6.1731127E-11
   36.54000      6.7161297E-11
   36.60000      7.4634375E-11
   36.66000      9.0173945E-11
   36.72000      1.1900977E-10
   36.78000      1.6477225E-10
   36.84000      2.2907264E-10
   36.90000      3.1130540E-10
   36.96000      4.0857351E-10
   37.02000      5.1585303E-10
   37.08000      6.2665373E-10
   37.14000      7.3430578E-10
   37.20000      8.3362089E-10
   37.26000      9.2228486E-10
   37.32000      1.0012430E-09
   37.38000      1.0737004E-09
   37.44000      1.1430389E-09
   37.50000      1.2105748E-09
   37.56000      1.2742707E-09
   37.62000      1.3291073E-09
   37.68000      1.3690256E-09
   37.74000      1.3895708E-09
   37.80000      1.3900275E-09
   37.86000      1.3740830E-09
   37.92000      1.3487405E-09
   37.98000      1.3219594E-09
   38.04000      1.2999678E-09
   38.10000      1.2852368E-09
   38.16000      1.2757665E-09
   38.22000      1.2658242E-09
   38.28000      1.2478181E-09
   38.34000      1.2146817E-09
   38.40000      1.1620397E-09
   38.46000      1.0895098E-09
   38.52000      1.0007424E-09
   38.58000      9.0218838E-10
   38.64000      8.0101165E-10
   38.70000      7.0288403E-10
   38.76000      6.1046562E-10
   38.82000      5.2311605E-10
   38.88000      4.3788315E-10
   38.94000      3.5129272E-10
   39.00000      2.6115446E-10
   39.06000      1.6764062E-10
   39.12000      7.3253348E-11
   39.18000     -1.8216997E-11
   39.24000     -1.0324490E-10
   39.30000     -1.7998887E-10
   39.36000     -2.4904653E-10
   39.42000     -3.1329891E-10
   39.48000     -3.7692482E-10
   39.54000     -4.4392817E-10
   39.60000     -5.1666466E-10
   39.66000     -5.9485483E-10
   39.72000     -6.7542655E-10
   39.78000     -7.5326262E-10
   39.84000     -8.2261259E-10
   39.90000     -8.7866886E-10
   39.96000     -9.1873603E-10
   40.02000     -9.4259200E-10
   40.08000     -9.5198882E-10
   40.14000     -9.4960484E-10
   40.20000     -9.3795660E-10
   40.26000     -9.1871016E-10
   40.32000     -8.9256458E-10
   40.38000     -8.5957208E-10
   40.44000     -8.1960744E-10
   40.50000     -7.7274159E-10
   40.56000     -7.1945533E-10
   40.62000     -6.6076067E-10
   40.68000     -5.9829502E-10
   40.74000     -5.3431304E-10
   40.80000     -4.7138782E-10
   40.86000     -4.1168524E-10
   40.92000     -3.5593412E-10
   40.98000     -3.0253117E-10
   41.04000     -2.4737082E-10
   41.10000     -1.8479354E-10
   41.16000     -1.0954865E-10
   41.22000     -1.9097706E-11
   41.28000      8.4725560E-11
   41.34000      1.9552787E-10
   41.40000      3.0388428E-10
   41.46000      4.0008785E-10
   41.52000      4.7709781E-10
   41.58000      5.3259336E-10
   41.64000      5.6943872E-10
   41.70000      5.9450478E-10
   41.76000      6.1638467E-10
   41.82000      6.4283917E-10
   41.88000      6.7876482E-10
   41.94000      7.2518658E-10
   42.00000      7.7940482E-10
   42.06000      8.3609664E-10
   42.12000      8.8895735E-10
   42.18000      9.3236829E-10
   42.24000      9.6260566E-10
   42.30000      9.7827135E-10
   42.36000      9.7989439E-10
   42.42000      9.6897712E-10
   42.48000      9.4697572E-10
   42.54000      9.1472618E-10
   42.60000      8.7259505E-10
   42.66000      8.2125218E-10
   42.72000      7.6262408E-10
   42.78000      7.0046147E-10
   42.84000      6.4011968E-10
   42.90000      5.8750904E-10
   42.96000      5.4754612E-10
   43.02000      5.2264781E-10
   43.08000      5.1178634E-10
   43.14000      5.1042215E-10
   43.20000      5.1136195E-10
   43.26000      5.0635751E-10
   43.32000      4.8809423E-10
   43.38000      4.5211077E-10
   43.44000      3.9814321E-10
   43.50000      3.3044442E-10
   43.56000      2.5684485E-10
   43.62000      1.8669924E-10
   43.68000      1.2828770E-10
   43.74000      8.6516766E-11
   43.80000      6.1723883E-11
   43.86000      4.9990550E-11
   43.92000      4.4777751E-11
   43.98000      3.9183153E-11
   44.04000      2.7937645E-11
   44.10000      8.4735448E-12
   44.16000     -1.9123734E-11
   44.22000     -5.2993665E-11
   44.28000     -9.0671727E-11
   44.34000     -1.3006358E-10
   44.40000     -1.6997070E-10
   44.46000     -2.1016831E-10
   44.52000     -2.5117686E-10
   44.58000     -2.9387873E-10
   44.64000     -3.3909323E-10
   44.70000     -3.8720899E-10
   44.76000     -4.3798756E-10
   44.82000     -4.9064558E-10
   44.88000     -5.4422905E-10
   44.94000     -5.9814126E-10
   45.00000     -6.5255784E-10
   45.06000     -7.0847211E-10
   45.12000     -7.6727935E-10
   45.18000     -8.3004997E-10
   45.24000     -8.9680424E-10
   45.30000     -9.6609354E-10
   45.36000     -1.0350159E-09
   45.42000     -1.0995839E-09
   45.48000     -1.1552587E-09
   45.54000     -1.1975123E-09
   45.60000     -1.2224122E-09
   45.66000     -1.2272880E-09
   45.72000     -1.2114640E-09
   45.78000     -1.1768525E-09
   45.84000     -1.1280736E-09
   45.90000     -1.0718237E-09
   45.96000     -1.0154976E-09
   46.02000     -9.6543951E-10
   46.08000     -9.2543290E-10
   46.14000     -8.9598712E-10
   46.20000     -8.7465318E-10
   46.26000     -8.5716756E-10
   46.32000     -8.3891549E-10
   46.38000     -8.1615992E-10
   46.44000     -7.8668222E-10
   46.50000     -7.4978551E-10
   46.56000     -7.0584460E-10
   46.62000     -6.5568023E-10
   46.68000     -5.9998900E-10
   46.74000     -5.3897603E-10
   46.80000     -4.7225884E-10
   46.86000     -3.9905954E-10
   46.92000     -3.1863945E-10
   46.98000     -2.3084583E-10
   47.04000     -1.3656311E-10
   47.10000     -3.7854619E-11
   47.16000      6.2317235E-11
   47.22000      1.6072300E-10
   47.28000      2.5460770E-10
   47.34000      3.4223122E-10
   47.40000      4.2297657E-10
   47.46000      4.9698090E-10
   47.52000      5.6444899E-10
   47.58000      6.2493205E-10
   47.64000      6.7686073E-10
   47.70000      7.1751705E-10
   47.76000      7.4346856E-10
   47.82000      7.5132173E-10
   47.88000      7.3853651E-10
   47.94000      7.0401629E-10
   48.00000      6.4827221E-10
   48.06000      5.7314520E-10
   48.12000      4.8127763E-10
   48.18000      3.7565476E-10
   48.24000      2.5948022E-10
   48.30000      1.3641910E-10
   48.36000      1.0943638E-11
   48.42000     -1.1164361E-10
   48.48000     -2.2581412E-10
   48.54000     -3.2696823E-10
   48.60000     -4.1262643E-10
   48.66000     -4.8294518E-10
   48.72000     -5.4007498E-10
   48.78000     -5.8647159E-10
   48.84000     -6.2291072E-10
   48.90000     -6.4725175E-10
   48.96000     -6.5471800E-10
   49.02000     -6.3970929E-10
   49.08000     -5.9833899E-10
   49.14000     -5.3045629E-10
   49.20000     -4.4013629E-10
   49.26000     -3.3438816E-10
   49.32000     -2.2072764E-10
   49.38000     -1.0479648E-10
   49.44000      1.0879458E-11
   49.50000      1.2653865E-10
   49.56000      2.4359850E-10
   49.62000      3.6275280E-10
   49.68000      4.8271676E-10
   49.74000      6.0016525E-10
   49.80000      7.1078926E-10
   49.86000      8.1090307E-10
   49.92000      8.9886582E-10
   49.98000      9.7575459E-10
   50.04000      1.0450789E-09
   50.10000      1.1116975E-09
   50.16000      1.1803305E-09
   50.22000      1.2541447E-09
   50.28000      1.3338283E-09
   50.34000      1.4174167E-09
   50.40000      1.5009270E-09
   50.46000      1.5796227E-09
   50.52000      1.6495265E-09
   50.58000      1.7086996E-09
   50.64000      1.7578512E-09
   50.70000      1.8000630E-09
   50.76000      1.8397213E-09
   50.82000      1.8810389E-09
   50.88000      1.9266888E-09
   50.94000      1.9770057E-09
   51.00000      2.0299764E-09
   51.06000      2.0819289E-09
   51.12000      2.1285980E-09
   51.18000      2.1661677E-09
   51.24000      2.1919715E-09
   51.30000      2.2047293E-09
   51.36000      2.2043889E-09
   51.42000      2.1917612E-09
   51.48000      2.1681472E-09
   51.54000      2.1350888E-09
   51.60000      2.0942936E-09
   51.66000      2.0476869E-09
   51.72000      1.9975024E-09
   51.78000      1.9463087E-09
   51.84000      1.8968895E-09
   51.90000      1.8519518E-09
   51.96000      1.8137156E-09
   52.02000      1.7835179E-09
   52.08000      1.7615931E-09
   52.14000      1.7471525E-09
   52.20000      1.7387726E-09
   52.26000      1.7349649E-09
   52.32000      1.7347187E-09
   52.38000      1.7378123E-09
   52.44000      1.7447916E-09
   52.50000      1.7566283E-09
   52.56000      1.7741910E-09
   52.62000      1.7976867E-09
   52.68000      1.8262259E-09
   52.74000      1.8576359E-09
   52.80000      1.8886179E-09
   52.86000      1.9152668E-09
   52.92000      1.9338633E-09
   52.98000      1.9417332E-09
   53.04000      1.9378223E-09
   53.10000      1.9226816E-09
   53.16000      1.8977420E-09
   53.22000      1.8640671E-09
   53.28000      1.8209861E-09
   53.34000      1.7650975E-09
   53.40000      1.6899755E-09
   53.46000      1.5866712E-09
   53.52000      1.4448037E-09
   53.58000      1.2539612E-09
   53.64000      1.0049959E-09
   53.70000      6.9102607E-10
   53.76000      3.0782632E-10
   53.82000     -1.4643450E-10
   53.88000     -6.7219508E-10
   53.94000     -1.2698514E-09
   54.00000     -1.9410176E-09
   54.06000     -2.6890270E-09
   54.12000     -3.5183541E-09
   54.18000     -4.4332125E-09
   54.24000     -5.4358602E-09
   54.30000     -6.5254966E-09
   54.36000     -7.6980839E-09
   54.42000     -8.9470795E-09
   54.48000     -1.0264405E-08
   54.54000     -1.1641066E-08
   54.60000     -1.3067263E-08
   54.66000     -1.4532342E-08
   54.72000     -1.6025108E-08
   54.78000     -1.7534605E-08
   54.84000     -1.9051102E-08
   54.90000     -2.0566414E-08
   54.96000     -2.2073102E-08
   55.02000     -2.3562652E-08
   55.08000     -2.5023514E-08
   55.14000     -2.6440022E-08
   55.20000     -2.7792785E-08
   55.26000     -2.9060285E-08
   55.32000     -3.0220718E-08
   55.38000     -3.1253240E-08
   55.44000     -3.2138338E-08
   55.50000     -3.2857727E-08
   55.56000     -3.3394478E-08