 -0.750000000       0.00000000    
 -0.689999998       0.00000000    
 -0.629999995       0.00000000    
 -0.569999993       0.00000000    
 -0.509999990       0.00000000    
 -0.449999988       0.00000000    
 -0.389999986       0.00000000    
 -0.330000013       0.00000000    
 -0.270000011      -1.05024419E-26
 -0.209999993      -1.09736592E-25
 -0.150000006      -6.87760245E-25
  -9.00000036E-02  -3.57829239E-24
  -2.99999993E-02  -1.59102690E-23
   2.99999993E-02  -5.68941505E-23
   9.00000036E-02  -1.54059739E-22
  0.150000006      -2.85257051E-22
  0.209999993      -2.09767051E-22
  0.270000011       7.67635120E-22
  0.330000013       3.75231381E-21
  0.389999986       9.21565798E-21
  0.449999988       1.43703261E-20
  0.509999990       9.87009921E-21
  0.569999993      -2.02974015E-20
  0.629999995      -8.93922779E-20
  0.689999998      -1.85079361E-19
  0.750000000      -2.40727549E-19
  0.810000002      -1.26924260E-19
  0.870000005       2.98475173E-19
  0.930000007       1.05936059E-18
  0.990000010       1.88595298E-18
   1.04999995       2.11748600E-18
   1.11000001       8.58918085E-19
   1.16999996      -2.49445619E-18
   1.23000002      -7.47290682E-18
   1.28999996      -1.19130709E-17
   1.35000002      -1.21363700E-17
   1.40999997      -4.40469954E-18
   1.47000003       1.25044587E-17
   1.52999997       3.46917861E-17
   1.59000003       5.22760379E-17
   1.64999998       5.18652170E-17
   1.71000004       2.25630817E-17
   1.76999998      -3.64462329E-17
   1.83000004      -1.10507829E-16
   1.88999999      -1.70231269E-16
   1.95000005      -1.80146173E-16
   2.00999999      -1.13313090E-16
   2.06999993       3.35974560E-17
   2.13000011       2.31473379E-16
   2.19000006       4.20917062E-16
   2.25000000       5.25934404E-16
   2.30999994       4.75622976E-16
   2.36999989       2.28424272E-16
   2.43000007      -2.06058539E-16
   2.49000001      -7.51812839E-16
   2.54999995      -1.26286694E-15
   2.60999990      -1.53941123E-15
   2.67000008      -1.37262727E-15
   2.73000002      -6.21034393E-16
   2.78999996       6.95204250E-16
   2.84999990       2.31759162E-15
   2.91000009       3.74087485E-15
   2.97000003       4.31633590E-15
   3.02999997       3.47255090E-15
   3.08999991       9.99106596E-16
   3.15000010      -2.71862318E-15
   3.21000004      -6.64620675E-15
   3.26999998      -9.32013391E-15
   3.32999992      -9.33136557E-15
   3.39000010      -5.93405533E-15
   3.45000005       4.58607302E-16
   3.50999999       8.14363310E-15
   3.56999993       1.45149124E-14
   3.63000011       1.69244823E-14
   3.69000006       1.37528615E-14
   3.75000000       5.26888459E-15
   3.80999994      -6.13879802E-15
   3.86999989      -1.65834719E-14
   3.93000007      -2.20420453E-14
   3.99000001      -1.99864454E-14
   4.05000019      -1.06058224E-14
   4.11000013       2.98564651E-15
   4.17000008       1.57814740E-14
   4.23000002       2.28279530E-14
   4.28999996       2.12757397E-14
   4.34999990       1.15950128E-14
   4.40999985      -2.65540700E-15
   4.46999979      -1.64208636E-14
   4.53000021      -2.53041183E-14
   4.59000015      -2.71464742E-14
   4.65000010      -2.22080502E-14
   4.71000004      -1.19597664E-14
   4.76999998       2.57209622E-15
   4.82999992       2.15405171E-14
   4.88999987       4.51748251E-14
   4.94999981       7.11374658E-14
   5.01000023       9.19773087E-14
   5.07000017       9.49239263E-14
   5.13000011       6.55571449E-14
   5.19000006      -5.03834975E-15
   5.25000000      -1.12302108E-13
   5.30999994      -2.33470903E-13
   5.36999989      -3.29692924E-13
   5.42999983      -3.56147593E-13
   5.48999977      -2.77840468E-13
   5.55000019      -8.57382673E-14
   5.61000013       1.93157556E-13
   5.67000008       4.96690471E-13
   5.73000002       7.40689411E-13
   5.78999996       8.41400951E-13
   5.84999990       7.40881369E-13
   5.90999985       4.27734589E-13
   5.96999979      -5.33276799E-14
   6.03000021      -6.06643804E-13
   6.09000015      -1.10511318E-12
   6.15000010      -1.41987420E-12
   6.21000004      -1.45309600E-12
   6.26999998      -1.16554650E-12
   6.32999992      -5.91312535E-13
   6.38999987       1.65156517E-13
   6.44999981       9.50085171E-13
   6.51000023       1.59490281E-12
   6.57000017       1.95564528E-12
   6.63000011       1.94697839E-12
   6.69000006       1.56208694E-12
   6.75000000       8.73832040E-13
   6.80999994       1.78933389E-14
   6.86999989      -8.36856571E-13
   6.92999983      -1.52320593E-12
   6.98999977      -1.90840854E-12
   7.05000019      -1.91965562E-12
   7.11000013      -1.55921445E-12
   7.17000008      -9.07715689E-13
   7.23000002      -1.14556598E-13
   7.28999996       6.25350303E-13
   7.34999990       1.10805744E-12
   7.40999985       1.16699326E-12
   7.46999979       7.21905175E-13
   7.53000021      -1.81042789E-13
   7.59000015      -1.35109979E-12
   7.65000010      -2.46758625E-12
   7.71000004      -3.13166962E-12
   7.76999998      -2.94974375E-12
   7.82999992      -1.63242868E-12
   7.88999987       9.14364938E-13
   7.94999981       4.53146938E-12
   8.01000023       8.80075353E-12
   8.06999969       1.30980487E-11
   8.13000011       1.66949076E-11
   8.18999958       1.88850862E-11
   8.25000000       1.91045860E-11
   8.31000042       1.70173806E-11
   8.36999989       1.25520870E-11
   8.43000031       5.89280751E-12
   8.48999977      -2.55719621E-12
   8.55000019      -1.22147119E-11
   8.60999966      -2.23415661E-11
   8.67000008      -3.20557123E-11
   8.72999954      -4.03478570E-11
   8.78999996      -4.61335969E-11
   8.85000038      -4.83650273E-11
   8.90999985      -4.62028818E-11
   8.97000027      -3.92182467E-11
   9.02999973      -2.75661629E-11
   9.09000015      -1.20653669E-11
   9.14999962       5.86316065E-12
   9.21000004       2.44055696E-11
   9.27000046       4.16707259E-11
   9.32999992       5.60334834E-11
   9.39000034       6.64168165E-11
   9.44999981       7.24456953E-11
   9.51000023       7.44492454E-11
   9.56999969       7.33354488E-11
   9.63000011       7.03947178E-11
   9.68999958       6.70932893E-11
   9.75000000       6.48971085E-11
   9.81000042       6.51347518E-11
   9.86999989       6.88816504E-11
   9.93000031       7.68422409E-11
   9.98999977       8.92217689E-11
   10.0500002       1.05606766E-10
   10.1099997       1.24895996E-10
   10.1700001       1.45328485E-10
   10.2299995       1.64636374E-10
   10.2900000       1.80315013E-10
   10.3500004       1.89964239E-10
   10.4099998       1.91629393E-10
   10.4700003       1.84066970E-10
   10.5299997       1.66880801E-10
   10.5900002       1.40510492E-10
   10.6499996       1.06094120E-10
   10.7100000       6.52576673E-11
   10.7700005       1.98943553E-11
   10.8299999      -2.80130641E-11
   10.8900003      -7.65028804E-11
   10.9499998      -1.23688379E-10
   11.0100002      -1.67793210E-10
   11.0699997      -2.07213524E-10
   11.1300001      -2.40634901E-10
   11.1899996      -2.67195599E-10
   11.2500000      -2.86646984E-10
   11.3100004      -2.99438724E-10
   11.3699999      -3.06664111E-10
   11.4300003      -3.09842096E-10
   11.4899998      -3.10574289E-10
   11.5500002      -3.10171583E-10
   11.6099997      -3.09369808E-10
   11.6700001      -3.08233966E-10
   11.7299995      -3.06288328E-10
   11.7900000      -3.02828373E-10
   11.8500004      -2.97303432E-10
   11.9099998      -2.89631319E-10
   11.9700003      -2.80332813E-10
   12.0299997      -2.70444056E-10
   12.0900002      -2.61249244E-10
   12.1499996      -2.53945420E-10
   12.2100000      -2.49371190E-10
   12.2700005      -2.47900284E-10
   12.3299999      -2.49526594E-10
   12.3900003      -2.54082921E-10
   12.4499998      -2.61477645E-10
   12.5100002      -2.71822925E-10
   12.5699997      -2.85373281E-10
   12.6300001      -3.02274844E-10
   12.6899996      -3.22210980E-10
   12.7500000      -3.44082318E-10
   12.8100004      -3.65863728E-10
   12.8699999      -3.84730858E-10
   12.9300003      -3.97467920E-10
   12.9899998      -4.01082279E-10
   13.0500002      -3.93488492E-10
   13.1099997      -3.74098169E-10
   13.1700001      -3.44167139E-10
   13.2299995      -3.06800640E-10
   13.2900000      -2.66588585E-10
   13.3500004      -2.28924324E-10
   13.4099998      -1.99131267E-10
   13.4700003      -1.81569260E-10
   13.5299997      -1.78901172E-10
   13.5900002      -1.91661964E-10
   13.6499996      -2.18200541E-10
   13.7100000      -2.54979010E-10
   13.7700005      -2.97142699E-10
   13.8299999      -3.39237777E-10
   13.8900003      -3.75951686E-10
   13.9499998      -4.02774231E-10
   14.0100002      -4.16501639E-10
   14.0699997      -4.15527723E-10
   14.1300001      -3.99886096E-10
   14.1899996      -3.71046055E-10
   14.2500000      -3.31520866E-10
   14.3100004      -2.84408969E-10
   14.3699999      -2.33014968E-10
   14.4300003      -1.80655199E-10
   14.4899998      -1.30639735E-10
   14.5500002      -8.62849028E-11
   14.6099997      -5.07303470E-11
   14.6700001      -2.63868909E-11
   14.7299995      -1.40380077E-11
   14.7900000      -1.18864762E-11
   14.8500004      -1.50364287E-11
   14.9099998      -1.58918503E-11
   14.9700003      -5.67873396E-12
   15.0299997       2.31638562E-11
   15.0900002       7.44332304E-11
   15.1499996       1.46382712E-10
   15.2100000       2.31480293E-10
   15.2700005       3.17955551E-10
   15.3299999       3.92701593E-10
   15.3900003       4.44550063E-10
   15.4499998       4.66772343E-10
   15.5100002       4.57972132E-10
   15.5699997       4.21195495E-10
   15.6300001       3.61809638E-10
   15.6899996       2.85166613E-10
   15.7500000       1.95073999E-10
   15.8100004       9.36450570E-11
   15.8699999      -1.75871453E-11
   15.9300003      -1.36012548E-10
   15.9899998      -2.56713595E-10
   16.0499992      -3.72414377E-10
   16.1100006      -4.74793316E-10
   16.1700001      -5.56689528E-10
   16.2299995      -6.14299611E-10
   16.2900009      -6.48436249E-10
   16.3500004      -6.64305444E-10
   16.4099998      -6.69867939E-10
   16.4699993      -6.73400891E-10
   16.5300007      -6.81144363E-10
   16.5900002      -6.95801528E-10
   16.6499996      -7.16265158E-10
   16.7099991      -7.38462291E-10
   16.7700005      -7.56861795E-10
   16.8299999      -7.66094688E-10
   16.8899994      -7.62269969E-10
   16.9500008      -7.43802464E-10
   17.0100002      -7.11753545E-10
   17.0699997      -6.69744649E-10
   17.1299992      -6.23462060E-10
   17.1900005      -5.79727266E-10
   17.2500000      -5.45163470E-10
   17.3099995      -5.24657207E-10
   17.3700008      -5.20016863E-10
   17.4300003      -5.29324362E-10
   17.4899998      -5.47357604E-10
   17.5499992      -5.67117964E-10
   17.6100006      -5.82058790E-10
   17.6700001      -5.88267435E-10
   17.7299995      -5.85781479E-10
   17.7900009      -5.78480708E-10
   17.8500004      -5.72500269E-10
   17.9099998      -5.73667169E-10
   17.9699993      -5.84845894E-10
   18.0300007      -6.04142458E-10
   18.0900002      -6.24642726E-10
   18.1499996      -6.35847708E-10
   18.2099991      -6.26403929E-10
   18.2700005      -5.87295768E-10
   18.3299999      -5.14504161E-10
   18.3899994      -4.10291218E-10
   18.4500008      -2.82690760E-10
   18.5100002      -1.43351706E-10
   18.5699997      -4.41202760E-12
   18.6299992       1.24590879E-10
   18.6900005       2.38769393E-10
   18.7500000       3.38240269E-10
   18.8099995       4.26722491E-10
   18.8700008       5.08950992E-10
   18.9300003       5.87915105E-10
   18.9899998       6.62996713E-10
   19.0499992       7.29741045E-10
   19.1100006       7.81366472E-10
   19.1700001       8.11448686E-10
   19.2299995       8.16756551E-10
   19.2900009       7.99147304E-10
   19.3500004       7.65766894E-10
   19.4099998       7.27412464E-10
   19.4699993       6.95574875E-10
   19.5300007       6.79148238E-10
   19.5900002       6.81912360E-10
   19.6499996       7.01629699E-10
   19.7099991       7.31042726E-10
   19.7700005       7.60402075E-10
   19.8299999       7.80625675E-10
   19.8899994       7.85973842E-10
   19.9500008       7.75313758E-10
   20.0100002       7.51588181E-10
   20.0699997       7.19800330E-10
   20.1299992       6.84417634E-10
   20.1900005       6.47328691E-10
   20.2500000       6.07249806E-10
   20.3099995       5.60846980E-10
   20.3700008       5.05073816E-10
   20.4300003       4.39662751E-10
   20.4899998       3.68591963E-10
   20.5499992       2.99759190E-10
   20.6100006       2.42847992E-10
   20.6700001       2.06147890E-10
   20.7299995       1.93555796E-10
   20.7900009       2.02936959E-10
   20.8500004       2.26499250E-10
   20.9099998       2.53053856E-10
   20.9699993       2.71331013E-10
   21.0300007       2.73157830E-10
   21.0900002       2.55409277E-10
   21.1499996       2.20141516E-10
   21.2099991       1.72999254E-10
   21.2700005       1.20595936E-10
   21.3299999       6.78883755E-11
   21.3899994       1.65103712E-11
   21.4500008      -3.53655230E-11
   21.5100002      -9.16507772E-11
   21.5699997      -1.56022389E-10
   21.6299992      -2.29578856E-10
   21.6900005      -3.09392151E-10
   21.7500000      -3.88544003E-10
   21.8099995      -4.57687999E-10
   21.8700008      -5.07615949E-10
   21.9300003      -5.31939714E-10
   21.9899998      -5.28962152E-10
   22.0499992      -5.02108966E-10
   22.1100006      -4.58818122E-10
   22.1700001      -4.08323347E-10
   22.2299995      -3.59136360E-10
   22.2900009      -3.17092047E-10
   22.3500004      -2.84568341E-10
   22.4099998      -2.61027450E-10
   22.4699993      -2.44525483E-10
   22.5300007      -2.33484759E-10
   22.5900002      -2.27949312E-10
   22.6499996      -2.29772590E-10
   22.7099991      -2.41637599E-10
   22.7700005      -2.65310579E-10
   22.8299999      -2.99882036E-10
   22.8899994      -3.40801831E-10
   22.9500008      -3.80230347E-10
   23.0100002      -4.08708567E-10
   23.0699997      -4.17601564E-10
   23.1299992      -4.01430278E-10
   23.1900005      -3.59222874E-10
   23.2500000      -2.94399199E-10
   23.3099995      -2.13288290E-10
   23.3700008      -1.22921992E-10
   23.4300003      -2.90137359E-11
   23.4899998       6.50946658E-11
   23.5499992       1.58191682E-10
   23.6100006       2.49920834E-10
   23.6700001       3.39185735E-10
   23.7299995       4.23078933E-10
   23.7900009       4.96921060E-10
   23.8500004       5.55472446E-10
   23.9099998       5.94816862E-10
   23.9699993       6.14068074E-10
   24.0300007       6.16075746E-10
   24.0900002       6.06707184E-10
   24.1499996       5.92891125E-10
   24.2099991       5.80159198E-10
   24.2700005       5.70670566E-10
   24.3299999       5.62529523E-10
   24.3899994       5.50682555E-10
   24.4500008       5.29027711E-10
   24.5100002       4.92877850E-10
   24.5699997       4.40797870E-10
   24.6299992       3.75120518E-10
   24.6900005       3.01008773E-10
   24.7500000       2.24521526E-10
   24.8099995       1.50508814E-10
   24.8700008       8.11944539E-11
   24.9300003       1.59986278E-11
   24.9899998      -4.73349554E-11
   25.0499992      -1.10736108E-10
   25.1100006      -1.73689077E-10
   25.1700001      -2.31826683E-10
   25.2299995      -2.76862172E-10
   25.2900009      -2.98055636E-10
   25.3500004      -2.84884782E-10
   25.4099998      -2.30123823E-10
   25.4699993      -1.32305555E-10
   25.5300007       3.33357127E-12
   25.5900002       1.65845962E-10
   25.6499996       3.41238204E-10
   25.7099991       5.15917087E-10
   25.7700005       6.79722334E-10
   25.8299999       8.27523550E-10
   25.8899994       9.58944146E-10
   25.9500008       1.07652687E-09
   26.0100002       1.18324406E-09
   26.0699997       1.28043576E-09
   26.1299992       1.36696854E-09
   26.1900005       1.43981194E-09
   26.2500000       1.49560409E-09
   26.3099995       1.53239665E-09
   26.3700008       1.55077329E-09
   26.4300003       1.55387891E-09
   26.4899998       1.54641622E-09
   26.5499992       1.53311097E-09
   26.6100006       1.51735990E-09
   26.6700001       1.50065427E-09
   26.7299995       1.48300472E-09
   26.7900009       1.46412149E-09
   26.8500004       1.44474233E-09
   26.9099998       1.42742529E-09
   26.9699993       1.41636269E-09
   27.0300007       1.41624046E-09
   27.0900002       1.43063850E-09
   27.1499996       1.46070167E-09
   27.2099991       1.50469459E-09
   27.2700005       1.55862512E-09
   27.3299999       1.61762126E-09
   27.3899994       1.67742120E-09
   27.4500008       1.73535231E-09
   27.5100002       1.79049975E-09
   27.5699997       1.84317495E-09
   27.6299992       1.89407356E-09
   27.6900005       1.94351735E-09
   27.7500000       1.99097960E-09
   27.8099995       2.03485695E-09
   27.8700008       2.07237916E-09
   27.9300003       2.09961049E-09
   27.9899998       2.11164508E-09
   28.0499992       2.10311768E-09
   28.1100006       2.06900475E-09
   28.1700001       2.00547201E-09
   28.2299995       1.91040139E-09
   28.2900009       1.78336923E-09
   28.3500004       1.62517400E-09
   28.4099998       1.43734202E-09
   28.4699993       1.22210420E-09
   28.5300007       9.83048754E-10
   28.5900002       7.26148419E-10
   28.6499996       4.60457283E-10
   28.7099991       1.97752398E-10
   28.7700005      -4.91630729E-11
   28.8299999      -2.69094469E-10
   28.8899994      -4.55071841E-10
   28.9500008      -6.05881401E-10
   29.0100002      -7.25851823E-10
   29.0699997      -8.22952428E-10
   29.1299992      -9.05937048E-10
   29.1900005      -9.81594472E-10
   29.2500000      -1.05304354E-09
   29.3099995      -1.11953902E-09
   29.3700008      -1.17766563E-09
   29.4300003      -1.22332211E-09
   29.4899998      -1.25367827E-09
   29.5499992      -1.26836353E-09
   29.6100006      -1.26948208E-09
   29.6700001      -1.26053212E-09
   29.7299995      -1.24476984E-09
   29.7900009      -1.22382338E-09
   29.8500004      -1.19727250E-09
   29.9099998      -1.16346166E-09
   29.9699993      -1.12118825E-09
   30.0300007      -1.07141318E-09
   30.0900002      -1.01805409E-09
   30.1499996      -9.67337321E-10
   30.2099991      -9.25903465E-10
   30.2700005      -8.98498387E-10
   30.3299999      -8.86297424E-10
   30.3899994      -8.86582696E-10
   30.4500008      -8.93833063E-10
   30.5100002      -9.01659747E-10
   30.5699997      -9.04758823E-10
   30.6299992      -9.00226227E-10
   30.6900005      -8.87997398E-10
   30.7500000      -8.70557348E-10
   30.8099995      -8.52202420E-10
   30.8700008      -8.38067282E-10
   30.9300003      -8.33010716E-10
   30.9899998      -8.40458259E-10
   31.0499992      -8.61423433E-10
   31.1100006      -8.94032237E-10
   31.1700001      -9.33792488E-10
   31.2299995      -9.74560321E-10
   31.2900009      -1.00982100E-09
   31.3500004      -1.03375319E-09
   31.4099998      -1.04171749E-09
   31.4699993      -1.03019959E-09
   31.5300007      -9.96577709E-10
   31.5900002      -9.39138212E-10
   31.6499996      -8.57480753E-10
   31.7099991      -7.53049401E-10
   31.7700005      -6.29304109E-10
   31.8299999      -4.91186314E-10
   31.8899994      -3.43961609E-10
   31.9500008      -1.91950733E-10
   32.0099983      -3.77860590E-11
   32.0699997       1.17435908E-10
   32.1300011       2.73227718E-10
   32.1899986       4.28537178E-10
   32.2500000       5.80935910E-10
   32.3100014       7.26529059E-10
   32.3699989       8.60554294E-10
   32.4300003       9.78354175E-10
   32.4900017       1.07635001E-09
   32.5499992       1.15275833E-09
   32.6100006       1.20792965E-09
   32.6699982       1.24425525E-09
   32.7299995       1.26561017E-09
   32.7900009       1.27638133E-09
   32.8499985       1.28030464E-09
   32.9099998       1.27952071E-09
   32.9700012       1.27428734E-09
   33.0299988       1.26353217E-09
   33.0900002       1.24600574E-09
   33.1500015       1.22142796E-09
   33.2099991       1.19098831E-09
   33.2700005       1.15692933E-09
   33.3300018       1.12149667E-09
   33.3899994       1.08592479E-09
   33.4500008       1.05008768E-09
   33.5099983       1.01298003E-09
   33.5699997       9.73640391E-10
   33.6300011       9.31837607E-10
   33.6899986       8.88034424E-10
   33.7500000       8.42658721E-10
   33.8100014       7.95200628E-10
   33.8699989       7.43778983E-10
   33.9300003       6.85505375E-10
   33.9900017       6.17450979E-10
   34.0499992       5.37663081E-10
   34.1100006       4.45688902E-10
   34.1699982       3.42417511E-10
   34.2299995       2.29460423E-10
   34.2900009       1.08486657E-10
   34.3499985      -1.91754720E-11
   34.4099998      -1.52623802E-10
   34.4700012      -2.91299984E-10
   34.5299988      -4.34879327E-10
   34.5900002      -5.83129489E-10
   34.6500015      -7.35638161E-10
   34.7099991      -8.91382357E-10
   34.7700005      -1.04830677E-09
   34.8300018      -1.20321175E-09
   34.8899994      -1.35216183E-09
   34.9500008      -1.49133217E-09
   35.0099983      -1.61791736E-09
   35.0699997      -1.73065928E-09
   35.1300011      -1.82978976E-09
   35.1899986      -1.91656047E-09
   35.2500000      -1.99276351E-09
   35.3100014      -2.06054329E-09
   35.3699989      -2.12244333E-09
   35.4300003      -2.18131224E-09
   35.4900017      -2.23969487E-09
   35.5499992      -2.29872921E-09
   35.6100006      -2.35705944E-09
   35.6699982      -2.41052223E-09
   35.7299995      -2.45307152E-09
   35.7900009      -2.47873699E-09
   35.8499985      -2.48376630E-09
   35.9099998      -2.46791743E-09
   35.9700012      -2.43430098E-09
   36.0299988      -2.38796694E-09
   36.0900002      -2.33406161E-09
   36.1500015      -2.27649721E-09
   36.2099991      -2.21759944E-09
   36.2700005      -2.15851359E-09
   36.3300018      -2.09972884E-09
   36.3899994      -2.04116435E-09
   36.4500008      -1.98177852E-09
   36.5099983      -1.91915661E-09
   36.5699997      -1.84967630E-09
   36.6300011      -1.76949688E-09
   36.6899986      -1.67604064E-09
   36.7500000      -1.56923941E-09
   36.8100014      -1.45186763E-09
   36.8699989      -1.32875244E-09
   36.9300003      -1.20524268E-09
   36.9900017      -1.08565490E-09
   37.0499992      -9.72349423E-10
   37.1100006      -8.65700955E-10
   37.1699982      -7.64784791E-10
   37.2299995      -6.68337552E-10
   37.2900009      -5.75555492E-10
   37.3499985      -4.86474416E-10
   37.4099998      -4.01890354E-10
   37.4700012      -3.22939619E-10
   37.5299988      -2.50544085E-10
   37.5900002      -1.84962518E-10
   37.6500015      -1.25669475E-10
   37.7099991      -7.16698367E-11
   37.7700005      -2.21493986E-11
   37.8300018       2.28615269E-11
   37.8899994       6.22267654E-11
   37.9500008       9.41144246E-11
   38.0099983       1.16996884E-10
   38.0699997       1.30792335E-10
   38.1300011       1.37563155E-10
   38.1899986       1.41391773E-10
   38.2500000       1.47494600E-10
   38.3100014       1.61033797E-10
   38.3699989       1.86180446E-10
   38.4300003       2.25721469E-10
   38.4900017       2.81088069E-10
   38.5499992       3.52428003E-10
   38.6100006       4.38443448E-10
   38.6699982       5.36087785E-10
   38.7299995       6.40551556E-10
   38.7900009       7.45966122E-10
   38.8499985       8.46840043E-10
   38.9099998       9.39676559E-10
   38.9700012       1.02390008E-09
   39.0299988       1.10144127E-09
   39.0900002       1.17501986E-09
   39.1500015       1.24593036E-09
   39.2099991       1.31250877E-09
   39.2700005       1.37015865E-09
   39.3300018       1.41301915E-09
   39.3899994       1.43648793E-09
   39.4500008       1.43937584E-09
   39.5099983       1.42467282E-09
   39.5699997       1.39860212E-09
   39.6300011       1.36842215E-09
   39.6899986       1.33991551E-09
   39.7500000       1.31551026E-09
   39.8100014       1.29360911E-09
   39.8699989       1.26921629E-09
   39.9300003       1.23555632E-09
   39.9900017       1.18616461E-09
   40.0499992       1.11687348E-09
   40.1100006       1.02714937E-09
   40.1699982       9.20379273E-10
   40.2299995       8.02966194E-10
   40.2900009       6.82476686E-10
   40.3499985       5.65448577E-10
   40.4099998       4.55653765E-10
   40.4700012       3.53462509E-10
   40.5299988       2.56505317E-10
   40.5900002       1.61277380E-10
   40.6500015       6.49443832E-11
   40.7099991      -3.34112946E-11
   40.7700005      -1.32540590E-10
   40.8300018      -2.29728181E-10
   40.8899994      -3.22010835E-10
   40.9500008      -4.07355288E-10
   41.0099983      -4.85363361E-10
   41.0699997      -5.57328961E-10
   41.1300011      -6.25705876E-10
   41.1899986      -6.93190505E-10
   41.2500000      -7.61687435E-10
   41.3100014      -8.31450020E-10
   41.3699989      -9.00679364E-10
   41.4300003      -9.65776237E-10
   41.4900017      -1.02224629E-09
   41.5499992      -1.06599229E-09
   41.6100006      -1.09451970E-09
   41.6699982      -1.10756559E-09
   41.7299995      -1.10688769E-09
   41.7900009      -1.09532916E-09
   41.8499985      -1.07560072E-09
   41.9099998      -1.04931686E-09
   41.9700012      -1.01665021E-09
   42.0299988      -9.76631109E-10
   42.0900002      -9.27839361E-10
   42.1500015      -8.69147476E-10
   42.2099991      -8.00287392E-10
   42.2700005      -7.22179982E-10
   42.3300018      -6.37052855E-10
   42.3899994      -5.48316559E-10
   42.4500008      -4.60076588E-10
   42.5099983      -3.76178033E-10
   42.5699997      -2.98899350E-10
   42.6300011      -2.27730543E-10
   42.6899986      -1.58874428E-10
   42.7500000      -8.59873006E-11
   42.8100014      -2.19051166E-12
   42.8699989       9.72492989E-11
   42.9300003       2.12624862E-10
   42.9900017       3.38912204E-10
   43.0499992       4.66824301E-10
   43.1100006       5.85500037E-10
   43.1699982       6.85843382E-10
   43.2299995       7.63272612E-10
   43.2900009       8.18913604E-10
   43.3499985       8.58919547E-10
   43.4099998       8.92294849E-10
   43.4700012       9.28065791E-10
   43.5299988       9.72736780E-10
   43.5900002       1.02874265E-09
   43.6500015       1.09421039E-09
   43.7099991       1.16393173E-09
   43.7700005       1.23112820E-09
   43.8300018       1.28941124E-09
   43.8899994       1.33432476E-09
   43.9500008       1.36402367E-09
   44.0099983       1.37895562E-09
   44.0699997       1.38080036E-09
   44.1300011       1.37121003E-09
   44.1899986       1.35097111E-09
   44.2500000       1.31998334E-09
   44.3100014       1.27804034E-09
   44.3699989       1.22597699E-09
   44.4300003       1.16654419E-09
   44.4900017       1.10449117E-09
   44.5499992       1.04569231E-09
   44.6100006       9.95591276E-10
   44.6699982       9.57516288E-10
   44.7299995       9.31460686E-10
   44.7900009       9.13737586E-10
   44.8499985       8.97635355E-10
   44.9099998       8.74930406E-10
   44.9700012       8.37914627E-10
   45.0299988       7.81468668E-10
   45.0900002       7.04645120E-10
   45.1500015       6.11261708E-10
   45.2099991       5.09191245E-10
   45.2700005       4.08401063E-10
   45.3300018       3.18244042E-10
   45.3899994       2.44854581E-10
   45.4500008       1.89553109E-10
   45.5099983       1.48832544E-10
   45.5699997       1.15896619E-10
   45.6300011       8.31124752E-11
   45.6899986       4.44166579E-11
   45.7500000      -3.18156287E-12
   45.8100014      -5.93976326E-11
   45.8699989      -1.21600410E-10
   45.9300003      -1.86299254E-10
   45.9900017      -2.50529875E-10
   46.0499992      -3.12677467E-10
   46.1100006      -3.72601477E-10
   46.1699982      -4.31205349E-10
   46.2299995      -4.89736141E-10
   46.2900009      -5.49105594E-10
   46.3499985      -6.09461814E-10
   46.4099998      -6.70141831E-10
   46.4700012      -7.30020266E-10
   46.5299988      -7.88125287E-10
   46.5900002      -8.44264048E-10
   46.6500015      -8.99346209E-10
   46.7099991      -9.55188484E-10
   46.7700005      -1.01380704E-09
   46.8300018      -1.07646658E-09
   46.8899994      -1.14289234E-09
   46.9500008      -1.21098931E-09
   47.0099983      -1.27715472E-09
   47.0699997      -1.33699274E-09
   47.1300011      -1.38609257E-09
   47.1899986      -1.42060641E-09
   47.2500000      -1.43758450E-09
   47.3100014      -1.43521961E-09
   47.3699989      -1.41317880E-09
   47.4300003      -1.37302492E-09
   47.4900017      -1.31850064E-09
   47.5499992      -1.25534072E-09
   47.6100006      -1.19041255E-09
   47.6699982      -1.13030163E-09
   47.7299995      -1.07978237E-09
   47.7900009      -1.04073128E-09
   47.8499985      -1.01188169E-09
   47.9099998      -9.89469395E-10
   47.9700012      -9.68460756E-10
   48.0299988      -9.43891298E-10
   48.0900002      -9.11896891E-10
   48.1500015      -8.70236272E-10
   48.2099991      -8.18323798E-10
   48.2700005      -7.56910812E-10
   48.3300018      -6.87573276E-10
   48.3899994      -6.12129014E-10
   48.4500008      -5.32092648E-10
   48.5099983      -4.48290960E-10
   48.5699997      -3.60756702E-10
   48.6300011      -2.68952444E-10
   48.6899986      -1.72250894E-10
   48.7500000      -7.04750633E-11
   48.8100014       3.57342385E-11
   48.8699989       1.44875029E-10
   48.9300003       2.54854415E-10
   48.9900017       3.63412966E-10
   49.0499992       4.68487971E-10
   49.1100006       5.68357861E-10
   49.1699982       6.61533883E-10
   49.2299995       7.46484485E-10
   49.2900009       8.21338608E-10
   49.3499985       8.83709383E-10
   49.4099998       9.30731658E-10
   49.4700012       9.59339497E-10
   49.5299988       9.66735580E-10
   49.5900002       9.50934886E-10
   49.6500015       9.11226039E-10
   49.7099991       8.48410675E-10
   49.7700005       7.64772301E-10
   49.8300018       6.63841482E-10
   49.8899994       5.50097967E-10
   49.9500008       4.28712205E-10
   50.0099983       3.05298814E-10
   50.0699997       1.85533172E-10
   50.1300011       7.45007389E-11
   50.1899986      -2.41541752E-11
   50.2500000      -1.08936596E-10
   50.3100014      -1.80583618E-10
   50.3699989      -2.41210052E-10
   50.4300003      -2.92676522E-10
   50.4900017      -3.34867800E-10
   50.5499992      -3.64802938E-10
   50.6100006      -3.77218062E-10