  -2.400000      0.0000000E+00
  -2.340000      0.0000000E+00
  -2.280000      0.0000000E+00
  -2.220000      0.0000000E+00
  -2.160000      0.0000000E+00
  -2.100000      0.0000000E+00
  -2.040000      0.0000000E+00
  -1.980000      0.0000000E+00
  -1.920000     -1.0166217E-26
  -1.860000     -1.0017388E-25
  -1.800000     -3.4127895E-25
  -1.740000      3.4078567E-25
  -1.680000      8.3514085E-24
  -1.620000      4.1796132E-23
  -1.560000      1.2632783E-22
  -1.500000      2.5311222E-22
  -1.440000      2.8515875E-22
  -1.380000     -1.2530303E-22
  -1.320000     -1.4413313E-21
  -1.260000     -3.8216988E-21
  -1.200000     -6.5238119E-21
  -1.140000     -7.6634487E-21
  -1.080000     -4.7181518E-21
  -1.020000      4.9812376E-21
 -0.9600000      2.5646926E-20
 -0.9000000      6.6371822E-20
 -0.8400000      1.3956699E-19
 -0.7800000      2.4005104E-19
 -0.7200000      2.9597450E-19
 -0.6600000      1.1661071E-19
 -0.6000000     -5.8274745E-19
 -0.5400000     -1.9721644E-18
 -0.4800000     -3.6913228E-18
 -0.4200000     -4.4367991E-18
 -0.3600000     -2.0451400E-18
 -0.3000000      5.3843775E-18
 -0.2400000      1.7285325E-17
 -0.1800000      2.8387512E-17
 -0.1200000      2.8611393E-17
 -5.9999999E-02  7.2684377E-18
  0.0000000E+00 -3.8354840E-17
  5.9999999E-02 -9.3930647E-17
  0.1200000     -1.2607629E-16
  0.1800000     -9.4586667E-17
  0.2400000      2.0857932E-17
  0.3000000      1.9140344E-16
  0.3600000      3.2929142E-16
  0.4200000      3.1817819E-16
  0.4800000      8.4343312E-17
  0.5400000     -3.2265613E-16
  0.6000000     -6.9722728E-16
  0.6600000     -7.4522594E-16
  0.7200000     -2.5524607E-16
  0.7800000      7.0011005E-16
  0.8400000      1.6674456E-15
  0.9000000      1.9440603E-15
  0.9600000      9.5367789E-16
   1.020000     -1.2870026E-15
   1.080000     -3.8982345E-15
   1.140000     -5.3373092E-15
   1.200000     -4.1306375E-15
   1.260000      1.3921642E-16
   1.320000      6.1468855E-15
   1.380000      1.0997906E-14
   1.440000      1.1455542E-14
   1.500000      5.7965450E-15
   1.560000     -4.6664299E-15
   1.620000     -1.5442056E-14
   1.680000     -2.0588015E-14
   1.740000     -1.5783232E-14
   1.800000     -1.2605816E-15
   1.860000      1.7173109E-14
   1.920000      3.0088667E-14
   1.980000      2.8910756E-14
   2.040000      1.0911033E-14
   2.100000     -1.7992774E-14
   2.160000     -4.4623441E-14
   2.220000     -5.4137941E-14
   2.280000     -3.7547276E-14
   2.340000      2.5187941E-15
   2.400000      5.1095995E-14
   2.460000      8.6330276E-14
   2.520000      8.9174118E-14
   2.580000      5.3046953E-14
   2.640000     -1.1300675E-14
   2.700000     -7.8656164E-14
   2.760000     -1.1947165E-13
   2.820000     -1.1326893E-13
   2.880000     -5.9360509E-14
   2.940000      2.0515516E-14
   3.000000      8.9966981E-14
   3.060000      1.1392432E-13
   3.120000      7.6452204E-14
   3.180000     -7.9110692E-15
   3.240000     -9.6051632E-14
   3.300000     -1.3316518E-13
   3.360000     -7.9455356E-14
   3.420000      6.4518520E-14
   3.480000      2.4691992E-13
   3.540000      3.7708817E-13
   3.600000      3.6073290E-13
   3.660000      1.4577011E-13
   3.720000     -2.4119999E-13
   3.780000     -6.8725310E-13
   3.840000     -1.0234188E-12
   3.900000     -1.0851868E-12
   3.960000     -7.7997727E-13
   4.020000     -1.3214504E-13
   4.080000      7.1618834E-13
   4.140000      1.5509051E-12
   4.200000      2.1586426E-12
   4.260000      2.3933555E-12
   4.320000      2.2063178E-12
   4.380000      1.6281310E-12
   4.440000      7.1742146E-13
   4.500000     -4.8938935E-13
   4.560000     -1.9908495E-12
   4.620000     -3.7777901E-12
   4.680000     -5.7481771E-12
   4.740000     -7.6210158E-12
   4.800000     -8.9020449E-12
   4.860000     -8.9406130E-12
   4.920000     -7.0833604E-12
   4.980000     -2.8898524E-12
   5.040000      3.6547393E-12
   5.100000      1.2001685E-11
   5.160000      2.1027891E-11
   5.220000      2.9166530E-11
   5.280000      3.4651018E-11
   5.340000      3.5812863E-11
   5.400000      3.1363988E-11
   5.460000      2.0607866E-11
   5.520000      3.5546765E-12
   5.580000     -1.9048114E-11
   5.640000     -4.5731308E-11
   5.700000     -7.4319488E-11
   5.760000     -1.0191670E-10
   5.820000     -1.2486759E-10
   5.880000     -1.3874070E-10
   5.940000     -1.3841087E-10
   6.000000     -1.1832042E-10
   6.060000     -7.2969075E-11
   6.120000      2.3780043E-12
   6.180000      1.1084474E-10
   6.240000      2.5310129E-10
   6.300000      4.2668746E-10
   6.360000      6.2564659E-10
   6.420000      8.4055385E-10
   6.480000      1.0589454E-09
   6.540000      1.2660799E-09
   6.600000      1.4459229E-09
   6.660000      1.5822307E-09
   6.720000      1.6596362E-09
   6.780000      1.6646747E-09
   6.840000      1.5867081E-09
   6.900000      1.4187277E-09
   6.960000      1.1580041E-09
   7.020000      8.0654511E-10
   7.080000      3.7131942E-10
   7.140000     -1.3578050E-10
   7.200000     -6.9824613E-10
   7.260000     -1.2955209E-09
   7.320000     -1.9038191E-09
   7.380000     -2.4972047E-09
   7.440000     -3.0489629E-09
   7.500000     -3.5332908E-09
   7.560000     -3.9272900E-09
   7.620000     -4.2131316E-09
   7.680000     -4.3801345E-09
   7.740000     -4.4263802E-09
   7.800000     -4.3594524E-09
   7.860000     -4.1960013E-09
   7.920000     -3.9600367E-09
   7.980000     -3.6801677E-09
   8.040000     -3.3862699E-09
   8.100000     -3.1062297E-09
   8.160000     -2.8633820E-09
   8.220000     -2.6750473E-09
   8.280000     -2.5522415E-09
   8.340000     -2.5002913E-09
   8.400000     -2.5198770E-09
   8.460000     -2.6079872E-09
   8.520000     -2.7584484E-09
   8.580000     -2.9619915E-09
   8.640000     -3.2061178E-09
   8.700000     -3.4752168E-09
   8.760000     -3.7513641E-09
   8.820000     -4.0160089E-09
   8.880000     -4.2523860E-09
   8.940000     -4.4481494E-09
   9.000000     -4.5974820E-09
   9.060000     -4.7019850E-09
   9.120000     -4.7699151E-09
   9.180000     -4.8138245E-09
   9.240000     -4.8471533E-09
   9.300000     -4.8806883E-09
   9.360000     -4.9198920E-09
   9.420000     -4.9638658E-09
   9.480000     -5.0062217E-09
   9.540000     -5.0375504E-09
   9.600000     -5.0486868E-09
   9.660000     -5.0337570E-09
   9.720000     -4.9921125E-09
   9.780000     -4.9286650E-09
   9.840000     -4.8526849E-09
   9.900000     -4.7756052E-09
   9.960000     -4.7086481E-09
   10.02000     -4.6610227E-09
   10.08000     -4.6391539E-09
   10.14000     -4.6469402E-09
   10.20000     -4.6866333E-09
   10.26000     -4.7597544E-09
   10.32000     -4.8674949E-09
   10.38000     -5.0103606E-09
   10.44000     -5.1872178E-09
   10.50000     -5.3942051E-09
   10.56000     -5.6241238E-09
   10.62000     -5.8667862E-09
   10.68000     -6.1104735E-09
   10.74000     -6.3442696E-09
   10.80000     -6.5606942E-09
   10.86000     -6.7579244E-09
   10.92000     -6.9409833E-09
   10.98000     -7.1214923E-09
   11.04000     -7.3159656E-09
   11.10000     -7.5429085E-09
   11.16000     -7.8192635E-09
   11.22000     -8.1568752E-09
   11.28000     -8.5597049E-09
   11.34000     -9.0224104E-09
   11.40000     -9.5306998E-09
   11.46000     -1.0063506E-08
   11.52000     -1.0596581E-08
   11.58000     -1.1106689E-08
   11.64000     -1.1575387E-08
   11.70000     -1.1991376E-08
   11.76000     -1.2350863E-08
   11.82000     -1.2655941E-08
   11.88000     -1.2911645E-08
   11.94000     -1.3122754E-08
   12.00000     -1.3291444E-08
   12.06000     -1.3416552E-08
   12.12000     -1.3494581E-08
   12.18000     -1.3521948E-08
   12.24000     -1.3497545E-08
   12.30000     -1.3424542E-08
   12.36000     -1.3310689E-08
   12.42000     -1.3166834E-08
   12.48000     -1.3004065E-08
   12.54000     -1.2830332E-08
   12.60000     -1.2647720E-08
   12.66000     -1.2451405E-08
   12.72000     -1.2230885E-08
   12.78000     -1.1973381E-08
   12.84000     -1.1668546E-08
   12.90000     -1.1313072E-08
   12.96000     -1.0913630E-08
   13.02000     -1.0487032E-08
   13.08000     -1.0057250E-08
   13.14000     -9.6500195E-09
   13.20000     -9.2865360E-09
   13.26000     -8.9781809E-09
   13.32000     -8.7238954E-09
   13.38000     -8.5110390E-09
   13.44000     -8.3194491E-09
   13.50000     -8.1274161E-09
   13.56000     -7.9177580E-09
   13.62000     -7.6821740E-09
   13.68000     -7.4227136E-09
   13.74000     -7.1501223E-09
   13.80000     -6.8798069E-09
   13.86000     -6.6268120E-09
   13.92000     -6.4014030E-09
   13.98000     -6.2065029E-09
   14.04000     -6.0375616E-09
   14.10000     -5.8846199E-09
   14.16000     -5.7357070E-09
   14.22000     -5.5804059E-09
   14.28000     -5.4125002E-09
   14.34000     -5.2310232E-09
   14.40000     -5.0395426E-09
   14.46000     -4.8440443E-09
   14.52000     -4.6500945E-09
   14.58000     -4.4601349E-09
   14.64000     -4.2716750E-09
   14.70000     -4.0769286E-09
   14.76000     -3.8640531E-09
   14.82000     -3.6197401E-09
   14.88000     -3.3324812E-09
   14.94000     -2.9955989E-09
   15.00000     -2.6091598E-09
   15.06000     -2.1801847E-09
   15.12000     -1.7211048E-09
   15.18000     -1.2469556E-09
   15.24000     -7.7217066E-10
   15.30000     -3.0789069E-10
   15.36000      1.3953759E-10
   15.42000      5.6863092E-10
   15.48000      9.8157837E-10
   15.54000      1.3822450E-09
   15.60000      1.7739366E-09
   15.66000      2.1574753E-09
   15.72000      2.5300602E-09
   15.78000      2.8852511E-09
   15.84000      3.2142067E-09
   15.90000      3.5079772E-09
   15.96000      3.7602761E-09
   16.02000      3.9698720E-09
   16.08000      4.1417216E-09
   16.14000      4.2863131E-09
   16.20000      4.4173150E-09
   16.26000      4.5482729E-09
   16.32000      4.6894670E-09
   16.38000      4.8459809E-09
   16.44000      5.0175100E-09
   16.50000      5.1997509E-09
   16.56000      5.3866751E-09
   16.62000      5.5727538E-09
   16.68000      5.7544121E-09
   16.74000      5.9303820E-09
   16.80000      6.1010552E-09
   16.86000      6.2672263E-09
   16.92000      6.4287349E-09
   16.98000      6.5834986E-09
   17.04000      6.7273338E-09
   17.10000      6.8547572E-09
   17.16000      6.9606720E-09
   17.22000      7.0424577E-09
   17.28000      7.1016579E-09
   17.34000      7.1443802E-09
   17.40000      7.1799007E-09
   17.46000      7.2176487E-09
   17.52000      7.2635493E-09
   17.58000      7.3171962E-09
   17.64000      7.3711588E-09
   17.70000      7.4129498E-09
   17.76000      7.4290414E-09
   17.82000      7.4094038E-09
   17.88000      7.3507209E-09
   17.94000      7.2570061E-09
   18.00000      7.1373965E-09
   18.06000      7.0020558E-09
   18.12000      6.8578618E-09
   18.18000      6.7055246E-09
   18.24000      6.5391506E-09
   18.30000      6.3482903E-09
   18.36000      6.1216392E-09
   18.42000      5.8510423E-09
   18.48000      5.5344880E-09
   18.54000      5.1771698E-09
   18.60000      4.7903739E-09
   18.66000      4.3886241E-09
   18.72000      3.9860435E-09
   18.78000      3.5931069E-09
   18.84000      3.2147807E-09
   18.90000      2.8505152E-09
   18.96000      2.4958480E-09
   19.02000      2.1447393E-09
   19.08000      1.7915235E-09
   19.14000      1.4316190E-09
   19.20000      1.0608164E-09
   19.26000      6.7374434E-10
   19.32000      2.6258878E-10
   19.38000     -1.8293106E-10
   19.44000     -6.7394262E-10
   19.50000     -1.2196120E-09
   19.56000     -1.8242671E-09
   19.62000     -2.4857119E-09
   19.68000     -3.1955554E-09
   19.74000     -3.9415782E-09
   19.80000     -4.7113691E-09
   19.86000     -5.4960019E-09
   19.92000     -6.2925385E-09
   19.98000     -7.1045756E-09
   20.04000     -7.9406703E-09
   20.10000     -8.8111092E-09
   20.16000     -9.7239425E-09
   20.22000     -1.0681418E-08
   20.28000     -1.1677872E-08
   20.34000     -1.2699777E-08
   20.40000     -1.3728052E-08
   20.46000     -1.4742003E-08
   20.52000     -1.5723710E-08
   20.58000     -1.6661478E-08
   20.64000     -1.7551276E-08
   20.70000     -1.8395797E-08
   20.76000     -1.9201643E-08
   20.82000     -1.9975710E-08
   20.88000     -2.0722021E-08
   20.94000     -2.1439845E-08
   21.00000     -2.2123414E-08
   21.06000     -2.2762986E-08
   21.12000     -2.3346747E-08
   21.18000     -2.3863093E-08
   21.24000     -2.4302862E-08
   21.30000     -2.4661169E-08
   21.36000     -2.4938425E-08
   21.42000     -2.5140116E-08
   21.48000     -2.5275172E-08
   21.54000     -2.5353204E-08
   21.60000     -2.5381468E-08
   21.66000     -2.5362693E-08
   21.72000     -2.5294733E-08
   21.78000     -2.5172229E-08
   21.84000     -2.4989651E-08
   21.90000     -2.4744429E-08
   21.96000     -2.4438858E-08
   22.02000     -2.4080064E-08
   22.08000     -2.3678123E-08
   22.14000     -2.3243190E-08
   22.20000     -2.2782755E-08
   22.26000     -2.2299846E-08
   22.32000     -2.1792680E-08
   22.38000     -2.1255651E-08
   22.44000     -2.0681327E-08
   22.50000     -2.0062872E-08
   22.56000     -1.9396248E-08
   22.62000     -1.8681462E-08
   22.68000     -1.7922293E-08
   22.74000     -1.7124412E-08
   22.80000     -1.6292471E-08
   22.86000     -1.5427403E-08
   22.92000     -1.4525403E-08
   22.98000     -1.3579402E-08
   23.04000     -1.2582822E-08
   23.10000     -1.1534093E-08
   23.16000     -1.0439862E-08
   23.22000     -9.3152837E-09
   23.28000     -8.1810265E-09
   23.34000     -7.0582185E-09
   23.40000     -5.9633982E-09
   23.46000     -4.9054618E-09
   23.52000     -3.8855026E-09
   23.58000     -2.8991129E-09
   23.64000     -1.9398025E-09
   23.70000     -1.0020782E-09
   23.76000     -8.3314737E-11
   23.82000      8.1570917E-10
   23.88000      1.6912843E-09
   23.94000      2.5378990E-09
   24.00000      3.3498393E-09
   24.06000      4.1230970E-09
   24.12000      4.8571400E-09
   24.18000      5.5557532E-09
   24.24000      6.2261178E-09
   24.30000      6.8758452E-09
   24.36000      7.5086586E-09
   24.42000      8.1202822E-09
   24.48000      8.6963299E-09
   24.54000      9.2132879E-09
   24.60000      9.6424317E-09
   24.66000      9.9552917E-09
   24.72000      1.0128804E-08
   24.78000      1.0148654E-08
   24.84000      1.0010354E-08
   24.90000      9.7184634E-09
   24.96000      9.2848733E-09
   25.02000      8.7268006E-09
   25.08000      8.0647036E-09
   25.14000      7.3200188E-09
   25.20000      6.5126713E-09
   25.26000      5.6587299E-09
   25.32000      4.7688475E-09
   25.38000      3.8480241E-09
   25.44000      2.8967619E-09
   25.50000      1.9130624E-09
   25.56000      8.9441021E-10
   25.62000     -1.6096564E-10
   25.68000     -1.2537406E-09
   25.74000     -2.3837061E-09
   25.80000     -3.5499585E-09
   25.86000     -4.7506363E-09
   25.92000     -5.9821481E-09
   25.98000     -7.2381776E-09
   26.04000     -8.5088514E-09
   26.10000     -9.7803516E-09
   26.16000     -1.1035098E-08
   26.22000     -1.2252498E-08
   26.28000     -1.3410272E-08
   26.34000     -1.4486253E-08
   26.40000     -1.5460408E-08
   26.46000     -1.6316582E-08
   26.52000     -1.7043321E-08
   26.58000     -1.7633349E-08
   26.64000     -1.8081771E-08
   26.70000     -1.8383671E-08
   26.76000     -1.8532139E-08
   26.82000     -1.8517596E-08
   26.88000     -1.8328782E-08
   26.94000     -1.7954918E-08
   27.00000     -1.7388111E-08
   27.06000     -1.6625037E-08
   27.12000     -1.5667419E-08
   27.18000     -1.4521424E-08
   27.24000     -1.3196580E-08
   27.30000     -1.1704909E-08
   27.36000     -1.0060694E-08
   27.42000     -8.2808835E-09
   27.48000     -6.3858248E-09
   27.54000     -4.3998680E-09
   27.60000     -2.3513866E-09
   27.66000     -2.7190766E-10
   27.72000      1.8057734E-09
   27.78000      3.8503565E-09
   27.84000      5.8352181E-09
   27.90000      7.7412423E-09
   27.96000      9.5584305E-09
   28.02000      1.1285629E-08
   28.08000      1.2928291E-08
   28.14000      1.4494843E-08
   28.20000      1.5992807E-08
   28.26000      1.7425863E-08
   28.32000      1.8792663E-08
   28.38000      2.0087510E-08
   28.44000      2.1302309E-08
   28.50000      2.2428939E-08
   28.56000      2.3461082E-08
   28.62000      2.4395078E-08
   28.68000      2.5229609E-08
   28.74000      2.5964482E-08
   28.80000      2.6598901E-08
   28.86000      2.7129765E-08
   28.92000      2.7550529E-08
   28.98000      2.7851101E-08
   29.04000      2.8019015E-08
   29.10000      2.8041697E-08
   29.16000      2.7909158E-08
   29.22000      2.7616155E-08
   29.28000      2.7162939E-08
   29.34000      2.6554233E-08
   29.40000      2.5796803E-08
   29.46000      2.4896615E-08
   29.52000      2.3856764E-08
   29.58000      2.2676986E-08
   29.64000      2.1354820E-08
   29.70000      1.9887812E-08
   29.76000      1.8275747E-08
   29.82000      1.6522003E-08
   29.88000      1.4633615E-08
   29.94000      1.2620205E-08
   30.00000      1.0492283E-08
   30.06000      8.2595628E-09
   30.12000      5.9297691E-09
   30.18000      3.5082182E-09
   30.24000      9.9825936E-10
   30.30000     -1.5974230E-09
   30.36000     -4.2748067E-09
   30.42000     -7.0261943E-09
   30.48000     -9.8381552E-09
   30.54000     -1.2690523E-08
   30.60000     -1.5557108E-08
   30.66000     -1.8408299E-08
   30.72000     -2.1215101E-08
   30.78000     -2.3953417E-08
   30.84000     -2.6607150E-08
   30.90000     -2.9168904E-08
   30.96000     -3.1637828E-08
   31.02000     -3.4015205E-08
   31.08000     -3.6299255E-08
   31.14000     -3.8480991E-08
   31.20000     -4.0542705E-08
   31.26000     -4.2459618E-08
   31.32000     -4.4204214E-08
   31.38000     -4.5751676E-08
   31.44000     -4.7084505E-08
   31.50000     -4.8194778E-08
   31.56000     -4.9083358E-08
   31.62000     -4.9756608E-08
   31.68000     -5.0221928E-08
   31.74000     -5.0483880E-08
   31.80000     -5.0542159E-08
   31.86000     -5.0391936E-08
   31.92000     -5.0026181E-08
   31.98000     -4.9438974E-08
   32.04000     -4.8628586E-08
   32.10000     -4.7599567E-08
   32.16000     -4.6363333E-08
   32.22000     -4.4937352E-08
   32.28000     -4.3343110E-08
   32.34000     -4.1603322E-08
   32.40000     -3.9738694E-08
   32.46000     -3.7764980E-08
   32.52000     -3.5691002E-08
   32.58000     -3.3518440E-08
   32.64000     -3.1243790E-08
   32.70000     -2.8862193E-08
   32.76000     -2.6372117E-08
   32.82000     -2.3779291E-08
   32.88000     -2.1098600E-08
   32.94000     -1.8353260E-08
   33.00000     -1.5571851E-08
   33.06000     -1.2784584E-08
   33.12000     -1.0020408E-08
   33.18000     -7.3060282E-09
   33.24000     -4.6667625E-09
   33.30000     -2.1282358E-09
   33.36000      2.8246108E-10
   33.42000      2.5371418E-09
   33.48000      4.6084945E-09
   33.54000      6.4728396E-09
   33.60000      8.1124814E-09
   33.66000      9.5167252E-09
   33.72000      1.0681346E-08
   33.78000      1.1606986E-08
   33.84000      1.2297303E-08
   33.90000      1.2757555E-08
   33.96000      1.2993852E-08
   34.02000      1.3012938E-08
   34.08000      1.2822207E-08
   34.14000      1.2429795E-08
   34.20000      1.1844739E-08
   34.26000      1.1077258E-08
   34.32000      1.0139095E-08
   34.38000      9.0435615E-09
   34.44000      7.8049567E-09
   34.50000      6.4371730E-09
   34.56000      4.9518136E-09
   34.62000      3.3565364E-09
   34.68000      1.6545448E-09
   34.74000     -1.5416200E-10
   34.80000     -2.0697850E-09
   34.86000     -4.0887183E-09
   34.92000     -6.1997918E-09
   34.98000     -8.3820781E-09
   35.04000     -1.0605151E-08
   35.10000     -1.2831942E-08
   35.16000     -1.5023510E-08
   35.22000     -1.7144478E-08
   35.28000     -1.9167604E-08
   35.34000     -2.1076220E-08
   35.40000     -2.2863874E-08
   35.46000     -2.4531328E-08
   35.52000     -2.6081780E-08
   35.58000     -2.7515776E-08
   35.64000     -2.8827305E-08
   35.70000     -3.0002219E-08
   35.76000     -3.1019422E-08
   35.82000     -3.1854420E-08
   35.88000     -3.2484103E-08
   35.94000     -3.2891297E-08
   36.00000     -3.3067611E-08
   36.06000     -3.3013801E-08
   36.12000     -3.2737560E-08
   36.18000     -3.2249691E-08
   36.24000     -3.1560148E-08
   36.30000     -3.0675697E-08
   36.36000     -2.9600239E-08
   36.42000     -2.8337961E-08
   36.48000     -2.6898119E-08
   36.54000     -2.5299387E-08
   36.60000     -2.3571651E-08
   36.66000     -2.1753836E-08
   36.72000     -1.9887889E-08
   36.78000     -1.8010619E-08
   36.84000     -1.6146075E-08
   36.90000     -1.4301217E-08
   36.96000     -1.2466558E-08
   37.02000     -1.0621766E-08
   37.08000     -8.7444789E-09
   37.14000     -6.8194459E-09
   37.20000     -4.8449791E-09
   37.26000     -2.8346252E-09
   37.32000     -8.1352608E-10
   37.38000      1.1892420E-09
   37.44000      3.1497027E-09
   37.50000      5.0561701E-09
   37.56000      6.9118991E-09
   37.62000      8.7319414E-09
   37.68000      1.0534960E-08
   37.74000      1.2332646E-08
   37.80000      1.4120468E-08
   37.86000      1.5873411E-08
   37.92000      1.7548832E-08
   37.98000      1.9096255E-08
   38.04000      2.0471422E-08
   38.10000      2.1650139E-08
   38.16000      2.2637284E-08
   38.22000      2.3467484E-08
   38.28000      2.4196767E-08
   38.34000      2.4887303E-08
   38.40000      2.5589909E-08
   38.46000      2.6329857E-08
   38.52000      2.7100677E-08
   38.58000      2.7868120E-08
   38.64000      2.8583084E-08
   38.70000      2.9199258E-08
   38.76000      2.9689581E-08
   38.82000      3.0055944E-08
   38.88000      3.0328845E-08
   38.94000      3.0557104E-08
   39.00000      3.0791149E-08
   39.06000      3.1065500E-08
   39.12000      3.1386374E-08
   39.18000      3.1728515E-08
   39.24000      3.2042454E-08
   39.30000      3.2269934E-08
   39.36000      3.2362696E-08
   39.42000      3.2298605E-08
   39.48000      3.2089872E-08
   39.54000      3.1780448E-08
   39.60000      3.1433000E-08
   39.66000      3.1109373E-08
   39.72000      3.0850750E-08
   39.78000      3.0664097E-08
   39.84000      3.0519807E-08
   39.90000      3.0361548E-08
   39.96000      3.0125268E-08
   40.02000      2.9760889E-08
   40.08000      2.9249120E-08
   40.14000      2.8607641E-08
   40.20000      2.7884575E-08
   40.26000      2.7141846E-08
   40.32000      2.6434451E-08
   40.38000      2.5792941E-08
   40.44000      2.5215090E-08
   40.50000      2.4669266E-08
   40.56000      2.4108001E-08
   40.62000      2.3486836E-08
   40.68000      2.2781849E-08
   40.74000      2.1999917E-08
   40.80000      2.1178121E-08
   40.86000      2.0372452E-08
   40.92000      1.9639481E-08
   40.98000      1.9017200E-08
   41.04000      1.8511678E-08
   41.10000      1.8094321E-08
   41.16000      1.7711086E-08
   41.22000      1.7300721E-08
   41.28000      1.6815989E-08
   41.34000      1.6240570E-08
   41.40000      1.5595841E-08
   41.46000      1.4935065E-08
   41.52000      1.4326919E-08
   41.58000      1.3833815E-08
   41.64000      1.3492177E-08
   41.70000      1.3301136E-08
   41.76000      1.3223274E-08
   41.82000      1.3197095E-08
   41.88000      1.3157091E-08
   41.94000      1.3054760E-08
   42.00000      1.2873578E-08
   42.06000      1.2632866E-08
   42.12000      1.2379215E-08
   42.18000      1.2168408E-08
   42.24000      1.2044157E-08
   42.30000      1.2021236E-08
   42.36000      1.2079069E-08
   42.42000      1.2168163E-08
   42.48000      1.2227097E-08
   42.54000      1.2204056E-08
   42.60000      1.2075344E-08
   42.66000      1.1854512E-08
   42.72000      1.1589135E-08
   42.78000      1.1346604E-08
   42.84000      1.1193776E-08
   42.90000      1.1177202E-08
   42.96000      1.1310108E-08
   43.02000      1.1569940E-08
   43.08000      1.1906907E-08
   43.14000      1.2260476E-08
   43.20000      1.2578460E-08
   43.26000      1.2832589E-08
   43.32000      1.3025681E-08
   43.38000      1.3188279E-08
   43.44000      1.3366146E-08
   43.50000      1.3603017E-08
   43.56000      1.3924621E-08
   43.62000      1.4329395E-08
   43.68000      1.4788909E-08
   43.74000      1.5257569E-08
   43.80000      1.5687974E-08
   43.86000      1.6046497E-08
   43.92000      1.6323883E-08
   43.98000      1.6537388E-08
   44.04000      1.6724059E-08
   44.10000      1.6927499E-08
   44.16000      1.7182543E-08
   44.22000      1.7502767E-08
   44.28000      1.7874886E-08
   44.34000      1.8261821E-08
   44.40000      1.8613493E-08
   44.46000      1.8881815E-08
   44.52000      1.9034928E-08
   44.58000      1.9065856E-08
   44.64000      1.8992726E-08
   44.70000      1.8850615E-08
   44.76000      1.8678119E-08
   44.82000      1.8503592E-08
   44.88000      1.8335944E-08
   44.94000      1.8163016E-08
   45.00000      1.7957586E-08
   45.06000      1.7688283E-08
   45.12000      1.7331134E-08
   45.18000      1.6877651E-08
   45.24000      1.6336980E-08
   45.30000      1.5731988E-08
   45.36000      1.5091208E-08
   45.42000      1.4439653E-08
   45.48000      1.3791556E-08
   45.54000      1.3147083E-08
   45.60000      1.2493698E-08
   45.66000      1.1811451E-08
   45.72000      1.1080404E-08
   45.78000      1.0287972E-08
   45.84000      9.4340775E-09
   45.90000      8.5326874E-09
   45.96000      7.6093603E-09
   46.02000      6.6955317E-09
   46.08000      5.8212164E-09
   46.14000      5.0082423E-09
   46.20000      4.2659098E-09
   46.26000      3.5902499E-09
   46.32000      2.9668985E-09
   46.38000      2.3765356E-09
   46.44000      1.8010881E-09
   46.50000      1.2287706E-09
   46.56000      6.5652550E-10
   46.62000      8.9362732E-11
   46.68000     -4.6284676E-10
   46.74000     -9.8977859E-10
   46.80000     -1.4846316E-09
   46.86000     -1.9463380E-09
   46.92000     -2.3794049E-09
   46.98000     -2.7916494E-09
   47.04000     -3.1907803E-09
   47.10000     -3.5810683E-09
   47.16000     -3.9612273E-09
   47.22000     -4.3241495E-09
   47.28000     -4.6585673E-09
   47.34000     -4.9521742E-09
   47.40000     -5.1953593E-09
   47.46000     -5.3845559E-09
   47.52000     -5.5242699E-09
   47.58000     -5.6271161E-09
   47.64000     -5.7116991E-09
   47.70000     -5.7987379E-09
   47.76000     -5.9064065E-09
   47.82000     -6.0461942E-09
   47.88000     -6.2205050E-09
   47.94000     -6.4227534E-09
   48.00000     -6.6399277E-09
   48.06000     -6.8568005E-09
   48.12000     -7.0604496E-09
   48.18000     -7.2437212E-09
   48.24000     -7.4066686E-09
   48.30000     -7.5557152E-09
   48.36000     -7.7010212E-09
   48.42000     -7.8529929E-09
   48.48000     -8.0189864E-09
   48.54000     -8.2010638E-09
   48.60000     -8.3952019E-09
   48.66000     -8.5919609E-09
   48.72000     -8.7782466E-09
   48.78000     -8.9396250E-09
   48.84000     -9.0626147E-09
   48.90000     -9.1364480E-09
   48.96000     -9.1539354E-09
   49.02000     -9.1113206E-09
   49.08000     -9.0072767E-09
   49.14000     -8.8414716E-09
   49.20000     -8.6132914E-09
   49.26000     -8.3212939E-09
   49.32000     -7.9637212E-09
   49.38000     -7.5399402E-09
   49.44000     -7.0522446E-09
   49.50000     -6.5071708E-09
   49.56000     -5.9155529E-09
   49.62000     -5.2909614E-09
   49.68000     -4.6468092E-09
   49.74000     -3.9930130E-09
   49.80000     -3.3333467E-09
   49.86000     -2.6644811E-09
   49.92000     -1.9771282E-09
   49.98000     -1.2590204E-09
   50.04000     -4.9886290E-10
   50.10000      3.0985664E-10
   50.16000      1.1662195E-09
   50.22000      2.0610513E-09
   50.28000      2.9781237E-09
   50.34000      3.8971422E-09
   50.40000      4.7978888E-09
   50.46000      5.6645852E-09
   50.52000      6.4893722E-09
   50.58000      7.2738802E-09
   50.64000      8.0283096E-09
   50.70000      8.7682173E-09
   50.76000      9.5100461E-09
   50.82000      1.0267007E-08
   50.88000      1.1046822E-08
   50.94000      1.1852069E-08
   51.00000      1.2682674E-08
   51.06000      1.3539153E-08
   51.12000      1.4424961E-08
   51.18000      1.5346940E-08
   51.24000      1.6314061E-08
   51.30000      1.7335662E-08
   51.36000      1.8420671E-08
   51.42000      1.9578648E-08
   51.48000      2.0822215E-08
   51.54000      2.2169543E-08
   51.60000      2.3645260E-08
   51.66000      2.5278979E-08
   51.72000      2.7101716E-08
   51.78000      2.9141567E-08
   51.84000      3.1420079E-08
   51.90000      3.3950265E-08
   51.96000      3.6736260E-08
   52.02000      3.9774065E-08
   52.08000      4.3052786E-08
   52.14000      4.6556266E-08
   52.20000      5.0265260E-08
   52.26000      5.4160267E-08
   52.32000      5.8224348E-08
   52.38000      6.2444734E-08
   52.44000      6.6811722E-08
   52.50000      7.1314439E-08
   52.56000      7.5934175E-08
   52.62000      8.0637655E-08
   52.68000      8.5372491E-08
   52.74000      9.0066798E-08
   52.80000      9.4632881E-08
   52.86000      9.8973366E-08
   52.92000      1.0298744E-07
   52.98000      1.0657509E-07
   53.04000      1.0963841E-07
   53.10000      1.1208049E-07
   53.16000      1.1380315E-07
   53.22000      1.1470472E-07
   53.28000      1.1467854E-07
   53.34000      1.1361251E-07
   53.40000      1.1138929E-07
   53.46000      1.0788756E-07
   53.52000      1.0298401E-07
   53.58000      9.6556512E-08
   53.64000      8.8487838E-08
   53.70000      7.8669103E-08
   53.76000      6.7002148E-08
   53.82000      5.3400015E-08
   53.88000      3.7785920E-08
   53.94000      2.0091587E-08
   54.00000      2.5624064E-10
   54.06000     -2.1772735E-08
   54.12000     -4.6037112E-08
   54.18000     -7.2563729E-08
   54.24000     -1.0135999E-07
   54.30000     -1.3241007E-07
   54.36000     -1.6567282E-07
   54.42000     -2.0108159E-07
   54.48000     -2.3854605E-07
   54.54000     -2.7795514E-07
   54.60000     -3.1918020E-07
   54.66000     -3.6207771E-07
   54.72000     -4.0648951E-07
   54.78000     -4.5224147E-07
   54.84000     -4.9914053E-07
   54.90000     -5.4697142E-07
   54.96000     -5.9549592E-07
   55.02000     -6.4445470E-07
   55.08000     -6.9357287E-07
   55.14000     -7.4256712E-07
   55.20000     -7.9115273E-07
   55.26000     -8.3904865E-07
   55.32000     -8.8597852E-07
   55.38000     -9.3167000E-07
   55.44000     -9.7585223E-07
   55.50000     -1.0182538E-06
   55.56000     -1.0586036E-06