 -0.750000000       0.00000000    
 -0.689999998       0.00000000    
 -0.629999995       0.00000000    
 -0.569999993       0.00000000    
 -0.509999990       0.00000000    
 -0.449999988       0.00000000    
 -0.389999986       0.00000000    
 -0.330000013       0.00000000    
 -0.270000011       0.00000000    
 -0.209999993       0.00000000    
 -0.150000006       0.00000000    
  -9.00000036E-02   0.00000000    
  -2.99999993E-02  -4.93109778E-35
   2.99999993E-02  -6.76722593E-34
   9.00000036E-02  -4.15949264E-33
  0.150000006      -1.31282016E-32
  0.209999993      -6.54281037E-33
  0.270000011       1.49512243E-31
  0.330000013       8.47169469E-31
  0.389999986       2.61426370E-30
  0.449999988       4.73858813E-30
  0.509999990       1.39518851E-30
  0.569999993      -2.33711162E-29
  0.629999995      -9.17650429E-29
  0.689999998      -1.96472479E-28
  0.750000000      -2.10912296E-28
  0.810000002       2.21721361E-28
  0.870000005       1.64336925E-27
  0.930000007       4.22258407E-27
  0.990000010       6.36928028E-27
   1.04999995       2.94121858E-27
   1.11000001      -1.48285805E-26
   1.16999996      -5.36128175E-26
   1.23000002      -1.02895935E-25
   1.28999996      -1.13874031E-25
   1.35000002       9.08197765E-27
   1.40999997       3.69403199E-25
   1.47000003       9.59577899E-25
   1.52999997       1.47986667E-24
   1.59000003       1.21570693E-24
   1.64999998      -7.94738905E-25
   1.71000004      -5.07758052E-24
   1.76999998      -1.05677732E-23
   1.83000004      -1.35836389E-23
   1.88999999      -8.12657447E-24
   1.95000005       1.12538100E-23
   2.00999999       4.39225193E-23
   2.06999993       7.72359450E-23
   2.13000011       8.50962939E-23
   2.19000006       3.63901252E-23
   2.25000000      -8.50091153E-23
   2.30999994      -2.55189712E-22
   2.36999989      -3.95719666E-22
   2.43000007      -3.88489762E-22
   2.49000001      -1.29270220E-22
   2.54999995       3.93070078E-22
   2.60999990       1.03091039E-21
   2.67000008       1.47769808E-21
   2.73000002       1.36840604E-21
   2.78999996       4.67353058E-22
   2.84999990      -1.13148301E-21
   2.91000009      -2.90704770E-21
   2.97000003      -4.01882631E-21
   3.02999997      -3.64377301E-21
   3.08999991      -1.44590242E-21
   3.15000010       2.03354336E-21
   3.21000004       5.32924115E-21
   3.26999998       6.54956278E-21
   3.32999992       4.41506763E-21
   3.39000010      -5.00306239E-22
   3.45000005      -5.03300911E-21
   3.50999999      -4.10246283E-21
   3.56999993       6.58346345E-21
   3.63000011       2.61613866E-20
   3.69000006       4.45563002E-20
   3.75000000       4.21842919E-20
   3.80999994      -3.09624871E-21
   3.86999989      -1.00958046E-19
   3.93000007      -2.30157267E-19
   3.99000001      -3.27546281E-19
   4.05000019      -2.98171676E-19
   4.11000013      -5.48034427E-20
   4.17000008       4.19584677E-19
   4.23000002       1.01262572E-18
   4.28999996       1.46666278E-18
   4.34999990       1.44107488E-18
   4.40999985       6.57435293E-19
   4.46999979      -9.15810844E-19
   4.53000021      -2.92513647E-18
   4.59000015      -4.63481126E-18
   4.65000010      -5.12256410E-18
   4.71000004      -3.63447403E-18
   4.76999998       2.38172683E-20
   4.82999992       5.22626608E-18
   4.88999987       1.05300100E-17
   4.94999981       1.39802986E-17
   5.01000023       1.36445783E-17
   5.07000017       8.24142709E-18
   5.13000011      -2.26588014E-18
   5.19000006      -1.62139924E-17
   5.25000000      -3.00472630E-17
   5.30999994      -3.86117454E-17
   5.36999989      -3.62435406E-17
   5.42999983      -1.88423621E-17
   5.48999977       1.33569949E-17
   5.55000019       5.33733691E-17
   5.61000013       8.71395468E-17
   5.67000008       9.68453731E-17
   5.73000002       6.82455174E-17
   5.78999996      -1.72704326E-19
   5.84999990      -9.06390832E-17
   5.90999985      -1.67345692E-16
   5.96999979      -1.88351778E-16
   6.03000021      -1.25778199E-16
   6.09000015       1.41144707E-17
   6.15000010       1.82643954E-16
   6.21000004       3.01225404E-16
   6.26999998       2.94545278E-16
   6.32999992       1.32065910E-16
   6.38999987      -1.43122363E-16
   6.44999981      -4.17809721E-16
   6.51000023      -5.50936222E-16
   6.57000017      -4.40496546E-16
   6.63000011      -8.37951166E-17
   6.69000006       4.02897521E-16
   6.75000000       8.22650839E-16
   6.80999994       9.81834112E-16
   6.86999989       7.80212106E-16
   6.92999983       2.59930483E-16
   6.98999977      -4.14325690E-16
   7.05000019      -1.03323726E-15
   7.11000013      -1.43269577E-15
   7.17000008      -1.54097867E-15
   7.23000002      -1.35675143E-15
   7.28999996      -8.82228225E-16
   7.34999990      -7.65939733E-17
   7.40999985       1.10743798E-15
   7.46999979       2.59597239E-15
   7.53000021       4.04849773E-15
   7.59000015       4.82235804E-15
   7.65000010       4.15226943E-15
   7.71000004       1.53966418E-15
   7.76999998      -2.80474272E-15
   7.82999992      -7.72495742E-15
   7.88999987      -1.13209858E-14
   7.94999981      -1.16339518E-14
   8.01000023      -7.59152940E-15
   8.06999969       2.25183286E-16
   8.13000011       9.45049482E-15
   8.18999958       1.66587918E-14
   8.25000000       1.87521846E-14
   8.31000042       1.44265279E-14
   8.36999989       4.98429380E-15
   8.43000031      -6.01457598E-15
   8.48999977      -1.42408685E-14
   8.55000019      -1.66018542E-14
   8.60999966      -1.27922702E-14
   8.67000008      -5.53861842E-15
   8.72999954       7.26843101E-16
   8.78999996       2.22547425E-15
   8.85000038      -1.92407176E-15
   8.90999985      -8.80492443E-15
   8.97000027      -1.28120933E-14
   9.02999973      -8.46603502E-15
   9.09000015       6.31242622E-15
   9.14999962       2.81186275E-14
   9.21000004       4.84475470E-14
   9.27000046       5.67596473E-14
   9.32999992       4.51525854E-14
   9.39000034       1.26420752E-14
   9.44999981      -3.30178457E-14
   9.51000023      -7.71548556E-14
   9.56999969      -1.03290010E-13
   9.63000011      -9.96678665E-14
   9.68999958      -6.45035376E-14
   9.75000000      -7.54638085E-15
   9.81000042       5.30430361E-14
   9.86999989       9.75358778E-14
   9.93000031       1.12508195E-13
   9.98999977       9.63668842E-14
   10.0500002       5.99064459E-14
   10.1099997       2.12851451E-14
   10.1700001      -2.69443023E-15
   10.2299995      -5.21012168E-15
   10.2900000       6.21089958E-15
   10.3500004       1.22128819E-14
   10.4099998      -9.30451462E-15
   10.4700003      -7.10583190E-14
   10.5299997      -1.66675742E-13
   10.5900002      -2.68472310E-13
   10.6499996      -3.34899426E-13
   10.7100000      -3.25548291E-13
   10.7700005      -2.17785479E-13
   10.8299999      -1.77112641E-14
   10.8900003       2.39832839E-13
   10.9499998       5.02629839E-13
   11.0100002       7.18722662E-13
   11.0699997       8.51814875E-13
   11.1300001       8.86732202E-13
   11.1899996       8.22365505E-13
   11.2500000       6.56749123E-13
   11.3100004       3.74523329E-13
   11.3699999      -5.24885074E-14
   11.4300003      -6.46727463E-13
   11.4899998      -1.39363673E-12
   11.5500002      -2.21245136E-12
   11.6099997      -2.94717679E-12
   11.6700001      -3.38996843E-12
   11.7299995      -3.33519150E-12
   11.7900000      -2.64643255E-12
   11.8500004      -1.30879389E-12
   11.9099998       5.58661190E-13
   11.9700003       2.73946751E-12
   12.0299997       4.99102712E-12
   12.0900002       7.11621170E-12
   12.1499996       8.99507639E-12
   12.2100000       1.05501788E-11
   12.2700005       1.16484912E-11
   12.3299999       1.19759905E-11
   12.3900003       1.09421448E-11
   12.4499998       7.66897830E-12
   12.5100002       1.09161736E-12
   12.5699997      -9.84581947E-12
   12.6300001      -2.59551113E-11
   12.6899996      -4.76048333E-11
   12.7500000      -7.46210663E-11
   12.8100004      -1.06313978E-10
   12.8699999      -1.41608267E-10
   12.9300003      -1.79218473E-10
   12.9899998      -2.17800625E-10
   13.0500002      -2.56033139E-10
   13.1099997      -2.92622176E-10
   13.1700001      -3.26268540E-10
   13.2299995      -3.55655200E-10
   13.2900000      -3.79504372E-10
   13.3500004      -3.96716937E-10
   13.4099998      -4.06559619E-10
   13.4700003      -4.08830664E-10
   13.5299997      -4.03930861E-10
   13.5900002      -3.92794686E-10
   13.6499996      -3.76689346E-10
   13.7100000      -3.56939700E-10
   13.7700005      -3.34670069E-10
   13.8299999      -3.10646342E-10
   13.8900003      -2.85263396E-10
   13.9499998      -2.58666422E-10
   14.0100002      -2.30940642E-10
   14.0699997      -2.02280373E-10
   14.1300001      -1.73062953E-10
   14.1899996      -1.43797182E-10
   14.2500000      -1.14977645E-10
   14.3100004      -8.69237182E-11
   14.3699999      -5.96961369E-11
   14.4300003      -3.31567759E-11
   14.4899998      -7.17693526E-12
   14.5500002       1.80688017E-11
   14.6099997       4.18324958E-11
   14.6700001       6.26577679E-11
   14.7299995       7.84433699E-11
   14.7900000       8.66895167E-11
   14.8500004       8.48330781E-11
   14.9099998       7.05379644E-11
   14.9700003       4.18270696E-11
   15.0299997      -2.98215098E-12
   15.0900002      -6.54769433E-11
   15.1499996      -1.47345094E-10
   15.2100000      -2.50415133E-10
   15.2700005      -3.76450732E-10
   15.3299999      -5.26722721E-10
   15.3900003      -7.01496694E-10
   15.4499998      -8.99631591E-10
   15.5100002      -1.11845166E-09
   15.5699997      -1.35394251E-09
   15.6300001      -1.60117997E-09
   15.6899996      -1.85479898E-09
   15.7500000      -2.10930562E-09
   15.8100004      -2.35913067E-09
   15.8699999      -2.59848787E-09
   15.9300003      -2.82122081E-09
   15.9899998      -3.02087977E-09
   16.0499992      -3.19117532E-09
   16.1100006      -3.32677130E-09
   16.1700001      -3.42419471E-09
   16.2299995      -3.48252427E-09
   16.2900009      -3.50355855E-09
   16.3500004      -3.49133966E-09
   16.4099998      -3.45114737E-09
   16.4699993      -3.38828188E-09
   16.5300007      -3.30702177E-09
   16.5900002      -3.21005555E-09
   16.6499996      -3.09846837E-09
   16.7099991      -2.97215075E-09
   16.7700005      -2.83033752E-09
   16.8299999      -2.67199374E-09
   16.8899994      -2.49590171E-09
   16.9500008      -2.30049912E-09
   17.0100002      -2.08368633E-09
   17.0699997      -1.84286952E-09
   17.1299992      -1.57540292E-09
   17.1900005      -1.27941713E-09
   17.2500000      -9.54812451E-10
   17.3099995      -6.04086725E-10
   17.3700008      -2.32688716E-10
   17.4300003       1.51263876E-10
   17.4899998       5.37847822E-10
   17.5499992       9.16536569E-10
   17.6100006       1.27740818E-09
   17.6700001       1.61205993E-09
   17.7299995       1.91406602E-09
   17.7900009       2.17898166E-09
   17.8500004       2.40403697E-09
   17.9099998       2.58771560E-09
   17.9699993       2.72938694E-09
   18.0300007       2.82907386E-09
   18.0900002       2.88735813E-09
   18.1499996       2.90535640E-09
   18.2099991       2.88469559E-09
   18.2700005       2.82743406E-09
   18.3299999       2.73591749E-09
   18.3899994       2.61258126E-09
   18.4500008       2.45973930E-09
   18.5100002       2.27939134E-09
   18.5699997       2.07309370E-09
   18.6299992       1.84192783E-09
   18.6900005       1.58658997E-09
   18.7500000       1.30760858E-09
   18.8099995       1.00566078E-09
   18.8700008       6.81938339E-10
   18.9300003       3.38497980E-10
   18.9899998      -2.14565293E-11
   19.0499992      -3.93388405E-10
   19.1100006      -7.71341380E-10
   19.1700001      -1.14794718E-09
   19.2299995      -1.51452961E-09
   19.2900009      -1.86132643E-09
   19.3500004      -2.17785012E-09
   19.4099998      -2.45338727E-09
   19.4699993      -2.67759637E-09
   19.5300007      -2.84112511E-09
   19.5900002      -2.93615643E-09
   19.6499996      -2.95682567E-09
   19.7099991      -2.89951330E-09
   19.7700005      -2.76306067E-09
   19.8299999      -2.54897881E-09
   19.8899994      -2.26166819E-09
   19.9500008      -1.90859284E-09
   20.0100002      -1.50027968E-09
   20.0699997      -1.04999665E-09
   20.1299992      -5.73030234E-10
   20.1900005      -8.56130861E-11
   20.2500000       3.96303629E-10
   20.3099995       8.58143778E-10
   20.3700008       1.28738287E-09
   20.4300003       1.67365188E-09
   20.4899998       2.00830819E-09
   20.5499992       2.28372543E-09
   20.6100006       2.49266807E-09
   20.6700001       2.62811284E-09
   20.7299995       2.68370393E-09
   20.7900009       2.65478461E-09
   20.8500004       2.53970711E-09
   20.9099998       2.34098585E-09
   20.9699993       2.06591455E-09
   21.0300007       1.72644954E-09
   21.0900002       1.33842981E-09
   21.1499996       9.20409804E-10
   21.2099991       4.92437813E-10
   21.2700005       7.50217527E-11
   21.3299999      -3.11669135E-10
   21.3899994      -6.48485488E-10
   21.4500008      -9.18038923E-10
   21.5100002      -1.10560816E-09
   21.5699997      -1.20016397E-09
   21.6299992      -1.19534072E-09
   21.6900005      -1.09014830E-09
   21.7500000      -8.89288698E-10
   21.8099995      -6.03051165E-10
   21.8700008      -2.46841519E-10
   21.9300003       1.59606953E-10
   21.9899998       5.93348426E-10
   22.0499992       1.02971098E-09
   22.1100006       1.44414880E-09
   22.1700001       1.81431070E-09
   22.2299995       2.12200835E-09
   22.2900009       2.35468800E-09
   22.3500004       2.50609666E-09
   22.4099998       2.57607091E-09
   22.4699993       2.56966204E-09
   22.5300007       2.49599652E-09
   22.5900002       2.36726372E-09
   22.6499996       2.19801621E-09
   22.7099991       2.00469663E-09
   22.7700005       1.80509363E-09
   22.8299999       1.61743796E-09
   22.8899994       1.45903623E-09
   22.9500008       1.34464462E-09
   23.0100002       1.28500854E-09
   23.0699997       1.28601874E-09
   23.1299992       1.34872979E-09
   23.1900005       1.47013868E-09
   23.2500000       1.64430514E-09
   23.3099995       1.86327820E-09
   23.3700008       2.11744688E-09
   23.4300003       2.39529996E-09
   23.4899998       2.68297096E-09
   23.5499992       2.96416780E-09
   23.6100006       3.22098548E-09
   23.6700001       3.43571682E-09
   23.7299995       3.59326502E-09
   23.7900009       3.68339292E-09
   23.8500004       3.70202469E-09
   23.9099998       3.65116581E-09
   23.9699993       3.53759888E-09
   24.0300007       3.37102124E-09
   24.0900002       3.16246185E-09
   24.1499996       2.92357427E-09
   24.2099991       2.66684164E-09
   24.2700005       2.40618458E-09
   24.3299999       2.15721618E-09
   24.3899994       1.93655669E-09
   24.4500008       1.76011983E-09
   24.5100002       1.64082592E-09
   24.5699997       1.58648772E-09
   24.6299992       1.59854729E-09
   24.6900005       1.67197622E-09
   24.7500000       1.79621218E-09
   24.8099995       1.95674654E-09
   24.8700008       2.13694107E-09
   24.9300003       2.31981856E-09
   24.9899998       2.48972754E-09
   25.0499992       2.63382693E-09
   25.1100006       2.74326717E-09
   25.1700001       2.81383650E-09
   25.2299995       2.84588175E-09
   25.2900009       2.84348456E-09
   25.3500004       2.81314283E-09
   25.4099998       2.76239875E-09
   25.4699993       2.69883227E-09
   25.5300007       2.62961564E-09
   25.5900002       2.56149768E-09
   25.6499996       2.50085752E-09
   25.7099991       2.45343768E-09
   25.7700005       2.42357645E-09
   25.8299999       2.41306930E-09
   25.8899994       2.42006615E-09
   25.9500008       2.43850296E-09
   26.0100002       2.45845500E-09
   26.0699997       2.46751530E-09
   26.1299992       2.45297005E-09
   26.1900005       2.40426723E-09
   26.2500000       2.31513986E-09
   26.3099995       2.18480323E-09
   26.3700008       2.01789341E-09
   26.4300003       1.82316329E-09
   26.4899998       1.61133784E-09
   26.5499992       1.39278133E-09
   26.6100006       1.17568644E-09
   26.6700001       9.65311164E-10
   26.7299995       7.64431685E-10
   26.7900009       5.74773451E-10
   26.8500004       3.98854449E-10
   26.9099998       2.41532766E-10
   26.9699993       1.10619576E-10
   27.0300007       1.61919297E-11
   27.0900002      -3.13466683E-11
   27.1499996      -2.39501110E-11
   27.2099991       4.15236699E-11
   27.2700005       1.61909056E-10
   27.3299999       3.28231525E-10
   27.3899994       5.28242783E-10
   27.4500008       7.50306650E-10
   27.5100002       9.87261717E-10
   27.5699997       1.23870547E-09
   27.6299992       1.51063462E-09
   27.6900005       1.81242132E-09
   27.7500000       2.15226303E-09
   27.8099995       2.53295762E-09
   27.8700008       2.94977687E-09
   27.9300003       3.39130990E-09
   27.9899998       3.84286958E-09
   28.0499992       4.29097957E-09
   28.1100006       4.72706629E-09
   28.1700001       5.14891996E-09
   28.2299995       5.55947555E-09
   28.2900009       5.96354521E-09
   28.3500004       6.36384279E-09
   28.4099998       6.75778322E-09
   28.4699993       7.13617920E-09
   28.5300007       7.48422746E-09
   28.5900002       7.78449571E-09
   28.6499996       8.02094036E-09
   28.7099991       8.18268209E-09
   28.7700005       8.26626145E-09
   28.8299999       8.27555979E-09
   28.8899994       8.21936386E-09
   28.9500008       8.10747025E-09
   29.0100002       7.94686450E-09
   29.0699997       7.73951392E-09
   29.1299992       7.48266338E-09
   29.1900005       7.17139903E-09
   29.2500000       6.80224277E-09
   29.3099995       6.37614272E-09
   29.3700008       5.89960614E-09
   29.4300003       5.38371436E-09
   29.4899998       4.84172702E-09
   29.5499992       4.28650537E-09
   29.6100006       3.72882258E-09
   29.6700001       3.17696713E-09
   29.7299995       2.63736144E-09
   29.7900009       2.11557638E-09
   29.8500004       1.61717084E-09
   29.9099998       1.14811083E-09
   29.9699993       7.14777404E-10
   30.0300007       3.23653215E-10
   30.0900002      -1.92782717E-11
   30.1499996      -3.09367421E-10
   30.2099991      -5.44169543E-10
   30.2700005      -7.23956950E-10
   30.3299999      -8.51469728E-10
   30.3899994      -9.30822863E-10
   30.4500008      -9.66009384E-10
   30.5100002      -9.59830104E-10
   30.5699997      -9.13993936E-10
   30.6299992      -8.30510327E-10
   30.6900005      -7.13661852E-10
   30.7500000      -5.71324044E-10
   30.8099995      -4.14596496E-10
   30.8700008      -2.55587718E-10
   30.9300003      -1.04264812E-10
   30.9899998       3.40887457E-11
   31.0499992       1.59484523E-10
   31.1100006       2.75537732E-10
   31.1700001       3.86242122E-10
   31.2299995       4.92681396E-10
   31.2900009       5.91067750E-10
   31.3500004       6.72778444E-10
   31.4099998       7.26168459E-10
   31.4699993       7.39325601E-10
   31.5300007       7.02805258E-10
   31.5900002       6.11585116E-10
   31.6499996       4.65783911E-10
   31.7099991       2.69933131E-10
   31.7700005       3.08493231E-11
   31.8299999      -2.45446941E-10
   31.8899994      -5.56797330E-10
   31.9500008      -9.06621778E-10
   32.0099983      -1.30310851E-09
   32.0699997      -1.75557480E-09
   32.1300011      -2.26902475E-09
   32.1899986      -2.83905655E-09
   32.2500000      -3.44950757E-09
   32.3100014      -4.07427025E-09
   32.3699989      -4.68295136E-09
   32.4300003      -5.24830046E-09
   32.4900017      -5.75253045E-09
   32.5499992      -6.19018969E-09
   32.6100006      -6.56675958E-09
   32.6699982      -6.89391300E-09
   32.7299995      -7.18347914E-09
   32.7900009      -7.44227791E-09
   32.8499985      -7.66925812E-09
   32.9099998      -7.85535992E-09
   32.9700012      -7.98571964E-09
   33.0299988      -8.04343170E-09
   33.0900002      -8.01395217E-09
   33.1500015      -7.88917198E-09
   33.2099991      -7.67014896E-09
   33.2700005      -7.36760608E-09
   33.3300018      -6.99985048E-09
   33.3899994      -6.58858568E-09
   33.4500008      -6.15404527E-09
   33.5099983      -5.71123326E-09
   33.5699997      -5.26871302E-09
   33.6300011      -4.83027796E-09
   33.6899986      -4.39853842E-09
   33.7500000      -3.97864497E-09
   33.8100014      -3.58040686E-09
   33.8699989      -3.21791793E-09
   33.9300003      -2.90694602E-09
   33.9900017      -2.66123101E-09
   34.0499992      -2.48905452E-09
   34.1100006      -2.39111531E-09
   34.1699982      -2.36013986E-09
   34.2299995      -2.38218134E-09
   34.2900009      -2.43928189E-09
   34.3499985      -2.51304688E-09
   34.4099998      -2.58849098E-09
   34.4700012      -2.65727573E-09
   34.5299988      -2.71933676E-09
   34.5900002      -2.78214562E-09
   34.6500015      -2.85755797E-09
   34.7099991      -2.95714719E-09
   34.7700005      -3.08765302E-09
   34.8300018      -3.24826432E-09
   34.8899994      -3.43078477E-09
   34.9500008      -3.62257246E-09
   35.0099983      -3.81105014E-09
   35.0699997      -3.98804811E-09
   35.1300011      -4.15246681E-09
   35.1899986      -4.31052349E-09
   35.2500000      -4.47377424E-09
   35.3100014      -4.65575800E-09
   35.3699989      -4.86837193E-09
   35.4300003      -5.11895948E-09
   35.4900017      -5.40882583E-09
   35.5499992      -5.73355097E-09
   35.6100006      -6.08509065E-09
   35.6699982      -6.45520526E-09
   35.7299995      -6.83924206E-09
   35.7900009      -7.23898985E-09
   35.8499985      -7.66337838E-09
   35.9099998      -8.12640977E-09
   35.9700012      -8.64272565E-09
   36.0299988      -9.22222121E-09
   36.0900002      -9.86564075E-09
   36.1500015      -1.05628386E-08
   36.2099991      -1.12943930E-08
   36.2700005      -1.20359642E-08
   36.3300018      -1.27637545E-08
   36.3899994      -1.34591032E-08
   36.4500008      -1.41106904E-08
   36.5099983      -1.47138595E-08
   36.5699997      -1.52676236E-08
   36.6300011      -1.57706488E-08
   36.6899986      -1.62177347E-08
   36.7500000      -1.65979461E-08
   36.8100014      -1.68949743E-08
   36.8699989      -1.70896008E-08
   36.9300003      -1.71636394E-08
   36.9900017      -1.71042309E-08
   37.0499992      -1.69073537E-08
   37.1100006      -1.65793850E-08
   37.1699982      -1.61360738E-08
   37.2299995      -1.55989621E-08
   37.2900009      -1.49900981E-08
   37.3499985      -1.43266483E-08
   37.4099998      -1.36171865E-08
   37.4700012      -1.28610642E-08
   37.5299988      -1.20512649E-08
   37.5900002      -1.11798206E-08
   37.6500015      -1.02438342E-08
   37.7099991      -9.24975296E-09
   37.7700005      -8.21410495E-09
   37.8300018      -7.16024662E-09
   37.8899994      -6.11228801E-09
   37.9500008      -5.08860243E-09
   38.0099983      -4.09757028E-09
   38.0699997      -3.13738258E-09
   38.1300011      -2.20005725E-09
   38.1899986      -1.27805122E-09
   38.2500000      -3.70729947E-10
   38.3100014       5.11991616E-10
   38.3699989       1.35033218E-09
   38.4300003       2.11932982E-09
   38.4900017       2.79557466E-09
   38.5499992       3.36328498E-09
   38.6100006       3.81744814E-09
   38.6699982       4.16308987E-09
   38.7299995       4.41135262E-09
   38.7900009       4.57426896E-09
   38.8499985       4.66041117E-09
   38.9099998       4.67300376E-09
   38.9700012       4.61093785E-09
   39.0299988       4.47193660E-09
   39.0900002       4.25637392E-09
   39.1500015       3.97012423E-09
   39.2099991       3.62530139E-09
   39.2700005       3.23858540E-09
   39.3300018       2.82772161E-09
   39.3899994       2.40743558E-09
   39.4500008       1.98624273E-09
   39.5099983       1.56533642E-09
   39.5699997       1.14002419E-09
   39.6300011       7.03249126E-10
   39.6899986       2.49953364E-10
   39.7500000      -2.19300286E-10
   39.8100014      -6.96754932E-10
   39.8699989      -1.16845855E-09
   39.9300003      -1.61739688E-09
   39.9900017      -2.02757233E-09
   40.0499992      -2.38759656E-09
   40.1100006      -2.69266764E-09
   40.1699982      -2.94446645E-09
   40.2299995      -3.14922599E-09
   40.2900009      -3.31477135E-09
   40.3499985      -3.44756290E-09
   40.4099998      -3.55070884E-09
   40.4700012      -3.62361607E-09
   40.5299988      -3.66343578E-09
   40.5900002      -3.66785025E-09
   40.6500015      -3.63814467E-09
   40.7099991      -3.58119867E-09
   40.7700005      -3.50921692E-09
   40.8300018      -3.43681239E-09
   40.8899994      -3.37619332E-09
   40.9500008      -3.33224204E-09
   41.0099983      -3.29961303E-09
   41.0699997      -3.26339511E-09
   41.1300011      -3.20348637E-09
   41.1899986      -3.10126769E-09
   41.2500000      -2.94613001E-09
   41.3100014      -2.73942158E-09
   41.3699989      -2.49439513E-09
   41.4300003      -2.23229413E-09
   41.4900017      -1.97611505E-09
   41.5499992      -1.74427439E-09
   41.6100006      -1.54624336E-09
   41.6699982      -1.38137801E-09
   41.7299995      -1.24105193E-09
   41.7900009      -1.11321397E-09
   41.8499985      -9.87810278E-10
   41.9099998      -8.61304972E-10
   41.9700012      -7.38770378E-10
   42.0299988      -6.32717434E-10
   42.0900002      -5.58858904E-10
   42.1500015      -5.30079758E-10
   42.2099991      -5.50638923E-10
   42.2700005      -6.12710827E-10
   42.3300018      -6.96667779E-10
   42.3899994      -7.75217612E-10
   42.4500008      -8.20151613E-10
   42.5099983      -8.09539991E-10
   42.5699997      -7.33092254E-10
   42.6300011      -5.94053196E-10
   42.6899986      -4.07155559E-10
   42.7500000      -1.93379618E-10
   42.8100014       2.67967072E-11
   42.8699989       2.39532422E-10
   42.9300003       4.41190362E-10
   42.9900017       6.38135655E-10
   43.0499992       8.42763637E-10
   43.1100006       1.06709908E-09
   43.1699982       1.31631706E-09
   43.2299995       1.58474101E-09
   43.2900009       1.85605820E-09
   43.3499985       2.10784590E-09
   43.4099998       2.31872677E-09
   43.4700012       2.47533150E-09
   43.5299988       2.57634736E-09
   43.5900002       2.63219180E-09
   43.6500015       2.66068367E-09
   43.7099991       2.68061839E-09
   43.7700005       2.70572387E-09
   43.8300018       2.74099765E-09
   43.8899994       2.78227730E-09
   43.9500008       2.81871415E-09
   44.0099983       2.83702661E-09
   44.0699997       2.82613333E-09
   44.1300011       2.78084600E-09
   44.1899986       2.70358402E-09
   44.2500000       2.60355315E-09
   44.3100014       2.49351206E-09
   44.3699989       2.38513276E-09
   44.4300003       2.28467578E-09
   44.4900017       2.19083152E-09
   44.5499992       2.09583040E-09
   44.6100006       1.98949124E-09
   44.6699982       1.86442395E-09
   44.7299995       1.71994508E-09
   44.7900009       1.56283886E-09
   44.8499985       1.40465239E-09
   44.9099998       1.25692423E-09
   44.9700012       1.12665077E-09
   45.0299988       1.01397513E-09
   45.0900002       9.12798004E-10
   45.1500015       8.13585754E-10
   45.2099991       7.06875669E-10
   45.2700005       5.86112991E-10
   45.3300018       4.49185522E-10
   45.3899994       2.98707031E-10
   45.4500008       1.41343354E-10
   45.5099983      -1.36723462E-11
   45.5699997      -1.56816629E-10
   45.6300011      -2.81087237E-10
   45.6899986      -3.84552279E-10
   45.7500000      -4.71463590E-10
   45.8100014      -5.51038992E-10
   45.8699989      -6.34021002E-10
   45.9300003      -7.28352934E-10
   45.9900017      -8.35984337E-10
   46.0499992      -9.52408485E-10
   46.1100006      -1.06917175E-09
   46.1699982      -1.17806542E-09
   46.2299995      -1.27490418E-09
   46.2900009      -1.36117428E-09
   46.3499985      -1.44309620E-09
   46.4099998      -1.52897861E-09
   46.4700012      -1.62634695E-09
   46.5299988      -1.74001102E-09
   46.5900002      -1.87137328E-09
   46.6500015      -2.01857064E-09
   46.7099991      -2.17692486E-09
   46.7700005      -2.33954345E-09
   46.8300018      -2.49827292E-09
   46.8899994      -2.64514255E-09
   46.9500008      -2.77393442E-09
   47.0099983      -2.88107227E-09
   47.0699997      -2.96509794E-09
   47.1300011      -3.02479175E-09
   47.1899986      -3.05698578E-09
   47.2500000      -3.05560355E-09
   47.3100014      -3.01296654E-09
   47.3699989      -2.92304936E-09
   47.4300003      -2.78503198E-09
   47.4900017      -2.60499755E-09
   47.5499992      -2.39445797E-09
   47.6100006      -2.16607976E-09
   47.6699982      -1.92858995E-09
   47.7299995      -1.68338998E-09
   47.7900009      -1.42459156E-09
   47.8499985      -1.14247034E-09
   47.9099998      -8.28699609E-10
   47.9700012      -4.81001572E-10
   48.0299988      -1.05291068E-10
   48.0900002       2.85384660E-10
   48.1500015       6.74496681E-10
   48.2099991       1.04682873E-09
   48.2700005       1.39279499E-09
   48.3300018       1.71099868E-09
   48.3899994       2.00832284E-09
   48.4500008       2.29752528E-09
   48.5099983       2.59298560E-09
   48.5699997       2.90589597E-09
   48.6300011       3.24052785E-09
   48.6899986       3.59300611E-09
   48.7500000       3.95317956E-09
   48.8100014       4.30892300E-09
   48.8699989       4.65111594E-09
   48.9300003       4.97719155E-09
   48.9900017       5.29179722E-09
   49.0499992       5.60440672E-09
   49.1100006       5.92509108E-09
   49.1699982       6.26030117E-09
   49.2299995       6.61027766E-09
   49.2900009       6.96876867E-09
   49.3499985       7.32471506E-09
   49.4099998       7.66497354E-09
   49.4700012       7.97713184E-09
   49.5299988       8.25181878E-09
   49.5900002       8.48424531E-09
   49.6500015       8.67481376E-09
   49.7099991       8.82863738E-09
   49.7700005       8.95384655E-09
   49.8300018       9.05894648E-09
   49.8899994       9.14995191E-09
   49.9500008       9.22830878E-09
   50.0099983       9.29049460E-09
   50.0699997       9.32947142E-09
   50.1300011       9.33737532E-09
   50.1899986       9.30831767E-09
   50.2500000       9.24017929E-09
   50.3100014       9.13489906E-09
   50.3699989       8.99746411E-09
   50.4300003       8.83422935E-09
   50.4900017       8.65120331E-09
   50.5499992       8.45256753E-09
   50.6100006       8.23948376E-09