  -2.400000      0.0000000E+00
  -2.340000      0.0000000E+00
  -2.280000      0.0000000E+00
  -2.220000      0.0000000E+00
  -2.160000      0.0000000E+00
  -2.100000      0.0000000E+00
  -2.040000      0.0000000E+00
  -1.980000      0.0000000E+00
  -1.920000      0.0000000E+00
  -1.860000      0.0000000E+00
  -1.800000      0.0000000E+00
  -1.740000      0.0000000E+00
  -1.680000     -4.9309577E-35
  -1.620000     -6.7670909E-34
  -1.560000     -4.1594552E-33
  -1.500000     -1.3128335E-32
  -1.440000     -6.5440351E-33
  -1.380000      1.4951005E-31
  -1.320000      8.4718320E-31
  -1.260000      2.6143734E-30
  -1.200000      4.7389669E-30
  -1.140000      1.3958422E-30
  -1.080000     -2.3371569E-29
  -1.020000     -9.1771784E-29
 -0.9600000     -1.9649508E-28
 -0.9000000     -2.1095284E-28
 -0.8400000      2.2170872E-28
 -0.7800000      1.6435414E-27
 -0.7200000      4.2232069E-27
 -0.6600000      6.3704443E-27
 -0.6000000      2.9420240E-27
 -0.5400000     -1.4831134E-26
 -0.4800000     -5.3623726E-26
 -0.4200000     -1.0291770E-25
 -0.3600000     -1.1389512E-25
 -0.3000000      9.1021082E-27
 -0.2400000      3.6953393E-25
 -0.1800000      9.5986820E-25
 -0.1200000      1.4802198E-24
 -5.9999999E-02  1.2157192E-24
  0.0000000E+00 -7.9580638E-25
  5.9999999E-02 -5.0803995E-24
  0.1200000     -1.0571894E-23
  0.1800000     -1.3586061E-23
  0.2400000     -8.1211787E-24
  0.3000000      1.1273838E-23
  0.3600000      4.3957564E-23
  0.4200000      7.7269557E-23
  0.4800000      8.5088771E-23
  0.5400000      3.6288933E-23
  0.6000000     -8.5230823E-23
  0.6600000     -2.5547067E-22
  0.7200000     -3.9585906E-22
  0.7800000     -3.8817182E-22
  0.8400000     -1.2823049E-22
  0.9000000      3.9473678E-22
  0.9600000      1.0324340E-21
   1.020000      1.4775889E-21
   1.080000      1.3650017E-21
   1.140000      4.6006090E-22
   1.200000     -1.1406427E-21
   1.260000     -2.9126112E-21
   1.320000     -4.0130829E-21
   1.380000     -3.6207747E-21
   1.440000     -1.4075083E-21
   1.500000      2.0725693E-21
   1.560000      5.3416202E-21
   1.620000      6.5052145E-21
   1.680000      4.2999995E-21
   1.740000     -6.6266235E-22
   1.800000     -5.1709580E-21
   1.860000     -4.1098000E-21
   1.920000      6.8023424E-21
   1.980000      2.6624521E-20
   2.040000      4.5144060E-20
   2.100000      4.2626972E-20
   2.160000     -3.1487206E-21
   2.220000     -1.0177993E-19
   2.280000     -2.3174788E-19
   2.340000     -3.2947713E-19
   2.400000     -2.9958817E-19
   2.460000     -5.4657226E-20
   2.520000      4.2208400E-19
   2.580000      1.0174698E-18
   2.640000      1.4726478E-18
   2.700000      1.4458134E-18
   2.760000      6.5795063E-19
   2.820000     -9.2193798E-19
   2.880000     -2.9383697E-18
   2.940000     -4.6525398E-18
   3.000000     -5.1388682E-18
   3.060000     -3.6412313E-18
   3.120000      3.4407595E-20
   3.180000      5.2581857E-18
   3.240000      1.0579935E-17
   3.300000      1.4035488E-17
   3.360000      1.3683592E-17
   3.420000      8.2388140E-18
   3.480000     -2.3307572E-18
   3.540000     -1.6345382E-17
   3.600000     -3.0222208E-17
   3.660000     -3.8775461E-17
   3.720000     -3.6316948E-17
   3.780000     -1.8745430E-17
   3.840000      1.3668300E-17
   3.900000      5.3867368E-17
   3.960000      8.7684950E-17
   4.020000      9.7223805E-17
   4.080000      6.8212496E-17
   4.140000     -7.8583771E-19
   4.200000     -9.1814904E-17
   4.260000     -1.6881299E-16
   4.320000     -1.8961003E-16
   4.380000     -1.2623558E-16
   4.440000      1.4917643E-17
   4.500000      1.8480451E-16
   4.560000      3.0434124E-16
   4.620000      2.9775426E-16
   4.680000      1.3427272E-16
   4.740000     -1.4290064E-16
   4.800000     -4.2010693E-16
   4.860000     -5.5563360E-16
   4.920000     -4.4681030E-16
   4.980000     -9.0420059E-17
   5.040000      3.9758117E-16
   5.100000      8.2037910E-16
   5.160000      9.8424932E-16
   5.220000      7.8852536E-16
   5.280000      2.7434145E-16
   5.340000     -3.9541065E-16
   5.400000     -1.0138723E-15
   5.460000     -1.4193943E-15
   5.520000     -1.5414936E-15
   5.580000     -1.3774641E-15
   5.640000     -9.2468279E-16
   5.700000     -1.3445802E-16
   5.760000      1.0493071E-15
   5.820000      2.5590136E-15
   5.880000      4.0542635E-15
   5.940000      4.8840424E-15
   6.000000      4.2667819E-15
   6.060000      1.6836567E-15
   6.120000     -2.6722388E-15
   6.180000     -7.6526174E-15
   6.240000     -1.1350017E-14
   6.300000     -1.1782012E-14
   6.360000     -7.8412288E-15
   6.420000     -7.1600099E-17
   6.480000      9.1886896E-15
   6.540000      1.6521203E-14
   6.600000      1.8808866E-14
   6.660000      1.4703145E-14
   6.720000      5.4459069E-15
   6.780000     -5.4644327E-15
   6.840000     -1.3743127E-14
   6.900000     -1.6309013E-14
   6.960000     -1.2826736E-14
   7.020000     -5.9529526E-15
   7.080000     -2.3893749E-17
   7.140000      1.2811064E-15
   7.200000     -2.8436224E-15
   7.260000     -9.4528801E-15
   7.320000     -1.2974235E-14
   7.380000     -8.0203347E-15
   7.440000      7.3529948E-15
   7.500000      2.9592177E-14
   7.560000      5.0063672E-14
   7.620000      5.8151583E-14
   7.680000      4.5951656E-14
   7.740000      1.2560301E-14
   7.800000     -3.4112571E-14
   7.860000     -7.9185986E-14
   7.920000     -1.0595449E-13
   7.980000     -1.0246216E-13
   8.040000     -6.6797398E-14
   8.100000     -8.7005158E-15
   8.160000      5.3529718E-14
   8.220000      9.9875796E-14
   8.280000      1.1650800E-13
   8.340000      1.0138404E-13
   8.400000      6.4911875E-14
   8.460000      2.5043532E-14
   8.520000     -1.3470679E-15
   8.580000     -7.0463887E-15
   8.640000      1.0904552E-15
   8.700000      4.5316436E-15
   8.760000     -1.8046718E-14
   8.820000     -7.8857229E-14
   8.880000     -1.7148089E-13
   8.940000     -2.6872872E-13
   9.000000     -3.3002632E-13
   9.060000     -3.1620263E-13
   9.120000     -2.0580463E-13
   9.180000     -5.7158770E-15
   9.240000      2.4908577E-13
   9.300000      5.0696231E-13
   9.360000      7.1710118E-13
   9.420000      8.4458742E-13
   9.480000      8.7546821E-13
   9.540000      8.0937102E-13
   9.600000      6.4444435E-13
   9.660000      3.6490662E-13
   9.720000     -5.8128625E-14
   9.780000     -6.4782419E-13
   9.840000     -1.3901887E-12
   9.900000     -2.2048728E-12
   9.960000     -2.9362799E-12
   10.02000     -3.3770679E-12
   10.08000     -3.3221713E-12
   10.14000     -2.6355602E-12
   10.20000     -1.3021644E-12
   10.26000      5.5993090E-13
   10.32000      2.7359300E-12
   10.38000      4.9850050E-12
   10.44000      7.1109863E-12
   10.50000      8.9932515E-12
   10.56000      1.0551814E-11
   10.62000      1.1649946E-11
   10.68000      1.1970367E-11
   10.74000      1.0921691E-11
   10.80000      7.6289504E-12
   10.86000      1.0342350E-12
   10.92000     -9.9090814E-12
   10.98000     -2.6004377E-11
   11.04000     -4.7616279E-11
   11.10000     -7.4574069E-11
   11.16000     -1.0619881E-10
   11.22000     -1.4143185E-10
   11.28000     -1.7900612E-10
   11.34000     -2.1759294E-10
   11.40000     -2.5587896E-10
   11.46000     -2.9256969E-10
   11.52000     -3.2635658E-10
   11.58000     -3.5590647E-10
   11.64000     -3.7992104E-10
   11.70000     -3.9727746E-10
   11.76000     -4.0721571E-10
   11.82000     -4.0950385E-10
   11.88000     -4.0450970E-10
   11.94000     -3.9313477E-10
   12.00000     -3.7661865E-10
   12.06000     -3.5627176E-10
   12.12000     -3.3322389E-10
   12.18000     -3.0826977E-10
   12.24000     -2.8185471E-10
   12.30000     -2.5418723E-10
   12.36000     -2.2541534E-10
   12.42000     -1.9578181E-10
   12.48000     -1.6568641E-10
   12.54000     -1.3563008E-10
   12.60000     -1.0607350E-10
   12.66000     -7.7288086E-11
   12.72000     -4.9289007E-11
   12.78000     -2.1912083E-11
   12.84000      4.9643956E-12
   12.90000      3.1117858E-11
   12.96000      5.5709267E-11
   13.02000      7.7150480E-11
   13.08000      9.3173184E-11
   13.14000      1.0108294E-10
   13.20000      9.8105725E-11
   13.26000      8.1695671E-11
   13.32000      4.9692903E-11
   13.38000      2.9361363E-13
   13.44000     -6.8109650E-11
   13.50000     -1.5708702E-10
   13.56000     -2.6818778E-10
   13.62000     -4.0273376E-10
   13.68000     -5.6141830E-10
   13.74000     -7.4384771E-10
   13.80000     -9.4821184E-10
   13.86000     -1.1712340E-09
   13.92000     -1.4084354E-09
   13.98000     -1.6546140E-09
   14.04000     -1.9043429E-09
   14.10000     -2.1522910E-09
   14.16000     -2.3932727E-09
   14.22000     -2.6220897E-09
   14.28000     -2.8333540E-09
   14.34000     -3.0215230E-09
   14.40000     -3.1812868E-09
   14.46000     -3.3082672E-09
   14.52000     -3.3998138E-09
   14.58000     -3.4555749E-09
   14.64000     -3.4775678E-09
   14.70000     -3.4696539E-09
   14.76000     -3.4365455E-09
   14.82000     -3.3826675E-09
   14.88000     -3.3112402E-09
   14.94000     -3.2238519E-09
   15.00000     -3.1205745E-09
   15.06000     -3.0004652E-09
   15.12000     -2.8621530E-09
   15.18000     -2.7042437E-09
   15.24000     -2.5254103E-09
   15.30000     -2.3242359E-09
   15.36000     -2.0990345E-09
   15.42000     -1.8478974E-09
   15.48000     -1.5691158E-09
   15.54000     -1.2619427E-09
   15.60000     -9.2746594E-10
   15.66000     -5.6928057E-10
   15.72000     -1.9368025E-10
   15.78000      1.9074660E-10
   15.84000      5.7403204E-10
   15.90000      9.4600006E-10
   15.96000      1.2973773E-09
   16.02000      1.6205781E-09
   16.08000      1.9100443E-09
   16.14000      2.1621729E-09
   16.20000      2.3749860E-09
   16.26000      2.5477178E-09
   16.32000      2.6804607E-09
   16.38000      2.7739184E-09
   16.44000      2.8292504E-09
   16.50000      2.8479463E-09
   16.56000      2.8316951E-09
   16.62000      2.7822318E-09
   16.68000      2.7011928E-09
   16.74000      2.5900100E-09
   16.80000      2.4498614E-09
   16.86000      2.2816824E-09
   16.92000      2.0862150E-09
   16.98000      1.8640876E-09
   17.04000      1.6159162E-09
   17.10000      1.3424442E-09
   17.16000      1.0447262E-09
   17.22000      7.2435846E-10
   17.28000      3.8373696E-10
   17.34000      2.6313132E-11
   17.40000     -3.4318959E-10
   17.46000     -7.1863554E-10
   17.52000     -1.0924468E-09
   17.58000     -1.4557163E-09
   17.64000     -1.7984834E-09
   17.70000     -2.1101711E-09
   17.76000     -2.3801472E-09
   17.82000     -2.5983320E-09
   17.88000     -2.7557685E-09
   17.94000     -2.8450768E-09
   18.00000     -2.8607754E-09
   18.06000     -2.7995053E-09
   18.12000     -2.6602349E-09
   18.18000     -2.4445066E-09
   18.24000     -2.1567204E-09
   18.30000     -1.8043572E-09
   18.36000     -1.3979921E-09
   18.42000     -9.5093500E-10
   18.48000     -4.7844156E-10
   18.54000      3.4290812E-12
   18.60000      4.7907933E-10
   18.66000      9.3445462E-10
   18.72000      1.3576612E-09
   18.78000      1.7389821E-09
   18.84000      2.0703621E-09
   18.90000      2.3446358E-09
   18.96000      2.5548712E-09
   19.02000      2.6941820E-09
   19.08000      2.7561724E-09
   19.14000      2.7359477E-09
   19.20000      2.6313793E-09
   19.26000      2.4442266E-09
   19.32000      2.1807554E-09
   19.38000      1.8516966E-09
   19.44000      1.4716262E-09
   19.50000      1.0580172E-09
   19.56000      6.3024053E-10
   19.62000      2.0868551E-10
   19.68000     -1.8601178E-10
   19.74000     -5.3377114E-10
   19.80000     -8.1604962E-10
   19.86000     -1.0170322E-09
   19.92000     -1.1248974E-09
   19.98000     -1.1329099E-09
   20.04000     -1.0401066E-09
   20.10000     -8.5145963E-10
   20.16000     -5.7755767E-10
   20.22000     -2.3393465E-10
   20.28000      1.5983759E-10
   20.34000      5.8127053E-10
   20.40000      1.0063477E-09
   20.46000      1.4112171E-09
   20.52000      1.7740971E-09
   20.58000      2.0771340E-09
   20.64000      2.3078572E-09
   20.70000      2.4599245E-09
   20.76000      2.5330535E-09
   20.82000      2.5322926E-09
   20.88000      2.4669544E-09
   20.94000      2.3495523E-09
   21.00000      2.1949205E-09
   21.06000      2.0194832E-09
   21.12000      1.8404850E-09
   21.18000      1.6749993E-09
   21.24000      1.5386955E-09
   21.30000      1.4445505E-09
   21.36000      1.4018350E-09
   21.42000      1.4156719E-09
   21.48000      1.4872584E-09
   21.54000      1.6145646E-09
   21.60000      1.7931082E-09
   21.66000      2.0163866E-09
   21.72000      2.2757558E-09
   21.78000      2.5598905E-09
   21.84000      2.8542937E-09
   21.90000      3.1414440E-09
   21.96000      3.4019907E-09
   22.02000      3.6169778E-09
   22.08000      3.7705741E-09
   22.14000      3.8524530E-09
   22.20000      3.8590242E-09
   22.26000      3.7931192E-09
   22.32000      3.6623915E-09
   22.38000      3.4771972E-09
   22.44000      3.2489023E-09
   22.50000      2.9892409E-09
   22.56000      2.7107310E-09
   22.62000      2.4275466E-09
   22.68000      2.1559525E-09
   22.74000      1.9136230E-09
   22.80000      1.7177268E-09
   22.86000      1.5822996E-09
   22.92000      1.5157881E-09
   22.98000      1.5195892E-09
   23.04000      1.5879900E-09
   23.10000      1.7093755E-09
   23.16000      1.8682103E-09
   23.22000      2.0472213E-09
   23.28000      2.2293807E-09
   23.34000      2.3995219E-09
   23.40000      2.5455666E-09
   23.46000      2.6593392E-09
   23.52000      2.7368865E-09
   23.58000      2.7782232E-09
   23.64000      2.7865428E-09
   23.70000      2.7671261E-09
   23.76000      2.7263019E-09
   23.82000      2.6707678E-09
   23.88000      2.6073670E-09
   23.94000      2.5431248E-09
   24.00000      2.4851876E-09
   24.06000      2.4403355E-09
   24.12000      2.4139677E-09
   24.18000      2.4087821E-09
   24.24000      2.4235849E-09
   24.30000      2.4527302E-09
   24.36000      2.4865150E-09
   24.42000      2.5125886E-09
   24.48000      2.5181199E-09
   24.54000      2.4922302E-09
   24.60000      2.4280962E-09
   24.66000      2.3241800E-09
   24.72000      2.1842506E-09
   24.78000      2.0161852E-09
   24.84000      1.8299013E-09
   24.90000      1.6350473E-09
   24.96000      1.4391712E-09
   25.02000      1.2469432E-09
   25.08000      1.0606431E-09
   25.14000      8.8168306E-10
   25.20000      7.1255740E-10
   25.26000      5.5843519E-10
   25.32000      4.2769971E-10
   25.38000      3.3107175E-10
   25.44000      2.7943634E-10
   25.50000      2.8099401E-10
   25.56000      3.3870831E-10
   25.62000      4.4907647E-10
   25.68000      6.0291483E-10
   25.74000      7.8816814E-10
   25.80000      9.9392961E-10
   25.86000      1.2142349E-09
   25.92000      1.4500896E-09
   25.98000      1.7087612E-09
   26.04000      2.0004374E-09
   26.10000      2.3334903E-09
   26.16000      2.7102576E-09
   26.22000      3.1250873E-09
   26.28000      3.5654550E-09
   26.34000      4.0156576E-09
   26.40000      4.4615005E-09
   26.46000      4.8940523E-09
   26.52000      5.3110267E-09
   26.58000      5.7153926E-09
   26.64000      6.1119141E-09
   26.70000      6.5030727E-09
   26.76000      6.8858905E-09
   26.82000      7.2507769E-09
   26.88000      7.5827504E-09
   26.94000      7.8646227E-09
   27.00000      8.0811082E-09
   27.06000      8.2225249E-09
   27.12000      8.2868370E-09
   27.18000      8.2792591E-09
   27.24000      8.2095264E-09
   27.30000      8.0877696E-09
   27.36000      7.9206020E-09
   27.42000      7.7089757E-09
   27.48000      7.4486759E-09
   27.54000      7.1331692E-09
   27.60000      6.7575048E-09
   27.66000      6.3215646E-09
   27.72000      5.8313501E-09
   27.78000      5.2979967E-09
   27.84000      4.7352566E-09
   27.90000      4.1567145E-09
   27.96000      3.5738730E-09
   28.02000      2.9955953E-09
   28.08000      2.4286546E-09
   28.14000      1.8787722E-09
   28.20000      1.3515532E-09
   28.26000      8.5302865E-10
   28.32000      3.8977876E-10
   28.38000     -3.1303505E-11
   28.44000     -4.0358672E-10
   28.50000     -7.2157302E-10
   28.56000     -9.8186570E-10
   28.62000     -1.1838196E-09
   28.68000     -1.3294386E-09
   28.74000     -1.4223969E-09
   28.80000     -1.4665883E-09
   28.86000     -1.4650237E-09
   28.92000     -1.4198386E-09
   28.98000     -1.3335686E-09
   29.04000     -1.2110163E-09
   29.10000     -1.0604968E-09
   29.16000     -8.9342866E-10
   29.22000     -7.2209527E-10
   29.28000     -5.5647814E-10
   29.34000     -4.0170173E-10
   29.40000     -2.5742108E-10
   29.46000     -1.1954232E-10
   29.52000      1.6479368E-11
   29.58000      1.5222430E-10
   29.64000      2.8416924E-10
   29.70000      4.0351852E-10
   29.76000      4.9783366E-10
   29.82000      5.5370336E-10
   29.88000      5.5956445E-10
   29.94000      5.0795262E-10
   30.00000      3.9668088E-10
   30.06000      2.2860296E-10
   30.12000      9.8292771E-12
   30.18000     -2.5330554E-10
   30.24000     -5.5758825E-10
   30.30000     -9.0513153E-10
   30.36000     -1.3030410E-09
   30.42000     -1.7600277E-09
   30.48000     -2.2808908E-09
   30.54000     -2.8611067E-09
   30.60000     -3.4841106E-09
   30.66000     -4.1229304E-09
   30.72000     -4.7459325E-09
   30.78000     -5.3245528E-09
   30.84000     -5.8399561E-09
   30.90000     -6.2860868E-09
   30.96000     -6.6682269E-09
   31.02000     -6.9980657E-09
   31.08000     -7.2874795E-09
   31.14000     -7.5433055E-09
   31.20000     -7.7645659E-09
   31.26000     -7.9424494E-09
   31.32000     -8.0625568E-09
   31.38000     -8.1085512E-09
   31.44000     -8.0663636E-09
   31.50000     -7.9281115E-09
   31.56000     -7.6948323E-09
   31.62000     -7.3771602E-09
   31.68000     -6.9934751E-09
   31.74000     -6.5658678E-09
   31.80000     -6.1152265E-09
   31.86000     -5.6572831E-09
   31.92000     -5.2011759E-09
   31.98000     -4.7510138E-09
   32.04000     -4.3095372E-09
   32.10000     -3.8820360E-09
   32.16000     -3.4786403E-09
   32.22000     -3.1139733E-09
   32.28000     -2.8043949E-09
   32.34000     -2.5640492E-09
   32.40000     -2.4012157E-09
   32.46000     -2.3160913E-09
   32.52000     -2.3004643E-09
   32.58000     -2.3391782E-09
   32.64000     -2.4129949E-09
   32.70000     -2.5023579E-09
   32.76000     -2.5913949E-09
   32.82000     -2.6712812E-09
   32.88000     -2.7419214E-09
   32.94000     -2.8111478E-09
   33.00000     -2.8913654E-09
   33.06000     -2.9945824E-09
   33.12000     -3.1275880E-09
   33.18000     -3.2891470E-09
   33.24000     -3.4703453E-09
   33.30000     -3.6579175E-09
   33.36000     -3.8391632E-09
   33.42000     -4.0064876E-09
   33.48000     -4.1599031E-09
   33.54000     -4.3068149E-09
   33.60000     -4.4594861E-09
   33.66000     -4.6313255E-09
   33.72000     -4.8332822E-09
   33.78000     -5.0713438E-09
   33.84000     -5.3456528E-09
   33.90000     -5.6513354E-09
   33.96000     -5.9808132E-09
   34.02000     -6.3270518E-09
   34.08000     -6.6869044E-09
   34.14000     -7.0634543E-09
   34.20000     -7.4663502E-09
   34.26000     -7.9096472E-09
   34.32000     -8.4075529E-09
   34.38000     -8.9694021E-09
   34.44000     -9.5956230E-09
   34.50000     -1.0276284E-08
   34.56000     -1.0992770E-08
   34.62000     -1.1722006E-08
   34.68000     -1.2441617E-08
   34.74000     -1.3134176E-08
   34.80000     -1.3789146E-08
   34.86000     -1.4402113E-08
   34.92000     -1.4971860E-08
   34.98000     -1.5496553E-08
   35.04000     -1.5970368E-08
   35.10000     -1.6381689E-08
   35.16000     -1.6713356E-08
   35.22000     -1.6945013E-08
   35.28000     -1.7056941E-08
   35.34000     -1.7034465E-08
   35.40000     -1.6871709E-08
   35.46000     -1.6573535E-08
   35.52000     -1.6154823E-08
   35.58000     -1.5637013E-08
   35.64000     -1.5042744E-08
   35.70000     -1.4390178E-08
   35.76000     -1.3688944E-08
   35.82000     -1.2939210E-08
   35.88000     -1.2134339E-08
   35.94000     -1.1266263E-08
   36.00000     -1.0331594E-08
   36.06000     -9.3360883E-09
   36.12000     -8.2956531E-09
   36.18000     -7.2333521E-09
   36.24000     -6.1735186E-09
   36.30000     -5.1352802E-09
   36.36000     -4.1281516E-09
   36.42000     -3.1515555E-09
   36.48000     -2.1985611E-09
   36.54000     -1.2623487E-09
   36.60000     -3.4271858E-10
   36.66000      5.5009153E-10
   36.72000      1.3959256E-09
   36.78000      2.1693844E-09
   36.84000      2.8467528E-09
   36.90000      3.4123833E-09
   36.96000      3.8620711E-09
   37.02000      4.2023074E-09
   37.08000      4.4460453E-09
   37.14000      4.6069646E-09
   37.20000      4.6946567E-09
   37.26000      4.7125277E-09
   37.32000      4.6589368E-09
   37.38000      4.5307438E-09
   37.44000      4.3275681E-09
   37.50000      4.0549266E-09
   37.56000      3.7250143E-09
   37.62000      3.3548493E-09
   37.68000      2.9624949E-09
   37.74000      2.5627471E-09
   37.80000      2.1638438E-09
   37.86000      1.7663908E-09
   37.92000      1.3649301E-09
   37.98000      9.5163044E-10
   38.04000      5.2080801E-10
   38.10000      7.2654605E-11
   38.16000     -3.8517245E-10
   38.22000     -8.3864643E-10
   38.28000     -1.2707032E-09
   38.34000     -1.6655514E-09
   38.40000     -2.0124169E-09
   38.46000     -2.3074944E-09
   38.52000     -2.5536147E-09
   38.58000     -2.7579712E-09
   38.64000     -2.9288589E-09
   38.70000     -3.0726039E-09
   38.76000     -3.1916991E-09
   38.82000     -3.2847240E-09
   38.88000     -3.3480529E-09
   38.94000     -3.3787613E-09
   39.00000     -3.3776544E-09
   39.06000     -3.3511456E-09
   39.12000     -3.3109337E-09
   39.18000     -3.2711696E-09
   39.24000     -3.2438137E-09
   39.30000     -3.2338467E-09
   39.36000     -3.2363483E-09
   39.42000     -3.2369678E-09
   39.48000     -3.2160450E-09
   39.54000     -3.1551104E-09
   39.60000     -3.0434080E-09
   39.66000     -2.8819591E-09
   39.72000     -2.6836220E-09
   39.78000     -2.4691627E-09
   39.84000     -2.2608768E-09
   39.90000     -2.0761166E-09
   39.96000     -1.9229569E-09
   40.02000     -1.7992927E-09
   40.08000     -1.6953896E-09
   40.14000     -1.5987768E-09
   40.20000     -1.4997148E-09
   40.26000     -1.3954236E-09
   40.32000     -1.2917019E-09
   40.38000     -1.2013960E-09
   40.44000     -1.1401224E-09
   40.50000     -1.1205356E-09
   40.56000     -1.1469627E-09
   40.62000     -1.2122157E-09
   40.68000     -1.2977852E-09
   40.74000     -1.3775640E-09
   40.80000     -1.4240741E-09
   40.86000     -1.4153290E-09
   40.92000     -1.3402124E-09
   40.98000     -1.2007199E-09
   41.04000     -1.0103899E-09
   41.10000     -7.8945145E-10
   41.16000     -5.5824334E-10
   41.22000     -3.3102876E-10
   41.28000     -1.1224394E-10
   41.34000      1.0353036E-10
   41.40000      3.2783082E-10
   41.46000      5.7213295E-10
   41.52000      8.4154678E-10
   41.58000      1.1308621E-09
   41.64000      1.4246035E-09
   41.70000      1.7011894E-09
   41.76000      1.9396247E-09
   41.82000      2.1261315E-09
   41.88000      2.2581779E-09
   41.94000      2.3444870E-09
   42.00000      2.4012656E-09
   42.06000      2.4462834E-09
   42.12000      2.4930595E-09
   42.18000      2.5470768E-09
   42.24000      2.6049993E-09
   42.30000      2.6567879E-09
   42.36000      2.6897626E-09
   42.42000      2.6932419E-09
   42.48000      2.6623312E-09
   42.54000      2.5996838E-09
   42.60000      2.5145961E-09
   42.66000      2.4196412E-09
   42.72000      2.3259654E-09
   42.78000      2.2390756E-09
   42.84000      2.1569337E-09
   42.90000      2.0713207E-09
   42.96000      1.9719790E-09
   43.02000      1.8516869E-09
   43.08000      1.7099082E-09
   43.14000      1.5533448E-09
   43.20000      1.3932538E-09
   43.26000      1.2409597E-09
   43.32000      1.1037280E-09
   43.38000      9.8274511E-10
   43.44000      8.7369362E-10
   43.50000      7.6914969E-10
   43.56000      6.6143663E-10
   43.62000      5.4484656E-10
   43.68000      4.1686751E-10
   43.74000      2.7861535E-10
   43.80000      1.3471445E-10
   43.86000     -7.4551346E-12
   43.92000     -1.3943063E-10
   43.98000     -2.5425162E-10
   44.04000     -3.4924397E-10
   44.10000     -4.2770507E-10
   44.16000     -4.9831733E-10
   44.22000     -5.7209398E-10
   44.28000     -6.5801120E-10
   44.34000     -7.5936413E-10
   44.40000     -8.7267304E-10
   44.46000     -9.8969388E-10
   44.52000     -1.1014823E-09
   44.58000     -1.2024560E-09
   44.64000     -1.2925737E-09
   44.70000     -1.3768929E-09
   44.76000     -1.4631478E-09
   44.82000     -1.5587737E-09
   44.88000     -1.6686621E-09
   44.94000     -1.7941719E-09
   45.00000     -1.9331698E-09
   45.06000     -2.0806166E-09
   45.12000     -2.2294391E-09
   45.18000     -2.3717248E-09
   45.24000     -2.5002631E-09
   45.30000     -2.6100435E-09
   45.36000     -2.6989619E-09
   45.42000     -2.7670830E-09
   45.48000     -2.8145526E-09
   45.54000     -2.8392120E-09
   45.60000     -2.8354521E-09
   45.66000     -2.7953833E-09
   45.72000     -2.7120903E-09
   45.78000     -2.5833746E-09
   45.84000     -2.4138216E-09
   45.90000     -2.2137432E-09
   45.96000     -1.9952004E-09
   46.02000     -1.7669404E-09
   46.08000     -1.5307686E-09
   46.14000     -1.2811888E-09
   46.20000     -1.0085112E-09
   46.26000     -7.0396250E-10
   46.32000     -3.6449521E-10
   46.38000      4.7039499E-12
   46.44000      3.9087006E-10
   46.50000      7.7704482E-10
   46.56000      1.1468626E-09
   46.62000      1.4891385E-09
   46.68000      1.8008915E-09
   46.74000      2.0879409E-09
   46.80000      2.3628601E-09
   46.86000      2.6408014E-09
   46.92000      2.9344389E-09
   46.98000      3.2497571E-09
   47.04000      3.5843182E-09
   47.10000      3.9288031E-09
   47.16000      4.2712918E-09
   47.22000      4.6024780E-09
   47.28000      4.9195537E-09
   47.34000      5.2270939E-09
   47.40000      5.5346936E-09
   47.46000      5.8525949E-09
   47.52000      6.1873178E-09
   47.58000      6.5390275E-09
   47.64000      6.9013235E-09
   47.70000      7.2630044E-09
   47.76000      7.6107405E-09
   47.82000      7.9316980E-09
   47.88000      8.2156495E-09
   47.94000      8.4565057E-09
   48.00000      8.6532328E-09
   48.06000      8.8098719E-09
   48.12000      8.9343173E-09
   48.18000      9.0357846E-09
   48.24000      9.1216013E-09
   48.30000      9.1945020E-09
   48.36000      9.2516315E-09
   48.42000      9.2857571E-09
   48.48000      9.2882004E-09
   48.54000      9.2521786E-09
   48.60000      9.1751593E-09
   48.66000      9.0594536E-09
   48.72000      8.9111252E-09
   48.78000      8.7379410E-09
   48.84000      8.5471612E-09
   48.90000      8.3436369E-09
   48.96000      8.1283913E-09
   49.02000      7.8978148E-09
   49.08000      7.6438091E-09
   49.14000      7.3553750E-09
   49.20000      7.0217632E-09
   49.26000      6.6365855E-09
   49.32000      6.2014478E-09
   49.38000      5.7274177E-09
   49.44000      5.2332538E-09
   49.50000      4.7406741E-09
   49.56000      4.2683328E-09
   49.62000      3.8269090E-09
   49.68000      3.4172969E-09
   49.74000      3.0325724E-09
   49.80000      2.6627598E-09
   49.86000      2.3002771E-09
   49.92000      1.9437607E-09
   49.98000      1.5988214E-09
   50.04000      1.2756831E-09
   50.10000      9.8500164E-10
   50.16000      7.3387774E-10
   50.22000      5.2389054E-10
   50.28000      3.5201814E-10
   50.34000      2.1400717E-10
   50.40000      1.0866596E-10
   50.46000      4.1191162E-11
   50.52000      2.4139513E-11
   50.58000      7.5794794E-11
   50.64000      2.1687656E-10
   50.70000      4.6720172E-10
   50.76000      8.4373092E-10
   50.82000      1.3605869E-09
   50.88000      2.0306266E-09
   50.94000      2.8675695E-09
   51.00000      3.8877568E-09
   51.06000      5.1111440E-09
   51.12000      6.5616943E-09
   51.18000      8.2675289E-09
   51.24000      1.0261020E-08
   51.30000      1.2578731E-08
   51.36000      1.5261078E-08
   51.42000      1.8351857E-08
   51.48000      2.1898039E-08
   51.54000      2.5950287E-08
   51.60000      3.0564205E-08
   51.66000      3.5801733E-08
   51.72000      4.1731891E-08
   51.78000      4.8430305E-08
   51.84000      5.5977733E-08
   51.90000      6.4458440E-08
   51.96000      7.3959228E-08
   52.02000      8.4569621E-08
   52.08000      9.6382436E-08
   52.14000      1.0949407E-07
   52.20000      1.2400349E-07
   52.26000      1.4001031E-07
   52.32000      1.5761218E-07
   52.38000      1.7690249E-07
   52.44000      1.9796836E-07
   52.50000      2.2088850E-07
   52.56000      2.4573018E-07
   52.62000      2.7254538E-07
   52.68000      3.0136653E-07
   52.74000      3.3220260E-07
   52.80000      3.6503579E-07
   52.86000      3.9981865E-07
   52.92000      4.3647057E-07
   52.98000      4.7487276E-07
   53.04000      5.1486211E-07
   53.10000      5.5622462E-07
   53.16000      5.9868972E-07
   53.22000      6.4192568E-07
   53.28000      6.8553470E-07
   53.34000      7.2904862E-07
   53.40000      7.7192351E-07
   53.46000      8.1353477E-07
   53.52000      8.5317356E-07
   53.58000      8.9004595E-07
   53.64000      9.2327269E-07
   53.70000      9.5188972E-07
   53.76000      9.7484849E-07
   53.82000      9.9101624E-07
   53.88000      9.9917997E-07
   53.94000      9.9805391E-07
   54.00000      9.8629289E-07
   54.06000      9.6250687E-07
   54.12000      9.2527455E-07
   54.18000      8.7315402E-07
   54.24000      8.0469135E-07
   54.30000      7.1843141E-07
   54.36000      6.1293554E-07
   54.42000      4.8680533E-07
   54.48000      3.3871120E-07
   54.54000      1.6742088E-07
   54.60000     -2.8176327E-08
   54.66000     -2.4904799E-07
   54.72000     -4.9599720E-07
   54.78000     -7.6963721E-07
   54.84000     -1.0703628E-06
   54.90000     -1.3983203E-06
   54.96000     -1.7533819E-06
   55.02000     -2.1351270E-06
   55.08000     -2.5428285E-06
   55.14000     -2.9754415E-06
   55.20000     -3.4315858E-06
   55.26000     -3.9095294E-06
   55.32000     -4.4071721E-06
   55.38000     -4.9220421E-06
   55.44000     -5.4512966E-06
   55.50000     -5.9917443E-06
   55.56000     -6.5398585E-06