  -2.400000      0.0000000E+00
  -2.340000      0.0000000E+00
  -2.280000      0.0000000E+00
  -2.220000      0.0000000E+00
  -2.160000      0.0000000E+00
  -2.100000      0.0000000E+00
  -2.040000      0.0000000E+00
  -1.980000      0.0000000E+00
  -1.920000      0.0000000E+00
  -1.860000      0.0000000E+00
  -1.800000      0.0000000E+00
  -1.740000      0.0000000E+00
  -1.680000      1.5191735E-35
  -1.620000      2.0892596E-34
  -1.560000      1.2983358E-33
  -1.500000      4.2409614E-33
  -1.440000      3.2225524E-33
  -1.380000     -4.2003710E-32
  -1.320000     -2.5809464E-31
  -1.260000     -8.5358043E-31
  -1.200000     -1.7728409E-30
  -1.140000     -1.5517396E-30
  -1.080000      4.5938094E-30
  -1.020000      2.5239025E-29
 -0.9600000      6.5601838E-29
 -0.9000000      1.0464235E-28
 -0.8400000      5.8485539E-29
 -0.7800000     -2.3407760E-28
 -0.7200000     -9.1944464E-28
 -0.6600000     -1.8409421E-27
 -0.6000000     -2.1158863E-27
 -0.5400000     -1.5188260E-29
 -0.4800000      6.0121012E-27
 -0.4200000      1.4551176E-26
 -0.3600000      1.7802088E-26
 -0.3000000      1.9925242E-27
 -0.2400000     -4.1460606E-26
 -0.1800000     -9.1171749E-26
 -0.1200000     -7.0637305E-26
 -5.9999999E-02  1.3885628E-25
  0.0000000E+00  5.9587309E-25
  5.9999999E-02  1.0933021E-24
  0.1200000      9.5354321E-25
  0.1800000     -9.0592974E-25
  0.2400000     -5.2906779E-24
  0.3000000     -1.1314850E-23
  0.3600000     -1.4813341E-23
  0.4200000     -8.0696850E-24
  0.4800000      1.7162044E-23
  0.5400000      6.2327282E-23
  0.6000000      1.1244722E-22
  0.6600000      1.3049383E-22
  0.7200000      6.4786862E-23
  0.7800000     -1.2428114E-22
  0.8400000     -4.2235964E-22
  0.9000000     -7.2380606E-22
  0.9600000     -8.3013991E-22
   1.020000     -5.1088778E-22
   1.080000      3.7414466E-22
   1.140000      1.7348255E-21
   1.200000      3.1699033E-21
   1.260000      4.0169260E-21
   1.320000      3.5476856E-21
   1.380000      1.2412514E-21
   1.440000     -2.9836453E-21
   1.500000     -8.6585316E-21
   1.560000     -1.4740825E-20
   1.620000     -1.9534558E-20
   1.680000     -2.0472021E-20
   1.740000     -1.3965907E-20
   1.800000      4.0545098E-21
   1.860000      3.6158294E-20
   1.920000      7.9741342E-20
   1.980000      1.2277458E-19
   2.040000      1.4175133E-19
   2.100000      1.0548640E-19
   2.160000     -1.2780477E-20
   2.220000     -2.1632338E-19
   2.280000     -4.6562519E-19
   2.340000     -6.6985577E-19
   2.400000     -7.0024251E-19
   2.460000     -4.3040141E-19
   2.520000      2.0251612E-19
   2.580000      1.1343863E-18
   2.640000      2.1350619E-18
   2.700000      2.8201007E-18
   2.760000      2.7298885E-18
   2.820000      1.4754210E-18
   2.880000     -1.0719495E-18
   2.940000     -4.5936317E-18
   3.000000     -8.2100124E-18
   3.060000     -1.0525250E-17
   3.120000     -9.9080761E-18
   3.180000     -5.0350591E-18
   3.240000      4.3821390E-18
   3.300000      1.6906118E-17
   3.360000      2.9063328E-17
   3.420000      3.5775078E-17
   3.480000      3.1726727E-17
   3.540000      1.3513921E-17
   3.600000     -1.8050476E-17
   3.660000     -5.6439109E-17
   3.720000     -8.9720754E-17
   3.780000     -1.0323939E-16
   3.840000     -8.4375083E-17
   3.900000     -2.8118562E-17
   3.960000      5.8513182E-17
   4.020000      1.5525108E-16
   4.080000      2.3183218E-16
   4.140000      2.5567195E-16
   4.200000      2.0231881E-16
   4.260000      6.5825021E-17
   4.320000     -1.3432533E-16
   4.380000     -3.5265555E-16
   4.440000     -5.2512019E-16
   4.500000     -5.8417618E-16
   4.560000     -4.7888776E-16
   4.620000     -1.9530851E-16
   4.680000      2.2904205E-16
   4.740000      7.0277969E-16
   4.800000      1.0944929E-15
   4.860000      1.2628860E-15
   4.920000      1.0979214E-15
   4.980000      5.6260140E-16
   5.040000     -2.7767961E-16
   5.100000     -1.2501726E-15
   5.160000     -2.1009242E-15
   5.220000     -2.5506813E-15
   5.280000     -2.3704842E-15
   5.340000     -1.4598542E-15
   5.400000      9.3257348E-17
   5.460000      1.9913789E-15
   5.520000      3.7612765E-15
   5.580000      4.8488494E-15
   5.640000      4.7660757E-15
   5.700000      3.2609767E-15
   5.760000      4.6181554E-16
   5.820000     -3.0637635E-15
   5.880000     -6.3846646E-15
   5.940000     -8.4320156E-15
   6.000000     -8.3327603E-15
   6.060000     -5.7507074E-15
   6.120000     -1.1022589E-15
   6.180000      4.4665779E-15
   6.240000      9.3779337E-15
   6.300000      1.2118083E-14
   6.360000      1.1755683E-14
   6.420000      8.2730436E-15
   6.480000      2.5642192E-15
   6.540000     -3.9034560E-15
   6.600000     -9.6087883E-15
   6.660000     -1.3430655E-14
   6.720000     -1.4827363E-14
   6.780000     -1.3693436E-14
   6.840000     -1.0051204E-14
   6.900000     -3.8627337E-15
   6.960000      4.7994467E-15
   7.020000      1.5215742E-14
   7.080000      2.5418961E-14
   7.140000      3.2035227E-14
   7.200000      3.1002517E-14
   7.260000      1.9217229E-14
   7.320000     -3.4071293E-15
   7.380000     -3.2448982E-14
   7.440000     -5.9096425E-14
   7.500000     -7.2418329E-14
   7.560000     -6.3395232E-14
   7.620000     -2.9318341E-14
   7.680000      2.3390136E-14
   7.740000      7.9609503E-14
   7.800000      1.1973770E-13
   7.860000      1.2659851E-13
   7.920000      9.2529825E-14
   7.980000      2.3653395E-14
   8.040000     -6.0862922E-14
   8.100000     -1.3481757E-13
   8.160000     -1.7424616E-13
   8.220000     -1.6631096E-13
   8.280000     -1.1403836E-13
   8.340000     -3.4718644E-14
   8.400000      4.7490671E-14
   8.460000      1.1152923E-13
   8.520000      1.4738354E-13
   8.580000      1.5819732E-13
   8.640000      1.5542166E-13
   8.700000      1.4938795E-13
   8.760000      1.4031842E-13
   8.820000      1.1512004E-13
   8.880000      5.2886999E-14
   8.940000     -6.2262349E-14
   9.000000     -2.2663218E-13
   9.060000     -4.0832892E-13
   9.120000     -5.5069388E-13
   9.180000     -5.8905566E-13
   9.240000     -4.7579941E-13
   9.300000     -2.0391947E-13
   9.360000      1.8165427E-13
   9.420000      5.9165222E-13
   9.480000      9.1809253E-13
   9.540000      1.0690525E-12
   9.600000      9.9900275E-13
   9.660000      7.2224968E-13
   9.720000      3.0397253E-13
   9.780000     -1.6673339E-13
   9.840000     -6.0901777E-13
   9.900000     -9.7226426E-13
   9.960000     -1.2375386E-12
   10.02000     -1.3989103E-12
   10.08000     -1.4366625E-12
   10.14000     -1.3008108E-12
   10.20000     -9.2039061E-13
   10.26000     -2.4173350E-13
   10.32000      7.1768009E-13
   10.38000      1.8262412E-12
   10.44000      2.8344948E-12
   10.50000      3.4267502E-12
   10.56000      3.3209433E-12
   10.62000      2.3850845E-12
   10.68000      7.2421187E-13
   10.74000     -1.3039912E-12
   10.80000     -3.1630460E-12
   10.86000     -4.2841950E-12
   10.92000     -4.2372048E-12
   10.98000     -2.8634139E-12
   11.04000     -3.2103248E-13
   11.10000      2.9729489E-12
   11.16000      6.4773386E-12
   11.22000      9.6790388E-12
   11.28000      1.2198368E-11
   11.34000      1.3806708E-11
   11.40000      1.4359775E-11
   11.46000      1.3693480E-11
   11.52000      1.1551409E-11
   11.58000      7.6006545E-12
   11.64000      1.5495378E-12
   11.70000     -6.6748451E-12
   11.76000     -1.6772864E-11
   11.82000     -2.8031202E-11
   11.88000     -3.9445003E-11
   11.94000     -4.9985693E-11
   12.00000     -5.8926662E-11
   12.06000     -6.6099834E-11
   12.12000     -7.1969306E-11
   12.18000     -7.7473354E-11
   12.24000     -8.3678980E-11
   12.30000     -9.1374547E-11
   12.36000     -1.0075886E-10
   12.42000     -1.1135061E-10
   12.48000     -1.2215173E-10
   12.54000     -1.3198853E-10
   12.60000     -1.3987479E-10
   12.66000     -1.4523087E-10
   12.72000     -1.4786011E-10
   12.78000     -1.4770525E-10
   12.84000     -1.4452688E-10
   12.90000     -1.3770816E-10
   12.96000     -1.2635863E-10
   13.02000     -1.0976899E-10
   13.08000     -8.8107785E-11
   13.14000     -6.3115700E-11
   13.20000     -3.8511038E-11
   13.26000     -1.9895238E-11
   13.32000     -1.4117161E-11
   13.38000     -2.8253540E-11
   13.44000     -6.8506381E-11
   13.50000     -1.3934558E-10
   13.56000     -2.4312213E-10
   13.62000     -3.8018677E-10
   13.68000     -5.4935256E-10
   13.74000     -7.4842288E-10
   13.80000     -9.7451702E-10
   13.86000     -1.2240643E-09
   13.92000     -1.4925269E-09
   13.98000     -1.7740800E-09
   14.04000     -2.0615316E-09
   14.10000     -2.3466740E-09
   14.16000     -2.6210816E-09
   14.22000     -2.8771532E-09
   14.28000     -3.1090808E-09
   14.34000     -3.3134244E-09
   14.40000     -3.4891385E-09
   14.46000     -3.6371028E-09
   14.52000     -3.7594163E-09
   14.58000     -3.8587622E-09
   14.64000     -3.9380779E-09
   14.70000     -4.0005572E-09
   14.76000     -4.0497881E-09
   14.82000     -4.0897135E-09
   14.88000     -4.1241455E-09
   14.94000     -4.1557571E-09
   15.00000     -4.1847623E-09
   15.06000     -4.2077049E-09
   15.12000     -4.2168571E-09
   15.18000     -4.2005697E-09
   15.24000     -4.1446464E-09
   15.30000     -4.0344590E-09
   15.36000     -3.8572976E-09
   15.42000     -3.6043828E-09
   15.48000     -3.2721190E-09
   15.54000     -2.8624514E-09
   15.60000     -2.3824860E-09
   15.66000     -1.8437152E-09
   15.72000     -1.2612056E-09
   15.78000     -6.5295180E-10
   15.84000     -3.9353673E-11
   15.90000      5.5742017E-10
   15.96000      1.1144755E-09
   16.02000      1.6098102E-09
   16.08000      2.0244053E-09
   16.14000      2.3444011E-09
   16.20000      2.5627793E-09
   16.26000      2.6800222E-09
   16.32000      2.7034470E-09
   16.38000      2.6453293E-09
   16.44000      2.5203020E-09
   16.50000      2.3427498E-09
   16.56000      2.1248991E-09
   16.62000      1.8760460E-09
   16.68000      1.6029633E-09
   16.74000      1.3111643E-09
   16.80000      1.0064595E-09
   16.86000      6.9623662E-10
   16.92000      3.9006992E-10
   16.98000      9.9527428E-11
   17.04000     -1.6268932E-10
   17.10000     -3.8398226E-10
   17.16000     -5.5313437E-10
   17.22000     -6.6134959E-10
   17.28000     -7.0288536E-10
   17.34000     -6.7522404E-10
   17.40000     -5.7883093E-10
   17.46000     -4.1661530E-10
   17.52000     -1.9325881E-10
   17.58000      8.5415175E-11
   17.64000      4.1288217E-10
   17.70000      7.8208234E-10
   17.76000      1.1853214E-09
   17.82000      1.6140129E-09
   17.88000      2.0584421E-09
   17.94000      2.5077487E-09
   18.00000      2.9502785E-09
   18.06000      3.3743444E-09
   18.12000      3.7692960E-09
   18.18000      4.1266639E-09
   18.24000      4.4410720E-09
   18.30000      4.7106479E-09
   18.36000      4.9367768E-09
   18.42000      5.1232685E-09
   18.48000      5.2752092E-09
   18.54000      5.3978990E-09
   18.60000      5.4962341E-09
   18.66000      5.5747158E-09
   18.72000      5.6379621E-09
   18.78000      5.6913434E-09
   18.84000      5.7412510E-09
   18.90000      5.7945888E-09
   18.96000      5.8573915E-09
   19.02000      5.9328107E-09
   19.08000      6.0190315E-09
   19.14000      6.1077827E-09
   19.20000      6.1840160E-09
   19.26000      6.2270051E-09
   19.32000      6.2127703E-09
   19.38000      6.1173613E-09
   19.44000      5.9203318E-09
   19.50000      5.6076743E-09
   19.56000      5.1736366E-09
   19.62000      4.6211071E-09
   19.68000      3.9606181E-09
   19.74000      3.2083685E-09
   19.80000      2.3838693E-09
   19.86000      1.5078678E-09
   19.92000      6.0103461E-10
   19.98000     -3.1641767E-10
   20.04000     -1.2243420E-09
   20.10000     -2.1018891E-09
   20.16000     -2.9268381E-09
   20.22000     -3.6754109E-09
   20.28000     -4.3227977E-09
   20.34000     -4.8444360E-09
   20.40000     -5.2179594E-09
   20.46000     -5.4256222E-09
   20.52000     -5.4568852E-09
   20.58000     -5.3107310E-09
   20.64000     -4.9971547E-09
   20.70000     -4.5373492E-09
   20.76000     -3.9622816E-09
   20.82000     -3.3098015E-09
   20.88000     -2.6208327E-09
   20.94000     -1.9355102E-09
   21.00000     -1.2901192E-09
   21.06000     -7.1537259E-10
   21.12000     -2.3604205E-10
   21.18000      1.2852221E-10
   21.24000      3.6371101E-10
   21.30000      4.5946894E-10
   21.36000      4.1091730E-10
   21.42000      2.1965911E-10
   21.48000     -1.0472957E-10
   21.54000     -5.4369398E-10
   21.60000     -1.0697989E-09
   21.66000     -1.6483154E-09
   21.72000     -2.2403299E-09
   21.78000     -2.8070164E-09
   21.84000     -3.3143490E-09
   21.90000     -3.7372860E-09
   21.96000     -4.0624264E-09
   22.02000     -4.2883777E-09
   22.08000     -4.4236361E-09
   22.14000     -4.4824557E-09
   22.20000     -4.4798454E-09
   22.26000     -4.4271857E-09
   22.32000     -4.3298258E-09
   22.38000     -4.1874171E-09
   22.44000     -3.9968162E-09
   22.50000     -3.7564702E-09
   22.56000     -3.4706047E-09
   22.62000     -3.1515099E-09
   22.68000     -2.8188185E-09
   22.74000     -2.4957016E-09
   22.80000     -2.2030582E-09
   22.86000     -1.9536210E-09
   22.92000     -1.7481084E-09
   22.98000     -1.5750043E-09
   23.04000     -1.4143737E-09
   23.10000     -1.2446985E-09
   23.16000     -1.0505719E-09
   23.22000     -8.2865032E-10
   23.28000     -5.8975602E-10
   23.34000     -3.5629977E-10
   23.40000     -1.5583235E-10
   23.46000     -1.2911570E-11
   23.52000      5.7902395E-11
   23.58000      5.5503244E-11
   23.64000     -9.0088527E-12
   23.70000     -1.1774592E-10
   23.76000     -2.5359442E-10
   23.82000     -4.0712916E-10
   23.88000     -5.8032801E-10
   23.94000     -7.8569506E-10
   24.00000     -1.0410633E-09
   24.06000     -1.3619251E-09
   24.12000     -1.7540681E-09
   24.18000     -2.2092450E-09
   24.24000     -2.7055740E-09
   24.30000     -3.2127221E-09
   24.36000     -3.7002206E-09
   24.42000     -4.1461155E-09
   24.48000     -4.5429651E-09
   24.54000     -4.8990572E-09
   24.60000     -5.2343134E-09
   24.66000     -5.5721951E-09
   24.72000     -5.9303162E-09
   24.78000     -6.3129693E-09
   24.84000     -6.7081576E-09
   24.90000     -7.0902053E-09
   24.96000     -7.4270776E-09
   25.02000     -7.6898861E-09
   25.08000     -7.8612432E-09
   25.14000     -7.9395530E-09
   25.20000     -7.9377047E-09
   25.26000     -7.8767108E-09
   25.32000     -7.7766042E-09
   25.38000     -7.6479338E-09
   25.44000     -7.4869337E-09
   25.50000     -7.2761441E-09
   25.56000     -6.9903061E-09
   25.62000     -6.6055335E-09
   25.68000     -6.1086349E-09
   25.74000     -5.5034493E-09
   25.80000     -4.8120343E-09
   25.86000     -4.0702441E-09
   25.92000     -3.3190262E-09
   25.98000     -2.5941844E-09
   26.04000     -1.9178923E-09
   26.10000     -1.2947383E-09
   26.16000     -7.1363676E-10
   26.22000     -1.5493341E-10
   26.28000      3.9982806E-10
   26.34000      9.5906083E-10
   26.40000      1.5165433E-09
   26.46000      2.0528608E-09
   26.52000      2.5423554E-09
   26.58000      2.9629070E-09
   26.64000      3.3047627E-09
   26.70000      3.5750352E-09
   26.76000      3.7962171E-09
   26.82000      3.9993511E-09
   26.88000      4.2143973E-09
   26.94000      4.4611537E-09
   27.00000      4.7436024E-09
   27.06000      5.0491580E-09
   27.12000      5.3525833E-09
   27.18000      5.6229883E-09
   27.24000      5.8316063E-09
   27.30000      5.9580891E-09
   27.36000      5.9937171E-09
   27.42000      5.9409322E-09
   27.48000      5.8097616E-09
   27.54000      5.6126668E-09
   27.60000      5.3598308E-09
   27.66000      5.0566387E-09
   27.72000      4.7041615E-09
   27.78000      4.3021444E-09
   27.84000      3.8529140E-09
   27.90000      3.3642913E-09
   27.96000      2.8501457E-09
   28.02000      2.3284350E-09
   28.08000      1.8177434E-09
   28.14000      1.3338692E-09
   28.20000      8.8773411E-10
   28.26000      4.8501059E-10
   28.32000      1.2698566E-10
   28.38000     -1.8822273E-10
   28.44000     -4.6477003E-10
   28.50000     -7.0863376E-10
   28.56000     -9.2726682E-10
   28.62000     -1.1289359E-09
   28.68000     -1.3215881E-09
   28.74000     -1.5114348E-09
   28.80000     -1.7016113E-09
   28.86000     -1.8911990E-09
   28.92000     -2.0747624E-09
   28.98000     -2.2425442E-09
   29.04000     -2.3815856E-09
   29.10000     -2.4780931E-09
   29.16000     -2.5211027E-09
   29.22000     -2.5068236E-09
   29.28000     -2.4423039E-09
   29.34000     -2.3467244E-09
   29.40000     -2.2491213E-09
   29.46000     -2.1825843E-09
   29.52000     -2.1764706E-09
   29.58000     -2.2491708E-09
   29.64000     -2.4039222E-09
   29.70000     -2.6290883E-09
   29.76000     -2.9027298E-09
   29.82000     -3.1998653E-09
   29.88000     -3.5001209E-09
   29.94000     -3.7935828E-09
   30.00000     -4.0833648E-09
   30.06000     -4.3843289E-09
   30.12000     -4.7183177E-09
   30.18000     -5.1071103E-09
   30.24000     -5.5649960E-09
   30.30000     -6.0932557E-09
   30.36000     -6.6785932E-09
   30.42000     -7.2965385E-09
   30.48000     -7.9191560E-09
   30.54000     -8.5246530E-09
   30.60000     -9.1054408E-09
   30.66000     -9.6714512E-09
   30.72000     -1.0247080E-08
   30.78000     -1.0862509E-08
   30.84000     -1.1542296E-08
   30.90000     -1.2295259E-08
   30.96000     -1.3109372E-08
   31.02000     -1.3953758E-08
   31.08000     -1.4787526E-08
   31.14000     -1.5572905E-08
   31.20000     -1.6288585E-08
   31.26000     -1.6938786E-08
   31.32000     -1.7554594E-08
   31.38000     -1.8186396E-08
   31.44000     -1.8889070E-08
   31.50000     -1.9704331E-08
   31.56000     -2.0645981E-08
   31.62000     -2.1693250E-08
   31.68000     -2.2794996E-08
   31.74000     -2.3883770E-08
   31.80000     -2.4895288E-08
   31.86000     -2.5786886E-08
   31.92000     -2.6548772E-08
   31.98000     -2.7204344E-08
   32.04000     -2.7799407E-08
   32.10000     -2.8383829E-08
   32.16000     -2.8991460E-08
   32.22000     -2.9624859E-08
   32.28000     -3.0249915E-08
   32.34000     -3.0802521E-08
   32.40000     -3.1205751E-08
   32.46000     -3.1392304E-08
   32.52000     -3.1325008E-08
   32.58000     -3.1008124E-08
   32.64000     -3.0485040E-08
   32.70000     -2.9822541E-08
   32.76000     -2.9086857E-08
   32.82000     -2.8319985E-08
   32.88000     -2.7524989E-08
   32.94000     -2.6665894E-08
   33.00000     -2.5682333E-08
   33.06000     -2.4513641E-08
   33.12000     -2.3123727E-08
   33.18000     -2.1517813E-08
   33.24000     -1.9745324E-08
   33.30000     -1.7888089E-08
   33.36000     -1.6038037E-08
   33.42000     -1.4271907E-08
   33.48000     -1.2631313E-08
   33.54000     -1.1114545E-08
   33.60000     -9.6826795E-09
   33.66000     -8.2778726E-09
   33.72000     -6.8477033E-09
   33.78000     -5.3673177E-09
   33.84000     -3.8517238E-09
   33.90000     -2.3538551E-09
   33.96000     -9.4889807E-10
   34.02000      2.8978805E-10
   34.08000      1.3148501E-09
   34.14000      2.1208901E-09
   34.20000      2.7467739E-09
   34.26000      3.2636136E-09
   34.32000      3.7525276E-09
   34.38000      4.2795021E-09
   34.44000      4.8753934E-09
   34.50000      5.5272777E-09
   34.56000      6.1836896E-09
   34.62000      6.7719319E-09
   34.68000      7.2218804E-09
   34.74000      7.4885920E-09
   34.80000      7.5663182E-09
   34.86000      7.4892963E-09
   34.92000      7.3191671E-09
   34.98000      7.1235795E-09
   35.04000      6.9537269E-09
   35.10000      6.8288672E-09
   35.16000      6.7331078E-09
   35.22000      6.6249983E-09
   35.28000      6.4557044E-09
   35.34000      6.1886842E-09
   35.40000      5.8138125E-09
   35.46000      5.3515117E-09
   35.52000      4.8462971E-09
   35.58000      4.3526440E-09
   35.64000      3.9181391E-09
   35.70000      3.5691621E-09
   35.76000      3.3031864E-09
   35.82000      3.0897473E-09
   35.88000      2.8797025E-09
   35.94000      2.6200517E-09
   36.00000      2.2698112E-09
   36.06000      1.8118643E-09
   36.12000      1.2568114E-09
   36.18000      6.3751554E-10
   36.24000     -3.5321917E-12
   36.30000     -6.2915495E-10
   36.36000     -1.2190228E-09
   36.42000     -1.7736075E-09
   36.48000     -2.3096269E-09
   36.54000     -2.8494849E-09
   36.60000     -3.4093335E-09
   36.66000     -3.9904222E-09
   36.72000     -4.5766075E-09
   36.78000     -5.1383213E-09
   36.84000     -5.6410712E-09
   36.90000     -6.0553482E-09
   36.96000     -6.3647736E-09
   37.02000     -6.5701147E-09
   37.08000     -6.6881087E-09
   37.14000     -6.7455561E-09
   37.20000     -6.7706512E-09
   37.26000     -6.7844828E-09
   37.32000     -6.7957289E-09
   37.38000     -6.8003612E-09
   37.44000     -6.7861241E-09
   37.50000     -6.7394352E-09
   37.56000     -6.6513528E-09
   37.62000     -6.5199055E-09
   37.68000     -6.3481620E-09
   37.74000     -6.1397407E-09
   37.80000     -5.8947878E-09
   37.86000     -5.6089711E-09
   37.92000     -5.2761773E-09
   37.98000     -4.8934217E-09
   38.04000     -4.4652837E-09
   38.10000     -4.0054862E-09
   38.16000     -3.5347725E-09
   38.22000     -3.0759590E-09
   38.28000     -2.6481464E-09
   38.34000     -2.2621498E-09
   38.40000     -1.9185831E-09
   38.46000     -1.6091652E-09
   38.52000     -1.3210443E-09
   38.58000     -1.0432047E-09
   38.64000     -7.7327272E-10
   38.70000     -5.2238552E-10
   38.76000     -3.1574776E-10
   38.82000     -1.8754268E-10
   38.88000     -1.7098974E-10
   38.94000     -2.8676786E-10
   39.00000     -5.3447063E-10
   39.06000     -8.9120078E-10
   39.12000     -1.3187571E-09
   39.18000     -1.7772069E-09
   39.24000     -2.2397133E-09
   39.30000     -2.7027556E-09
   39.36000     -3.1877045E-09
   39.42000     -3.7331889E-09
   39.48000     -4.3812278E-09
   39.54000     -5.1621867E-09
   39.60000     -6.0836896E-09
   39.66000     -7.1269524E-09
   39.72000     -8.2514608E-09
   39.78000     -9.4064241E-09
   39.84000     -1.0545524E-08
   39.90000     -1.1640478E-08
   39.96000     -1.2689056E-08
   40.02000     -1.3714557E-08
   40.08000     -1.4756265E-08
   40.14000     -1.5853592E-08
   40.20000     -1.7029189E-08
   40.26000     -1.8277310E-08
   40.32000     -1.9562169E-08
   40.38000     -2.0827459E-08
   40.44000     -2.2013912E-08
   40.50000     -2.3078515E-08
   40.56000     -2.4008232E-08
   40.62000     -2.4823294E-08
   40.68000     -2.5568850E-08
   40.74000     -2.6298201E-08
   40.80000     -2.7053446E-08
   40.86000     -2.7850181E-08
   40.92000     -2.8671151E-08
   40.98000     -2.9470749E-08
   41.04000     -3.0188826E-08
   41.10000     -3.0769282E-08
   41.16000     -3.1177553E-08
   41.22000     -3.1411211E-08
   41.28000     -3.1500178E-08
   41.34000     -3.1496302E-08
   41.40000     -3.1455748E-08
   41.46000     -3.1420257E-08
   41.52000     -3.1403804E-08
   41.58000     -3.1389398E-08
   41.64000     -3.1336981E-08
   41.70000     -3.1199445E-08
   41.76000     -3.0940839E-08
   41.82000     -3.0550297E-08
   41.88000     -3.0046788E-08
   41.94000     -2.9473357E-08
   42.00000     -2.8882924E-08
   42.06000     -2.8320640E-08
   42.12000     -2.7808611E-08
   42.18000     -2.7337988E-08
   42.24000     -2.6870987E-08
   42.30000     -2.6352232E-08
   42.36000     -2.5725937E-08
   42.42000     -2.4953462E-08
   42.48000     -2.4025656E-08
   42.54000     -2.2965962E-08
   42.60000     -2.1823228E-08
   42.66000     -2.0656639E-08
   42.72000     -1.9517804E-08
   42.78000     -1.8435932E-08
   42.84000     -1.7410905E-08
   42.90000     -1.6416259E-08
   42.96000     -1.5410592E-08
   43.02000     -1.4353201E-08
   43.08000     -1.3218528E-08
   43.14000     -1.2004686E-08
   43.20000     -1.0733635E-08
   43.26000     -9.4434816E-09
   43.32000     -8.1758937E-09
   43.38000     -6.9630515E-09
   43.44000     -5.8183001E-09
   43.50000     -4.7332049E-09
   43.56000     -3.6814798E-09
   43.62000     -2.6281033E-09
   43.68000     -1.5405405E-09
   43.74000     -3.9866735E-10
   43.80000      7.9930340E-10
   43.86000      2.0362481E-09
   43.92000      3.2807246E-09
   43.98000      4.4952277E-09
   44.04000      5.6457710E-09
   44.10000      6.7101991E-09
   44.16000      7.6830275E-09
   44.22000      8.5755287E-09
   44.28000      9.4111448E-09
   44.34000      1.0217700E-08
   44.40000      1.1018890E-08
   44.46000      1.1827725E-08
   44.52000      1.2643889E-08
   44.58000      1.3455521E-08
   44.64000      1.4244416E-08
   44.70000      1.4992537E-08
   44.76000      1.5687609E-08
   44.82000      1.6326162E-08
   44.88000      1.6913503E-08
   44.94000      1.7461097E-08
   45.00000      1.7982437E-08
   45.06000      1.8488691E-08
   45.12000      1.8985238E-08
   45.18000      1.9469951E-08
   45.24000      1.9933720E-08
   45.30000      2.0363128E-08
   45.36000      2.0744674E-08
   45.42000      2.1069265E-08
   45.48000      2.1335596E-08
   45.54000      2.1551278E-08
   45.60000      2.1731477E-08
   45.66000      2.1895643E-08
   45.72000      2.2063528E-08
   45.78000      2.2251655E-08
   45.84000      2.2470939E-08
   45.90000      2.2725507E-08
   45.96000      2.3012522E-08
   46.02000      2.3322833E-08
   46.08000      2.3642595E-08
   46.14000      2.3955936E-08
   46.20000      2.4248447E-08
   46.26000      2.4510648E-08
   46.32000      2.4740116E-08
   46.38000      2.4941277E-08
   46.44000      2.5122590E-08
   46.50000      2.5292168E-08
   46.56000      2.5453577E-08
   46.62000      2.5603644E-08
   46.68000      2.5733318E-08
   46.74000      2.5831337E-08
   46.80000      2.5889470E-08
   46.86000      2.5907445E-08
   46.92000      2.5895915E-08
   46.98000      2.5876437E-08
   47.04000      2.5878181E-08
   47.10000      2.5932067E-08
   47.16000      2.6063551E-08
   47.22000      2.6285994E-08
   47.28000      2.6596485E-08
   47.34000      2.6975743E-08
   47.40000      2.7392636E-08
   47.46000      2.7812423E-08
   47.52000      2.8206530E-08
   47.58000      2.8560951E-08
   47.64000      2.8880542E-08
   47.70000      2.9187746E-08
   47.76000      2.9515915E-08
   47.82000      2.9899081E-08
   47.88000      3.0361118E-08
   47.94000      3.0907493E-08
   48.00000      3.1522188E-08
   48.06000      3.2170874E-08
   48.12000      3.2809844E-08
   48.18000      3.3398130E-08
   48.24000      3.3909267E-08
   48.30000      3.4338811E-08
   48.36000      3.4704922E-08
   48.42000      3.5041506E-08
   48.48000      3.5385934E-08
   48.54000      3.5765272E-08
   48.60000      3.6185579E-08
   48.66000      3.6627842E-08
   48.72000      3.7051866E-08
   48.78000      3.7407087E-08
   48.84000      3.7646949E-08
   48.90000      3.7742677E-08
   48.96000      3.7692367E-08
   49.02000      3.7522554E-08
   49.08000      3.7281421E-08
   49.14000      3.7025352E-08
   49.20000      3.6802415E-08
   49.26000      3.6637893E-08
   49.32000      3.6526551E-08
   49.38000      3.6434493E-08
   49.44000      3.6310126E-08
   49.50000      3.6100662E-08
   49.56000      3.5768320E-08
   49.62000      3.5300726E-08
   49.68000      3.4712187E-08
   49.74000      3.4036095E-08
   49.80000      3.3311771E-08
   49.86000      3.2570778E-08
   49.92000      3.1827192E-08
   49.98000      3.1074588E-08
   50.04000      3.0289915E-08
   50.10000      2.9442566E-08
   50.16000      2.8505648E-08
   50.22000      2.7466246E-08
   50.28000      2.6331712E-08
   50.34000      2.5130012E-08
   50.40000      2.3903509E-08
   50.46000      2.2697563E-08
   50.52000      2.1547045E-08
   50.58000      2.0465169E-08
   50.64000      1.9438549E-08
   50.70000      1.8430631E-08
   50.76000      1.7392621E-08
   50.82000      1.6278225E-08
   50.88000      1.5057195E-08
   50.94000      1.3723055E-08
   51.00000      1.2292759E-08
   51.06000      1.0798889E-08
   51.12000      9.2775130E-09
   51.18000      7.7559070E-09
   51.24000      6.2439582E-09
   51.30000      4.7315321E-09
   51.36000      3.1920477E-09
   51.42000      1.5906956E-09
   51.48000     -1.0549447E-10
   51.54000     -1.9189141E-09
   51.60000     -3.8566537E-09
   51.66000     -5.9111822E-09
   51.72000     -8.0660989E-09
   51.78000     -1.0304952E-08
   51.84000     -1.2620113E-08
   51.90000     -1.5018770E-08
   51.96000     -1.7524160E-08
   52.02000     -2.0171870E-08
   52.08000     -2.3002638E-08
   52.14000     -2.6053938E-08
   52.20000     -2.9352726E-08
   52.26000     -3.2911061E-08
   52.32000     -3.6725371E-08
   52.38000     -4.0779270E-08
   52.44000     -4.5049244E-08
   52.50000     -4.9511801E-08
   52.56000     -5.4150313E-08
   52.62000     -5.8959625E-08
   52.68000     -6.3946700E-08
   52.74000     -6.9126571E-08
   52.80000     -7.4514517E-08
   52.86000     -8.0116450E-08
   52.92000     -8.5920547E-08
   52.98000     -9.1892268E-08
   53.04000     -9.7973832E-08
   53.10000     -1.0408731E-07
   53.16000     -1.1013952E-07
   53.22000     -1.1602667E-07
   53.28000     -1.2163765E-07
   53.34000     -1.2685564E-07
   53.40000     -1.3155828E-07
   53.46000     -1.3561683E-07
   53.52000     -1.3889404E-07
   53.58000     -1.4124056E-07
   53.64000     -1.4249036E-07
   53.70000     -1.4245636E-07
   53.76000     -1.4092809E-07
   53.82000     -1.3767323E-07
   53.88000     -1.3244286E-07
   53.94000     -1.2497998E-07
   54.00000     -1.1502784E-07
   54.06000     -1.0233639E-07
   54.12000     -8.6665217E-08
   54.18000     -6.7783354E-08
   54.24000     -4.5467615E-08
   54.30000     -1.9501394E-08
   54.36000      1.0324919E-08
   54.42000      4.4211315E-08
   54.48000      8.2343398E-08
   54.54000      1.2488542E-07
   54.60000      1.7197121E-07
   54.66000      2.2369343E-07
   54.72000      2.8009248E-07
   54.78000      3.4114728E-07
   54.84000      4.0677003E-07
   54.90000      4.7680581E-07
   54.96000      5.5103641E-07
   55.02000      6.2918571E-07
   55.08000      7.1092228E-07
   55.14000      7.9585857E-07
   55.20000      8.8354477E-07
   55.26000      9.7346015E-07
   55.32000      1.0650049E-06
   55.38000      1.1574946E-06
   55.44000      1.2501603E-06
   55.50000      1.3421517E-06
   55.56000      1.4325475E-06