 -0.750000000       0.00000000    
 -0.689999998       0.00000000    
 -0.629999995       0.00000000    
 -0.569999993       0.00000000    
 -0.509999990       0.00000000    
 -0.449999988       0.00000000    
 -0.389999986       0.00000000    
 -0.330000013       0.00000000    
 -0.270000011       0.00000000    
 -0.209999993       0.00000000    
 -0.150000006       0.00000000    
  -9.00000036E-02   0.00000000    
  -2.99999993E-02   1.43706724E-35
   2.99999993E-02   2.23648729E-34
   9.00000036E-02   1.75000858E-33
  0.150000006       9.39276630E-33
  0.209999993       4.00621023E-32
  0.270000011       1.47617088E-31
  0.330000013       4.79145133E-31
  0.389999986       1.29933578E-30
  0.449999988       2.50133970E-30
  0.509999990       1.06512117E-30
  0.569999993      -1.60159913E-29
  0.629999995      -8.23819784E-29
  0.689999998      -2.48780219E-28
  0.750000000      -5.12260580E-28
  0.810000002      -5.97577688E-28
  0.870000005       4.13056506E-28
  0.930000007       4.27265940E-27
  0.990000010       1.26313456E-26
   1.04999995       2.35622922E-26
   1.11000001       2.51585523E-26
   1.16999996      -1.00408697E-26
   1.23000002      -1.18745272E-25
   1.28999996      -3.12351842E-25
   1.35000002      -5.06488884E-25
   1.40999997      -4.43549814E-25
   1.47000003       3.00107611E-25
   1.52999997       2.08162742E-24
   1.59000003       4.64404229E-24
   1.64999998       6.40579667E-24
   1.71000004       4.16268134E-24
   1.76999998      -5.85713603E-24
   1.83000004      -2.48296084E-23
   1.88999999      -4.65577534E-23
   1.95000005      -5.38879278E-23
   2.00999999      -2.13738975E-23
   2.06999993       7.09250703E-23
   2.13000011       2.12744578E-22
   2.19000006       3.38712563E-22
   2.25000000       3.25454071E-22
   2.30999994       3.58912337E-23
   2.36999989      -5.80619852E-22
   2.43000007      -1.36342326E-21
   2.49000001      -1.87148362E-21
   2.54999995      -1.47577564E-21
   2.60999990       3.22229308E-22
   2.67000008       3.40923540E-21
   2.73000002       6.65825665E-21
   2.78999996       7.97275125E-21
   2.84999990       5.07127106E-21
   2.91000009      -3.04694059E-21
   2.97000003      -1.45702420E-20
   3.02999997      -2.43487011E-20
   3.08999991      -2.53808771E-20
   3.15000010      -1.24446641E-20
   3.21000004       1.35111705E-20
   3.26999998       4.29645010E-20
   3.32999992       6.02158147E-20
   3.39000010       5.13207086E-20
   3.45000005       1.44742035E-20
   3.50999999      -3.38084355E-20
   3.56999993      -6.37042163E-20
   3.63000011      -5.02373508E-20
   3.69000006       2.97134827E-21
   3.75000000       5.08406692E-20
   3.80999994       2.22191020E-20
   3.86999989      -1.31657634E-19
   3.93000007      -3.74702865E-19
   3.99000001      -5.51569099E-19
   4.05000019      -4.27121094E-19
   4.11000013       1.83596563E-19
   4.17000008       1.23672962E-18
   4.23000002       2.33424206E-18
   4.28999996       2.77242342E-18
   4.34999990       1.82764998E-18
   4.40999985      -7.87369547E-19
   4.46999979      -4.51072424E-18
   4.53000021      -7.84666341E-18
   4.59000015      -8.80806484E-18
   4.65000010      -5.83436253E-18
   4.71000004       1.18146259E-18
   4.76999998       1.03210369E-17
   4.82999992       1.80005321E-17
   4.88999987       2.03285558E-17
   4.94999981       1.49576837E-17
   5.01000023       2.51284277E-18
   5.07000017      -1.32684386E-17
   5.13000011      -2.69494716E-17
   5.19000006      -3.37408395E-17
   5.25000000      -3.15082757E-17
   5.30999994      -2.12473152E-17
   5.36999989      -5.74195942E-18
   5.42999983       1.25910422E-17
   5.48999977       3.28734182E-17
   5.55000019       5.45861515E-17
   5.61000013       7.43774139E-17
   5.67000008       8.32537831E-17
   5.73000002       6.74630971E-17
   5.78999996       1.49770993E-17
   5.84999990      -7.40845522E-17
   5.90999985      -1.78677564E-16
   5.96999979      -2.56863562E-16
   6.03000021      -2.59005443E-16
   6.09000015      -1.51637413E-16
   6.15000010       5.81814094E-17
   6.21000004       3.12032512E-16
   6.26999998       5.13159241E-16
   6.32999992       5.62786319E-16
   6.38999987       4.05948534E-16
   6.44999981       6.49439285E-17
   6.51000023      -3.58581763E-16
   6.57000017      -7.17857829E-16
   6.63000011      -8.77901157E-16
   6.69000006      -7.68854930E-16
   6.75000000      -4.10845522E-16
   6.80999994       9.89934552E-17
   6.86999989       6.25829340E-16
   6.92999983       1.03834529E-15
   6.98999977       1.23150215E-15
   7.05000019       1.12941054E-15
   7.11000013       6.87064369E-16
   7.17000008      -8.58800750E-17
   7.23000002      -1.07562183E-15
   7.28999996      -2.01959527E-15
   7.34999990      -2.52170729E-15
   7.40999985      -2.17146764E-15
   7.46999979      -7.56984133E-16
   7.53000021       1.51354295E-15
   7.59000015       3.91831724E-15
   7.65000010       5.37463242E-15
   7.71000004       4.85406164E-15
   7.76999998       1.92654404E-15
   7.82999992      -2.82138691E-15
   7.88999987      -7.75994750E-15
   7.94999981      -1.07100777E-14
   8.01000023      -9.84229669E-15
   8.06999969      -4.62261031E-15
   8.13000011       3.65815488E-15
   8.18999958       1.21191729E-14
   8.25000000       1.73171481E-14
   8.31000042       1.67042741E-14
   8.36999989       9.88234864E-15
   8.43000031      -9.76213836E-16
   8.48999977      -1.18496233E-14
   8.55000019      -1.85220610E-14
   8.60999966      -1.84830246E-14
   8.67000008      -1.21782992E-14
   8.72999954      -2.93268726E-15
   8.78999996       4.56145919E-15
   8.85000038       6.59677560E-15
   8.90999985       2.55341745E-15
   8.97000027      -4.36638581E-15
   9.02999973      -8.36698891E-15
   9.09000015      -3.94806038E-15
   9.14999962       1.07452491E-14
   9.21000004       3.17671474E-14
   9.27000046       4.97911479E-14
   9.32999992       5.34776894E-14
   9.39000034       3.47740838E-14
   9.44999981      -6.04007294E-15
   9.51000023      -5.80997652E-14
   9.56999969      -1.02231483E-13
   9.63000011      -1.17703373E-13
   9.68999958      -9.12622368E-14
   9.75000000      -2.47529878E-14
   9.81000042       6.24563809E-14
   9.86999989       1.38348182E-13
   9.93000031       1.69586079E-13
   9.98999977       1.35406240E-13
   10.0500002       3.84057342E-14
   10.1099997      -9.28928226E-14
   10.1700001      -2.11890672E-13
   10.2299995      -2.70078312E-13
   10.2900000      -2.35577318E-13
   10.3500004      -1.06543267E-13
   10.4099998       8.64332409E-14
   10.4700003       2.90365903E-13
   10.5299997       4.48409810E-13
   10.5900002       5.19060543E-13
   10.6499996       4.87730733E-13
   10.7100000       3.65877955E-13
   10.7700005       1.78832128E-13
   10.8299999      -5.08030778E-14
   10.8900003      -3.14688515E-13
   10.9499998      -6.17837107E-13
   11.0100002      -9.64036359E-13
   11.0699997      -1.33391095E-12
   11.1300001      -1.66710569E-12
   11.1899996      -1.86002927E-12
   11.2500000      -1.78479074E-12
   11.3100004      -1.32569205E-12
   11.3699999      -4.21136054E-13
   11.4300003       9.04675152E-13
   11.4899998       2.53227647E-12
   11.5500002       4.26235262E-12
   11.6099997       5.84790029E-12
   11.6700001       7.02831586E-12
   11.7299995       7.55180554E-12
   11.7900000       7.18172960E-12
   11.8500004       5.69543761E-12
   11.9099998       2.89408211E-12
   11.9700003      -1.35747251E-12
   12.0299997      -7.05255515E-12
   12.0900002      -1.39377815E-11
   12.1499996      -2.14125939E-11
   12.2100000      -2.84751892E-11
   12.2700005      -3.37515085E-11
   12.3299999      -3.56220192E-11
   12.3900003      -3.24295590E-11
   12.4499998      -2.27219753E-11
   12.5100002      -5.46826603E-12
   12.5699997       1.98067413E-11
   12.6300001       5.29974883E-11
   12.6899996       9.34939140E-11
   12.7500000       1.40317633E-10
   12.8100004       1.92262220E-10
   12.8699999       2.47990545E-10
   12.9300003       3.06071835E-10
   12.9899998       3.64975855E-10
   13.0500002       4.23068025E-10
   13.1099997       4.78651119E-10
   13.1700001       5.30076594E-10
   13.2299995       5.75910597E-10
   13.2900000       6.15100859E-10
   13.3500004       6.47077780E-10
   13.4099998       6.71736555E-10
   13.4700003       6.89292179E-10
   13.5299997       7.00053515E-10
   13.5900002       7.04202752E-10
   13.6499996       7.01675773E-10
   13.7100000       6.92202184E-10
   13.7700005       6.75502043E-10
   13.8299999       6.51567966E-10
   13.8900003       6.20920426E-10
   13.9499998       5.84726101E-10
   14.0100002       5.44721657E-10
   14.0699997       5.02959230E-10
   14.1300001       4.61463423E-10
   14.1899996       4.21922608E-10
   14.2500000       3.85517757E-10
   14.3100004       3.52929408E-10
   14.3699999       3.24480554E-10
   14.4300003       3.00311914E-10
   14.4899998       2.80473561E-10
   14.5500002       2.64860606E-10
   14.6099997       2.53004895E-10
   14.6700001       2.43821990E-10
   14.7299995       2.35460651E-10
   14.7900000       2.25388319E-10
   14.8500004       2.10765100E-10
   14.9099998       1.89044322E-10
   14.9700003       1.58632010E-10
   15.0299997       1.19388235E-10
   15.0900002       7.27848684E-11
   15.1499996       2.16401168E-11
   15.2100000      -3.05069858E-11
   15.2700005      -8.01948091E-11
   15.3299999      -1.24765406E-10
   15.3900003      -1.62807989E-10
   15.4499998      -1.94219724E-10
   15.5100002      -2.19925661E-10
   15.5699997      -2.41414999E-10
   15.6300001      -2.60291150E-10
   15.6899996      -2.77987494E-10
   15.7500000      -2.95693192E-10
   15.8100004      -3.14418797E-10
   15.8699999      -3.35063421E-10
   15.9300003      -3.58358510E-10
   15.9899998      -3.84647675E-10
   16.0499992      -4.13575563E-10
   16.1100006      -4.43842352E-10
   16.1700001      -4.73188377E-10
   16.2299995      -4.98695363E-10
   16.2900009      -5.17362819E-10
   16.3500004      -5.26792943E-10
   16.4099998      -5.25758437E-10
   16.4699993      -5.14462029E-10
   16.5300007      -4.94407071E-10
   16.5900002      -4.67947625E-10
   16.6499996      -4.37695269E-10
   16.7099991      -4.06001649E-10
   16.7700005      -3.74678205E-10
   16.8299999      -3.45002166E-10
   16.8899994      -3.17932458E-10
   16.9500008      -2.94380353E-10
   17.0100002      -2.75374057E-10
   17.0699997      -2.62025235E-10
   17.1299992      -2.55311550E-10
   17.1900005      -2.55786642E-10
   17.2500000      -2.63371353E-10
   17.3099995      -2.77353029E-10
   17.3700008      -2.96631719E-10
   17.4300003      -3.20143467E-10
   17.4899998      -3.47306961E-10
   17.5499992      -3.78316573E-10
   17.6100006      -4.14155710E-10
   17.6700001      -4.56308297E-10
   17.7299995      -5.06261977E-10
   17.7900009      -5.64976566E-10
   17.8500004      -6.32505825E-10
   17.9099998      -7.07898185E-10
   17.9699993      -7.89398491E-10
   18.0300007      -8.74861628E-10
   18.0900002      -9.62223523E-10
   18.1499996      -1.04986964E-09
   18.2099991      -1.13679743E-09
   18.2700005      -1.22255583E-09
   18.3299999      -1.30701816E-09
   18.3899994      -1.39009093E-09
   18.4500008      -1.47145107E-09
   18.5100002      -1.55037772E-09
   18.5699997      -1.62569735E-09
   18.6299992      -1.69583880E-09
   18.6900005      -1.75898696E-09
   18.7500000      -1.81332205E-09
   18.8099995      -1.85733451E-09
   18.8700008      -1.89018490E-09
   18.9300003      -1.91204519E-09
   18.9899998      -1.92433069E-09
   19.0499992      -1.92972349E-09
   19.1100006      -1.93191729E-09
   19.1700001      -1.93508032E-09
   19.2299995      -1.94311456E-09
   19.2900009      -1.95887595E-09
   19.3500004      -1.98354266E-09
   19.4099998      -2.01631911E-09
   19.4699993      -2.05456563E-09
   19.5300007      -2.09434803E-09
   19.5900002      -2.13127205E-09
   19.6499996      -2.16139684E-09
   19.7099991      -2.18200080E-09
   19.7700005      -2.19202101E-09
   19.8299999      -2.19208807E-09
   19.8899994      -2.18418217E-09
   19.9500008      -2.17102847E-09
   20.0100002      -2.15538254E-09
   20.0699997      -2.13936202E-09
   20.1299992      -2.12394502E-09
   20.1900005      -2.10872542E-09
   20.2500000      -2.09197015E-09
   20.3099995      -2.07099426E-09
   20.3700008      -2.04279349E-09
   20.4300003      -2.00480899E-09
   20.4899998      -1.95561367E-09
   20.5499992      -1.89529148E-09
   20.6100006      -1.82534221E-09
   20.6700001      -1.74810033E-09
   20.7299995      -1.66585945E-09
   20.7900009      -1.58003999E-09
   20.8500004      -1.49076607E-09
   20.9099998      -1.39706036E-09
   20.9699993      -1.29759703E-09
   21.0300007      -1.19167587E-09
   21.0900002      -1.07994536E-09
   21.1499996      -9.64478608E-10
   21.2099991      -8.48091763E-10
   21.2700005      -7.33148153E-10
   21.3299999      -6.20360652E-10
   21.3899994      -5.08146081E-10
   21.4500008      -3.92879868E-10
   21.5100002      -2.70031525E-10
   21.5699997      -1.35796319E-10
   21.6299992       1.13679908E-11
   21.6900005       1.69857448E-10
   21.7500000       3.35010020E-10
   21.8099995       5.00138264E-10
   21.8700008       6.58168353E-10
   21.9300003       8.03369204E-10
   21.9899998       9.32652289E-10
   22.0499992       1.04607933E-09
   22.1100006       1.14646703E-09
   22.1700001       1.23826327E-09
   22.2299995       1.32609113E-09
   22.2900009       1.41346757E-09
   22.3500004       1.50213786E-09
   22.4099998       1.59223668E-09
   22.4699993       1.68315506E-09
   22.5300007       1.77467863E-09
   22.5900002       1.86781679E-09
   22.6499996       1.96484673E-09
   22.7099991       2.06843098E-09
   22.7700005       2.18010565E-09
   22.8299999       2.29876873E-09
   22.8899994       2.41987141E-09
   22.9500008       2.53575250E-09
   23.0100002       2.63709410E-09
   23.0699997       2.71501355E-09
   23.1299992       2.76303891E-09
   23.1900005       2.77829670E-09
   23.2500000       2.76158874E-09
   23.3099995       2.71649858E-09
   23.3700008       2.64802424E-09
   23.4300003       2.56132915E-09
   23.4899998       2.46103871E-09
   23.5499992       2.35117414E-09
   23.6100006       2.23549490E-09
   23.6700001       2.11786366E-09
   23.7299995       2.00229544E-09
   23.7900009       1.89257543E-09
   23.8500004       1.79159620E-09
   23.9099998       1.70073244E-09
   23.9699993       1.61958946E-09
   24.0300007       1.54629509E-09
   24.0900002       1.47825430E-09
   24.1499996       1.41307577E-09
   24.2099991       1.34929989E-09
   24.2700005       1.28666389E-09
   24.3299999       1.22587940E-09
   24.3899994       1.16813970E-09
   24.4500008       1.11469911E-09
   24.5100002       1.06679021E-09
   24.5699997       1.02589814E-09
   24.6299992       9.94133997E-10
   24.6900005       9.74304415E-10
   24.7500000       9.69375691E-10
   24.8099995       9.81349557E-10
   24.8700008       1.00995157E-09
   24.9300003       1.05176390E-09
   24.9899998       1.10036713E-09
   25.0499992       1.14767151E-09
   25.1100006       1.18610921E-09
   25.1700001       1.21093868E-09
   25.2299995       1.22181276E-09
   25.2900009       1.22301425E-09
   25.3500004       1.22225863E-09
   25.4099998       1.22847787E-09
   25.4699993       1.24932298E-09
   25.5300007       1.28915612E-09
   25.5900002       1.34807565E-09
   25.6499996       1.42215906E-09
   25.7099991       1.50474888E-09
   25.7700005       1.58834523E-09
   25.8299999       1.66653880E-09
   25.8899994       1.73543591E-09
   25.9500008       1.79417470E-09
   26.0100002       1.84440541E-09
   26.0699997       1.88893967E-09
   26.1299992       1.93006988E-09
   26.1900005       1.96819561E-09
   26.2500000       2.00127692E-09
   26.3099995       2.02530503E-09
   26.3700008       2.03554640E-09
   26.4300003       2.02801531E-09
   26.4899998       2.00056993E-09
   26.5499992       1.95325556E-09
   26.6100006       1.88790161E-09
   26.6700001       1.80728954E-09
   26.7299995       1.71433545E-09
   26.7900009       1.61158864E-09
   26.8500004       1.50111557E-09
   26.9099998       1.38462841E-09
   26.9699993       1.26366395E-09
   27.0300007       1.13970933E-09
   27.0900002       1.01428199E-09
   27.1499996       8.89011365E-10
   27.2099991       7.65692232E-10
   27.2700005       6.46186049E-10
   27.3299999       5.32032529E-10
   27.3899994       4.23776431E-10
   27.4500008       3.20235366E-10
   27.5100002       2.18096693E-10
   27.5699997       1.12180411E-10
   27.6299992      -3.56548732E-12
   27.6900005      -1.34633721E-10
   27.7500000      -2.84631485E-10
   27.8099995      -4.54568688E-10
   27.8700008      -6.42968734E-10
   27.9300003      -8.46606230E-10
   27.9899998      -1.06140319E-09
   28.0499992      -1.28301703E-09
   28.1100006      -1.50691581E-09
   28.1700001      -1.72807735E-09
   28.2299995      -1.94067096E-09
   28.2900009      -2.13806661E-09
   28.3500004      -2.31329911E-09
   28.4099998      -2.45986476E-09
   28.4699993      -2.57256128E-09
   28.5300007      -2.64810240E-09
   28.5900002      -2.68535083E-09
   28.6499996      -2.68515232E-09
   28.7099991      -2.64982991E-09
   28.7700005      -2.58244159E-09
   28.8299999      -2.48594678E-09
   28.8899994      -2.36251951E-09
   28.9500008      -2.21330843E-09
   29.0100002      -2.03889239E-09
   29.0699997      -1.84045756E-09
   29.1299992      -1.62135139E-09
   29.1900005      -1.38836964E-09
   29.2500000      -1.15206733E-09
   29.3099995      -9.25673593E-10
   29.3700008      -7.22746807E-10
   29.4300003      -5.54259805E-10
   29.4899998      -4.26093327E-10
   29.5499992      -3.37789463E-10
   29.6100006      -2.82936591E-10
   29.6700001      -2.50976379E-10
   29.7299995      -2.29790798E-10
   29.7900009      -2.08302930E-10
   29.8500004      -1.78473972E-10
   29.9099998      -1.36363573E-10
   29.9699993      -8.21906154E-11
   30.0300007      -1.95217072E-11
   30.0900002       4.61534179E-11
   30.1499996       1.09087427E-10
   30.2099991       1.64729660E-10
   30.2700005       2.10540141E-10
   30.3299999       2.45925419E-10
   30.3899994       2.71394768E-10
   30.4500008       2.87376262E-10
   30.5100002       2.93295721E-10
   30.5699997       2.87388752E-10
   30.6299992       2.67340178E-10
   30.6900005       2.31418829E-10
   30.7500000       1.79531043E-10
   30.8099995       1.13677567E-10
   30.8700008       3.76104183E-11
   30.9300003      -4.41416556E-11
   30.9899998      -1.27472505E-10
   31.0499992      -2.09698162E-10
   31.1100006      -2.90074603E-10
   31.1700001      -3.69731745E-10
   31.2299995      -4.51049198E-10
   31.2900009      -5.36578948E-10
   31.3500004      -6.27717545E-10
   31.4099998      -7.23462790E-10
   31.4699993      -8.19699864E-10
   31.5300007      -9.09411157E-10
   31.5900002      -9.83919501E-10
   31.6499996      -1.03483566E-09
   31.7099991      -1.05600462E-09
   31.7700005      -1.04468334E-09
   31.8299999      -1.00152875E-09
   31.8899994      -9.29565480E-10
   31.9500008      -8.32817315E-10
   32.0099983      -7.15398241E-10
   32.0699997      -5.81497517E-10
   32.1300011      -4.36063213E-10
   32.1899986      -2.85492074E-10
   32.2500000      -1.37574716E-10
   32.3100014      -3.79896608E-13
   32.3699989       1.19577709E-10
   32.4300003       2.19050653E-10
   32.4900017       2.98787189E-10
   32.5499992       3.62853914E-10
   32.6100006       4.16793100E-10
   32.6699982       4.65379624E-10
   32.7299995       5.10882836E-10
   32.7900009       5.52474844E-10
   32.8499985       5.86931670E-10
   32.9099998       6.10283990E-10
   32.9700012       6.19770568E-10
   33.0299988       6.15381357E-10
   33.0900002       6.00436534E-10
   33.1500015       5.80960557E-10
   33.2099991       5.64018221E-10
   33.2700005       5.55567814E-10
   33.3300018       5.58624813E-10
   33.3899994       5.72473069E-10
   33.4500008       5.93279148E-10
   33.5099983       6.15876850E-10
   33.5699997       6.35965891E-10
   33.6300011       6.51774967E-10
   33.6899986       6.64501565E-10
   33.7500000       6.77425227E-10
   33.8100014       6.94189262E-10
   33.8699989       7.17055415E-10
   33.9300003       7.45822071E-10
   33.9900017       7.77689801E-10
   34.0499992       8.07924172E-10
   34.1100006       8.30935376E-10
   34.1699982       8.41421932E-10
   34.2299995       8.35378988E-10
   34.2900009       8.10882306E-10
   34.3499985       7.68543562E-10
   34.4099998       7.11478432E-10
   34.4700012       6.44666320E-10
   34.5299988       5.73784853E-10
   34.5900002       5.03873498E-10
   34.6500015       4.38329678E-10
   34.7099991       3.78625659E-10
   34.7700005       3.24776067E-10
   34.8300018       2.76211276E-10
   34.8899994       2.32542458E-10
   34.9500008       1.93850033E-10
   35.0099983       1.60471511E-10
   35.0699997       1.32561948E-10
   35.1300011       1.09764912E-10
   35.1899986       9.11571027E-11
   35.2500000       7.53929211E-11
   35.3100014       6.08759571E-11
   35.3699989       4.58830161E-11
   35.4300003       2.87402480E-11
   35.4900017       8.20627854E-12
   35.5499992      -1.59436769E-11
   35.6100006      -4.24000800E-11
   35.6699982      -6.82715065E-11
   35.7299995      -8.97495758E-11
   35.7900009      -1.03326583E-10
   35.8499985      -1.07025305E-10
   35.9099998      -1.01028873E-10
   35.9700012      -8.74235823E-11
   36.0299988      -6.92889982E-11
   36.0900002      -4.97338906E-11
   36.1500015      -3.14333941E-11
   36.2099991      -1.68087905E-11
   36.2700005      -8.51484248E-12
   36.3300018      -9.70439961E-12
   36.3899994      -2.37519223E-11
   36.4500008      -5.35516215E-11
   36.5099983      -1.00815009E-10
   36.5699997      -1.65752495E-10
   36.6300011      -2.47190768E-10
   36.6899986      -3.42865375E-10
   36.7500000      -4.49612486E-10
   36.8100014      -5.63480762E-10
   36.8699989      -6.80113132E-10
   36.9300003      -7.95747912E-10
   36.9900017      -9.08739917E-10
   37.0499992      -1.02088904E-09
   37.1100006      -1.13757492E-09
   37.1699982      -1.26609834E-09
   37.2299995      -1.41259826E-09
   37.2900009      -1.57888758E-09
   37.3499985      -1.76085180E-09
   37.4099998      -1.94939198E-09
   37.4700012      -2.13357398E-09
   37.5299988      -2.30445441E-09
   37.5900002      -2.45770049E-09
   37.6500015      -2.59383892E-09
   37.7099991      -2.71626899E-09
   37.7700005      -2.82831492E-09
   37.8300018      -2.93089020E-09
   37.8899994      -3.02178682E-09
   37.9500008      -3.09661341E-09
   38.0099983      -3.15064907E-09
   38.0699997      -3.18071924E-09
   38.1300011      -3.18650817E-09
   38.1899986      -3.17114446E-09
   38.2500000      -3.14107718E-09
   38.3100014      -3.10521187E-09
   38.3699989      -3.07325010E-09
   38.4300003      -3.05341996E-09
   38.4900017      -3.05023762E-09
   38.5499992      -3.06324233E-09
   38.6100006      -3.08744807E-09
   38.6699982      -3.11547455E-09
   38.7299995      -3.14040749E-09
   38.7900009      -3.15796012E-09
   38.8499985      -3.16687299E-09
   38.9099998      -3.16751936E-09
   38.9700012      -3.15973714E-09
   39.0299988      -3.14129922E-09
   39.0900002      -3.10793080E-09
   39.1500015      -3.05472492E-09
   39.2099991      -2.97794678E-09
   39.2700005      -2.87611357E-09
   39.3300018      -2.74989720E-09
   39.3899994      -2.60128075E-09
   39.4500008      -2.43284215E-09
   39.5099983      -2.24773533E-09
   39.5699997      -2.05016693E-09
   39.6300011      -1.84557536E-09
   39.6899986      -1.63982317E-09
   39.7500000      -1.43745926E-09
   39.8100014      -1.23995791E-09
   39.8699989      -1.04512898E-09
   39.9300003      -8.48339121E-10
   39.9900017      -6.45109965E-10
   40.0499992      -4.33786035E-10
   40.1100006      -2.16876572E-10
   40.1699982      -4.29040321E-13
   40.2299995       2.08109738E-10
   40.2900009       4.02346073E-10
   40.3499985       5.78530335E-10
   40.4099998       7.35782102E-10
   40.4700012       8.75249817E-10
   40.5299988       9.98931493E-10
   40.5900002       1.10877141E-09
   40.6500015       1.20623367E-09
   40.7099991       1.29221756E-09
   40.7700005       1.36714318E-09
   40.8300018       1.43119161E-09
   40.8899994       1.48477342E-09
   40.9500008       1.52916135E-09
   41.0099983       1.56695434E-09
   41.0699997       1.60194213E-09
   41.1300011       1.63819047E-09
   41.1899986       1.67868008E-09
   41.2500000       1.72422898E-09
   41.3100014       1.77336457E-09
   41.3699989       1.82324189E-09
   41.4300003       1.87100868E-09
   41.4900017       1.91468263E-09
   41.5499992       1.95294292E-09
   41.6100006       1.98404693E-09
   41.6699982       2.00480654E-09
   41.7299995       2.01064387E-09
   41.7900009       1.99709049E-09
   41.8499985       1.96206518E-09
   41.9099998       1.90759963E-09
   41.9700012       1.83980520E-09
   42.0299988       1.76680492E-09
   42.0900002       1.69548064E-09
   42.1500015       1.62856328E-09
   42.2099991       1.56341551E-09
   42.2700005       1.49299728E-09
   42.3300018       1.40848100E-09
   42.3899994       1.30236844E-09
   42.4500008       1.17096588E-09
   42.5099983       1.01554187E-09
   42.5699997       8.42047432E-10
   42.6300011       6.59671262E-10
   42.6899986       4.78654893E-10
   42.7500000       3.07872089E-10
   42.8100014       1.52748383E-10
   42.8699989       1.41248705E-11
   42.9300003      -1.11500566E-10
   42.9900017      -2.30366018E-10
   43.0499992      -3.49055229E-10
   43.1100006      -4.72290429E-10
   43.1699982      -6.01801331E-10
   43.2299995      -7.36617656E-10
   43.2900009      -8.74410044E-10
   43.3499985      -1.01302589E-09
   43.4099998      -1.15140009E-09
   43.4700012      -1.28950695E-09
   43.5299988      -1.42760670E-09
   43.5900002      -1.56537439E-09
   43.6500015      -1.70141679E-09
   43.7099991      -1.83333237E-09
   43.7700005      -1.95815142E-09
   43.8300018      -2.07290407E-09
   43.8899994      -2.17518314E-09
   43.9500008      -2.26370567E-09
   44.0099983      -2.33884134E-09
   44.0699997      -2.40290765E-09
   44.1300011      -2.45989296E-09
   44.1899986      -2.51442001E-09
   44.2500000      -2.57013588E-09
   44.3100014      -2.62815991E-09
   44.3699989      -2.68634870E-09
   44.4300003      -2.73982170E-09
   44.4900017      -2.78255619E-09
   44.5499992      -2.80928503E-09
   44.6100006      -2.81679147E-09
   44.6699982      -2.80407741E-09
   44.7299995      -2.77154233E-09
   44.7900009      -2.71985101E-09
   44.8499985      -2.64924349E-09
   44.9099998      -2.55966781E-09
   44.9700012      -2.45155118E-09
   45.0299988      -2.32663311E-09
   45.0900002      -2.18828444E-09
   45.1500015      -2.04105022E-09
   45.2099991      -1.88957583E-09
   45.2700005      -1.73735804E-09
   45.3300018      -1.58579971E-09
   45.3899994      -1.43391943E-09
   45.4500008      -1.27884625E-09
   45.5099983      -1.11700615E-09
   45.5699997      -9.45682421E-10
   45.6300011      -7.64424191E-10
   45.6899986      -5.75704817E-10
   45.7500000      -3.84377835E-10
   45.8100014      -1.95932562E-10
   45.8699989      -1.41359979E-11
   45.9300003       1.60917002E-10
   45.9900017       3.33347017E-10
   46.0499992       5.10188003E-10
   46.1100006       6.98664182E-10
   46.1699982       9.03183972E-10
   46.2299995       1.12335918E-09
   46.2900009       1.35388045E-09
   46.3499985       1.58621993E-09
   46.4099998       1.81135862E-09
   46.4700012       2.02242223E-09
   46.5299988       2.21634155E-09
   46.5900002       2.39419817E-09
   46.6500015       2.56043853E-09
   46.7099991       2.72140110E-09
   46.7700005       2.88360535E-09
   46.8300018       3.05214809E-09
   46.8899994       3.22948801E-09
   46.9500008       3.41486683E-09
   47.0099983       3.60453822E-09
   47.0699997       3.79273901E-09
   47.1300011       3.97303301E-09
   47.1899986       4.13946966E-09
   47.2500000       4.28709690E-09
   47.3100014       4.41176518E-09
   47.3699989       4.50962689E-09
   47.4300003       4.57692950E-09
   47.4900017       4.61050442E-09
   47.5499992       4.60881289E-09
   47.6100006       4.57292293E-09
   47.6699982       4.50671056E-09
   47.7299995       4.41594095E-09
   47.7900009       4.30657066E-09
   47.8499985       4.18306945E-09
   47.9099998       4.04758538E-09
   47.9700012       3.90024812E-09
   48.0299988       3.74025433E-09
   48.0900002       3.56697427E-09
   48.1500015       3.38040396E-09
   48.2099991       3.18084403E-09
   48.2700005       2.96823877E-09
   48.3300018       2.74185408E-09
   48.3899994       2.50073406E-09
   48.4500008       2.24482344E-09
   48.5099983       1.97615035E-09
   48.5699997       1.69935188E-09
   48.6300011       1.42112722E-09
   48.6899986       1.14874354E-09
   48.7500000       8.88166318E-10
   48.8100014       6.42534081E-10
   48.8699989       4.11504303E-10
   48.9300003       1.91632946E-10
   48.9900017      -2.23995579E-11
   49.0499992      -2.36116432E-10
   49.1100006      -4.53589277E-10
   49.1699982      -6.76221246E-10
   49.2299995      -9.02278974E-10
   49.2900009      -1.12730381E-09
   49.3499985      -1.34529055E-09
   49.4099998      -1.55026125E-09
   49.4700012      -1.73769477E-09
   49.5299988      -1.90531391E-09
   49.5900002      -2.05298556E-09
   49.6500015      -2.18187468E-09
   49.7099991      -2.29331198E-09
   49.7700005      -2.38792275E-09
   49.8300018      -2.46538767E-09
   49.8899994      -2.52486565E-09
   49.9500008      -2.56577581E-09
   50.0099983      -2.58849164E-09
   50.0699997      -2.59458388E-09
   50.1300011      -2.58648014E-09
   50.1899986      -2.56668353E-09
   50.2500000      -2.53684962E-09
   50.3100014      -2.49707632E-09
   50.3699989      -2.44565723E-09
   50.4300003      -2.37942110E-09
   50.4900017      -2.29460850E-09
   50.5499992      -2.18809948E-09
   50.6100006      -2.05869366E-09