  -2.400000      0.0000000E+00
  -2.340000      0.0000000E+00
  -2.280000      0.0000000E+00
  -2.220000      0.0000000E+00
  -2.160000      0.0000000E+00
  -2.100000      0.0000000E+00
  -2.040000      0.0000000E+00
  -1.980000      0.0000000E+00
  -1.920000      0.0000000E+00
  -1.860000      0.0000000E+00
  -1.800000      0.0000000E+00
  -1.740000      0.0000000E+00
  -1.680000      1.4368675E-35
  -1.620000      2.2362703E-34
  -1.560000      1.7499386E-33
  -1.500000      9.3931417E-33
  -1.440000      4.0067319E-32
  -1.380000      1.4764639E-31
  -1.320000      4.7924797E-31
  -1.260000      1.2995564E-30
  -1.200000      2.5014424E-30
  -1.140000      1.0637564E-30
  -1.080000     -1.6022594E-29
  -1.020000     -8.2399673E-29
 -0.9600000     -2.4880819E-28
 -0.9000000     -5.1226352E-28
 -0.8400000     -5.9743917E-28
 -0.7800000      4.1354911E-28
 -0.7200000      4.2736447E-27
 -0.6600000      1.2632284E-26
 -0.6000000      2.3560898E-26
 -0.5400000      2.5150114E-26
 -0.4800000     -1.0061164E-26
 -0.4200000     -1.1877297E-25
 -0.3600000     -3.1235552E-25
 -0.3000000     -5.0639521E-25
 -0.2400000     -4.4326523E-25
 -0.1800000      3.0058803E-25
 -0.1200000      2.0820011E-24
 -5.9999999E-02  4.6434794E-24
  0.0000000E+00  6.4030558E-24
  5.9999999E-02  4.1570749E-24
  0.1200000     -5.8636457E-24
  0.1800000     -2.4830008E-23
  0.2400000     -4.6539966E-23
  0.3000000     -5.3841379E-23
  0.3600000     -2.1305416E-23
  0.4200000      7.0970812E-23
  0.4800000      2.1267746E-22
  0.5400000      3.3843100E-22
  0.6000000      3.2494195E-22
  0.6600000      3.5358251E-23
  0.7200000     -5.8064777E-22
  0.7800000     -1.3622265E-21
  0.8400000     -1.8686267E-21
  0.9000000     -1.4718956E-21
  0.9600000      3.2473564E-22
   1.020000      3.4064057E-21
   1.080000      6.6464386E-21
   1.140000      7.9522365E-21
   1.200000      5.0502474E-21
   1.260000     -3.0512986E-21
   1.320000     -1.4537276E-20
   1.380000     -2.4267951E-20
   1.440000     -2.5270087E-20
   1.500000     -1.2361357E-20
   1.560000      1.3479237E-20
   1.620000      4.2740041E-20
   1.680000      5.9797895E-20
   1.740000      5.0846259E-20
   1.800000      1.4227182E-20
   1.860000     -3.3484488E-20
   1.920000     -6.2596537E-20
   1.980000     -4.8496717E-20
   2.040000      4.6827240E-21
   2.100000      5.1435457E-20
   2.160000      2.0591459E-20
   2.220000     -1.3597104E-19
   2.280000     -3.8086430E-19
   2.340000     -5.5717407E-19
   2.400000     -4.2868459E-19
   2.460000      1.8929236E-19
   2.520000      1.2507375E-18
   2.580000      2.3537503E-18
   2.640000      2.7902382E-18
   2.700000      1.8336814E-18
   2.760000     -8.0243395E-19
   2.820000     -4.5503524E-18
   2.880000     -7.9038572E-18
   2.940000     -8.8636563E-18
   3.000000     -5.8604588E-18
   3.060000      1.2120700E-18
   3.120000      1.0421221E-17
   3.180000      1.8155660E-17
   3.240000      2.0490667E-17
   3.300000      1.5053541E-17
   3.360000      2.4683690E-18
   3.420000     -1.3492347E-17
   3.480000     -2.7323177E-17
   3.540000     -3.4152726E-17
   3.600000     -3.1787436E-17
   3.660000     -2.1224376E-17
   3.720000     -5.3302849E-18
   3.780000      1.3329288E-17
   3.840000      3.3715759E-17
   3.900000      5.5214746E-17
   3.960000      7.4506150E-17
   4.020000      8.2764099E-17
   4.080000      6.6476324E-17
   4.140000      1.3811032E-17
   4.200000     -7.5068573E-17
   4.260000     -1.7925986E-16
   4.320000     -2.5706603E-16
   4.380000     -2.5901577E-16
   4.440000     -1.5156815E-16
   4.500000      5.8559391E-17
   4.560000      3.1336233E-16
   4.620000      5.1620215E-16
   4.680000      5.6777434E-16
   4.740000      4.1186786E-16
   4.800000      6.9225806E-17
   4.860000     -3.5951726E-16
   4.920000     -7.2708991E-16
   4.980000     -8.9595228E-16
   5.040000     -7.9202128E-16
   5.100000     -4.3101129E-16
   5.160000      9.2347330E-17
   5.220000      6.4160829E-16
   5.280000      1.0790918E-15
   5.340000      1.2899512E-15
   5.400000      1.1883485E-15
   5.460000      7.2348117E-16
   5.520000     -9.3058845E-17
   5.580000     -1.1366714E-15
   5.640000     -2.1274056E-15
   5.700000     -2.6505294E-15
   5.760000     -2.2823591E-15
   5.820000     -8.0888639E-16
   5.880000      1.5503928E-15
   5.940000      4.0510312E-15
   6.000000      5.5822694E-15
   6.060000      5.0902021E-15
   6.120000      2.1293580E-15
   6.180000     -2.7142339E-15
   6.240000     -7.7953399E-15
   6.300000     -1.0906140E-14
   6.360000     -1.0180487E-14
   6.420000     -5.0467146E-15
   6.480000      3.2356417E-15
   6.540000      1.1803532E-14
   6.600000      1.7211754E-14
   6.660000      1.6886747E-14
   6.720000      1.0380061E-14
   6.780000     -2.0606390E-16
   6.840000     -1.0929096E-14
   6.900000     -1.7644747E-14
   6.960000     -1.7885883E-14
   7.020000     -1.2093717E-14
   7.080000     -3.5270200E-15
   7.140000      3.2509273E-15
   7.200000      4.7101613E-15
   7.260000      4.2417869E-16
   7.320000     -6.2427345E-15
   7.380000     -9.4182703E-15
   7.440000     -3.6588960E-15
   7.500000      1.2674085E-14
   7.560000      3.5271224E-14
   7.620000      5.4354135E-14
   7.680000      5.8147646E-14
   7.740000      3.8311836E-14
   7.800000     -4.8862370E-15
   7.860000     -6.0240773E-14
   7.920000     -1.0789234E-13
   7.980000     -1.2619396E-13
   8.040000     -1.0096200E-13
   8.100000     -3.3362564E-14
   8.160000      5.7416799E-14
   8.220000      1.3889511E-13
   8.280000      1.7664812E-13
   8.340000      1.4840203E-13
   8.400000      5.5169990E-14
   8.460000     -7.5777682E-14
   8.520000     -1.9841319E-13
   8.580000     -2.6392243E-13
   8.640000     -2.3926068E-13
   8.700000     -1.2076542E-13
   8.760000      6.3102647E-14
   8.820000      2.6141800E-13
   8.880000      4.1897741E-13
   8.940000      4.9521113E-13
   9.000000      4.7552825E-13
   9.060000      3.7026206E-13
   9.120000      2.0239301E-13
   9.180000     -8.9823118E-15
   9.240000     -2.5982179E-13
   9.300000     -5.5946448E-13
   9.360000     -9.1493371E-13
   9.420000     -1.3077481E-12
   9.480000     -1.6751240E-12
   9.540000     -1.9074670E-12
   9.600000     -1.8681150E-12
   9.660000     -1.4317108E-12
   9.720000     -5.2867145E-13
   9.780000      8.2059603E-13
   9.840000      2.4945968E-12
   9.900000      4.2860416E-12
   9.960000      5.9355697E-12
   10.02000      7.1686736E-12
   10.08000      7.7213756E-12
   10.14000      7.3492939E-12
   10.20000      5.8279566E-12
   10.26000      2.9626226E-12
   10.32000     -1.3729033E-12
   10.38000     -7.1597242E-12
   10.44000     -1.4130364E-11
   10.50000     -2.1669408E-11
   10.56000     -2.8760549E-11
   10.62000     -3.4017317E-11
   10.68000     -3.5812693E-11
   10.74000     -3.2490663E-11
   10.80000     -2.2612341E-11
   10.86000     -5.1736232E-12
   10.92000      2.0262365E-11
   10.98000      5.3547139E-11
   11.04000      9.4033663E-11
   11.10000      1.4072436E-10
   11.16000      1.9242061E-10
   11.22000      2.4782343E-10
   11.28000      3.0556521E-10
   11.34000      3.6419129E-10
   11.40000      4.2213733E-10
   11.46000      4.7775373E-10
   11.52000      5.2940480E-10
   11.58000      5.7563082E-10
   11.64000      6.1531996E-10
   11.70000      6.4782119E-10
   11.76000      6.7293998E-10
   11.82000      6.9080575E-10
   11.88000      7.0165457E-10
   11.94000      7.0561412E-10
   12.00000      7.0258721E-10
   12.06000      6.9229544E-10
   12.12000      6.7448108E-10
   12.18000      6.4919359E-10
   12.24000      6.1704486E-10
   12.30000      5.7931993E-10
   12.36000      5.3788241E-10
   12.42000      4.9489479E-10
   12.48000      4.5244863E-10
   12.54000      4.1223522E-10
   12.60000      3.7537004E-10
   12.66000      3.4241412E-10
   12.72000      3.1354891E-10
   12.78000      2.8879360E-10
   12.84000      2.6813682E-10
   12.90000      2.5149963E-10
   12.96000      2.3853400E-10
   13.02000      2.2835479E-10
   13.08000      2.1935742E-10
   13.14000      2.0926311E-10
   13.20000      1.9545364E-10
   13.26000      1.7553976E-10
   13.32000      1.4799770E-10
   13.38000      1.1265597E-10
   13.44000      7.0844879E-11
   13.50000      2.5129092E-11
   13.56000     -2.1310582E-11
   13.62000     -6.5453726E-11
   13.68000     -1.0512623E-10
   13.74000     -1.3938518E-10
   13.80000     -1.6850982E-10
   13.86000     -1.9365475E-10
   13.92000     -2.1633867E-10
   13.98000     -2.3798077E-10
   14.04000     -2.5964228E-10
   14.10000     -2.8201250E-10
   14.16000     -3.0555336E-10
   14.22000     -3.3064462E-10
   14.28000     -3.5758685E-10
   14.34000     -3.8641185E-10
   14.40000     -4.1657611E-10
   14.46000     -4.4670401E-10
   14.52000     -4.7455923E-10
   14.58000     -4.9734145E-10
   14.64000     -5.1226662E-10
   14.70000     -5.1725685E-10
   14.76000     -5.1149984E-10
   14.82000     -4.9567694E-10
   14.88000     -4.7177817E-10
   14.94000     -4.4258305E-10
   15.00000     -4.1100662E-10
   15.06000     -3.7954773E-10
   15.12000     -3.5001366E-10
   15.18000     -3.2356531E-10
   15.24000     -3.0098696E-10
   15.30000     -2.8299904E-10
   15.36000     -2.7043148E-10
   15.42000     -2.6416092E-10
   15.48000     -2.6484140E-10
   15.54000     -2.7257011E-10
   15.60000     -2.8667582E-10
   15.66000     -3.0577485E-10
   15.72000     -3.2812877E-10
   15.78000     -3.5220307E-10
   15.84000     -3.7722758E-10
   15.90000     -4.0354078E-10
   15.96000     -4.3257187E-10
   16.02000     -4.6644910E-10
   16.08000     -5.0736554E-10
   16.14000     -5.5692501E-10
   16.20000     -6.1569388E-10
   16.26000     -6.8309797E-10
   16.32000     -7.5766682E-10
   16.38000     -8.3749752E-10
   16.44000     -9.2074071E-10
   16.50000     -1.0059305E-09
   16.56000     -1.0920639E-09
   16.62000     -1.1784561E-09
   16.68000     -1.2644817E-09
   16.74000     -1.3493450E-09
   16.80000     -1.4319776E-09
   16.86000     -1.5110929E-09
   16.92000     -1.5853431E-09
   16.98000     -1.6534978E-09
   17.04000     -1.7145735E-09
   17.10000     -1.7678969E-09
   17.16000     -1.8131354E-09
   17.22000     -1.8503525E-09
   17.28000     -1.8801187E-09
   17.34000     -1.9036552E-09
   17.40000     -1.9229300E-09
   17.46000     -1.9405941E-09
   17.52000     -1.9596778E-09
   17.58000     -1.9830477E-09
   17.64000     -2.0127284E-09
   17.70000     -2.0492759E-09
   17.76000     -2.0914246E-09
   17.82000     -2.1361626E-09
   17.88000     -2.1792792E-09
   17.94000     -2.2162667E-09
   18.00000     -2.2433397E-09
   18.06000     -2.2582920E-09
   18.12000     -2.2609463E-09
   18.18000     -2.2530882E-09
   18.24000     -2.2379234E-09
   18.30000     -2.2192295E-09
   18.36000     -2.2004314E-09
   18.42000     -2.1838222E-09
   18.48000     -2.1700857E-09
   18.54000     -2.1581834E-09
   18.60000     -2.1456112E-09
   18.66000     -2.1289568E-09
   18.72000     -2.1046536E-09
   18.78000     -2.0697788E-09
   18.84000     -2.0227036E-09
   18.90000     -1.9634061E-09
   18.96000     -1.8933286E-09
   19.02000     -1.8147835E-09
   19.08000     -1.7301025E-09
   19.14000     -1.6408287E-09
   19.20000     -1.5472890E-09
   19.26000     -1.4487351E-09
   19.32000     -1.3440105E-09
   19.38000     -1.2324455E-09
   19.44000     -1.1145623E-09
   19.50000     -9.9222419E-10
   19.56000     -8.6810725E-10
   19.62000     -7.4468637E-10
   19.68000     -6.2316413E-10
   19.74000     -5.0282628E-10
   19.80000     -3.8114312E-10
   19.86000     -2.5463079E-10
   19.92000     -1.2017612E-10
   19.98000      2.3657151E-11
   20.04000      1.7581424E-10
   20.10000      3.3271697E-10
   20.16000      4.8902810E-10
   20.22000      6.3896682E-10
   20.28000      7.7776552E-10
   20.34000      9.0282692E-10
   20.40000      1.0142424E-09
   20.46000      1.1145272E-09
   20.52000      1.2076754E-09
   20.58000      1.2978548E-09
   20.64000      1.3882023E-09
   20.70000      1.4801491E-09
   20.76000      1.5735220E-09
   20.82000      1.6673484E-09
   20.88000      1.7609818E-09
   20.94000      1.8549886E-09
   21.00000      1.9513076E-09
   21.06000      2.0525019E-09
   21.12000      2.1603448E-09
   21.18000      2.2743294E-09
   21.24000      2.3907833E-09
   21.30000      2.5030571E-09
   21.36000      2.6028004E-09
   21.42000      2.6818920E-09
   21.48000      2.7343041E-09
   21.54000      2.7572404E-09
   21.60000      2.7512115E-09
   21.66000      2.7191664E-09
   21.72000      2.6651736E-09
   21.78000      2.5932489E-09
   21.84000      2.5067772E-09
   21.90000      2.4086264E-09
   21.96000      2.3016964E-09
   22.02000      2.1894606E-09
   22.08000      2.0760900E-09
   22.14000      1.9659925E-09
   22.20000      1.8629220E-09
   22.26000      1.7690456E-09
   22.32000      1.6844125E-09
   22.38000      1.6071101E-09
   22.44000      1.5340906E-09
   22.50000      1.4623610E-09
   22.56000      1.3900703E-09
   22.62000      1.3170935E-09
   22.68000      1.2449498E-09
   22.74000      1.1762014E-09
   22.80000      1.1136910E-09
   22.86000      1.0599892E-09
   22.92000      1.0172333E-09
   22.98000      9.8726338E-10
   23.04000      9.7175856E-10
   23.10000      9.7206698E-10
   23.16000      9.8862885E-10
   23.22000      1.0201919E-09
   23.28000      1.0632458E-09
   23.34000      1.1121033E-09
   23.40000      1.1598268E-09
   23.46000      1.1998277E-09
   23.52000      1.2276447E-09
   23.58000      1.2422831E-09
   23.64000      1.2466318E-09
   23.70000      1.2467910E-09
   23.76000      1.2505028E-09
   23.82000      1.2651497E-09
   23.88000      1.2958743E-09
   23.94000      1.3443198E-09
   24.00000      1.4082904E-09
   24.06000      1.4824042E-09
   24.12000      1.5595484E-09
   24.18000      1.6327298E-09
   24.24000      1.6967844E-09
   24.30000      1.7494127E-09
   24.36000      1.7912171E-09
   24.42000      1.8247404E-09
   24.48000      1.8528863E-09
   24.54000      1.8773354E-09
   24.60000      1.8975650E-09
   24.66000      1.9108131E-09
   24.72000      1.9129263E-09
   24.78000      1.8996680E-09
   24.84000      1.8679442E-09
   24.90000      1.8165258E-09
   24.96000      1.7461329E-09
   25.02000      1.6590455E-09
   25.08000      1.5585220E-09
   25.14000      1.4482660E-09
   25.20000      1.3320173E-09
   25.26000      1.2132212E-09
   25.32000      1.0947140E-09
   25.38000      9.7844799E-10
   25.44000      8.6536478E-10
   25.50000      7.5551909E-10
   25.56000      6.4843031E-10
   25.62000      5.4348481E-10
   25.68000      4.4013779E-10
   25.74000      3.3775721E-10
   25.80000      2.3516977E-10
   25.86000      1.3018821E-10
   25.92000      1.9471430E-11
   25.98000     -1.0106835E-10
   26.04000     -2.3537561E-10
   26.10000     -3.8620526E-10
   26.16000     -5.5433885E-10
   26.22000     -7.3835449E-10
   26.28000     -9.3497110E-10
   26.34000     -1.1397359E-09
   26.40000     -1.3477220E-09
   26.46000     -1.5539872E-09
   26.52000     -1.7537355E-09
   26.58000     -1.9423041E-09
   26.64000     -2.1151463E-09
   26.70000     -2.2679363E-09
   26.76000     -2.3968032E-09
   26.82000     -2.4986151E-09
   26.88000     -2.5712228E-09
   26.94000     -2.6135938E-09
   27.00000     -2.6257971E-09
   27.06000     -2.6088134E-09
   27.12000     -2.5641507E-09
   27.18000     -2.4933244E-09
   27.24000     -2.3973645E-09
   27.30000     -2.2766178E-09
   27.36000     -2.1311073E-09
   27.42000     -1.9615183E-09
   27.48000     -1.7705643E-09
   27.54000     -1.5641798E-09
   27.60000     -1.3518946E-09
   27.66000     -1.1459607E-09
   27.72000     -9.5927433E-10
   27.78000     -8.0266083E-10
   27.84000     -6.8239259E-10
   27.90000     -5.9876282E-10
   27.96000     -5.4614724E-10
   28.02000     -5.1446236E-10
   28.08000     -4.9150517E-10
   28.14000     -4.6549026E-10
   28.20000     -4.2719217E-10
   28.26000     -3.7132633E-10
   28.32000     -2.9703082E-10
   28.38000     -2.0746754E-10
   28.44000     -1.0867667E-10
   28.50000     -7.9356756E-12
   28.56000      8.7988922E-11
   28.62000      1.7422322E-10
   28.68000      2.4838998E-10
   28.74000      3.1027356E-10
   28.80000      3.6074835E-10
   28.86000      4.0048087E-10
   28.92000      4.2900195E-10
   28.98000      4.4455042E-10
   29.04000      4.4471141E-10
   29.10000      4.2749959E-10
   29.16000      3.9235890E-10
   29.22000      3.4062553E-10
   29.28000      2.7526598E-10
   29.34000      2.0001095E-10
   29.40000      1.1822530E-10
   29.46000      3.1932259E-11
   29.52000     -5.8644492E-11
   29.58000     -1.5480585E-10
   29.64000     -2.5837066E-10
   29.70000     -3.7019632E-10
   29.76000     -4.8872445E-10
   29.82000     -6.0915861E-10
   29.88000     -7.2374789E-10
   29.94000     -8.2325496E-10
   30.00000     -8.9915814E-10
   30.06000     -9.4573482E-10
   30.12000     -9.6115060E-10
   30.18000     -9.4710484E-10
   30.24000     -9.0728985E-10
   30.30000     -8.4551754E-10
   30.36000     -7.6452339E-10
   30.42000     -6.6604744E-10
   30.48000     -5.5203353E-10
   30.54000     -4.2611001E-10
   30.60000     -2.9431760E-10
   30.66000     -1.6444655E-10
   30.72000     -4.4123889E-11
   30.78000      6.1491506E-11
   30.84000      1.5128399E-10
   30.90000      2.2822329E-10
   30.96000      2.9778710E-10
   31.02000      3.6541373E-10
   31.08000      4.3404233E-10
   31.14000      5.0272531E-10
   31.20000      5.6683125E-10
   31.26000      6.1973160E-10
   31.32000      6.5532635E-10
   31.38000      6.7048705E-10
   31.44000      6.6653294E-10
   31.50000      6.4918332E-10
   31.56000      6.2695094E-10
   31.62000      6.0850225E-10
   31.68000      5.9992433E-10
   31.74000      6.0291605E-10
   31.80000      6.1459943E-10
   31.86000      6.2901157E-10
   31.92000      6.3965433E-10
   31.98000      6.4205707E-10
   32.04000      6.3534145E-10
   32.10000      6.2224614E-10
   32.16000      6.0773209E-10
   32.22000      5.9682853E-10
   32.28000      5.9258431E-10
   32.34000      5.9481992E-10
   32.40000      6.0000338E-10
   32.46000      6.0218414E-10
   32.52000      5.9464605E-10
   32.58000      5.7181360E-10
   32.64000      5.3090288E-10
   32.70000      4.7285292E-10
   32.76000      4.0222034E-10
   32.82000      3.2600245E-10
   32.88000      2.5173369E-10
   32.94000      1.8551218E-10
   33.00000      1.3068222E-10
   33.06000      8.7634705E-11
   33.12000      5.4687352E-11
   33.18000      2.9529146E-11
   33.24000      1.0511331E-11
   33.30000     -2.7602053E-12
   33.36000     -9.6537743E-12
   33.42000     -9.2751562E-12
   33.48000     -1.3018506E-12
   33.54000      1.3476082E-11
   33.60000      3.3035460E-11
   33.66000      5.4360221E-11
   33.72000      7.3938806E-11
   33.78000      8.8454452E-11
   33.84000      9.5594525E-11
   33.90000      9.4790703E-11
   33.96000      8.7568508E-11
   34.02000      7.7203882E-11
   34.08000      6.7646146E-11
   34.14000      6.2072597E-11
   34.20000      6.1728123E-11
   34.26000      6.5631410E-11
   34.32000      7.1281037E-11
   34.38000      7.5919458E-11
   34.44000      7.7584106E-11
   34.50000      7.5329090E-11
   34.56000      6.8552122E-11
   34.62000      5.5949984E-11
   34.68000      3.4858019E-11
   34.74000      1.4644775E-12
   34.80000     -4.8176137E-11
   34.86000     -1.1687576E-10
   34.92000     -2.0541131E-10
   34.98000     -3.1229652E-10
   35.04000     -4.3411932E-10
   35.10000     -5.6614524E-10
   35.16000     -7.0301415E-10
   35.22000     -8.3960544E-10
   35.28000     -9.7220176E-10
   35.34000     -1.0997967E-09
   35.40000     -1.2249636E-09
   35.46000     -1.3535344E-09
   35.52000     -1.4927199E-09
   35.58000     -1.6481354E-09
   35.64000     -1.8209962E-09
   35.70000     -2.0069202E-09
   35.76000     -2.1970934E-09
   35.82000     -2.3813429E-09
   35.88000     -2.5516191E-09
   35.94000     -2.7041840E-09
   36.00000     -2.8395473E-09
   36.06000     -2.9604541E-09
   36.12000     -3.0692107E-09
   36.18000     -3.1657981E-09
   36.24000     -3.2475695E-09
   36.30000     -3.3103489E-09
   36.36000     -3.3501080E-09
   36.42000     -3.3643912E-09
   36.48000     -3.3531244E-09
   36.54000     -3.3188980E-09
   36.60000     -3.2669314E-09
   36.66000     -3.2046832E-09
   36.72000     -3.1408580E-09
   36.78000     -3.0836909E-09
   36.84000     -3.0388703E-09
   36.90000     -3.0079570E-09
   36.96000     -2.9881784E-09
   37.02000     -2.9738687E-09
   37.08000     -2.9589278E-09
   37.14000     -2.9390388E-09
   37.20000     -2.9125264E-09
   37.26000     -2.8795701E-09
   37.32000     -2.8404938E-09
   37.38000     -2.7943348E-09
   37.44000     -2.7385789E-09
   37.50000     -2.6700482E-09
   37.56000     -2.5861566E-09
   37.62000     -2.4856144E-09
   37.68000     -2.3682274E-09
   37.74000     -2.2342348E-09
   37.80000     -2.0839863E-09
   37.86000     -1.9184241E-09
   37.92000     -1.7400379E-09
   37.98000     -1.5533759E-09
   38.04000     -1.3643164E-09
   38.10000     -1.1781272E-09
   38.16000     -9.9729403E-10
   38.22000     -8.2048751E-10
   38.28000     -6.4349681E-10
   38.34000     -4.6183007E-10
   38.40000     -2.7364744E-10
   38.46000     -8.1469234E-11
   38.52000      1.0820753E-10
   38.58000      2.8708624E-10
   38.64000      4.4785028E-10
   38.70000      5.8622174E-10
   38.76000      7.0157541E-10
   38.82000      7.9623091E-10
   38.88000      8.7409546E-10
   38.94000      9.3934693E-10
   39.00000      9.9550723E-10
   39.06000      1.0449220E-09
   39.12000      1.0885816E-09
   39.18000      1.1263233E-09
   39.24000      1.1574998E-09
   39.30000      1.1820178E-09
   39.36000      1.2013223E-09
   39.42000      1.2187370E-09
   39.48000      1.2387994E-09
   39.54000      1.2657877E-09
   39.60000      1.3021758E-09
   39.66000      1.3478532E-09
   39.72000      1.4004894E-09
   39.78000      1.4566999E-09
   39.84000      1.5131701E-09
   39.90000      1.5670215E-09
   39.96000      1.6153419E-09
   40.02000      1.6545236E-09
   40.08000      1.6802774E-09
   40.14000      1.6887287E-09
   40.20000      1.6781627E-09
   40.26000      1.6503336E-09
   40.32000      1.6103241E-09
   40.38000      1.5646985E-09
   40.44000      1.5187087E-09
   40.50000      1.4738998E-09
   40.56000      1.4272949E-09
   40.62000      1.3725153E-09
   40.68000      1.3022381E-09
   40.74000      1.2108647E-09
   40.80000      1.0963737E-09
   40.86000      9.6087749E-10
   40.92000      8.1000234E-10
   40.98000      6.5151268E-10
   41.04000      4.9361543E-10
   41.10000      3.4325337E-10
   41.16000      2.0465672E-10
   41.22000      7.8476309E-11
   41.28000     -3.8168680E-11
   41.34000     -1.5060049E-10
   41.40000     -2.6472577E-10
   41.46000     -3.8507372E-10
   41.52000     -5.1349230E-10
   41.58000     -6.4896777E-10
   41.64000     -7.8848889E-10
   41.70000     -9.2841057E-10
   41.76000     -1.0656472E-09
   41.82000     -1.1982697E-09
   41.88000     -1.3254866E-09
   41.94000     -1.4472678E-09
   42.00000     -1.5638937E-09
   42.06000     -1.6755591E-09
   42.12000     -1.7820324E-09
   42.18000     -1.8824005E-09
   42.24000     -1.9750603E-09
   42.30000     -2.0581514E-09
   42.36000     -2.1304378E-09
   42.42000     -2.1922952E-09
   42.48000     -2.2462079E-09
   42.54000     -2.2962683E-09
   42.60000     -2.3466638E-09
   42.66000     -2.3997460E-09
   42.72000     -2.4546363E-09
   42.78000     -2.5071321E-09
   42.84000     -2.5510318E-09
   42.90000     -2.5802445E-09
   42.96000     -2.5906512E-09
   43.02000     -2.5808791E-09
   43.08000     -2.5517886E-09
   43.14000     -2.5051723E-09
   43.20000     -2.4424995E-09
   43.26000     -2.3643765E-09
   43.32000     -2.2708784E-09
   43.38000     -2.1623843E-09
   43.44000     -2.0403199E-09
   43.50000     -1.9073270E-09
   43.56000     -1.7667422E-09
   43.62000     -1.6216249E-09
   43.68000     -1.4737709E-09
   43.74000     -1.3231515E-09
   43.80000     -1.1680561E-09
   43.86000     -1.0059625E-09
   43.92000     -8.3487117E-10
   43.98000     -6.5459388E-10
   44.04000     -4.6738924E-10
   44.10000     -2.7749908E-10
   44.16000     -8.9575299E-11
   44.22000      9.3456701E-11
   44.28000      2.7214900E-10
   44.34000      4.5096948E-10
   44.40000      6.3701511E-10
   44.46000      8.3737939E-10
   44.52000      1.0562259E-09
   44.58000      1.2927985E-09
   44.64000      1.5411922E-09
   44.70000      1.7919307E-09
   44.76000      2.0346620E-09
   44.82000      2.2609334E-09
   44.88000      2.4661502E-09
   44.94000      2.6502660E-09
   45.00000      2.8172360E-09
   45.06000      2.9735701E-09
   45.12000      3.1264242E-09
   45.18000      3.2816774E-09
   45.24000      3.4424332E-09
   45.30000      3.6083290E-09
   45.36000      3.7758578E-09
   45.42000      3.9395700E-09
   45.48000      4.0936405E-09
   45.54000      4.2330965E-09
   45.60000      4.3541841E-09
   45.66000      4.4538488E-09
   45.72000      4.5288795E-09
   45.78000      4.5754818E-09
   45.84000      4.5898036E-09
   45.90000      4.5692818E-09
   45.96000      4.5140807E-09
   46.02000      4.4277191E-09
   46.08000      4.3163721E-09
   46.14000      4.1871040E-09
   46.20000      4.0458525E-09
   46.26000      3.8961190E-09
   46.32000      3.7388306E-09
   46.38000      3.5731653E-09
   46.44000      3.3976313E-09
   46.50000      3.2107357E-09
   46.56000      3.0110379E-09
   46.62000      2.7969198E-09
   46.68000      2.5666465E-09
   46.74000      2.3190487E-09
   46.80000      2.0546580E-09
   46.86000      1.7766842E-09
   46.92000      1.4911828E-09
   46.98000      1.2061232E-09
   47.04000      9.2961622E-10
   47.10000      6.6796613E-10
   47.16000      4.2426351E-10
   47.22000      1.9795959E-10
   47.28000     -1.4543864E-11
   47.34000     -2.1857632E-10
   47.40000     -4.1957446E-10
   47.46000     -6.2155697E-10
   47.52000     -8.2602303E-10
   47.58000     -1.0315112E-09
   47.64000     -1.2339391E-09
   47.70000     -1.4276568E-09
   47.76000     -1.6069192E-09
   47.82000     -1.7672951E-09
   47.88000     -1.9065289E-09
   47.94000     -2.0245825E-09
   48.00000     -2.1229354E-09
   48.06000     -2.2035280E-09
   48.12000     -2.2678399E-09
   48.18000     -2.3164546E-09
   48.24000     -2.3491680E-09
   48.30000     -2.3654605E-09
   48.36000     -2.3650288E-09
   48.42000     -2.3481519E-09
   48.48000     -2.3157978E-09
   48.54000     -2.2694813E-09
   48.60000     -2.2109301E-09
   48.66000     -2.1416140E-09
   48.72000     -2.0622271E-09
   48.78000     -1.9722959E-09
   48.84000     -1.8701531E-09
   48.90000     -1.7534723E-09
   48.96000     -1.6203656E-09
   49.02000     -1.4707566E-09
   49.08000     -1.3075013E-09
   49.14000     -1.1367028E-09
   49.20000     -9.6689212E-10
   49.26000     -8.0717244E-10
   49.32000     -6.6484973E-10
   49.38000     -5.4331922E-10
   49.44000     -4.4093795E-10
   49.50000     -3.5130485E-10
   49.56000     -2.6492283E-10
   49.62000     -1.7179756E-10
   49.68000     -6.4251188E-11
   49.74000      6.0826892E-11
   49.80000      2.0092540E-10
   49.86000      3.4838651E-10
   49.92000      4.9235827E-10
   49.98000      6.2177430E-10
   50.04000      7.2859174E-10
   50.10000      8.1036367E-10
   50.16000      8.7131274E-10
   50.22000      9.2143365E-10
   50.28000      9.7372232E-10
   50.34000      1.0402538E-09
   50.40000      1.1282966E-09
   50.46000      1.2377526E-09
   50.52000      1.3608582E-09
   50.58000      1.4843575E-09
   50.64000      1.5934872E-09
   50.70000      1.6764446E-09
   50.76000      1.7277868E-09
   50.82000      1.7495806E-09
   50.88000      1.7499360E-09
   50.94000      1.7395303E-09
   51.00000      1.7274782E-09
   51.06000      1.7181180E-09
   51.12000      1.7099047E-09
   51.18000      1.6967395E-09
   51.24000      1.6711084E-09
   51.30000      1.6277041E-09
   51.36000      1.5660673E-09
   51.42000      1.4912312E-09
   51.48000      1.4121890E-09
   51.54000      1.3388669E-09
   51.60000      1.2788259E-09
   51.66000      1.2349333E-09
   51.72000      1.2047937E-09
   51.78000      1.1820234E-09
   51.84000      1.1587946E-09
   51.90000      1.1286870E-09
   51.96000      1.0888523E-09
   52.02000      1.0407974E-09
   52.08000      9.8957942E-10
   52.14000      9.4175223E-10
   52.20000      9.0285152E-10
   52.26000      8.7539104E-10
   52.32000      8.5818763E-10
   52.38000      8.4731439E-10
   52.44000      8.3829366E-10
   52.50000      8.2857521E-10
   52.56000      8.1919643E-10
   52.62000      8.1490542E-10
   52.68000      8.2277285E-10
   52.74000      8.5006818E-10
   52.80000      9.0247687E-10
   52.86000      9.8344366E-10
   52.92000      1.0947964E-09
   52.98000      1.2381575E-09
   53.04000      1.4163299E-09
   53.10000      1.6340578E-09
   53.16000      1.8979633E-09
   53.22000      2.2158602E-09
   53.28000      2.5958224E-09
   53.34000      3.0452674E-09
   53.40000      3.5702152E-09
   53.46000      4.1749311E-09
   53.52000      4.8621209E-09
   53.58000      5.6338125E-09
   53.64000      6.4927330E-09
   53.70000      7.4436008E-09
   53.76000      8.4936431E-09
   53.82000      9.6518527E-09
   53.88000      1.0927229E-08
   53.94000      1.2326783E-08
   54.00000      1.3854331E-08
   54.06000      1.5510489E-08
   54.12000      1.7293546E-08
   54.18000      1.9200336E-08
   54.24000      2.1226215E-08
   54.30000      2.3364066E-08
   54.36000      2.5602976E-08
   54.42000      2.7927539E-08
   54.48000      3.0318326E-08
   54.54000      3.2753139E-08
   54.60000      3.5208082E-08
   54.66000      3.7657639E-08
   54.72000      4.0073513E-08
   54.78000      4.2422869E-08
   54.84000      4.4667029E-08
   54.90000      4.6761073E-08
   54.96000      4.8654375E-08
   55.02000      5.0291430E-08
   55.08000      5.1612602E-08
   55.14000      5.2554594E-08
   55.20000      5.3051213E-08
   55.26000      5.3034537E-08
   55.32000      5.2436011E-08
   55.38000      5.1187055E-08
   55.44000      4.9218510E-08
   55.50000      4.6459519E-08
   55.56000      4.2836625E-08