 -0.750000000       0.00000000    
 -0.689999998       0.00000000    
 -0.629999995       0.00000000    
 -0.569999993       0.00000000    
 -0.509999990       0.00000000    
 -0.449999988       0.00000000    
 -0.389999986       0.00000000    
 -0.330000013       0.00000000    
 -0.270000011       0.00000000    
 -0.209999993       0.00000000    
 -0.150000006       0.00000000    
  -9.00000036E-02   0.00000000    
  -2.99999993E-02   1.51946234E-35
   2.99999993E-02   2.08963544E-34
   9.00000036E-02   1.29854565E-33
  0.150000006       4.24147639E-33
  0.209999993       3.22196279E-33
  0.270000011      -4.20133054E-32
  0.330000013      -2.58130778E-31
  0.389999986      -8.53635346E-31
  0.449999988      -1.77272372E-30
  0.509999990      -1.55076481E-30
  0.569999993       4.59685210E-30
  0.629999995       2.52439582E-29
  0.689999998       6.56004239E-29
  0.750000000       1.04606428E-28
  0.810000002       5.83631343E-29
  0.870000005      -2.34316894E-28
  0.930000007      -9.19647437E-28
  0.990000010      -1.84047162E-27
   1.04999995      -2.11341075E-27
   1.11000001      -9.29542113E-30
   1.16999996       6.02024323E-27
   1.23000002       1.45524222E-26
   1.28999996       1.77738466E-26
   1.35000002       1.90322285E-27
   1.40999997      -4.16194724E-26
   1.47000003      -9.13128869E-26
   1.52999997      -7.04877910E-26
   1.59000003       1.39754734E-25
   1.64999998       5.97876595E-25
   1.71000004       1.09591052E-24
   1.76999998       9.54339468E-25
   1.83000004      -9.11738219E-25
   1.88999999      -5.30833536E-24
   1.95000005      -1.13439689E-23
   2.00999999      -1.48382922E-23
   2.06999993      -8.05269606E-24
   2.13000011       1.72720322E-23
   2.19000006       6.25556790E-23
   2.25000000       1.12724639E-22
   2.30999994       1.30591467E-22
   2.36999989       6.43353618E-23
   2.43000007      -1.25594873E-22
   2.49000001      -4.24389547E-22
   2.54999995      -7.25493438E-22
   2.60999990      -8.29408507E-22
   2.67000008      -5.05414826E-22
   2.73000002       3.85012766E-22
   2.78999996       1.74754668E-21
   2.84999990       3.17530040E-21
   2.91000009       4.00231218E-21
   2.97000003       3.50428725E-21
   3.02999997       1.17566781E-21
   3.08999991      -3.03998750E-21
   3.15000010      -8.65178656E-21
   3.21000004      -1.46176708E-20
   3.26999998      -1.92848306E-20
   3.32999992      -2.01734666E-20
   3.39000010      -1.37975988E-20
   3.45000005       3.86502686E-21
   3.50999999       3.54643897E-20
   3.56999993       7.86429883E-20
   3.63000011       1.21724875E-19
   3.69000006       1.41486943E-19
   3.75000000       1.06715553E-19
   3.80999994      -9.86948609E-21
   3.86999989      -2.12506732E-19
   3.93000007      -4.62715684E-19
   3.99000001      -6.70146319E-19
   4.05000019      -7.05344560E-19
   4.11000013      -4.39907109E-19
   4.17000008       1.91793018E-19
   4.23000002       1.12785187E-18
   4.28999996       2.13821742E-18
   4.34999990       2.83546430E-18
   4.40999985       2.75439894E-18
   4.46999979       1.50001956E-18
   4.53000021      -1.05953999E-18
   4.59000015      -4.60344292E-18
   4.65000010      -8.24392600E-18
   4.71000004      -1.05738307E-17
   4.76999998      -9.95267022E-18
   4.82999992      -5.05532879E-18
   4.88999987       4.39816564E-18
   4.94999981       1.69546466E-17
   5.01000023       2.91249433E-17
   5.07000017       3.58240773E-17
   5.13000011       3.17460934E-17
   5.19000006       1.35076799E-17
   5.25000000      -1.80565868E-17
   5.30999994      -5.64135060E-17
   5.36999989      -8.96541361E-17
   5.42999983      -1.03170731E-16
   5.48999977      -8.43956299E-17
   5.55000019      -2.83383310E-17
   5.61000013       5.80355741E-17
   5.67000008       1.54591044E-16
   5.73000002       2.31248597E-16
   5.78999996       2.55572869E-16
   5.84999990       2.03115470E-16
   5.90999985       6.76960974E-17
   5.96999979      -1.31673402E-16
   6.03000021      -3.50100422E-16
   6.09000015      -5.23980669E-16
   6.15000010      -5.85765105E-16
   6.21000004      -4.83853436E-16
   6.26999998      -2.03006772E-16
   6.32999992       2.20813522E-16
   6.38999987       6.97407171E-16
   6.44999981       1.09547057E-15
   6.51000023       1.27229939E-15
   6.57000017       1.11504857E-15
   6.63000011       5.83306539E-16
   6.69000006      -2.60269534E-16
   6.75000000      -1.24366894E-15
   6.80999994      -2.11090267E-15
   6.86999989      -2.57811651E-15
   6.92999983      -2.41045269E-15
   6.98999977      -1.50217662E-15
   7.05000019       6.14742102E-17
   7.11000013       1.98208441E-15
   7.17000008       3.78190385E-15
   7.23000002       4.89992424E-15
   7.28999996       4.84054935E-15
   7.34999990       3.34513110E-15
   7.40999985       5.37165637E-16
   7.46999979      -3.01806309E-15
   7.53000021      -6.38887729E-15
   7.59000015      -8.50180437E-15
   7.65000010      -8.47360918E-15
   7.71000004      -5.95123443E-15
   7.76999998      -1.32853190E-15
   7.82999992       4.27208775E-15
   7.88999987       9.28882164E-15
   7.94999981       1.22058303E-14
   8.01000023       1.20628198E-14
   8.06999969       8.78480909E-15
   8.13000011       3.18992566E-15
   8.18999958      -3.32756279E-15
   8.25000000      -9.28794158E-15
   8.31000042      -1.35533462E-14
   8.36999989      -1.54941079E-14
   8.43000031      -1.48554976E-14
   8.48999977      -1.14848240E-14
   8.55000019      -5.19745727E-15
   8.60999966       3.99573054E-15
   8.67000008       1.53126159E-14
   8.72999954       2.65950930E-14
   8.78999996       3.41877642E-14
   8.85000038       3.37289909E-14
   8.90999985       2.18842312E-14
   8.97000027      -1.52113046E-15
   9.02999973      -3.19730712E-14
   9.09000015      -6.03969457E-14
   9.14999962      -7.54828125E-14
   9.21000004      -6.77973845E-14
   9.27000046      -3.42685407E-14
   9.32999992       1.89222790E-14
   9.39000034       7.67224961E-14
   9.44999981       1.19396965E-13
   9.51000023       1.29425225E-13
   9.56999969       9.86016485E-14
   9.63000011       3.23505057E-14
   9.68999958      -5.09161771E-14
   9.75000000      -1.25656687E-13
   9.81000042      -1.68271077E-13
   9.86999989      -1.65790572E-13
   9.93000031      -1.20483498E-13
   9.98999977      -4.82665733E-14
   10.0500002       2.84883641E-14
   10.1099997       9.05289027E-14
   10.1700001       1.29167754E-13
   10.2299995       1.47907159E-13
   10.2900000       1.57276834E-13
   10.3500004       1.65399324E-13
   10.4099998       1.69355171E-13
   10.4700003       1.52647887E-13
   10.5299997       9.15455591E-14
   10.5900002      -3.12880045E-14
   10.6499996      -2.11710423E-13
   10.7100000      -4.15375010E-13
   10.7700005      -5.81532381E-13
   10.8299999      -6.40552769E-13
   10.8900003      -5.39995403E-13
   10.9499998      -2.69168097E-13
   11.0100002       1.28733138E-13
   11.0699997       5.63744852E-13
   11.1300001       9.24685458E-13
   11.1899996       1.11424195E-12
   11.2500000       1.07997086E-12
   11.3100004       8.28714322E-13
   11.3699999       4.18859852E-13
   11.4300003      -6.52344389E-14
   11.4899998      -5.44033893E-13
   11.5500002      -9.63750781E-13
   11.6099997      -1.29739644E-12
   11.6700001      -1.52673729E-12
   11.7299995      -1.61736314E-12
   11.7900000      -1.50515874E-12
   11.8500004      -1.10910792E-12
   11.9099998      -3.72773264E-13
   11.9700003       6.79969048E-13
   12.0299997       1.90218414E-12
   12.0900002       3.02277214E-12
   12.1499996       3.70259812E-12
   12.2100000       3.63964501E-12
   12.2700005       2.69006584E-12
   12.3299999       9.57769020E-13
   12.3900003      -1.18993422E-12
   12.4499998      -3.19850808E-12
   12.5100002      -4.47640015E-12
   12.5699997      -4.56962853E-12
   12.6300001      -3.29771952E-12
   12.6899996      -8.00803868E-13
   12.7500000       2.51727892E-12
   12.8100004       6.12205078E-12
   12.8699999       9.49830579E-12
   12.9300003       1.22524916E-11
   12.9899998       1.41282437E-11
   13.0500002       1.49402574E-11
   13.1099997       1.44750496E-11
   13.1700001       1.24277732E-11
   13.2299995       8.43007955E-12
   13.2900000       2.17911865E-12
   13.3500004      -6.37841429E-12
   13.4099998      -1.68938353E-11
   13.4700003      -2.85851568E-11
   13.5299997      -4.03754946E-11
   13.5900002      -5.11789916E-11
   13.6499996      -6.02410136E-11
   13.7100000      -6.74013692E-11
   13.7700005      -7.31649116E-11
   13.8299999      -7.85323265E-11
   13.8900003      -8.46393233E-11
   13.9499998      -9.23348134E-11
   14.0100002      -1.01860749E-10
   14.0699997      -1.12759434E-10
   14.1300001      -1.24040764E-10
   14.1899996      -1.34529970E-10
   14.2500000      -1.43236187E-10
   14.3100004      -1.49572438E-10
   14.3699999      -1.53327864E-10
   14.4300003      -1.54415924E-10
   14.4899998      -1.52544477E-10
   14.5500002      -1.47014831E-10
   14.6099997      -1.36824579E-10
   14.6700001      -1.21126276E-10
   14.7299995      -9.99301267E-11
   14.7900000      -7.48045376E-11
   14.8500004      -4.92866963E-11
   14.9099998      -2.87935405E-11
   14.9700003      -1.99960604E-11
   15.0299997      -2.98190535E-11
   15.0900002      -6.43700232E-11
   15.1499996      -1.28124136E-10
   15.2100000      -2.23582861E-10
   15.2700005      -3.51428608E-10
   15.3299999      -5.11000298E-10
   15.3900003      -7.00799196E-10
   15.4499998      -9.18754905E-10
   15.5100002      -1.16212406E-09
   15.5699997      -1.42710210E-09
   15.6300001      -1.70839143E-09
   15.6899996      -1.99902894E-09
   15.7500000      -2.29068431E-09
   15.8100004      -2.57444510E-09
   15.8699999      -2.84189272E-09
   15.9300003      -3.08614068E-09
   15.9899998      -3.30251160E-09
   16.0499992      -3.48868845E-09
   16.1100006      -3.64438524E-09
   16.1700001      -3.77078635E-09
   16.2299995      -3.87004961E-09
   16.2900009      -3.94508515E-09
   16.3500004      -3.99960864E-09
   16.4099998      -4.03826128E-09
   16.4699993      -4.06645384E-09
   16.5300007      -4.08968592E-09
   16.5900002      -4.11228696E-09
   16.6499996      -4.13582901E-09
   16.7099991      -4.15769286E-09
   16.7700005      -4.17032719E-09
   16.8299999      -4.16158086E-09
   16.8899994      -4.11616607E-09
   16.9500008      -4.01796552E-09
   17.0100002      -3.85261156E-09
   17.0699997      -3.60973651E-09
   17.1299992      -3.28442229E-09
   17.1900005      -2.87768964E-09
   17.2500000      -2.39618525E-09
   17.3099995      -1.85142168E-09
   17.3700008      -1.25894162E-09
   17.4300003      -6.37623065E-10
   17.4899998      -9.08726479E-12
   17.5499992       6.03033845E-10
   17.6100006       1.17427945E-09
   17.6700001       1.68115855E-09
   17.7299995       2.10345541E-09
   17.7900009       2.42661802E-09
   17.8500004       2.64360822E-09
   17.9099998       2.75562240E-09
   17.9699993       2.77135492E-09
   18.0300007       2.70490808E-09
   18.0900002       2.57287214E-09
   18.1499996       2.39135778E-09
   18.2099991       2.17376694E-09
   18.2700005       1.92981298E-09
   18.3299999       1.66587688E-09
   18.3899994       1.38636880E-09
   18.4500008       1.09550102E-09
   18.5100002       7.98837774E-10
   18.5699997       5.04164377E-10
   18.6299992       2.21502233E-10
   18.6900005      -3.76207780E-11
   18.7500000      -2.61344252E-10
   18.8099995      -4.38738296E-10
   18.8700008      -5.60850977E-10
   18.9300003      -6.21353802E-10
   18.9899998      -6.16726947E-10
   19.0499992      -5.46041545E-10
   19.1100006      -4.10473627E-10
   19.1700001      -2.12731902E-10
   19.2299995       4.34167320E-11
   19.2900009       3.53379631E-10
   19.3500004       7.11667558E-10
   19.4099998       1.11156584E-09
   19.4699993       1.54470225E-09
   19.5300007       2.00073180E-09
   19.5900002       2.46736520E-09
   19.6499996       2.93089619E-09
   19.7099991       3.37724559E-09
   19.7700005       3.79337539E-09
   19.8299999       4.16877333E-09
   19.8899994       4.49663773E-09
   19.9500008       4.77442397E-09
   20.0100002       5.00358244E-09
   20.0699997       5.18856380E-09
   20.1299992       5.33541167E-09
   20.1900005       5.45042989E-09
   20.2500000       5.53936852E-09
   20.3099995       5.60737057E-09
   20.3700008       5.65956126E-09
   20.4300003       5.70186653E-09
   20.4899998       5.74145931E-09
   20.5499992       5.78634163E-09
   20.6100006       5.84388538E-09
   20.6700001       5.91857896E-09
   20.7299995       6.00959904E-09
   20.7900009       6.10899553E-09
   20.8500004       6.20117646E-09
   20.9099998       6.26402663E-09
   20.9699993       6.27158148E-09
   21.0300007       6.19770946E-09
   21.0900002       6.02002714E-09
   21.1499996       5.72317438E-09
   21.2099991       5.30077271E-09
   21.2700005       4.75572026E-09
   21.3299999       4.09892431E-09
   21.3899994       3.34697403E-09
   21.4500008       2.51950949E-09
   21.5100002       1.63705627E-09
   21.5699997       7.19845794E-10
   21.6299992      -2.12240586E-10
   21.6900005      -1.13889687E-09
   21.7500000      -2.03834860E-09
   21.8099995      -2.88665003E-09
   21.8700008      -3.65776054E-09
   21.9300003      -4.32456471E-09
   21.9899998      -4.86072516E-09
   22.0499992      -5.24309440E-09
   22.1100006      -5.45432322E-09
   22.1700001      -5.48530732E-09
   22.2299995      -5.33707745E-09
   22.2900009      -5.02173725E-09
   22.3500004      -4.56213156E-09
   22.4099998      -3.99010691E-09
   22.4699993      -3.34354899E-09
   22.5300007      -2.66274469E-09
   22.5900002      -1.98683048E-09
   22.6499996      -1.35106637E-09
   22.7099991      -7.85367271E-10
   22.7700005      -3.14047038E-10
   22.8299999       4.36922304E-11
   22.8899994       2.73206929E-10
   22.9500008       3.64375530E-10
   23.0100002       3.12324638E-10
   23.0699997       1.18744417E-10
   23.1299992      -2.06706208E-10
   23.1900005      -6.45539733E-10
   23.2500000      -1.17068166E-09
   23.3099995      -1.74813219E-09
   23.3700008      -2.34003572E-09
   23.4300003      -2.90879187E-09
   23.4899998      -3.42150708E-09
   23.5499992      -3.85388210E-09
   23.6100006      -4.19259516E-09
   23.6700001      -4.43551196E-09
   23.7299995      -4.58955718E-09
   23.7900009      -4.66677053E-09
   23.8500004      -4.67966865E-09
   23.9099998      -4.63733008E-09
   23.9699993      -4.54347004E-09
   24.0300007      -4.39712267E-09
   24.0900002      -4.19567536E-09
   24.1499996      -3.93911392E-09
   24.2099991      -3.63384145E-09
   24.2700005      -3.29446870E-09
   24.3299999      -2.94262170E-09
   24.3899994      -2.60281885E-09
   24.4500008      -2.29656849E-09
   24.5100002      -2.03660466E-09
   24.5699997      -1.82331483E-09
   24.6299992      -1.64482250E-09
   24.6900005      -1.48101820E-09
   24.7500000      -1.31044275E-09
   24.8099995      -1.11784415E-09
   24.8700008      -8.99862962E-10
   24.9300003      -6.66849465E-10
   24.9899998      -4.40115777E-10
   25.0499992      -2.45538229E-10
   25.1100006      -1.05728926E-10
   25.1700001      -3.35192187E-11
   25.2299995      -2.90180224E-11
   25.2900009      -8.12076309E-11
   25.3500004      -1.73397241E-10
   25.4099998      -2.90470259E-10
   25.4699993      -4.25232932E-10
   25.5300007      -5.81513282E-10
   25.5900002      -7.72836684E-10
   25.6499996      -1.01709763E-09
   25.7099991      -1.32909972E-09
   25.7700005      -1.71363135E-09
   25.8299999      -2.16161711E-09
   25.8899994      -2.65085176E-09
   25.9500008      -3.15124926E-09
   26.0100002      -3.63293862E-09
   26.0699997      -4.07450962E-09
   26.1299992      -4.46858461E-09
   26.1900005      -4.82275864E-09
   26.2500000      -5.15551823E-09
   26.3099995      -5.48847501E-09
   26.3700008      -5.83752913E-09
   26.4300003      -6.20598994E-09
   26.4899998      -6.58202604E-09
   26.5499992      -6.94135061E-09
   26.6100006      -7.25423854E-09
   26.6700001      -7.49444684E-09
   26.7299995      -7.64693553E-09
   26.7900009      -7.71165798E-09
   26.8500004      -7.70208164E-09
   26.9099998      -7.63895880E-09
   26.9699993      -7.54156027E-09
   27.0300007      -7.41954231E-09
   27.0900002      -7.26840454E-09
   27.1499996      -7.07023462E-09
   27.2099991      -6.79958001E-09
   27.2700005      -6.43249276E-09
   27.3299999      -5.95567240E-09
   27.3899994      -5.37260414E-09
   27.4500008      -4.70459538E-09
   27.5100002      -3.98628686E-09
   27.5699997      -3.25705685E-09
   27.6299992      -2.55107335E-09
   27.6900005      -1.88922722E-09
   27.7500000      -1.27557731E-09
   27.8099995      -6.99462599E-10
   27.8700008      -1.42486911E-10
   27.9300003       4.12142515E-10
   27.9899998       9.71348446E-10
   28.0499992       1.52807855E-09
   28.1100006       2.06293649E-09
   28.1700001       2.55094723E-09
   28.2299995       2.97087133E-09
   28.2900009       3.31348793E-09
   28.3500004       3.58570440E-09
   28.4099998       3.80897935E-09
   28.4699993       4.01273192E-09
   28.5300007       4.22517843E-09
   28.5900002       4.46478587E-09
   28.6499996       4.73503414E-09
   28.7099991       5.02380804E-09
   28.7700005       5.30714450E-09
   28.8299999       5.55577717E-09
   28.8899994       5.74233905E-09
   28.9500008       5.84718185E-09
   29.0100002       5.86140736E-09
   29.0699997       5.78661918E-09
   29.1299992       5.63188074E-09
   29.1900005       5.40919221E-09
   29.2500000       5.12920417E-09
   29.3099995       4.79872497E-09
   29.3700008       4.42081260E-09
   29.4300003       3.99712752E-09
   29.4899998       3.53125262E-09
   29.5499992       3.03128078E-09
   29.6100006       2.51043120E-09
   29.6700001       1.98543315E-09
   29.7299995       1.47352253E-09
   29.7900009       9.89423210E-10
   29.8500004       5.43484591E-10
   29.9099998       1.41361728E-10
   29.9699993      -2.15218246E-10
   30.0300007      -5.27453359E-10
   30.0900002      -7.98871691E-10
   30.1499996      -1.03520770E-09
   30.2099991      -1.24430322E-09
   30.2700005      -1.43548540E-09
   30.3299999      -1.61818714E-09
   30.3899994      -1.80005488E-09
   30.4500008      -1.98508321E-09
   30.5100002      -2.17230633E-09
   30.5699997      -2.35536679E-09
   30.6299992      -2.52308530E-09
   30.6900005      -2.66110423E-09
   30.7500000      -2.75466738E-09
   30.8099995      -2.79239942E-09
   30.8700008      -2.77047252E-09
   30.9300003      -2.69596434E-09
   30.9899998      -2.58793431E-09
   31.0499992      -2.47513809E-09
   31.1100006      -2.39039211E-09
   31.1700001      -2.36299003E-09
   31.2299995      -2.41155318E-09
   31.2900009      -2.53976684E-09
   31.3500004      -2.73649192E-09
   31.4099998      -2.98018432E-09
   31.4699993      -3.24610427E-09
   31.5300007      -3.51399687E-09
   31.5900002      -3.77399623E-09
   31.6499996      -4.02922273E-09
   31.7099991      -4.29453317E-09
   31.7700005      -4.59184912E-09
   31.8299999      -4.94331376E-09
   31.8899994      -5.36411005E-09
   31.9500008      -5.85708371E-09
   32.0099983      -6.41107478E-09
   32.0699997      -7.00394587E-09
   32.1300011      -7.60977859E-09
   32.1899986      -8.20805734E-09
   32.2500000      -8.79158346E-09
   32.3100014      -9.36994837E-09
   32.3699989      -9.96682203E-09
   32.4300003      -1.06115552E-08
   32.4900017      -1.13278400E-08
   32.5499992      -1.21234676E-08
   32.6100006      -1.29850344E-08
   32.6699982      -1.38798733E-08
   32.7299995      -1.47650674E-08
   32.7900009      -1.56009268E-08
   32.8499985      -1.63646838E-08
   32.9099998      -1.70597705E-08
   32.9700012      -1.77171557E-08
   33.0299988      -1.83876043E-08
   33.0900002      -1.91266540E-08
   33.1500015      -1.99767172E-08
   33.2099991      -2.09521005E-08
   33.2700005      -2.20321557E-08
   33.3300018      -2.31652990E-08
   33.3899994      -2.42830485E-08
   33.4500008      -2.53197037E-08
   33.5099983      -2.62311968E-08
   33.5699997      -2.70068305E-08
   33.6300011      -2.76699499E-08
   33.6899986      -2.82671735E-08
   33.7500000      -2.88497173E-08
   33.8100014      -2.94527904E-08
   33.8699989      -3.00798852E-08
   33.9300003      -3.06972474E-08
   33.9900017      -3.12407451E-08
   34.0499992      -3.16333626E-08
   34.1100006      -3.18079820E-08
   34.1699982      -3.17278719E-08
   34.2299995      -3.13978745E-08
   34.2900009      -3.08618091E-08
   34.3499985      -3.01866478E-08
   34.4099998      -2.94386098E-08
   34.4700012      -2.86596258E-08
   34.5299988      -2.78528169E-08
   34.5900002      -2.69823826E-08
   34.6500015      -2.59881325E-08
   34.7099991      -2.48094523E-08
   34.7700005      -2.34101094E-08
   34.8300018      -2.17951293E-08
   34.8899994      -2.00138803E-08
   34.9500008      -1.81484427E-08
   35.0099983      -1.62913203E-08
   35.0699997      -1.45200127E-08
   35.1300011      -1.28768267E-08
   35.1899986      -1.13604308E-08
   35.2500000      -9.93177096E-09
   35.3100014      -8.53227711E-09
   35.3699989      -7.10821002E-09
   35.4300003      -5.63293501E-09
   35.4900017      -4.11950918E-09
   35.5499992      -2.61918265E-09
   35.6100006      -1.20622945E-09
   35.6699982       4.57481761E-11
   35.7299995       1.08792364E-09
   35.7900009       1.91252836E-09
   35.8499985       2.55581822E-09
   35.9099998       3.08679415E-09
   35.9700012       3.58548480E-09
   36.0299988       4.11792112E-09
   36.0900002       4.71584549E-09
   36.1500015       5.36753975E-09
   36.2099991       6.02257355E-09
   36.2700005       6.60883659E-09
   36.3300018       7.05631242E-09
   36.3899994       7.31981409E-09
   36.4500008       7.39315809E-09
   36.5099983       7.31008010E-09
   36.5699997       7.13174142E-09
   36.6300011       6.92545887E-09
   36.6899986       6.74240974E-09
   36.7500000       6.60233512E-09
   36.8100014       6.49042953E-09
   36.8699989       6.36686170E-09
   36.9300003       6.18469409E-09
   36.9900017       5.90916160E-09
   37.0499992       5.53138779E-09
   37.1100006       5.07219777E-09
   37.1699982       4.57553062E-09
   37.2299995       4.09440570E-09
   37.2900009       3.67438635E-09
   37.3499985       3.33975314E-09
   37.4099998       3.08635695E-09
   37.4700012       2.88304292E-09
   37.5299988       2.68111244E-09
   37.5900002       2.42897857E-09
   37.6500015       2.08754192E-09
   37.7099991       1.64138525E-09
   37.7700005       1.10205911E-09
   37.8300018       5.02378195E-10
   37.8899994      -1.16083511E-10
   37.9500008      -7.17536863E-10
   38.0099983      -1.28307109E-09
   38.0699997      -1.81433490E-09
   38.1300011      -2.32895170E-09
   38.1899986      -2.85009549E-09
   38.2500000      -3.39469208E-09
   38.3100014      -3.96476851E-09
   38.3699989      -4.54480054E-09
   38.4300003      -5.10544229E-09
   38.4900017      -5.61184210E-09
   38.5499992      -6.03351724E-09
   38.6100006      -6.35262287E-09
   38.6699982      -6.56819577E-09
   38.7299995      -6.69523148E-09
   38.7900009      -6.75903333E-09
   38.8499985      -6.78675605E-09
   38.9099998      -6.79907775E-09
   38.9700012      -6.80494505E-09
   39.0299988      -6.80116718E-09
   39.0900002      -6.77659884E-09
   39.1500015      -6.71865807E-09
   39.2099991      -6.61898181E-09
   39.2700005      -6.47567067E-09
   39.3300018      -6.29154417E-09
   39.3899994      -6.07002093E-09
   39.4500008      -5.81141046E-09
   39.5099983      -5.51198909E-09
   39.5699997      -5.16647347E-09
   39.6300011      -4.77252771E-09
   39.6899986      -4.33483782E-09
   39.7500000      -3.86659504E-09
   39.8100014      -3.38758155E-09
   39.8699989      -2.91965341E-09
   39.9300003      -2.48137288E-09
   39.9900017      -2.08368078E-09
   40.0499992      -1.72797021E-09
   40.1100006      -1.40718925E-09
   40.1699982      -1.10986398E-09
   40.2299995      -8.26206881E-10
   40.2900009      -5.54644775E-10
   40.3499985      -3.06453196E-10
   40.4099998      -1.06147750E-10
   40.4700012       1.36203011E-11
   40.5299988       2.17953502E-11
   40.5900002      -9.99427416E-11
   40.6500015      -3.49181239E-10
   40.7099991      -7.01824876E-10
   40.7700005      -1.11946352E-09
   40.8300018      -1.56279367E-09
   40.8899994      -2.00607442E-09
   40.9500008      -2.44696996E-09
   41.0099983      -2.90793545E-09
   41.0699997      -3.42863982E-09
   41.1300011      -4.05227762E-09
   41.1899986      -4.81064388E-09
   41.2500000      -5.71294612E-09
   41.3100014      -6.74180400E-09
   41.3699989      -7.85751020E-09
   41.4300003      -9.00917563E-09
   41.4900017      -1.01494484E-08
   41.5499992      -1.12483356E-08
   41.6100006      -1.23016921E-08
   41.6699982      -1.33311815E-08
   41.7299995      -1.43751393E-08
   41.7900009      -1.54728887E-08
   41.8499985      -1.66478173E-08
   41.9099998      -1.78954931E-08
   41.9700012      -1.91816181E-08
   42.0299988      -2.04511093E-08
   42.0900002      -2.16453202E-08
   42.1500015      -2.27210997E-08
   42.2099991      -2.36646986E-08
   42.2700005      -2.44954013E-08
   42.3300018      -2.52576395E-08
   42.3899994      -2.60044732E-08
   42.4500008      -2.67782472E-08
   42.5099983      -2.75950036E-08
   42.5699997      -2.84377766E-08
   42.6300011      -2.92608888E-08
   42.6899986      -3.00037932E-08
   42.7500000      -3.06099643E-08
   42.8100014      -3.10446993E-08
   42.8699989      -3.13058592E-08
   42.9300003      -3.14239657E-08
   42.9900017      -3.14514317E-08
   43.0499992      -3.14445963E-08
   43.1100006      -3.14448272E-08
   43.1699982      -3.14652873E-08
   43.2299995      -3.14880246E-08
   43.2900009      -3.14721476E-08
   43.3499985      -3.13700532E-08
   43.4099998      -3.11456176E-08
   43.4700012      -3.07880121E-08
   43.5299988      -3.03163894E-08
   43.5900002      -2.97739984E-08
   43.6500015      -2.92139468E-08
   43.7099991      -2.86813826E-08
   43.7700005      -2.81980661E-08
   43.8300018      -2.77543268E-08
   43.8899994      -2.73111880E-08
   43.9500008      -2.68120779E-08
   44.0099983      -2.62005493E-08
   44.0699997      -2.54383004E-08
   44.1300011      -2.45176146E-08
   44.1899986      -2.34640449E-08
   44.2500000      -2.23284662E-08
   44.3100014      -2.11711821E-08
   44.3699989      -2.00435508E-08
   44.4300003      -1.89732514E-08
   44.4900017      -1.79579924E-08
   44.5499992      -1.69692829E-08
   44.6100006      -1.59645435E-08
   44.6699982      -1.49030210E-08
   44.7299995      -1.37600908E-08
   44.7900009      -1.25353861E-08
   44.8499985      -1.12525393E-08
   44.9099998      -9.95112437E-09
   44.9700012      -8.67386518E-09
   45.0299988      -7.45342454E-09
   45.0900002      -6.30297237E-09
   45.1500015      -5.21326227E-09
   45.2099991      -4.15675583E-09
   45.2700005      -3.09712722E-09
   45.3300018      -2.00096140E-09
   45.3899994      -8.48029091E-10
   45.4500008       3.62761626E-10
   45.5099983       1.61314184E-09
   45.5699997       2.87064883E-09
   45.6300011       4.09738776E-09
   45.6899986       5.25977262E-09
   45.7500000       6.33656860E-09
   45.8100014       7.32317096E-09
   45.8699989       8.23118018E-09
   45.9300003       9.08363962E-09
   45.9900017       9.90752191E-09
   46.0499992       1.07257971E-08
   46.1100006       1.15514460E-08
   46.1699982       1.23850450E-08
   46.2299995       1.32163152E-08
   46.2900009       1.40287186E-08
   46.3499985       1.48052992E-08
   46.4099998       1.55338267E-08
   46.4700012       1.62098139E-08
   46.5299988       1.68368555E-08
   46.5900002       1.74245525E-08
   46.6500015       1.79849167E-08
   46.7099991       1.85283096E-08
   46.7700005       1.90600122E-08
   46.8300018       1.95783230E-08
   46.8899994       2.00747934E-08
   46.9500008       2.05366728E-08
   47.0099983       2.09509299E-08
   47.0699997       2.13086899E-08
   47.1300011       2.16085940E-08
   47.1899986       2.18580105E-08
   47.2500000       2.20717542E-08
   47.3100014       2.22688961E-08
   47.3699989       2.24688286E-08
   47.4300003       2.26877130E-08
   47.4900017       2.29360015E-08
   47.5499992       2.32171793E-08
   47.6100006       2.35275888E-08
   47.6699982       2.38572380E-08
   47.7299995       2.41917100E-08
   47.7900009       2.45151757E-08
   47.8499985       2.48141010E-08
   47.9099998       2.50806309E-08
   47.9700012       2.53143337E-08
   48.0299988       2.55213521E-08
   48.0900002       2.57109889E-08
   48.1500015       2.58910013E-08
   48.2099991       2.60635087E-08
   48.2700005       2.62233684E-08
   48.3300018       2.63597908E-08
   48.3899994       2.64606896E-08
   48.4500008       2.65181814E-08
   48.5099983       2.65332982E-08
   48.5699997       2.65183573E-08
   48.6300011       2.64961706E-08
   48.6899986       2.64962186E-08
   48.7500000       2.65485660E-08
   48.8100014       2.66769025E-08
   48.8699989       2.68924296E-08
   48.9300003       2.71903851E-08
   48.9900017       2.75505183E-08
   49.0499992       2.79419439E-08
   49.1100006       2.83314368E-08
   49.1699982       2.86929041E-08
   49.2299995       2.90152489E-08
   49.2900009       2.93059728E-08
   49.3499985       2.95892804E-08
   49.4099998       2.98989953E-08
   49.4700012       3.02683105E-08
   49.5299988       3.07193204E-08
   49.5900002       3.12554143E-08
   49.6500015       3.18588640E-08
   49.7099991       3.24944942E-08
   49.7700005       3.31187096E-08
   49.8300018       3.36913502E-08
   49.8899994       3.41868827E-08
   49.9500008       3.46013138E-08
   50.0099983       3.49523930E-08
   50.0699997       3.52726772E-08
   50.1300011       3.55976049E-08
   50.1899986       3.59523717E-08
   50.2500000       3.63420192E-08
   50.3100014       3.67479700E-08
   50.3699989       3.71321498E-08
   50.4300003       3.74474354E-08
   50.4900017       3.76512048E-08
   50.5499992       3.77179781E-08
   50.6100006       3.76475420E-08