 -0.750000000       0.00000000    
 -0.689999998       0.00000000    
 -0.629999995       0.00000000    
 -0.569999993       0.00000000    
 -0.509999990       0.00000000    
 -0.449999988       0.00000000    
 -0.389999986       0.00000000    
 -0.330000013       1.93439541E-24
 -0.270000011       2.54431327E-24
 -0.209999993      -4.90508946E-23
 -0.150000006      -1.76879516E-22
  -9.00000036E-02   5.27372978E-22
  -2.99999993E-02   6.48366459E-21
   2.99999993E-02   2.79439415E-20
   9.00000036E-02   7.40226740E-20
  0.150000006       1.22323792E-19
  0.209999993       6.52506951E-20
  0.270000011      -3.18890172E-19
  0.330000013      -1.26087813E-18
  0.389999986      -2.65813084E-18
  0.449999988      -3.56450283E-18
  0.509999990      -1.92526184E-18
  0.569999993       4.74359089E-18
  0.629999995       1.72361146E-17
  0.689999998       3.16237468E-17
  0.750000000       3.74028408E-17
  0.810000002       1.98849968E-17
  0.870000005      -3.12920275E-17
  0.930000007      -1.09677830E-16
  0.990000010      -1.82989504E-16
   1.04999995      -1.97632837E-16
   1.11000001      -1.02593279E-16
   1.16999996       1.13362919E-16
   1.23000002       3.91283773E-16
   1.28999996       6.04286539E-16
   1.35000002       6.06768822E-16
   1.40999997       3.16800857E-16
   1.47000003      -2.11979683E-16
   1.52999997      -7.81791240E-16
   1.59000003      -1.13134061E-15
   1.64999998      -1.07591957E-15
   1.71000004      -6.25689368E-16
   1.76999998       5.37744657E-18
   1.83000004       5.28981340E-16
   1.88999999       7.81528184E-16
   1.95000005       8.51009926E-16
   2.00999999       1.00767455E-15
   2.06999993       1.43728309E-15
   2.13000011       1.94047011E-15
   2.19000006       1.85254915E-15
   2.25000000       3.60115449E-16
   2.30999994      -2.85201203E-15
   2.36999989      -6.97038574E-15
   2.43000007      -9.91377949E-15
   2.49000001      -9.00154364E-15
   2.54999995      -2.32914028E-15
   2.60999990       9.72095922E-15
   2.67000008       2.36544166E-14
   2.73000002       3.33884667E-14
   2.78999996       3.22435865E-14
   2.84999990       1.58354656E-14
   2.91000009      -1.52121950E-14
   2.97000003      -5.39130169E-14
   3.02999997      -8.77458574E-14
   3.08999991      -1.01818822E-13
   3.15000010      -8.37485395E-14
   3.21000004      -2.89505934E-14
   3.26999998       5.53993768E-14
   3.32999992       1.49504405E-13
   3.39000010       2.24404113E-13
   3.45000005       2.49752313E-13
   3.50999999       2.04211742E-13
   3.56999993       8.51455814E-14
   3.63000011      -8.64047671E-14
   3.69000006      -2.68528093E-13
   3.75000000      -4.09472098E-13
   3.80999994      -4.63845704E-13
   3.86999989      -4.08180380E-13
   3.93000007      -2.49533819E-13
   3.99000001      -2.32381897E-14
   4.05000019       2.19538594E-13
   4.11000013       4.29075232E-13
   4.17000008       5.71463016E-13
   4.23000002       6.33627265E-13
   4.28999996       6.17353065E-13
   4.34999990       5.26725744E-13
   4.40999985       3.57633194E-13
   4.46999979       9.77996641E-14
   4.53000021      -2.59406700E-13
   4.59000015      -6.92467188E-13
   4.65000010      -1.13298444E-12
   4.71000004      -1.46530195E-12
   4.76999998      -1.55329308E-12
   4.82999992      -1.29064869E-12
   4.88999987      -6.56843883E-13
   4.94999981       2.47554906E-13
   5.01000023       1.20933287E-12
   5.07000017       1.96168667E-12
   5.13000011       2.27714982E-12
   5.19000006       2.05757611E-12
   5.25000000       1.37929306E-12
   5.30999994       4.67018839E-13
   5.36999989      -3.98374909E-13
   5.42999983      -9.99769820E-13
   5.48999977      -1.27497286E-12
   5.55000019      -1.33186149E-12
   5.61000013      -1.37482961E-12
   5.67000008      -1.57454746E-12
   5.73000002      -1.94533734E-12
   5.78999996      -2.29634844E-12
   5.84999990      -2.29071688E-12
   5.90999985      -1.59490292E-12
   5.96999979      -5.31640467E-14
   6.03000021       2.19688265E-12
   6.09000015       4.73237508E-12
   6.15000010       6.99214645E-12
   6.21000004       8.51946725E-12
   6.26999998       9.21561612E-12
   6.32999992       9.51001951E-12
   6.38999987       1.03782425E-11
   6.44999981       1.31883749E-11
   6.51000023       1.94110474E-11
   6.57000017       3.02709247E-11
   6.63000011       4.64353590E-11
   6.69000006       6.78243017E-11
   6.75000000       9.35877070E-11
   6.80999994       1.22242619E-10
   6.86999989       1.51910109E-10
   6.92999983       1.80560969E-10
   6.98999977       2.06184736E-10
   7.05000019       2.26841754E-10
   7.11000013       2.40624520E-10
   7.17000008       2.45613530E-10
   7.23000002       2.39930686E-10
   7.28999996       2.21952193E-10
   7.34999990       1.90657976E-10
   7.40999985       1.46002391E-10
   7.46999979       8.91437202E-11
   7.53000021       2.23986177E-11
   7.59000015      -5.11099427E-11
   7.65000010      -1.28010838E-10
   7.71000004      -2.05250483E-10
   7.76999998      -2.80455242E-10
   7.82999992      -3.51964319E-10
   7.88999987      -4.18552748E-10
   7.94999981      -4.79000117E-10
   8.01000023      -5.31724276E-10
   8.06999969      -5.74657766E-10
   8.13000011      -6.05421990E-10
   8.18999958      -6.21710516E-10
   8.25000000      -6.21700635E-10
   8.31000042      -6.04309658E-10
   8.36999989      -5.69198855E-10
   8.43000031      -5.16553300E-10
   8.48999977      -4.46772147E-10
   8.55000019      -3.60237840E-10
   8.60999966      -2.57291022E-10
   8.67000008      -1.38445574E-10
   8.72999954      -4.78192269E-12
   8.78999996       1.41601952E-10
   8.85000038       2.97207009E-10
   8.90999985       4.56910954E-10
   8.97000027       6.13956719E-10
   9.02999973       7.60176200E-10
   9.09000015       8.86465568E-10
   9.14999962       9.83521597E-10
   9.21000004       1.04282227E-09
   9.27000046       1.05776410E-09
   9.32999992       1.02478337E-09
   9.39000034       9.44211820E-10
   9.44999981       8.20614410E-10
   9.51000023       6.62448041E-10
   9.56999969       4.81054807E-10
   9.63000011       2.89206631E-10
   9.68999958       9.95575636E-11
   9.75000000      -7.66222918E-11
   9.81000042      -2.30185232E-10
   9.86999989      -3.54289043E-10
   9.93000031      -4.44207809E-10
   9.98999977      -4.97062669E-10
   10.0500002      -5.11724607E-10
   10.1099997      -4.88983520E-10
   10.1700001      -4.31882363E-10
   10.2299995      -3.45990819E-10
   10.2900000      -2.39375880E-10
   10.3500004      -1.22125934E-10
   10.4099998      -5.42358649E-12
   10.4700003       9.97148891E-11
   10.5299997       1.83846521E-10
   10.5900002       2.40444081E-10
   10.6499996       2.66955763E-10
   10.7100000       2.65371031E-10
   10.7700005       2.42127624E-10
   10.8299999       2.07310738E-10
   10.8900003       1.73283290E-10
   10.9499998       1.53072041E-10
   11.0100002       1.58917213E-10
   11.0699997       2.01292691E-10
   11.1300001       2.88443269E-10
   11.1899996       4.26200991E-10
   11.2500000       6.17712992E-10
   11.3100004       8.62849736E-10
   11.3699999       1.15740728E-09
   11.4300003       1.49256363E-09
   11.4899998       1.85515769E-09
   11.5500002       2.22910157E-09
   11.6099997       2.59773159E-09
   11.6700001       2.94641067E-09
   11.7299995       3.26452754E-09
   11.7900000       3.54629415E-09
   11.8500004       3.79028187E-09
   11.9099998       3.99815558E-09
   11.9700003       4.17325463E-09
   12.0299997       4.31949321E-09
   12.0900002       4.44068560E-09
   12.1499996       4.54011939E-09
   12.2100000       4.62023397E-09
   12.2700005       4.68248684E-09
   12.3299999       4.72766981E-09
   12.3900003       4.75682738E-09
   12.4499998       4.77251039E-09
   12.5100002       4.77965489E-09
   12.5699997       4.78531259E-09
   12.6300001       4.79694373E-09
   12.6899996       4.81986451E-09
   12.7500000       4.85518159E-09
   12.8100004       4.89956298E-09
   12.8699999       4.94739849E-09
   12.9300003       4.99457098E-09
   12.9899998       5.04196773E-09
   13.0500002       5.09674747E-09
   13.1099997       5.17034060E-09
   13.1700001       5.27385557E-09
   13.2299995       5.41299094E-09
   13.2900000       5.58497915E-09
   13.3500004       5.77921355E-09
   13.4099998       5.98148420E-09
   13.4700003       6.18002538E-09
   13.5299997       6.37071995E-09
   13.5900002       6.55918297E-09
   13.6499996       6.75879042E-09
   13.7100000       6.98539759E-09
   13.7700005       7.25074933E-09
   13.8299999       7.55698437E-09
   13.8900003       7.89412802E-09
   13.9499998       8.24136048E-09
   14.0100002       8.57151861E-09
   14.0699997       8.85725449E-09
   14.1300001       9.07680242E-09
   14.1899996       9.21753340E-09
   14.2500000       9.27633792E-09
   14.3100004       9.25711063E-09
   14.3699999       9.16662302E-09
   14.4300003       9.01063668E-09
   14.4899998       8.79176287E-09
   14.5500002       8.50968540E-09
   14.6099997       8.16328338E-09
   14.6700001       7.75342013E-09
   14.7299995       7.28515070E-09
   14.7900000       6.76853329E-09
   14.8500004       6.21792040E-09
   14.9099998       5.65005154E-09
   14.9700003       5.08139841E-09
   15.0299997       4.52518467E-09
   15.0900002       3.98858369E-09
   15.1499996       3.47090556E-09
   15.2100000       2.96379299E-09
   15.2700005       2.45420573E-09
   15.3299999       1.92998439E-09
   15.3900003       1.38638323E-09
   15.4499998       8.30884639E-10
   15.5100002       2.83678192E-10
   15.5699997      -2.27294100E-10
   15.6300001      -6.75387746E-10
   15.6899996      -1.04491460E-09
   15.7500000      -1.33727118E-09
   15.8100004      -1.57074120E-09
   15.8699999      -1.77394677E-09
   15.9300003      -1.97574623E-09
   15.9899998      -2.19583662E-09
   16.0499992      -2.43971265E-09
   16.1100006      -2.69939116E-09
   16.1700001      -2.95864799E-09
   16.2299995      -3.19979310E-09
   16.2900009      -3.40894379E-09
   16.3500004      -3.57810692E-09
   16.4099998      -3.70425046E-09
   16.4699993      -3.78688192E-09
   16.5300007      -3.82589427E-09
   16.5900002      -3.82071086E-09
   16.6499996      -3.77071396E-09
   16.7099991      -3.67619912E-09
   16.7700005      -3.53906748E-09
   16.8299999      -3.36290307E-09
   16.8899994      -3.15265369E-09
   16.9500008      -2.91431923E-09
   17.0100002      -2.65481082E-09
   17.0699997      -2.38169595E-09
   17.1299992      -2.10231210E-09
   17.1900005      -1.82199345E-09
   17.2500000      -1.54186930E-09
   17.3099995      -1.25741584E-09
   17.3700008      -9.59106017E-10
   17.4300003      -6.35808350E-10
   17.4899998      -2.80214407E-10
   17.5499992       1.05791452E-10
   17.6100006       5.08408371E-10
   17.6700001       9.03586372E-10
   17.7299995       1.26290223E-09
   17.7900009       1.56138402E-09
   17.8500004       1.78397452E-09
   17.9099998       1.92796779E-09
   17.9699993       2.00082151E-09
   18.0300007       2.01508454E-09
   18.0900002       1.98345296E-09
   18.1499996       1.91643346E-09
   18.2099991       1.82315829E-09
   18.2700005       1.71378955E-09
   18.3299999       1.60103020E-09
   18.3899994       1.49905743E-09
   18.4500008       1.42010748E-09
   18.5100002       1.37064027E-09
   18.5699997       1.34938249E-09
   18.6299992       1.34839706E-09
   18.6900005       1.35653977E-09
   18.7500000       1.36345457E-09
   18.8099995       1.36240941E-09
   18.8700008       1.35146883E-09
   18.9300003       1.33371203E-09
   18.9899998       1.31746603E-09
   19.0499992       1.31670430E-09
   19.1100006       1.35063860E-09
   19.1700001       1.44120893E-09
   19.2299995       1.60814029E-09
   19.2900009       1.86291116E-09
   19.3500004       2.20417995E-09
   19.4099998       2.61692112E-09
   19.4699993       3.07578252E-09
   19.5300007       3.55109031E-09
   19.5900002       4.01483868E-09
   19.6499996       4.44456028E-09
   19.7099991       4.82463758E-09
   19.7700005       5.14609111E-09
   19.8299999       5.40612932E-09
   19.8899994       5.60778801E-09
   19.9500008       5.75885117E-09
   20.0100002       5.86908344E-09
   20.0699997       5.94591487E-09
   20.1299992       5.99028205E-09
   20.1900005       5.99493255E-09
   20.2500000       5.94640026E-09
   20.3099995       5.82967230E-09
   20.3700008       5.63283953E-09
   20.4300003       5.34914468E-09
   20.4899998       4.97586816E-09
   20.5499992       4.51196103E-09
   20.6100006       3.95730382E-09
   20.6700001       3.31509997E-09
   20.7299995       2.59607624E-09
   20.7900009       1.82106197E-09
   20.8500004       1.01896480E-09
   20.9099998       2.20087490E-10
   20.9699993      -5.51857893E-10
   21.0300007      -1.28433386E-09
   21.0900002      -1.97442973E-09
   21.1499996      -2.62252997E-09
   21.2099991      -3.22586957E-09
   21.2700005      -3.77671583E-09
   21.3299999      -4.26652891E-09
   21.3899994      -4.69293537E-09
   21.4500008      -5.06397502E-09
   21.5100002      -5.39574785E-09
   21.5699997      -5.70417624E-09
   21.6299992      -5.99593397E-09
   21.6900005      -6.26449115E-09
   21.7500000      -6.49397691E-09
   21.8099995      -6.66840361E-09
   21.8700008      -6.78036383E-09
   21.9300003      -6.83399737E-09
   21.9899998      -6.84123069E-09
   22.0499992      -6.81487178E-09
   22.1100006      -6.76382905E-09
   22.1700001      -6.69340583E-09
   22.2299995      -6.60926336E-09
   22.2900009      -6.52065602E-09
   22.3500004      -6.43923403E-09
   22.4099998      -6.37349062E-09
   22.4699993      -6.32280805E-09
   22.5300007      -6.27598462E-09
   22.5900002      -6.21619556E-09
   22.6499996      -6.12975048E-09
   22.7099991      -6.01319572E-09
   22.7700005      -5.87439208E-09
   22.8299999      -5.72741010E-09
   22.8899994      -5.58525004E-09
   22.9500008      -5.45541390E-09
   23.0100002      -5.34059597E-09
   23.0699997      -5.24251975E-09
   23.1299992      -5.16458076E-09
   23.1900005      -5.11039078E-09
   23.2500000      -5.07930897E-09
   23.3099995      -5.06329156E-09
   23.3700008      -5.04902697E-09
   23.4300003      -5.02534636E-09
   23.4899998      -4.99124431E-09
   23.5499992      -4.95836394E-09
   23.6100006      -4.94497998E-09
   23.6700001      -4.96451147E-09
   23.7299995      -5.01597741E-09
   23.7900009      -5.08322895E-09
   23.8500004      -5.14425169E-09
   23.9099998      -5.18504795E-09
   23.9699993      -5.20934229E-09
   24.0300007      -5.23796428E-09
   24.0900002      -5.29849098E-09
   24.1499996      -5.41190293E-09
   24.2099991      -5.58437252E-09
   24.2700005      -5.80820503E-09
   24.3299999      -6.06952044E-09
   24.3899994      -6.35620889E-09
   24.4500008      -6.66075328E-09
   24.5100002      -6.97742086E-09
   24.5699997      -7.29809368E-09
   24.6299992      -7.61183827E-09
   24.6900005      -7.90971999E-09
   24.7500000      -8.19130364E-09
   24.8099995      -8.46697912E-09
   24.8700008      -8.75272388E-09
   24.9300003      -9.05956909E-09
   24.9899998      -9.38446476E-09
   25.0499992      -9.70905578E-09
   25.1100006      -1.00078106E-08
   25.1700001      -1.02606572E-08
   25.2299995      -1.04621893E-08
   25.2900009      -1.06219442E-08
   25.3500004      -1.07563523E-08
   25.4099998      -1.08783906E-08
   25.4699993      -1.09918901E-08
   25.5300007      -1.10934861E-08
   25.5900002      -1.11795107E-08
   25.6499996      -1.12519940E-08
   25.7099991      -1.13194512E-08
   25.7700005      -1.13927570E-08
   25.8299999      -1.14803047E-08
   25.8899994      -1.15867493E-08
   25.9500008      -1.17159926E-08
   26.0100002      -1.18748833E-08
   26.0699997      -1.20729720E-08
   26.1299992      -1.23166979E-08
   26.1900005      -1.26013600E-08
   26.2500000      -1.29070168E-08
   26.3099995      -1.32025502E-08
   26.3700008      -1.34565781E-08
   26.4300003      -1.36486946E-08
   26.4899998      -1.37738230E-08
   26.5499992      -1.38369565E-08
   26.6100006      -1.38423122E-08
   26.6700001      -1.37849563E-08
   26.7299995      -1.36512073E-08
   26.7900009      -1.34278411E-08
   26.8500004      -1.31136266E-08
   26.9099998      -1.27248905E-08
   26.9699993      -1.22908919E-08
   27.0300007      -1.18418120E-08
   27.0900002      -1.13971650E-08
   27.1499996      -1.09616920E-08
   27.2099991      -1.05302966E-08
   27.2700005      -1.00971427E-08
   27.3299999      -9.66168034E-09
   27.3899994      -9.22738419E-09
   27.4500008      -8.79496476E-09
   27.5100002      -8.35619485E-09
   27.5699997      -7.89380561E-09
   27.6299992      -7.38806216E-09
   27.6900005      -6.82527324E-09
   27.7500000      -6.20192786E-09
   27.8099995      -5.52154011E-09
   27.8700008      -4.78700368E-09
   27.9300003      -3.99492395E-09
   27.9899998      -3.13705195E-09
   28.0499992      -2.20863194E-09
   28.1100006      -1.21808441E-09
   28.1700001      -1.91070840E-10
   28.2299995       8.34338043E-10
   28.2900009       1.81864768E-09
   28.3500004       2.73142087E-09
   28.4099998       3.55550678E-09
   28.4699993       4.28417879E-09
   28.5300007       4.91531837E-09
   28.5900002       5.44818946E-09
   28.6499996       5.88520477E-09
   28.7099991       6.23614760E-09
   28.7700005       6.51962084E-09
   28.8299999       6.75838319E-09
   28.8899994       6.97027280E-09
   28.9500008       7.16074799E-09
   29.0100002       7.32300487E-09
   29.0699997       7.44687068E-09
   29.1299992       7.53139062E-09
   29.1900005       7.59283125E-09
   29.2500000       7.66218200E-09
   29.3099995       7.77276998E-09
   29.3700008       7.94485810E-09
   29.4300003       8.17588663E-09
   29.4899998       8.44126902E-09
   29.5499992       8.70409078E-09
   29.6100006       8.92716745E-09
   29.6700001       9.08087827E-09
   29.7299995       9.14428178E-09
   29.7900009       9.10208886E-09
   29.8500004       8.94222119E-09
   29.9099998       8.65682015E-09
   29.9699993       8.24550828E-09
   30.0300007       7.71702879E-09
   30.0900002       7.08612102E-09
   30.1499996       6.36624709E-09
   30.2099991       5.56241098E-09
   30.2700005       4.66903094E-09
   30.3299999       3.67485065E-09
   30.3899994       2.57230837E-09
   30.4500008       1.36586487E-09
   30.5100002       7.44824480E-11
   30.5699997      -1.27286715E-09
   30.6299992      -2.64571565E-09
   30.6900005      -4.01994482E-09
   30.7500000      -5.38160227E-09
   30.8099995      -6.72630218E-09
   30.8700008      -8.05610068E-09
   30.9300003      -9.37594091E-09
   30.9899998      -1.06903837E-08
   31.0499992      -1.20001422E-08
   31.1100006      -1.32981954E-08
   31.1700001      -1.45667318E-08
   31.2299995      -1.57773012E-08
   31.2900009      -1.68957772E-08
   31.3500004      -1.78910824E-08
   31.4099998      -1.87438118E-08
   31.4699993      -1.94502157E-08
   31.5300007      -2.00191614E-08
   31.5900002      -2.04638102E-08
   31.6499996      -2.07927524E-08
   31.7099991      -2.10055582E-08
   31.7700005      -2.10946158E-08
   31.8299999      -2.10512141E-08
   31.8899994      -2.08714646E-08
   31.9500008      -2.05585202E-08
   32.0099983      -2.01205630E-08
   32.0699997      -1.95670182E-08
   32.1300011      -1.89060909E-08
   32.1899986      -1.81450925E-08
   32.2500000      -1.72923862E-08
   32.3100014      -1.63584293E-08
   32.3699989      -1.53544466E-08
   32.4300003      -1.42893208E-08
   32.4900017      -1.31671181E-08
   32.5499992      -1.19872245E-08
   32.6100006      -1.07471578E-08
   32.6699982      -9.44609990E-09
   32.7299995      -8.08680678E-09
   32.7900009      -6.67502853E-09
   32.8499985      -5.21757570E-09
   32.9099998      -3.72107878E-09
   32.9700012      -2.19246554E-09
   33.0299988      -6.40304476E-10
   33.0900002       9.24919474E-10
   33.1500015       2.49261589E-09
   33.2099991       4.05483869E-09
   33.2700005       5.60725999E-09
   33.3300018       7.14637816E-09
   33.3899994       8.66376570E-09
   33.4500008       1.01410222E-08
   33.5099983       1.15495915E-08
   33.5699997       1.28568605E-08
   33.6300011       1.40357228E-08
   33.6899986       1.50720858E-08
   33.7500000       1.59658011E-08
   33.8100014       1.67248704E-08
   33.8699989       1.73572570E-08
   33.9300003       1.78661601E-08
   33.9900017       1.82516349E-08
   34.0499992       1.85164524E-08
   34.1100006       1.86705815E-08
   34.1699982       1.87296756E-08
   34.2299995       1.87076505E-08
   34.2900009       1.86085707E-08
   34.3499985       1.84242399E-08
   34.4099998       1.81401987E-08
   34.4700012       1.77466131E-08
   34.5299988       1.72464460E-08
   34.5900002       1.66547807E-08
   34.6500015       1.59893396E-08
   34.7099991       1.52588342E-08
   34.7700005       1.44576786E-08
   34.8300018       1.35714870E-08
   34.8899994       1.25898785E-08
   34.9500008       1.15176775E-08
   35.0099983       1.03763487E-08
   35.0699997       9.19429777E-09
   35.1300011       7.99265276E-09
   35.1899986       6.77652290E-09
   35.2500000       5.53794299E-09
   35.3100014       4.26842517E-09
   35.3699989       2.97216096E-09
   35.4300003       1.67055492E-09
   35.4900017       3.95035449E-10
   35.5499992      -8.26468616E-10
   35.6100006      -1.97962380E-09
   35.6699982      -3.06340686E-09
   35.7299995      -4.08032497E-09
   35.7900009      -5.02505948E-09
   35.8499985      -5.88049609E-09
   35.9099998      -6.62445343E-09
   35.9700012      -7.24232896E-09
   36.0299988      -7.73641684E-09
   36.0900002      -8.12503664E-09
   36.1500015      -8.43203551E-09
   36.2099991      -8.67406147E-09
   36.2700005      -8.85430751E-09
   36.3300018      -8.96624019E-09
   36.3899994      -9.00335984E-09
   36.4500008      -8.96678731E-09
   36.5099983      -8.86474094E-09
   36.5699997      -8.70464323E-09
   36.6300011      -8.48465653E-09
   36.6899986      -8.19204793E-09
   36.7500000      -7.81053000E-09
   36.8100014      -7.33168504E-09
   36.8699989      -6.76208822E-09
   36.9300003      -6.12067064E-09
   36.9900017      -5.42790701E-09
   37.0499992      -4.69433692E-09
   37.1100006      -3.91635835E-09
   37.1699982      -3.08181702E-09
   37.2299995      -2.18089857E-09
   37.2900009      -1.21442623E-09
   37.3499985      -1.94246383E-10
   37.4099998       8.63233596E-10
   37.4700012       1.94423588E-09
   37.5299988       3.03954040E-09
   37.5900002       4.14014822E-09
   37.6500015       5.23139354E-09
   37.7099991       6.29185104E-09
   37.7700005       7.29944993E-09
   37.8300018       8.24079738E-09
   37.8899994       9.11605458E-09
   37.9500008       9.93416371E-09
   38.0099983       1.07003499E-08
   38.0699997       1.14043583E-08
   38.1300011       1.20186865E-08
   38.1899986       1.25098358E-08
   38.2500000       1.28566189E-08
   38.3100014       1.30640476E-08
   38.3699989       1.31635165E-08
   38.4300003       1.31984974E-08
   38.4900017       1.32040689E-08
   38.5499992       1.31920403E-08
   38.6100006       1.31491911E-08
   38.6699982       1.30475213E-08
   38.7299995       1.28585826E-08
   38.7900009       1.25633592E-08
   38.8499985       1.21543966E-08
   38.9099998       1.16332366E-08
   38.9700012       1.10087157E-08
   39.0299988       1.02986597E-08
   39.0900002       9.53214752E-09
   39.1500015       8.74673134E-09
   39.2099991       7.97779887E-09
   39.2700005       7.24381444E-09
   39.3300018       6.53635235E-09
   39.3899994       5.82295678E-09
   39.4500008       5.06375342E-09
   39.5099983       4.23382396E-09
   39.5699997       3.33894734E-09
   39.6300011       2.41569853E-09
   39.6899986       1.51607826E-09
   39.7500000       6.85699275E-10
   39.8100014      -5.25606433E-11
   39.8699989      -7.02123193E-10
   39.9300003      -1.28448685E-09
   39.9900017      -1.82641413E-09
   40.0499992      -2.35007747E-09
   40.1100006      -2.86911717E-09
   40.1699982      -3.38842576E-09
   40.2299995      -3.90393629E-09
   40.2900009      -4.40142811E-09
   40.3499985      -4.85719598E-09
   40.4099998      -5.24425658E-09
   40.4700012      -5.54405633E-09
   40.5299988      -5.75816772E-09
   40.5900002      -5.91184879E-09
   40.6500015      -6.04474426E-09
   40.7099991      -6.19183727E-09
   40.7700005      -6.36475361E-09
   40.8300018      -6.54444721E-09
   40.8899994      -6.68984512E-09
   40.9500008      -6.75738265E-09
   41.0099983      -6.71990907E-09
   41.0699997      -6.57465371E-09
   41.1300011      -6.33774588E-09
   41.1899986      -6.03148775E-09
   41.2500000      -5.67413450E-09
   41.3100014      -5.27817612E-09
   41.3699989      -4.85540186E-09
   41.4300003      -4.42155645E-09
   41.4900017      -3.99436395E-09
   41.5499992      -3.58517793E-09
   41.6100006      -3.19115689E-09
   41.6699982      -2.79602519E-09
   41.7299995      -2.38178810E-09
   41.7900009      -1.94515049E-09
   41.8499985      -1.50747592E-09
   41.9099998      -1.11002807E-09
   41.9700012      -7.95495891E-10
   42.0299988      -5.86085902E-10
   42.0900002      -4.71306660E-10
   42.1500015      -4.12769374E-10
   42.2099991      -3.62856606E-10
   42.2700005      -2.86043134E-10
   42.3300018      -1.71214695E-10
   42.3899994      -3.02339161E-11
   42.4500008       1.13056974E-10
   42.5099983       2.34517766E-10
   42.5699997       3.15440535E-10
   42.6300011       3.42244955E-10
   42.6899986       3.05256237E-10
   42.7500000       2.01449191E-10
   42.8100014       4.08833037E-11
   42.8699989      -1.48889429E-10
   42.9300003      -3.26957961E-10
   42.9900017      -4.53069304E-10
   43.0499992      -5.05362530E-10
   43.1100006      -4.91526209E-10
   43.1699982      -4.45936954E-10
   43.2299995      -4.13656026E-10
   43.2900009      -4.30297908E-10
   43.3499985      -5.09098874E-10
   43.4099998      -6.41389664E-10
   43.4700012      -8.07831635E-10
   43.5299988      -9.91428162E-10
   43.5900002      -1.18369015E-09
   43.6500015      -1.38166023E-09
   43.7099991      -1.58072833E-09
   43.7700005      -1.77087378E-09
   43.8300018      -1.94034810E-09
   43.8899994      -2.08399564E-09
   43.9500008      -2.20887109E-09
   44.0099983      -2.33126163E-09
   44.0699997      -2.46565723E-09
   44.1300011      -2.61279109E-09
   44.1899986      -2.75548273E-09
   44.2500000      -2.86620327E-09
   44.3100014      -2.92234748E-09
   44.3699989      -2.91974755E-09
   44.4300003      -2.87591773E-09
   44.4900017      -2.82111912E-09
   44.5499992      -2.78298851E-09
   44.6100006      -2.77396905E-09
   44.6699982      -2.78808310E-09
   44.7299995      -2.80709700E-09
   44.7900009      -2.81062484E-09
   44.8499985      -2.78380052E-09
   44.9099998      -2.71975109E-09
   44.9700012      -2.61876543E-09
   45.0299988      -2.48801157E-09
   45.0900002      -2.34356268E-09
   45.1500015      -2.21250951E-09
   45.2099991      -2.13080020E-09
   45.2700005      -2.13437601E-09
   45.3300018      -2.24596297E-09
   45.3899994      -2.46408982E-09
   45.4500008      -2.76095702E-09
   45.5099983      -3.09137915E-09
   45.5699997      -3.40888051E-09
   45.6300011      -3.68127440E-09
   45.6899986      -3.89897137E-09
   45.7500000      -4.07389766E-09
   45.8100014      -4.23183888E-09
   45.8699989      -4.40306014E-09
   45.9300003      -4.61453675E-09
   45.9900017      -4.88422058E-09
   46.0499992      -5.21627941E-09
   46.1100006      -5.59742963E-09
   46.1699982      -5.99683947E-09
   46.2299995      -6.37276498E-09
   46.2900009      -6.68631195E-09
   46.3499985      -6.91782098E-09
   46.4099998      -7.07774817E-09
   46.4700012      -7.20486737E-09
   46.5299988      -7.35059569E-09
   46.5900002      -7.55589902E-09
   46.6500015      -7.83190668E-09
   46.7099991      -8.15385093E-09
   46.7700005      -8.47102655E-09
   46.8300018      -8.72723049E-09
   46.8899994      -8.88152663E-09
   46.9500008      -8.92035779E-09
   47.0099983      -8.85762397E-09
   47.0699997      -8.72541506E-09
   47.1300011      -8.56119264E-09
   47.1899986      -8.39645065E-09
   47.2500000      -8.24922175E-09
   47.3100014      -8.12071832E-09
   47.3699989      -7.99615663E-09
   47.4300003      -7.85038701E-09
   47.4900017      -7.65841701E-09
   47.5499992      -7.40849559E-09
   47.6100006      -7.11254167E-09
   47.6699982      -6.80796264E-09
   47.7299995      -6.54795906E-09
   47.7900009      -6.38323439E-09
   47.8499985      -6.34312824E-09
   47.9099998      -6.42508313E-09
   47.9700012      -6.59713262E-09
   48.0299988      -6.81117474E-09
   48.0900002      -7.01962577E-09
   48.1500015      -7.18765403E-09
   48.2099991      -7.29740757E-09
   48.2700005      -7.34605665E-09
   48.3300018      -7.34212957E-09
   48.3899994      -7.30307370E-09
   48.4500008      -7.25318117E-09
   48.5099983      -7.21870341E-09
   48.5699997      -7.21861726E-09
   48.6300011      -7.25406935E-09
   48.6899986      -7.30315142E-09
   48.7500000      -7.32670857E-09
   48.8100014      -7.28488647E-09
   48.8699989      -7.15678494E-09
   48.9300003      -6.95208779E-09
   48.9900017      -6.70715217E-09
   49.0499992      -6.46689990E-09
   49.1100006      -6.26261398E-09
   49.1699982      -6.09832584E-09
   49.2299995      -5.95318639E-09
   49.2900009      -5.79730086E-09
   49.3499985      -5.61055602E-09
   49.4099998      -5.39308198E-09
   49.4700012      -5.16236964E-09
   49.5299988      -4.94103292E-09
   49.5900002      -4.74457229E-09
   49.6500015      -4.57693661E-09
   49.7099991      -4.43493420E-09
   49.7700005      -4.31595115E-09
   49.8300018      -4.22179758E-09
   49.8899994      -4.15567314E-09
   49.9500008      -4.11559942E-09
   50.0099983      -4.09106216E-09
   50.0699997      -4.06729495E-09
   50.1300011      -4.03538669E-09
   50.1899986      -4.00111810E-09
   50.2500000      -3.98541422E-09
   50.3100014      -4.01482980E-09
   50.3699989      -4.10767464E-09
   50.4300003      -4.26486224E-09
   50.4900017      -4.47162751E-09
   50.5499992      -4.70887240E-09
   50.6100006      -4.96624963E-09