  -2.400000      0.0000000E+00
  -2.340000      0.0000000E+00
  -2.280000      0.0000000E+00
  -2.220000      0.0000000E+00
  -2.160000      0.0000000E+00
  -2.100000      0.0000000E+00
  -2.040000      0.0000000E+00
  -1.980000      1.1405647E-23
  -1.920000      8.7289901E-23
  -1.860000      2.6353541E-22
  -1.800000      1.5433907E-22
  -1.740000     -1.6485567E-21
  -1.680000     -6.7074824E-21
  -1.620000     -1.1477976E-20
  -1.560000      1.8564114E-21
  -1.500000      6.6283902E-20
  -1.440000      1.9729785E-19
  -1.380000      3.1030324E-19
  -1.320000      1.2944738E-19
  -1.260000     -7.7415260E-19
  -1.200000     -2.6277646E-18
  -1.140000     -4.7426603E-18
  -1.080000     -4.8146982E-18
  -1.020000      8.6176255E-19
 -0.9600000      1.5244846E-17
 -0.9000000      3.6335159E-17
 -0.8400000      5.2839321E-17
 -0.7800000      4.3899775E-17
 -0.7200000     -1.2576926E-17
 -0.6600000     -1.2217341E-16
 -0.6000000     -2.5377202E-16
 -0.5400000     -3.3194199E-16
 -0.4800000     -2.5813041E-16
 -0.4200000      3.4918361E-17
 -0.3600000      5.1487035E-16
 -0.3000000      1.0105401E-15
 -0.2400000      1.2479695E-15
 -0.1800000      9.7640939E-16
 -0.1200000      1.3760644E-16
 -5.9999999E-02 -1.0250661E-15
  0.0000000E+00 -2.0250006E-15
  5.9999999E-02 -2.3856645E-15
  0.1200000     -1.9746500E-15
  0.1800000     -1.1855507E-15
  0.2400000     -7.4732510E-16
  0.3000000     -1.1403344E-15
  0.3600000     -1.9163087E-15
  0.4200000     -1.4593101E-15
  0.4800000      2.3431339E-15
  0.5400000      1.0522467E-14
  0.6000000      2.1258008E-14
  0.6600000      2.9148298E-14
  0.7200000      2.6630789E-14
  0.7800000      7.6837213E-15
  0.8400000     -2.7537841E-14
  0.9000000     -6.9661968E-14
  0.9600000     -1.0117369E-13
   1.020000     -1.0251436E-13
   1.080000     -6.1429696E-14
   1.140000      1.8626183E-14
   1.200000      1.1582297E-13
   1.260000      1.9578836E-13
   1.320000      2.2466888E-13
   1.380000      1.8403390E-13
   1.440000      8.0422126E-14
   1.500000     -5.5791523E-14
   1.560000     -1.8249254E-13
   1.620000     -2.6342763E-13
   1.680000     -2.8256965E-13
   1.740000     -2.4779660E-13
   1.800000     -1.8198187E-13
   1.860000     -1.0661595E-13
   1.920000     -2.7685499E-14
   1.980000      6.7113185E-14
   2.040000      1.9674177E-13
   2.100000      3.6610076E-13
   2.160000      5.4788221E-13
   2.220000      6.7916788E-13
   2.280000      6.7878396E-13
   2.340000      4.8120752E-13
   2.400000      7.3449703E-14
   2.460000     -4.8236160E-13
   2.520000     -1.0537280E-12
   2.580000     -1.4721133E-12
   2.640000     -1.5864327E-12
   2.700000     -1.3163313E-12
   2.760000     -6.8489745E-13
   2.820000      1.8196721E-13
   2.880000      1.0893374E-12
   2.940000      1.8274158E-12
   3.000000      2.2265341E-12
   3.060000      2.1954090E-12
   3.120000      1.7341245E-12
   3.180000      9.2451979E-13
   3.240000     -9.1910373E-14
   3.300000     -1.1383693E-12
   3.360000     -2.0253016E-12
   3.420000     -2.5744368E-12
   3.480000     -2.6500889E-12
   3.540000     -2.1979066E-12
   3.600000     -1.2803243E-12
   3.660000     -8.9121175E-14
   3.720000      1.0833133E-12
   3.780000      1.9180909E-12
   3.840000      2.1711862E-12
   3.900000      1.7654233E-12
   3.960000      8.3351880E-13
   4.020000     -3.1026689E-13
   4.080000     -1.2620057E-12
   4.140000     -1.6477202E-12
   4.200000     -1.2251645E-12
   4.260000      6.3387033E-14
   4.320000      2.0882558E-12
   4.380000      4.5532601E-12
   4.440000      7.0090713E-12
   4.500000      8.8499277E-12
   4.560000      9.3216780E-12
   4.620000      7.5954590E-12
   4.680000      2.9530905E-12
   4.740000     -4.9187178E-12
   4.800000     -1.5599499E-11
   4.860000     -2.7702361E-11
   4.920000     -3.8874608E-11
   4.980000     -4.6109627E-11
   5.040000     -4.6340851E-11
   5.100000     -3.7178028E-11
   5.160000     -1.7581979E-11
   5.220000      1.1712443E-11
   5.280000      4.8129042E-11
   5.340000      8.7521990E-11
   5.400000      1.2466884E-10
   5.460000      1.5382709E-10
   5.520000      1.6922631E-10
   5.580000      1.6544342E-10
   5.640000      1.3768527E-10
   5.700000      8.2042234E-11
   5.760000     -4.2351339E-12
   5.820000     -1.2243102E-10
   5.880000     -2.7207603E-10
   5.940000     -4.5074600E-10
   6.000000     -6.5400924E-10
   6.060000     -8.7554924E-10
   6.120000     -1.1074550E-09
   6.180000     -1.3406481E-09
   6.240000     -1.5654086E-09
   6.300000     -1.7719514E-09
   6.360000     -1.9510014E-09
   6.420000     -2.0942896E-09
   6.480000     -2.1949027E-09
   6.540000     -2.2474334E-09
   6.600000     -2.2479614E-09
   6.660000     -2.1939666E-09
   6.720000     -2.0843252E-09
   6.780000     -1.9195325E-09
   6.840000     -1.7021863E-09
   6.900000     -1.4376259E-09
   6.960000     -1.1344892E-09
   7.020000     -8.0490203E-10
   7.080000     -4.6409276E-10
   7.140000     -1.2939159E-10
   7.200000      1.8122259E-10
   7.260000      4.5073367E-10
   7.320000      6.6454431E-10
   7.380000      8.1156765E-10
   7.440000      8.8490953E-10
   7.500000      8.8222885E-10
   7.560000      8.0589874E-10
   7.620000      6.6301681E-10
   7.680000      4.6517898E-10
   7.740000      2.2783510E-10
   7.800000     -3.0937676E-11
   7.860000     -2.9225469E-10
   7.920000     -5.3861637E-10
   7.980000     -7.5605128E-10
   8.040000     -9.3572017E-10
   8.100000     -1.0746084E-09
   8.160000     -1.1751982E-09
   8.220000     -1.2443028E-09
   8.280000     -1.2914539E-09
   8.340000     -1.3272624E-09
   8.400000     -1.3620423E-09
   8.460000     -1.4047851E-09
   8.520000     -1.4624053E-09
   8.580000     -1.5391324E-09
   8.640000     -1.6360058E-09
   8.700000     -1.7505639E-09
   8.760000     -1.8769029E-09
   8.820000     -2.0062665E-09
   8.880000     -2.1282069E-09
   8.940000     -2.2321869E-09
   9.000000     -2.3093647E-09
   9.060000     -2.3542550E-09
   9.120000     -2.3659772E-09
   9.180000     -2.3488682E-09
   9.240000     -2.3123079E-09
   9.300000     -2.2696791E-09
   9.360000     -2.2365241E-09
   9.420000     -2.2281277E-09
   9.480000     -2.2569937E-09
   9.540000     -2.3308138E-09
   9.600000     -2.4515219E-09
   9.660000     -2.6157458E-09
   9.720000     -2.8165179E-09
   9.780000     -3.0456255E-09
   9.840000     -3.2956891E-09
   9.900000     -3.5611167E-09
   9.960000     -3.8375312E-09
   10.02000     -4.1199173E-09
   10.08000     -4.4003534E-09
   10.14000     -4.6664685E-09
   10.20000     -4.9015543E-09
   10.26000     -5.0866462E-09
   10.32000     -5.2040283E-09
   10.38000     -5.2409583E-09
   10.44000     -5.1921822E-09
   10.50000     -5.0601683E-09
   10.56000     -4.8528479E-09
   10.62000     -4.5796447E-09
   10.68000     -4.2472936E-09
   10.74000     -3.8570853E-09
   10.80000     -3.4046248E-09
   10.86000     -2.8821905E-09
   10.92000     -2.2827198E-09
   10.98000     -1.6038381E-09
   11.04000     -8.5038837E-10
   11.10000     -3.4617344E-11
   11.16000      8.2584767E-10
   11.22000      1.7112510E-09
   11.28000      2.6028748E-09
   11.34000      3.4850436E-09
   11.40000      4.3455284E-09
   11.46000      5.1746034E-09
   11.52000      5.9634648E-09
   11.58000      6.7028050E-09
   11.64000      7.3821229E-09
   11.70000      7.9899882E-09
   11.76000      8.5151246E-09
   11.82000      8.9479419E-09
   11.88000      9.2819903E-09
   11.94000      9.5147730E-09
   12.00000      9.6475397E-09
   12.06000      9.6839541E-09
   12.12000      9.6280299E-09
   12.18000      9.4821457E-09
   12.24000      9.2460803E-09
   12.30000      8.9177030E-09
   12.36000      8.4952534E-09
   12.42000      7.9803044E-09
   12.48000      7.3800188E-09
   12.54000      6.7074568E-09
   12.60000      5.9795324E-09
   12.66000      5.2133240E-09
   12.72000      4.4223194E-09
   12.78000      3.6142951E-09
   12.84000      2.7917706E-09
   12.90000      1.9547486E-09
   12.96000      1.1042970E-09
   13.02000      2.4511590E-10
   13.08000     -6.1424682E-10
   13.14000     -1.4636591E-09
   13.20000     -2.2949835E-09
   13.26000     -3.1051117E-09
   13.32000     -3.8968366E-09
   13.38000     -4.6770099E-09
   13.44000     -5.4527969E-09
   13.50000     -6.2278187E-09
   13.56000     -7.0000463E-09
   13.62000     -7.7625071E-09
   13.68000     -8.5064729E-09
   13.74000     -9.2255910E-09
   13.80000     -9.9189243E-09
   13.86000     -1.0591382E-08
   13.92000     -1.1251273E-08
   13.98000     -1.1906172E-08
   14.04000     -1.2559140E-08
   14.10000     -1.3207278E-08
   14.16000     -1.3843512E-08
   14.22000     -1.4460929E-08
   14.28000     -1.5057678E-08
   14.34000     -1.5639992E-08
   14.40000     -1.6221604E-08
   14.46000     -1.6819307E-08
   14.52000     -1.7446247E-08
   14.58000     -1.8105588E-08
   14.64000     -1.8787338E-08
   14.70000     -1.9469910E-08
   14.76000     -2.0126302E-08
   14.82000     -2.0732752E-08
   14.88000     -2.1276820E-08
   14.94000     -2.1761869E-08
   15.00000     -2.2206187E-08
   15.06000     -2.2636971E-08
   15.12000     -2.3081205E-08
   15.18000     -2.3556563E-08
   15.24000     -2.4065429E-08
   15.30000     -2.4593941E-08
   15.36000     -2.5116293E-08
   15.42000     -2.5602743E-08
   15.48000     -2.6028717E-08
   15.54000     -2.6382139E-08
   15.60000     -2.6666834E-08
   15.66000     -2.6901029E-08
   15.72000     -2.7111538E-08
   15.78000     -2.7325415E-08
   15.84000     -2.7561660E-08
   15.90000     -2.7825655E-08
   15.96000     -2.8108115E-08
   16.02000     -2.8388971E-08
   16.08000     -2.8644870E-08
   16.14000     -2.8857588E-08
   16.20000     -2.9020313E-08
   16.26000     -2.9139480E-08
   16.32000     -2.9231712E-08
   16.38000     -2.9317363E-08
   16.44000     -2.9413481E-08
   16.50000     -2.9529021E-08
   16.56000     -2.9663875E-08
   16.62000     -2.9811421E-08
   16.68000     -2.9962809E-08
   16.74000     -3.0110758E-08
   16.80000     -3.0251318E-08
   16.86000     -3.0383401E-08
   16.92000     -3.0506936E-08
   16.98000     -3.0620956E-08
   17.04000     -3.0722557E-08
   17.10000     -3.0806842E-08
   17.16000     -3.0867611E-08
   17.22000     -3.0898228E-08
   17.28000     -3.0892437E-08
   17.34000     -3.0845040E-08
   17.40000     -3.0752521E-08
   17.46000     -3.0613410E-08
   17.52000     -3.0428318E-08
   17.58000     -3.0199487E-08
   17.64000     -2.9930106E-08
   17.70000     -2.9623692E-08
   17.76000     -2.9283854E-08
   17.82000     -2.8914318E-08
   17.88000     -2.8518901E-08
   17.94000     -2.8101130E-08
   18.00000     -2.7663672E-08
   18.06000     -2.7208019E-08
   18.12000     -2.6734948E-08
   18.18000     -2.6245711E-08
   18.24000     -2.5743175E-08
   18.30000     -2.5231811E-08
   18.36000     -2.4715941E-08
   18.42000     -2.4196774E-08
   18.48000     -2.3669841E-08
   18.54000     -2.3124601E-08
   18.60000     -2.2546896E-08
   18.66000     -2.1923288E-08
   18.72000     -2.1245084E-08
   18.78000     -2.0509990E-08
   18.84000     -1.9720748E-08
   18.90000     -1.8882092E-08
   18.96000     -1.7998273E-08
   19.02000     -1.7072773E-08
   19.08000     -1.6110098E-08
   19.14000     -1.5117731E-08
   19.20000     -1.4106115E-08
   19.26000     -1.3085804E-08
   19.32000     -1.2063070E-08
   19.38000     -1.1036630E-08
   19.44000     -9.9977138E-09
   19.50000     -8.9337275E-09
   19.56000     -7.8335844E-09
   19.62000     -6.6918009E-09
   19.68000     -5.5094240E-09
   19.74000     -4.2919086E-09
   19.80000     -3.0458227E-09
   19.86000     -1.7765392E-09
   19.92000     -4.8785087E-10
   19.98000      8.1717766E-10
   20.04000      2.1355437E-09
   20.10000      3.4646339E-09
   20.16000      4.8030384E-09
   20.22000      6.1505645E-09
   20.28000      7.5067321E-09
   20.34000      8.8684979E-09
   20.40000      1.0229120E-08
   20.46000      1.1579766E-08
   20.52000      1.2913643E-08
   20.58000      1.4230323E-08
   20.64000      1.5537363E-08
   20.70000      1.6847643E-08
   20.76000      1.8173701E-08
   20.82000      1.9522393E-08
   20.88000      2.0893161E-08
   20.94000      2.2280704E-08
   21.00000      2.3679775E-08
   21.06000      2.5088328E-08
   21.12000      2.6506367E-08
   21.18000      2.7931215E-08
   21.24000      2.9352625E-08
   21.30000      3.0751824E-08
   21.36000      3.2105934E-08
   21.42000      3.3395704E-08
   21.48000      3.4611890E-08
   21.54000      3.5756493E-08
   21.60000      3.6838060E-08
   21.66000      3.7864204E-08
   21.72000      3.8835733E-08
   21.78000      3.9745590E-08
   21.84000      4.0582243E-08
   21.90000      4.1334463E-08
   21.96000      4.1994081E-08
   22.02000      4.2555396E-08
   22.08000      4.3012722E-08
   22.14000      4.3358966E-08
   22.20000      4.3587018E-08
   22.26000      4.3693255E-08
   22.32000      4.3680416E-08
   22.38000      4.3557336E-08
   22.44000      4.3335074E-08
   22.50000      4.3021807E-08
   22.56000      4.2619686E-08
   22.62000      4.2125809E-08
   22.68000      4.1536772E-08
   22.74000      4.0853838E-08
   22.80000      4.0085734E-08
   22.86000      3.9247549E-08
   22.92000      3.8356550E-08
   22.98000      3.7427192E-08
   23.04000      3.6467352E-08
   23.10000      3.5476596E-08
   23.16000      3.4446192E-08
   23.22000      3.3360401E-08
   23.28000      3.2199114E-08
   23.34000      3.0942076E-08
   23.40000      2.9574286E-08
   23.46000      2.8090870E-08
   23.52000      2.6498965E-08
   23.58000      2.4815035E-08
   23.64000      2.3058359E-08
   23.70000      2.1243723E-08
   23.76000      1.9377220E-08
   23.82000      1.7457355E-08
   23.88000      1.5480570E-08
   23.94000      1.3447682E-08
   24.00000      1.1367502E-08
   24.06000      9.2559080E-09
   24.12000      7.1317525E-09
   24.18000      5.0126570E-09
   24.24000      2.9131189E-09
   24.30000      8.4496460E-10
   24.36000     -1.1819573E-09
   24.42000     -3.1610732E-09
   24.48000     -5.0926365E-09
   24.54000     -6.9872761E-09
   24.60000     -8.8662961E-09
   24.66000     -1.0757068E-08
   24.72000     -1.2684933E-08
   24.78000     -1.4665497E-08
   24.84000     -1.6701120E-08
   24.90000     -1.8782751E-08
   24.96000     -2.0894946E-08
   25.02000     -2.3020242E-08
   25.08000     -2.5140201E-08
   25.14000     -2.7233527E-08
   25.20000     -2.9274231E-08
   25.26000     -3.1232979E-08
   25.32000     -3.3082401E-08
   25.38000     -3.4803929E-08
   25.44000     -3.6392169E-08
   25.50000     -3.7854296E-08
   25.56000     -3.9204934E-08
   25.62000     -4.0460066E-08
   25.68000     -4.1633587E-08
   25.74000     -4.2737948E-08
   25.80000     -4.3786951E-08
   25.86000     -4.4797147E-08
   25.92000     -4.5785285E-08
   25.98000     -4.6762302E-08
   26.04000     -4.7727259E-08
   26.10000     -4.8664795E-08
   26.16000     -4.9547655E-08
   26.22000     -5.0342518E-08
   26.28000     -5.1015515E-08
   26.34000     -5.1534592E-08
   26.40000     -5.1868579E-08
   26.46000     -5.1985669E-08
   26.52000     -5.1854386E-08
   26.58000     -5.1448378E-08
   26.64000     -5.0753268E-08
   26.70000     -4.9772048E-08
   26.76000     -4.8525937E-08
   26.82000     -4.7050250E-08
   26.88000     -4.5387381E-08
   26.94000     -4.3580133E-08
   27.00000     -4.1667356E-08
   27.06000     -3.9681954E-08
   27.12000     -3.7649723E-08
   27.18000     -3.5587931E-08
   27.24000     -3.3503994E-08
   27.30000     -3.1395956E-08
   27.36000     -2.9256144E-08
   27.42000     -2.7077590E-08
   27.48000     -2.4860570E-08
   27.54000     -2.2615943E-08
   27.60000     -2.0363437E-08
   27.66000     -1.8125910E-08
   27.72000     -1.5923028E-08
   27.78000     -1.3768099E-08
   27.84000     -1.1669663E-08
   27.90000     -9.6364507E-09
   27.96000     -7.6821873E-09
   28.02000     -5.8269456E-09
   28.08000     -4.0940558E-09
   28.14000     -2.5042413E-09
   28.20000     -1.0701161E-09
   28.26000      2.0643756E-10
   28.32000      1.3334152E-09
   28.38000      2.3255993E-09
   28.44000      3.2010181E-09
   28.50000      3.9779415E-09
   28.56000      4.6722390E-09
   28.62000      5.2944813E-09
   28.68000      5.8468661E-09
   28.74000      6.3212018E-09
   28.80000      6.6996377E-09
   28.86000      6.9588473E-09
   28.92000      7.0764372E-09
   28.98000      7.0366735E-09
   29.04000      6.8325985E-09
   29.10000      6.4634986E-09
   29.16000      5.9294432E-09
   29.22000      5.2265587E-09
   29.28000      4.3464103E-09
   29.34000      3.2804761E-09
   29.40000      2.0275761E-09
   29.46000      6.0024036E-10
   29.52000     -9.7351360E-10
   29.58000     -2.6539728E-09
   29.64000     -4.3971053E-09
   29.70000     -6.1619594E-09
   29.76000     -7.9151796E-09
   29.82000     -9.6319406E-09
   29.88000     -1.1294827E-08
   29.94000     -1.2892854E-08
   30.00000     -1.4421756E-08
   30.06000     -1.5884789E-08
   30.12000     -1.7292130E-08
   30.18000     -1.8657492E-08
   30.24000     -1.9992463E-08
   30.30000     -2.1301000E-08
   30.36000     -2.2576918E-08
   30.42000     -2.3805773E-08
   30.48000     -2.4970015E-08
   30.54000     -2.6054359E-08
   30.60000     -2.7048278E-08
   30.66000     -2.7944438E-08
   30.72000     -2.8734386E-08
   30.78000     -2.9404537E-08
   30.84000     -2.9935048E-08
   30.90000     -3.0302235E-08
   30.96000     -3.0483022E-08
   31.02000     -3.0458850E-08
   31.08000     -3.0217276E-08
   31.14000     -2.9751245E-08
   31.20000     -2.9057555E-08
   31.26000     -2.8136165E-08
   31.32000     -2.6990909E-08
   31.38000     -2.5630628E-08
   31.44000     -2.4069134E-08
   31.50000     -2.2323192E-08
   31.56000     -2.0409171E-08
   31.62000     -1.8340305E-08
   31.68000     -1.6126334E-08
   31.74000     -1.3775960E-08
   31.80000     -1.1300692E-08
   31.86000     -8.7177208E-09
   31.92000     -6.0499583E-09
   31.98000     -3.3230252E-09
   32.04000     -5.6077959E-10
   32.10000      2.2183035E-09
   32.16000      5.0021796E-09
   32.22000      7.7835267E-09
   32.28000      1.0556541E-08
   32.34000      1.3314015E-08
   32.40000      1.6045984E-08
   32.46000      1.8740094E-08
   32.52000      2.1382904E-08
   32.58000      2.3961007E-08
   32.64000      2.6461269E-08
   32.70000      2.8870089E-08
   32.76000      3.1172206E-08
   32.82000      3.3349746E-08
   32.88000      3.5381984E-08
   32.94000      3.7246000E-08
   33.00000      3.8918035E-08
   33.06000      4.0375284E-08
   33.12000      4.1597669E-08
   33.18000      4.2569418E-08
   33.24000      4.3280263E-08
   33.30000      4.3726072E-08
   33.36000      4.3908710E-08
   33.42000      4.3834945E-08
   33.48000      4.3514333E-08
   33.54000      4.2956447E-08
   33.60000      4.2168420E-08
   33.66000      4.1153879E-08
   33.72000      3.9914131E-08
   33.78000      3.8451141E-08
   33.84000      3.6770793E-08
   33.90000      3.4884188E-08
   33.96000      3.2805669E-08
   34.02000      3.0548019E-08
   34.08000      2.8117560E-08
   34.14000      2.5512451E-08
   34.20000      2.2726253E-08
   34.26000      1.9755728E-08
   34.32000      1.6609082E-08
   34.38000      1.3310084E-08
   34.44000      9.8955732E-09
   34.50000      6.4076708E-09
   34.56000      2.8851255E-09
   34.62000     -6.4142197E-10
   34.68000     -4.1482773E-09
   34.74000     -7.6136599E-09
   34.80000     -1.1013347E-08
   34.86000     -1.4320705E-08
   34.92000     -1.7511235E-08
   34.98000     -2.0567940E-08
   35.04000     -2.3482812E-08
   35.10000     -2.6252295E-08
   35.16000     -2.8869167E-08
   35.22000     -3.1316461E-08
   35.28000     -3.3568313E-08
   35.34000     -3.5598223E-08
   35.40000     -3.7389960E-08
   35.46000     -3.8944119E-08
   35.52000     -4.0275758E-08
   35.58000     -4.1404210E-08
   35.64000     -4.2341323E-08
   35.70000     -4.3085436E-08
   35.76000     -4.3624436E-08
   35.82000     -4.3945420E-08
   35.88000     -4.4044228E-08
   35.94000     -4.3928733E-08
   36.00000     -4.3614520E-08
   36.06000     -4.3116735E-08
   36.12000     -4.2444281E-08
   36.18000     -4.1600209E-08
   36.24000     -4.0587363E-08
   36.30000     -3.9414438E-08
   36.36000     -3.8097756E-08
   36.42000     -3.6657557E-08
   36.48000     -3.5112027E-08
   36.54000     -3.3474016E-08
   36.60000     -3.1753252E-08
   36.66000     -2.9962482E-08
   36.72000     -2.8122804E-08
   36.78000     -2.6263670E-08
   36.84000     -2.4416872E-08
   36.90000     -2.2607919E-08
   36.96000     -2.0850090E-08
   37.02000     -1.9144446E-08
   37.08000     -1.7485037E-08
   37.14000     -1.5865378E-08
   37.20000     -1.4282239E-08
   37.26000     -1.2735614E-08
   37.32000     -1.1227009E-08
   37.38000     -9.7592343E-09
   37.44000     -8.3390619E-09
   37.50000     -6.9808950E-09
   37.56000     -5.7078346E-09
   37.62000     -4.5477830E-09
   37.68000     -3.5257162E-09
   37.74000     -2.6564124E-09
   37.80000     -1.9422166E-09
   37.86000     -1.3774408E-09
   37.92000     -9.5672725E-10
   37.98000     -6.8208927E-10
   38.04000     -5.6421173E-10
   38.10000     -6.1725958E-10
   38.16000     -8.5041318E-10
   38.22000     -1.2610203E-09
   38.28000     -1.8328282E-09
   38.34000     -2.5395563E-09
   38.40000     -3.3513872E-09
   38.46000     -4.2413482E-09
   38.52000     -5.1897788E-09
   38.58000     -6.1867138E-09
   38.64000     -7.2326047E-09
   38.70000     -8.3372944E-09
   38.76000     -9.5165182E-09
   38.82000     -1.0785683E-08
   38.88000     -1.2152278E-08
   38.94000     -1.3609889E-08
   39.00000     -1.5136866E-08
   39.06000     -1.6700721E-08
   39.12000     -1.8266377E-08
   39.18000     -1.9804471E-08
   39.24000     -2.1296263E-08
   39.30000     -2.2734056E-08
   39.36000     -2.4118748E-08
   39.42000     -2.5456961E-08
   39.48000     -2.6759135E-08
   39.54000     -2.8037777E-08
   39.60000     -2.9304179E-08
   39.66000     -3.0563140E-08
   39.72000     -3.1807769E-08
   39.78000     -3.3018019E-08
   39.84000     -3.4165684E-08
   39.90000     -3.5224904E-08
   39.96000     -3.6183408E-08
   40.02000     -3.7048327E-08
   40.08000     -3.7843094E-08
   40.14000     -3.8596536E-08
   40.20000     -3.9330036E-08
   40.26000     -4.0049137E-08
   40.32000     -4.0743224E-08
   40.38000     -4.1391981E-08
   40.44000     -4.1973880E-08
   40.50000     -4.2471918E-08
   40.56000     -4.2874820E-08
   40.62000     -4.3175294E-08
   40.68000     -4.3368168E-08
   40.74000     -4.3450061E-08
   40.80000     -4.3419590E-08
   40.86000     -4.3275861E-08
   40.92000     -4.3014207E-08
   40.98000     -4.2621057E-08
   41.04000     -4.2071843E-08
   41.10000     -4.1335127E-08
   41.16000     -4.0382645E-08
   41.22000     -3.9200813E-08
   41.28000     -3.7797509E-08
   41.34000     -3.6200070E-08
   41.40000     -3.4445062E-08
   41.46000     -3.2564852E-08
   41.52000     -3.0577450E-08
   41.58000     -2.8483658E-08
   41.64000     -2.6271296E-08
   41.70000     -2.3922782E-08
   41.76000     -2.1421810E-08
   41.82000     -1.8757019E-08
   41.88000     -1.5923320E-08
   41.94000     -1.2922786E-08
   42.00000     -9.7661168E-09
   42.06000     -6.4734942E-09
   42.12000     -3.0727103E-09
   42.18000      4.0650638E-10
   42.24000      3.9402135E-09
   42.30000      7.5160003E-09
   42.36000      1.1132813E-08
   42.42000      1.4793845E-08
   42.48000      1.8495555E-08
   42.54000      2.2218627E-08
   42.60000      2.5926088E-08
   42.66000      2.9570296E-08
   42.72000      3.3105753E-08
   42.78000      3.6501824E-08
   42.84000      3.9749562E-08
   42.90000      4.2860059E-08
   42.96000      4.5855749E-08
   43.02000      4.8758949E-08
   43.08000      5.1582379E-08
   43.14000      5.4324506E-08
   43.20000      5.6970144E-08
   43.26000      5.9494731E-08
   43.32000      6.1870281E-08
   43.38000      6.4071365E-08
   43.44000      6.6080105E-08
   43.50000      6.7889637E-08
   43.56000      6.9505198E-08
   43.62000      7.0942072E-08
   43.68000      7.2220260E-08
   43.74000      7.3356979E-08
   43.80000      7.4359320E-08
   43.86000      7.5220001E-08
   43.92000      7.5918500E-08
   43.98000      7.6427803E-08
   44.04000      7.6724703E-08
   44.10000      7.6799992E-08
   44.16000      7.6664499E-08
   44.22000      7.6348570E-08
   44.28000      7.5895024E-08
   44.34000      7.5348169E-08
   44.40000      7.4742765E-08
   44.46000      7.4096775E-08
   44.52000      7.3409929E-08
   44.58000      7.2668122E-08
   44.64000      7.1851652E-08
   44.70000      7.0944118E-08
   44.76000      6.9939269E-08
   44.82000      6.8843704E-08
   44.88000      6.7674847E-08
   44.94000      6.6454994E-08
   45.00000      6.5203473E-08
   45.06000      6.3929633E-08
   45.12000      6.2629297E-08
   45.18000      6.1286300E-08
   45.24000      5.9879035E-08
   45.30000      5.8389663E-08
   45.36000      5.6812599E-08
   45.42000      5.5158782E-08
   45.48000      5.3453999E-08
   45.54000      5.1731970E-08
   45.60000      5.0025136E-08
   45.66000      4.8356654E-08
   45.72000      4.6736371E-08
   45.78000      4.5161446E-08
   45.84000      4.3620361E-08
   45.90000      4.2098502E-08
   45.96000      4.0583537E-08
   46.02000      3.9069679E-08
   46.08000      3.7560405E-08
   46.14000      3.6068993E-08
   46.20000      3.4616150E-08
   46.26000      3.3224307E-08
   46.32000      3.1909661E-08
   46.38000      3.0674727E-08
   46.44000      2.9504957E-08
   46.50000      2.8372002E-08
   46.56000      2.7243010E-08
   46.62000      2.6092279E-08
   46.68000      2.4909685E-08
   46.74000      2.3701666E-08
   46.80000      2.2484143E-08
   46.86000      2.1271049E-08
   46.92000      2.0064379E-08
   46.98000      1.8850669E-08
   47.04000      1.7605252E-08
   47.10000      1.6301447E-08
   47.16000      1.4919767E-08
   47.22000      1.3453028E-08
   47.28000      1.1906148E-08
   47.34000      1.0292500E-08
   47.40000      8.6297565E-09
   47.46000      6.9371189E-09
   47.52000      5.2336584E-09
   47.58000      3.5361951E-09
   47.64000      1.8556827E-09
   47.70000      1.9312557E-10
   47.76000     -1.4621847E-09
   47.82000     -3.1294045E-09
   47.88000     -4.8274997E-09
   47.94000     -6.5642003E-09
   48.00000     -8.3276799E-09
   48.06000     -1.0085488E-08
   48.12000     -1.1791996E-08
   48.18000     -1.3401443E-08
   48.24000     -1.4880874E-08
   48.30000     -1.6217482E-08
   48.36000     -1.7417774E-08
   48.42000     -1.8499895E-08
   48.48000     -1.9483370E-08
   48.54000     -2.0380766E-08
   48.60000     -2.1194152E-08
   48.66000     -2.1916390E-08
   48.72000     -2.2535291E-08
   48.78000     -2.3038144E-08
   48.84000     -2.3414881E-08
   48.90000     -2.3659364E-08
   48.96000     -2.3769278E-08
   49.02000     -2.3745324E-08
   49.08000     -2.3590252E-08
   49.14000     -2.3308022E-08
   49.20000     -2.2903318E-08
   49.26000     -2.2381574E-08
   49.32000     -2.1749557E-08
   49.38000     -2.1016275E-08
   49.44000     -2.0193653E-08
   49.50000     -1.9296518E-08
   49.56000     -1.8341803E-08
   49.62000     -1.7347295E-08
   49.68000     -1.6330519E-08
   49.74000     -1.5308062E-08
   49.80000     -1.4295203E-08
   49.86000     -1.3305344E-08
   49.92000     -1.2349034E-08
   49.98000     -1.1432874E-08
   50.04000     -1.0559150E-08
   50.10000     -9.7268487E-09
   50.16000     -8.9339940E-09
   50.22000     -8.1802032E-09
   50.28000     -7.4679845E-09
   50.34000     -6.8019221E-09
   50.40000     -6.1862613E-09
   50.46000     -5.6226122E-09
   50.52000     -5.1096274E-09
   50.58000     -4.6453223E-09
   50.64000     -4.2308543E-09
   50.70000     -3.8732946E-09
   50.76000     -3.5851160E-09
   50.82000     -3.3798142E-09
   50.88000     -3.2653136E-09
   50.94000     -3.2382579E-09
   51.00000     -3.2820975E-09
   51.06000     -3.3702352E-09
   51.12000     -3.4732728E-09
   51.18000     -3.5677878E-09
   51.24000     -3.6436305E-09
   51.30000     -3.7073946E-09
   51.36000     -3.7809760E-09
   51.42000     -3.8955039E-09
   51.48000     -4.0822079E-09
   51.54000     -4.3628199E-09
   51.60000     -4.7426747E-09
   51.66000     -5.2092286E-09
   51.72000     -5.7370197E-09
   51.78000     -6.2974483E-09
   51.84000     -6.8693624E-09
   51.90000     -7.4456659E-09
   51.96000     -8.0328002E-09
   52.02000     -8.6434087E-09
   52.08000     -9.2859676E-09
   52.14000     -9.9567368E-09
   52.20000     -1.0638113E-08
   52.26000     -1.1304090E-08
   52.32000     -1.1930073E-08
   52.38000     -1.2502576E-08
   52.44000     -1.3025074E-08
   52.50000     -1.3518518E-08
   52.56000     -1.4017290E-08
   52.62000     -1.4562422E-08
   52.68000     -1.5193804E-08
   52.74000     -1.5942627E-08
   52.80000     -1.6825364E-08
   52.86000     -1.7840948E-08
   52.92000     -1.8972717E-08
   52.98000     -2.0195461E-08
   53.04000     -2.1485661E-08
   53.10000     -2.2831053E-08
   53.16000     -2.4235616E-08
   53.22000     -2.5718190E-08
   53.28000     -2.7306081E-08
   53.34000     -2.9027515E-08
   53.40000     -3.0906701E-08
   53.46000     -3.2963094E-08
   53.52000     -3.5213528E-08
   53.58000     -3.7674784E-08
   53.64000     -4.0364473E-08
   53.70000     -4.3300606E-08
   53.76000     -4.6501267E-08
   53.82000     -4.9985626E-08
   53.88000     -5.3775555E-08
   53.94000     -5.7895633E-08
   54.00000     -6.2369786E-08
   54.06000     -6.7214891E-08
   54.12000     -7.2434482E-08
   54.18000     -7.8016129E-08
   54.24000     -8.3934395E-08
   54.30000     -9.0157677E-08
   54.36000     -9.6654560E-08
   54.42000     -1.0339600E-07
   54.48000     -1.1035183E-07
   54.54000     -1.1748403E-07
   54.60000     -1.2474065E-07
   54.66000     -1.3205289E-07
   54.72000     -1.3933558E-07
   54.78000     -1.4648866E-07
   54.84000     -1.5339752E-07
   54.90000     -1.5993213E-07
   54.96000     -1.6594603E-07
   55.02000     -1.7127719E-07
   55.08000     -1.7575066E-07
   55.14000     -1.7918136E-07
   55.20000     -1.8137460E-07
   55.26000     -1.8212404E-07
   55.32000     -1.8120866E-07
   55.38000     -1.7839173E-07
   55.44000     -1.7342336E-07
   55.50000     -1.6604555E-07
   55.56000     -1.5599672E-07