 -0.750000000       0.00000000    
 -0.689999998       0.00000000    
 -0.629999995       0.00000000    
 -0.569999993       0.00000000    
 -0.509999990       0.00000000    
 -0.449999988       0.00000000    
 -0.389999986       0.00000000    
 -0.330000013       2.06573231E-23
 -0.270000011       1.59698011E-22
 -0.209999993       5.08618334E-22
 -0.150000006       5.46751087E-22
  -9.00000036E-02  -1.60965137E-21
  -2.99999993E-02  -7.36534623E-21
   2.99999993E-02  -9.40326884E-21
   9.00000036E-02   1.94173298E-20
  0.150000006       1.17735357E-19
  0.209999993       2.72128437E-19
  0.270000011       2.93646843E-19
  0.330000013      -2.65907237E-19
  0.389999986      -1.92921101E-18
  0.449999988      -4.62017471E-18
  0.509999990      -6.62342997E-18
  0.569999993      -3.97155261E-18
  0.629999995       8.36430394E-18
  0.689999998       3.24222176E-17
  0.750000000       6.11385668E-17
  0.810000002       7.39988828E-17
  0.870000005       4.04840721E-17
  0.930000007      -6.41511917E-17
  0.990000010      -2.33201802E-16
   1.04999995      -4.05872989E-16
   1.11000001      -4.68066013E-16
   1.16999996      -2.92866168E-16
   1.23000002       1.82902154E-16
   1.28999996       8.79034646E-16
   1.35000002       1.54308111E-15
   1.40999997       1.81747224E-15
   1.47000003       1.40109996E-15
   1.52999997       2.36330186E-16
   1.59000003      -1.39353278E-15
   1.64999998      -2.95053975E-15
   1.71000004      -3.90574939E-15
   1.76999998      -4.03763326E-15
   1.83000004      -3.54327244E-15
   1.88999999      -2.80641074E-15
   1.95000005      -1.89018557E-15
   2.00999999      -9.62156371E-17
   2.06999993       3.94072592E-15
   2.13000011       1.13436685E-14
   2.19000006       2.15044471E-14
   2.25000000       3.08480014E-14
   2.30999994       3.29635408E-14
   2.36999989       2.08320875E-14
   2.43000007      -9.18807046E-15
   2.49000001      -5.32665241E-14
   2.54999995      -9.83310926E-14
   2.60999990      -1.24628254E-13
   2.67000008      -1.12831043E-13
   2.73000002      -5.34237808E-14
   2.78999996       4.58258546E-14
   2.84999990       1.58590656E-13
   2.91000009       2.46968895E-13
   2.97000003       2.75010619E-13
   3.02999997       2.23489643E-13
   3.08999991       9.92347480E-14
   3.15000010      -6.57983664E-14
   3.21000004      -2.25976871E-13
   3.26999998      -3.39095017E-13
   3.32999992      -3.81235001E-13
   3.39000010      -3.52365842E-13
   3.45000005      -2.70303257E-13
   3.50999999      -1.56845362E-13
   3.56999993      -2.43773168E-14
   3.63000011       1.28618063E-13
   3.69000006       3.09388040E-13
   3.75000000       5.13718733E-13
   3.80999994       7.09666429E-13
   3.86999989       8.33705880E-13
   3.93000007       8.06087131E-13
   3.99000001       5.62885838E-13
   4.05000019       9.26059427E-14
   4.11000013      -5.39766419E-13
   4.17000008      -1.19548295E-12
   4.23000002      -1.69548750E-12
   4.28999996      -1.87514002E-12
   4.34999990      -1.64039051E-12
   4.40999985      -1.00349362E-12
   4.46999979      -8.40569679E-14
   4.53000021       9.24632441E-13
   4.59000015       1.81005677E-12
   4.65000010       2.39463744E-12
   4.71000004       2.57152437E-12
   4.76999998       2.31482195E-12
   4.82999992       1.66954580E-12
   4.88999987       7.33683784E-13
   4.94999981      -3.57166174E-13
   5.01000023      -1.44078922E-12
   5.07000017      -2.34199292E-12
   5.13000011      -2.89788484E-12
   5.19000006      -2.99631934E-12
   5.25000000      -2.61622083E-12
   5.30999994      -1.84902679E-12
   5.36999989      -8.82498718E-13
   5.42999983       5.66030919E-14
   5.48999977       7.82739867E-13
   5.55000019       1.22051013E-12
   5.61000013       1.42869104E-12
   5.67000008       1.56522505E-12
   5.73000002       1.80821872E-12
   5.78999996       2.27108371E-12
   5.84999990       2.95281031E-12
   5.90999985       3.74372712E-12
   5.96999979       4.47380110E-12
   6.03000021       4.96441646E-12
   6.09000015       5.04327569E-12
   6.15000010       4.50983044E-12
   6.21000004       3.08169007E-12
   6.26999998       3.84903237E-13
   6.32999992      -3.95136051E-12
   6.38999987      -1.00798259E-11
   6.44999981      -1.76545844E-11
   6.51000023      -2.56016267E-11
   6.57000017      -3.20739234E-11
   6.63000011      -3.46785968E-11
   6.69000006      -3.09667951E-11
   6.75000000      -1.90693433E-11
   6.80999994       1.70785077E-12
   6.86999989       3.05105281E-11
   6.92999983       6.48885598E-11
   6.98999977       1.01059848E-10
   7.05000019       1.34367045E-10
   7.11000013       1.59764882E-10
   7.17000008       1.72208650E-10
   7.23000002       1.66900355E-10
   7.28999996       1.39441667E-10
   7.34999990       8.59930460E-11
   7.40999985       3.52510057E-12
   7.46999979      -1.09818633E-10
   7.53000021      -2.54307297E-10
   7.59000015      -4.28268754E-10
   7.65000010      -6.27906505E-10
   7.71000004      -8.47352688E-10
   7.76999998      -1.07895504E-09
   7.82999992      -1.31374212E-09
   7.88999987      -1.54198443E-09
   7.94999981      -1.75377490E-09
   8.01000023      -1.93956229E-09
   8.06999969      -2.09059947E-09
   8.13000011      -2.19927698E-09
   8.18999958      -2.25934560E-09
   8.25000000      -2.26605734E-09
   8.31000042      -2.21629692E-09
   8.36999989      -2.10877604E-09
   8.43000031      -1.94434646E-09
   8.48999977      -1.72642045E-09
   8.55000019      -1.46138712E-09
   8.60999966      -1.15885557E-09
   8.67000008      -8.31543723E-10
   8.72999954      -4.94703556E-10
   8.78999996      -1.65102709E-10
   8.85000038       1.40284742E-10
   8.90999985       4.05646738E-10
   8.97000027       6.17534135E-10
   9.02999973       7.65754904E-10
   9.09000015       8.43940806E-10
   9.14999962       8.49857240E-10
   9.21000004       7.85543686E-10
   9.27000046       6.57313592E-10
   9.32999992       4.75542161E-10
   9.39000034       2.54100768E-10
   9.44999981       9.30953752E-12
   9.51000023      -2.41605985E-10
   9.56999969      -4.82388796E-10
   9.63000011      -6.99622138E-10
   9.68999958      -8.84195661E-10
   9.75000000      -1.03203734E-09
   9.81000042      -1.14398124E-09
   9.86999989      -1.22489163E-09
   9.93000031      -1.28235911E-09
   9.98999977      -1.32533606E-09
   10.0500002      -1.36298339E-09
   10.1099997      -1.40381218E-09
   10.1700001      -1.45502765E-09
   10.2299995      -1.52192059E-09
   10.2900000      -1.60722358E-09
   10.3500004      -1.71051462E-09
   10.4099998      -1.82790294E-09
   10.4700003      -1.95226701E-09
   10.5299997      -2.07421125E-09
   10.5900002      -2.18367857E-09
   10.6499996      -2.27192865E-09
   10.7100000      -2.33344299E-09
   10.7700005      -2.36730946E-09
   10.8299999      -2.37776576E-09
   10.8900003      -2.37378273E-09
   10.9499998      -2.36776554E-09
   11.0100002      -2.37362308E-09
   11.0699997      -2.40455922E-09
   11.1300001      -2.47100562E-09
   11.1899996      -2.57910826E-09
   11.2500000      -2.73009970E-09
   11.3100004      -2.92069680E-09
   11.3699999      -3.14438986E-09
   11.4300003      -3.39320527E-09
   11.4899998      -3.65931863E-09
   11.5500002      -3.93591604E-09
   11.6099997      -4.21695079E-09
   11.6700001      -4.49589477E-09
   11.7299995      -4.76405315E-09
   11.7900000      -5.00929875E-09
   11.8500004      -5.21603516E-09
   11.9099998      -5.36677103E-09
   11.9700003      -5.44503553E-09
   12.0299997      -5.43870371E-09
   12.0900002      -5.34250200E-09
   12.1499996      -5.15862819E-09
   12.2100000      -4.89508567E-09
   12.2700005      -4.56223459E-09
   12.3299999      -4.16881552E-09
   12.3900003      -3.71897646E-09
   12.4499998      -3.21146620E-09
   12.5100002      -2.64129274E-09
   12.5699997      -2.00314432E-09
   12.6300001      -1.29517497E-09
   12.6899996      -5.21673926E-10
   12.7500000       3.06333958E-10
   12.8100004       1.17262111E-09
   12.8699999       2.05864903E-09
   12.9300003       2.94661229E-09
   12.9899998       3.82154042E-09
   13.0500002       4.67188377E-09
   13.1099997       5.48869394E-09
   13.1700001       6.26402397E-09
   13.2299995       6.98938285E-09
   13.2900000       7.65493358E-09
   13.3500004       8.24975555E-09
   13.4099998       8.76305872E-09
   13.4700003       9.18585119E-09
   13.5299997       9.51238288E-09
   13.5900002       9.74072378E-09
   13.6499996       9.87216175E-09
   13.7100000       9.90955140E-09
   13.7700005       9.85527215E-09
   13.8299999       9.70971126E-09
   13.8900003       9.47108525E-09
   13.9499998       9.13687792E-09
   14.0100002       8.70643202E-09
   14.0699997       8.18360224E-09
   14.1300001       7.57818253E-09
   14.1899996       6.90529545E-09
   14.2500000       6.18276186E-09
   14.3100004       5.42740830E-09
   14.3699999       4.65179451E-09
   14.4300003       3.86267685E-09
   14.4899998       3.06178594E-09
   14.5500002       2.24845231E-09
   14.6099997       1.42280754E-09
   14.6700001       5.88045335E-10
   14.7299995      -2.49307380E-10
   14.7900000      -1.08121945E-09
   14.8500004      -1.90119231E-09
   14.9099998      -2.70699352E-09
   14.9700003      -3.50165541E-09
   15.0299997      -4.29206448E-09
   15.0900002      -5.08560261E-09
   15.1499996      -5.88631321E-09
   15.2100000      -6.69241906E-09
   15.2700005      -7.49652607E-09
   15.3299999      -8.28859648E-09
   15.3900003      -9.06039777E-09
   15.4499998      -9.80925563E-09
   15.5100002      -1.05391580E-08
   15.5699997      -1.12584804E-08
   15.6300001      -1.19753496E-08
   15.6899996      -1.26929791E-08
   15.7500000      -1.34074911E-08
   15.8100004      -1.41095597E-08
   15.8699999      -1.47892916E-08
   15.9300003      -1.54419659E-08
   15.9899998      -1.60716667E-08
   16.0499992      -1.66907395E-08
   16.1100006      -1.73149566E-08
   16.1700001      -1.79563706E-08
   16.2299995      -1.86169924E-08
   16.2900009      -1.92861247E-08
   16.3500004      -1.99426786E-08
   16.4099998      -2.05617123E-08
   16.4699993      -2.11227871E-08
   16.5300007      -2.16171596E-08
   16.5900002      -2.20512764E-08
   16.6499996      -2.24454624E-08
   16.7099991      -2.28281252E-08
   16.7700005      -2.32273418E-08
   16.8299999      -2.36623077E-08
   16.8899994      -2.41372735E-08
   16.9500008      -2.46399345E-08
   17.0100002      -2.51448462E-08
   17.0699997      -2.56210200E-08
   17.1299992      -2.60413167E-08
   17.1900005      -2.63906639E-08
   17.2500000      -2.66703033E-08
   17.3099995      -2.68967213E-08
   17.3700008      -2.70956093E-08
   17.4300003      -2.72930816E-08
   17.4899998      -2.75071788E-08
   17.5499992      -2.77425531E-08
   17.6100006      -2.79899890E-08
   17.6700001      -2.82306090E-08
   17.7299995      -2.84431039E-08
   17.7900009      -2.86113000E-08
   17.8500004      -2.87295148E-08
   17.9099998      -2.88040507E-08
   17.9699993      -2.88506374E-08
   18.0300007      -2.88890174E-08
   18.0900002      -2.89368014E-08
   18.1499996      -2.90047861E-08
   18.2099991      -2.90951849E-08
   18.2700005      -2.92030062E-08
   18.3299999      -2.93195495E-08
   18.3899994      -2.94363502E-08
   18.4500008      -2.95479357E-08
   18.5100002      -2.96525204E-08
   18.5699997      -2.97508453E-08
   18.6299992      -2.98439815E-08
   18.6900005      -2.99313960E-08
   18.7500000      -3.00099714E-08
   18.8099995      -3.00742471E-08
   18.8700008      -3.01174872E-08
   18.9300003      -3.01329521E-08
   18.9899998      -3.01149257E-08
   19.0499992      -3.00592369E-08
   19.1100006      -2.99634024E-08
   19.1700001      -2.98265519E-08
   19.2299995      -2.96493212E-08
   19.2900009      -2.94337177E-08
   19.3500004      -2.91828979E-08
   19.4099998      -2.89007698E-08
   19.4699993      -2.85913746E-08
   19.5300007      -2.82581176E-08
   19.5900002      -2.79031980E-08
   19.6499996      -2.75274736E-08
   19.7099991      -2.71310512E-08
   19.7700005      -2.67144511E-08
   19.8299999      -2.62797570E-08
   19.8899994      -2.58310227E-08
   19.9500008      -2.53732857E-08
   20.0100002      -2.49102854E-08
   20.0699997      -2.44417127E-08
   20.1299992      -2.39614142E-08
   20.1900005      -2.34576660E-08
   20.2500000      -2.29157351E-08
   20.3099995      -2.23217054E-08
   20.3700008      -2.16659028E-08
   20.4300003      -2.09444480E-08
   20.4899998      -2.01585522E-08
   20.5499992      -1.93125267E-08
   20.6100006      -1.84119706E-08
   20.6700001      -1.74632380E-08
   20.7299995      -1.64740470E-08
   20.7900009      -1.54540576E-08
   20.8500004      -1.44141268E-08
   20.9099998      -1.33638673E-08
   20.9699993      -1.23085426E-08
   21.0300007      -1.12470842E-08
   21.0900002      -1.01726378E-08
   21.1499996      -9.07561226E-09
   21.2099991      -7.94773847E-09
   21.2700005      -6.78508894E-09
   21.3299999      -5.58871616E-09
   21.3899994      -4.36307346E-09
   21.4500008      -3.11356785E-09
   21.5100002      -1.84476401E-09
   21.5699997      -5.59902014E-10
   21.6299992       7.38694272E-10
   21.6900005       2.04921258E-09
   21.7500000       3.37040373E-09
   21.8099995       4.70169947E-09
   21.8700008       6.04262995E-09
   21.9300003       7.39131290E-09
   21.9899998       8.74286510E-09
   22.0499992       1.00892352E-08
   22.1100006       1.14214069E-08
   22.1700001       1.27333903E-08
   22.2299995       1.40258232E-08
   22.2900009       1.53067781E-08
   22.3500004       1.65888352E-08
   22.4099998       1.78837851E-08
   22.4699993       1.91980600E-08
   22.5300007       2.05314947E-08
   22.5900002       2.18799148E-08
   22.6499996       2.32393269E-08
   22.7099991       2.46083474E-08
   22.7700005       2.59868109E-08
   22.8299999       2.73713265E-08
   22.8899994       2.87510957E-08
   22.9500008       3.01074898E-08
   23.0100002       3.14186330E-08
   23.0699997       3.26667866E-08
   23.1299992       3.38443193E-08
   23.1900005       3.49546418E-08
   23.2500000       3.60074814E-08
   23.3099995       3.70113895E-08
   23.3700008       3.79677338E-08
   23.4300003       3.88693344E-08
   23.4899998       3.97036075E-08
   23.5499992       4.04575431E-08
   23.6100006       4.11211971E-08
   23.6700001       4.16880610E-08
   23.7299995       4.21532746E-08
   23.7900009       4.25120383E-08
   23.8500004       4.27600106E-08
   23.9099998       4.28955325E-08
   23.9699993       4.29216342E-08
   24.0300007       4.28458335E-08
   24.0900002       4.26773070E-08
   24.1499996       4.24229611E-08
   24.2099991       4.20850448E-08
   24.2700005       4.16618313E-08
   24.3299999       4.11510719E-08
   24.3899994       4.05539673E-08
   24.4500008       3.98773992E-08
   24.5100002       3.91332193E-08
   24.5699997       3.83352763E-08
   24.6299992       3.74956777E-08
   24.6900005       3.66216391E-08
   24.7500000       3.57135228E-08
   24.8099995       3.47638860E-08
   24.8700008       3.37577646E-08
   24.9300003       3.26747021E-08
   24.9899998       3.14930269E-08
   25.0499992       3.01958458E-08
   25.1100006       2.87765562E-08
   25.1700001       2.72411693E-08
   25.2299995       2.56056456E-08
   25.2900009       2.38891218E-08
   25.3500004       2.21063452E-08
   25.4099998       2.02633466E-08
   25.4699993       1.83586266E-08
   25.5300007       1.63888725E-08
   25.5900002       1.43555550E-08
   25.6499996       1.22685329E-08
   25.7099991       1.01450155E-08
   25.7700005       8.00527467E-09
   25.8299999       5.86829962E-09
   25.8899994       3.74989462E-09
   25.9500008       1.66322889E-09
   26.0100002      -3.80343118E-10
   26.0699997      -2.37256170E-09
   26.1299992      -4.31201830E-09
   26.1900005      -6.20813800E-09
   26.2500000      -8.08203460E-09
   26.3099995      -9.96231453E-09
   26.3700008      -1.18769972E-08
   26.4300003      -1.38452858E-08
   26.4899998      -1.58730611E-08
   26.5499992      -1.79536137E-08
   26.6100006      -2.00719228E-08
   26.6700001      -2.22090257E-08
   26.7299995      -2.43438638E-08
   26.7900009      -2.64526925E-08
   26.8500004      -2.85083708E-08
   26.9099998      -3.04821377E-08
   26.9699993      -3.23483178E-08
   27.0300007      -3.40898829E-08
   27.0900002      -3.57015359E-08
   27.1499996      -3.71884852E-08
   27.2099991      -3.85619003E-08
   27.2700005      -3.98342017E-08
   27.3299999      -4.10171914E-08
   27.3899994      -4.21236095E-08
   27.4500008      -4.31696705E-08
   27.5100002      -4.41752057E-08
   27.5699997      -4.51595383E-08
   27.6299992      -4.61344989E-08
   27.6900005      -4.70982542E-08
   27.7500000      -4.80336126E-08
   27.8099995      -4.89116090E-08
   27.8700008      -4.96980235E-08
   27.9300003      -5.03588637E-08
   27.9899998      -5.08622797E-08
   28.0499992      -5.11772740E-08
   28.1100006      -5.12722238E-08
   28.1700001      -5.11163520E-08
   28.2299995      -5.06848785E-08
   28.2900009      -4.99657560E-08
   28.3500004      -4.89642566E-08
   28.4099998      -4.77027911E-08
   28.4699993      -4.62162326E-08
   28.5300007      -4.45452919E-08
   28.5900002      -4.27310809E-08
   28.6499996      -4.08121856E-08
   28.7099991      -3.88233445E-08
   28.7700005      -3.67938178E-08
   28.8299999      -3.47445095E-08
   28.8899994      -3.26851399E-08
   28.9500008      -3.06139007E-08
   29.0100002      -2.85214625E-08
   29.0699997      -2.63984496E-08
   29.1299992      -2.42430325E-08
   29.1900005      -2.20647287E-08
   29.2500000      -1.98824388E-08
   29.3099995      -1.77182429E-08
   29.3700008      -1.55909330E-08
   29.4300003      -1.35131755E-08
   29.4899998      -1.14936611E-08
   29.5499992      -9.54222568E-09
   29.6100006      -7.67409958E-09
   29.6700001      -5.91023142E-09
   29.7299995      -4.27332214E-09
   29.7900009      -2.78190848E-09
   29.8500004      -1.44574541E-09
   29.9099998      -2.64503419E-10
   29.9699993       7.70469577E-10
   30.0300007       1.67314840E-09
   30.0900002       2.46030196E-09
   30.1499996       3.14975357E-09
   30.2099991       3.75842912E-09
   30.2700005       4.29918900E-09
   30.3299999       4.77678652E-09
   30.3899994       5.18488141E-09
   30.4500008       5.50640467E-09
   30.5100002       5.71810066E-09
   30.5699997       5.79758996E-09
   30.6299992       5.72947911E-09
   30.6900005       5.50728929E-09
   30.7500000       5.13036413E-09
   30.8099995       4.59799132E-09
   30.8700008       3.90477872E-09
   30.9300003       3.04062864E-09
   30.9899998       1.99584704E-09
   31.0499992       7.68779873E-10
   31.1100006      -6.28206376E-10
   31.1700001      -2.16761031E-09
   31.2299995      -3.81100262E-09
   31.2900009      -5.51621326E-09
   31.3500004      -7.24403693E-09
   31.4099998      -8.96203556E-09
   31.4699993      -1.06452385E-08
   31.5300007      -1.22754091E-08
   31.5900002      -1.38407952E-08
   31.6499996      -1.53369548E-08
   31.7099991      -1.67675349E-08
   31.7700005      -1.81431368E-08
   31.8299999      -1.94772891E-08
   31.8899994      -2.07805293E-08
   31.9500008      -2.20551346E-08
   32.0099983      -2.32932607E-08
   32.0699997      -2.44793981E-08
   32.1300011      -2.55957762E-08
   32.1899986      -2.66275659E-08
   32.2500000      -2.75650525E-08
   32.3100014      -2.84017787E-08
   32.3699989      -2.91301223E-08
   32.4300003      -2.97372527E-08
   32.4900017      -3.02039460E-08
   32.5499992      -3.05069321E-08
   32.6100006      -3.06233154E-08
   32.6699982      -3.05346575E-08
   32.7299995      -3.02289074E-08
   32.7900009      -2.96999580E-08
   32.8499985      -2.89461273E-08
   32.9099998      -2.79690884E-08
   32.9700012      -2.67739804E-08
   33.0299988      -2.53700527E-08
   33.0900002      -2.37705464E-08
   33.1500015      -2.19910010E-08
   33.2099991      -2.00464676E-08
   33.2700005      -1.79492101E-08
   33.3300018      -1.57084941E-08
   33.3899994      -1.33329374E-08
   33.4500008      -1.08341833E-08
   33.5099983      -8.22966495E-09
   33.5699997      -5.54259660E-09
   33.6300011      -2.79885781E-09
   33.6899986      -2.22808889E-11
   33.7500000       2.76918621E-09
   33.8100014       5.56449020E-09
   33.8699989       8.35731839E-09
   33.9300003       1.11421841E-08
   33.9900017       1.39109799E-08
   34.0499992       1.66517147E-08
   34.1100006       1.93497112E-08
   34.1699982       2.19900507E-08
   34.2299995       2.45595437E-08
   34.2900009       2.70468945E-08
   34.3499985       2.94410238E-08
   34.4099998       3.17285647E-08
   34.4700012       3.38920465E-08
   34.5299988       3.59097072E-08
   34.5900002       3.77569762E-08
   34.6500015       3.94089099E-08
   34.7099991       4.08425080E-08
   34.7700005       4.20383479E-08
   34.8300018       4.29815259E-08
   34.8899994       4.36623147E-08
   34.9500008       4.40767529E-08
   35.0099983       4.42269332E-08
   35.0699997       4.41203092E-08
   35.1300011       4.37675425E-08
   35.1899986       4.31792557E-08
   35.2500000       4.23628634E-08
   35.3100014       4.13212256E-08
   35.3699989       4.00541182E-08
   35.4300003       3.85620034E-08
   35.4900017       3.68499613E-08
   35.5499992       3.49292364E-08
   35.6100006       3.28149454E-08
   35.6699982       3.05207664E-08
   35.7299995       2.80537797E-08
   35.7900009       2.54129322E-08
   35.8499985       2.25928627E-08
   35.9099998       1.95917682E-08
   35.9700012       1.64192144E-08
   36.0299988       1.30995907E-08
   36.0900002       9.66916414E-09
   36.1500015       6.16845863E-09
   36.2099991       2.63434519E-09
   36.2700005      -9.03876807E-10
   36.3300018      -4.42298642E-09
   36.3899994      -7.90118726E-09
   36.4500008      -1.13145058E-08
   36.5099983      -1.46373393E-08
   36.5699997      -1.78467978E-08
   36.6300011      -2.09272493E-08
   36.6899986      -2.38709550E-08
   36.7500000      -2.66733053E-08
   36.8100014      -2.93253031E-08
   36.8699989      -3.18085185E-08
   36.9300003      -3.40966189E-08
   36.9900017      -3.61634989E-08
   37.0499992      -3.79933276E-08
   37.1100006      -3.95862543E-08
   37.1699982      -4.09558361E-08
   37.2299995      -4.21196802E-08
   37.2900009      -4.30889457E-08
   37.3499985      -4.38631815E-08
   37.4099998      -4.44331683E-08
   37.4700012      -4.47893527E-08
   37.5299988      -4.49298092E-08
   37.5900002      -4.48626132E-08
   37.6500015      -4.46015740E-08
   37.7099991      -4.41590799E-08
   37.7700005      -4.35413767E-08
   37.8300018      -4.27496190E-08
   37.8899994      -4.17854231E-08
   37.9500008      -4.06566123E-08
   38.0099983      -3.93787012E-08
   38.0699997      -3.79713399E-08
   38.1300011      -3.64526329E-08
   38.1899986      -3.48358782E-08
   38.2500000      -3.31314567E-08
   38.3100014      -3.13523785E-08
   38.3699989      -2.95193114E-08
   38.4300003      -2.76608834E-08
   38.4900017      -2.58083688E-08
   38.5499992      -2.39877327E-08
   38.6100006      -2.22136833E-08
   38.6699982      -2.04889563E-08
   38.7299995      -1.88085014E-08
   38.7900009      -1.71654033E-08
   38.8499985      -1.55550470E-08
   38.9099998      -1.39761633E-08
   38.9700012      -1.24302053E-08
   39.0299988      -1.09214646E-08
   39.0900002      -9.45904599E-09
   39.1500015      -8.05930789E-09
   39.2099991      -6.74600997E-09
   39.2700005      -5.54637847E-09
   39.3300018      -4.48418769E-09
   39.3899994      -3.57346863E-09
   39.4500008      -2.81667445E-09
   39.5099983      -2.20861929E-09
   39.5699997      -1.74391401E-09
   39.6300011      -1.42340129E-09
   39.6899986      -1.25571931E-09
   39.7500000      -1.25316291E-09
   39.8100014      -1.42435852E-09
   39.8699989      -1.76785198E-09
   39.9300003      -2.26975616E-09
   39.9900017      -2.90610758E-09
   40.0499992      -3.64832964E-09
   40.1100006      -4.46942128E-09
   40.1699982      -5.34910605E-09
   40.2299995      -6.27717034E-09
   40.2900009      -7.25466887E-09
   40.3499985      -8.29252578E-09
   40.4099998      -9.40711420E-09
   40.4700012      -1.06132561E-08
   40.5299988      -1.19166437E-08
   40.5900002      -1.33087079E-08
   40.6500015      -1.47664441E-08
   40.7099991      -1.62575162E-08
   40.7700005      -1.77483361E-08
   40.8300018      -1.92114022E-08
   40.8899994      -2.06291446E-08
   40.9500008      -2.19938379E-08
   41.0099983      -2.33054447E-08
   41.0699997      -2.45696494E-08
   41.1300011      -2.57967514E-08
   41.1899986      -2.70002634E-08
   41.2500000      -2.81933392E-08
   41.3100014      -2.93828588E-08
   41.3699989      -3.05636689E-08
   41.4300003      -3.17169047E-08
   41.4900017      -3.28149987E-08
   41.5499992      -3.38322685E-08
   41.6100006      -3.47561624E-08
   41.6699982      -3.55931071E-08
   41.7299995      -3.63654706E-08
   41.7900009      -3.71011524E-08
   41.8499985      -3.78212590E-08
   41.9099998      -3.85321464E-08
   41.9700012      -3.92250072E-08
   42.0299988      -3.98815914E-08
   42.0900002      -4.04816340E-08
   42.1500015      -4.10077625E-08
   42.2099991      -4.14465831E-08
   42.2700005      -4.17875583E-08
   42.3300018      -4.20224247E-08
   42.3899994      -4.21459205E-08
   42.4500008      -4.21564756E-08
   42.5099983      -4.20542854E-08
   42.5699997      -4.18360990E-08
   42.6300011      -4.14890771E-08
   42.6899986      -4.09881871E-08
   42.7500000      -4.03005735E-08
   42.8100014      -3.93963475E-08
   42.8699989      -3.82609038E-08
   42.9300003      -3.69021400E-08
   42.9900017      -3.53482577E-08
   43.0499992      -3.36368728E-08
   43.1100006      -3.18008802E-08
   43.1699982      -2.98578087E-08
   43.2299995      -2.78070615E-08
   43.2900009      -2.56345967E-08
   43.3499985      -2.33211974E-08
   43.4099998      -2.08497504E-08
   43.4700012      -1.82092421E-08
   43.5299988      -1.53960009E-08
   43.5900002      -1.24142199E-08
   43.6500015      -9.27674115E-09
   43.7099991      -6.00521366E-09
   43.7700005      -2.62765876E-09
   43.8300018       8.27331925E-10
   43.8899994       4.33788871E-09
   43.9500008       7.89368926E-09
   44.0099983       1.14947332E-08
   44.0699997       1.51435415E-08
   44.1300011       1.88342693E-08
   44.1899986       2.25445618E-08
   44.2500000       2.62349857E-08
   44.3100014       2.98570768E-08
   44.3699989       3.33664119E-08
   44.4300003       3.67346793E-08
   44.4900017       3.99553421E-08
   44.5499992       4.30408988E-08
   44.6100006       4.60137954E-08
   44.6699982       4.88952487E-08
   44.7299995       5.16964143E-08
   44.7900009       5.44142686E-08
   44.8499985       5.70323380E-08
   44.9099998       5.95249077E-08
   44.9700012       6.18630196E-08
   45.0299988       6.40207674E-08
   45.0900002       6.59809203E-08
   45.1500015       6.77385401E-08
   45.2099991       6.93014854E-08
   45.2700005       7.06871646E-08
   45.3300018       7.19158706E-08
   45.3899994       7.30027452E-08
   45.4500008       7.39511705E-08
   45.5099983       7.47503819E-08
   45.5699997       7.53783738E-08
   45.6300011       7.58095595E-08
   45.6899986       7.60244632E-08
   45.7500000       7.60181109E-08
   45.8100014       7.58042660E-08
   45.8699989       7.54140004E-08
   45.9300003       7.48889306E-08
   45.9900017       7.42714334E-08
   46.0499992       7.35946841E-08
   46.1100006       7.28757925E-08
   46.1699982       7.21140978E-08
   46.2299995       7.12950765E-08
   46.2900009       7.03984853E-08
   46.3499985       6.94077755E-08
   46.4099998       6.83174974E-08
   46.4700012       6.71360638E-08
   46.5299988       6.58831283E-08
   46.5900002       6.45825793E-08
   46.6500015       6.32540988E-08
   46.7099991       6.19064053E-08
   46.7700005       6.05347452E-08
   46.8300018       5.91235185E-08
   46.8899994       5.76531392E-08
   46.9500008       5.61084690E-08
   47.0099983       5.44859979E-08
   47.0699997       5.27971764E-08
   47.1300011       5.10669409E-08
   47.1899986       4.93279728E-08
   47.2500000       4.76128008E-08
   47.3100014       4.59462299E-08
   47.3699989       4.43404460E-08
   47.4300003       4.27940243E-08
   47.4900017       4.12947792E-08
   47.5499992       3.98255047E-08
   47.6100006       3.83707928E-08
   47.6699982       3.69232076E-08
   47.7299995       3.54869840E-08
   47.7900009       3.40780950E-08
   47.8499985       3.27201199E-08
   47.9099998       3.14367909E-08
   47.9700012       3.02432923E-08
   48.0299988       2.91395352E-08
   48.0900002       2.81083139E-08
   48.1500015       2.71198175E-08
   48.2099991       2.61411728E-08
   48.2700005       2.51472407E-08
   48.3300018       2.41279192E-08
   48.3899994       2.30884840E-08
   48.4500008       2.20427872E-08
   48.5099983       2.10026094E-08
   48.5699997       1.99683647E-08
   48.6300011       1.89256522E-08
   48.6899986       1.78490023E-08
   48.7500000       1.67106098E-08
   48.8100014       1.54895616E-08
   48.8699989       1.41775054E-08
   48.9300003       1.27791031E-08
   48.9900017       1.13084768E-08
   49.0499992       9.78438131E-09
   49.1100006       8.22637958E-09
   49.1699982       6.65247057E-09
   49.2299995       5.07716180E-09
   49.2900009       3.50890050E-09
   49.3499985       1.94720440E-09
   49.4099998       3.81489423E-10
   49.4700012      -1.20609422E-09
   49.5299988      -2.83315749E-09
   49.5900002      -4.50707827E-09
   49.6500015      -6.21693363E-09
   49.7099991      -7.93173704E-09
   49.7700005      -9.60675184E-09
   49.8300018      -1.11957608E-08
   49.8899994      -1.26641009E-08
   49.9500008      -1.39969156E-08
   50.0099983      -1.51993866E-08
   50.0699997      -1.62896594E-08
   50.1300011      -1.72882828E-08
   50.1899986      -1.82090556E-08
   50.2500000      -1.90546068E-08
   50.3100014      -1.98173318E-08
   50.3699989      -2.04838102E-08
   50.4300003      -2.10398756E-08
   50.4900017      -2.14741807E-08
   50.5499992      -2.17795115E-08
   50.6100006      -2.19524292E-08