 -0.750000000       0.00000000    
 -0.689999998       0.00000000    
 -0.629999995       0.00000000    
 -0.569999993       0.00000000    
 -0.509999990       0.00000000    
 -0.449999988       0.00000000    
 -0.389999986       0.00000000    
 -0.330000013      -1.13301347E-23
 -0.270000011      -9.52231916E-23
 -0.209999993      -3.31717601E-22
 -0.150000006      -3.73834064E-22
  -9.00000036E-02   1.54161445E-21
  -2.99999993E-02   8.41725420E-21
   2.99999993E-02   1.84565094E-20
   9.00000036E-02   9.83593519E-21
  0.150000006      -7.23983950E-20
  0.209999993      -2.89337594E-19
  0.270000011      -5.94872262E-19
  0.330000013      -6.54774666E-19
  0.389999986       2.24123760E-19
  0.449999988       2.72992288E-18
  0.509999990       6.53880773E-18
  0.569999993       9.05667893E-18
  0.629999995       5.20806107E-18
  0.689999998      -1.00238657E-17
  0.750000000      -3.58175359E-17
  0.810000002      -5.92000194E-17
  0.870000005      -5.44827143E-17
  0.930000007       4.90954193E-18
  0.990000010       1.21827637E-16
   1.04999995       2.49914980E-16
   1.11000001       2.90328484E-16
   1.16999996       1.32148945E-16
   1.23000002      -2.64421107E-16
   1.28999996      -7.80631229E-16
   1.35000002      -1.11624945E-15
   1.40999997      -8.92224696E-16
   1.47000003       1.21357031E-16
   1.52999997       1.74817108E-15
   1.59000003       3.28913164E-15
   1.64999998       3.70095461E-15
   1.71000004       2.09135717E-15
   1.76999998      -1.65228684E-15
   1.83000004      -6.44531341E-15
   1.88999999      -1.01364509E-14
   1.95000005      -1.02990609E-14
   2.00999999      -5.43449986E-15
   2.06999993       3.96512386E-15
   2.13000011       1.50968715E-14
   2.19000006       2.35889579E-14
   2.25000000       2.51232869E-14
   2.30999994       1.72949389E-14
   2.36999989       8.97111547E-16
   2.43000007      -1.99558540E-14
   2.49000001      -3.89582775E-14
   2.54999995      -4.95779091E-14
   2.60999990      -4.71535991E-14
   2.67000008      -3.04445800E-14
   2.73000002      -2.18856055E-15
   2.78999996       3.14683345E-14
   2.84999990       6.25212637E-14
   2.91000009       8.32237653E-14
   2.97000003       8.81187755E-14
   3.02999997       7.52232274E-14
   3.08999991       4.58402237E-14
   3.15000010       3.15199637E-15
   3.21000004      -4.93591814E-14
   3.26999998      -1.08115177E-13
   3.32999992      -1.67279195E-13
   3.39000010      -2.14987669E-13
   3.45000005      -2.30899962E-13
   3.50999999      -1.88998719E-13
   3.56999993      -6.79933201E-14
   3.63000011       1.32630872E-13
   3.69000006       3.78091465E-13
   3.75000000       5.95350700E-13
   3.80999994       6.89336175E-13
   3.86999989       5.77789498E-13
   3.93000007       2.33353620E-13
   3.99000001      -2.86288679E-13
   4.05000019      -8.38747528E-13
   4.11000013      -1.23535850E-12
   4.17000008      -1.30798898E-12
   4.23000002      -9.78839080E-13
   4.28999996      -3.02512247E-13
   4.34999990       5.41182821E-13
   4.40999985       1.30456529E-12
   4.46999979       1.75773176E-12
   4.53000021       1.76724043E-12
   4.59000015       1.33547318E-12
   4.65000010       5.86587419E-13
   4.71000004      -2.90331073E-13
   4.76999998      -1.11150791E-12
   4.82999992      -1.74909284E-12
   4.88999987      -2.14213413E-12
   4.94999981      -2.27040543E-12
   5.01000023      -2.11377877E-12
   5.07000017      -1.62732382E-12
   5.13000011      -7.53335437E-13
   5.19000006       5.29423673E-13
   5.25000000       2.14143785E-12
   5.30999994       3.85815685E-12
   5.36999989       5.31733295E-12
   5.42999983       6.09043458E-12
   5.48999977       5.80318866E-12
   5.55000019       4.26602070E-12
   5.61000013       1.56466149E-12
   5.67000008      -1.92960318E-12
   5.73000002      -5.64316692E-12
   5.78999996      -8.95337623E-12
   5.84999990      -1.13564774E-11
   5.90999985      -1.25815539E-11
   5.96999979      -1.25952209E-11
   6.03000021      -1.14799810E-11
   6.09000015      -9.21938394E-12
   6.15000010      -5.46562491E-12
   6.21000004       6.18290521E-13
   6.26999998       1.03682393E-11
   6.32999992       2.54550808E-11
   6.38999987       4.75810676E-11
   6.44999981       7.81176027E-11
   6.51000023       1.17782492E-10
   6.57000017       1.66437267E-10
   6.63000011       2.23042751E-10
   6.69000006       2.85763413E-10
   6.75000000       3.52175761E-10
   6.80999994       4.19523499E-10
   6.86999989       4.84968787E-10
   6.92999983       5.45808176E-10
   6.98999977       5.99638728E-10
   7.05000019       6.44472864E-10
   7.11000013       6.78806844E-10
   7.17000008       7.01649516E-10
   7.23000002       7.12521042E-10
   7.28999996       7.11428749E-10
   7.34999990       6.98822500E-10
   7.40999985       6.75524414E-10
   7.46999979       6.42621345E-10
   7.53000021       6.01314498E-10
   7.59000015       5.52734691E-10
   7.65000010       4.97757724E-10
   7.71000004       4.36869735E-10
   7.76999998       3.70129732E-10
   7.82999992       2.97253389E-10
   7.88999987       2.17798404E-10
   7.94999981       1.31398253E-10
   8.01000023       3.79777494E-11
   8.06999969      -6.21015669E-11
   8.13000011      -1.67985445E-10
   8.18999958      -2.78351592E-10
   8.25000000      -3.91499416E-10
   8.31000042      -5.05502640E-10
   8.36999989      -6.18438523E-10
   8.43000031      -7.28701766E-10
   8.48999977      -8.35371605E-10
   8.55000019      -9.38538691E-10
   8.60999966      -1.03945386E-09
   8.67000008      -1.14036758E-09
   8.72999954      -1.24400834E-09
   8.78999996      -1.35277856E-09
   8.85000038      -1.46786860E-09
   8.90999985      -1.58855951E-09
   8.97000027      -1.71194325E-09
   9.02999973      -1.83316773E-09
   9.09000015      -1.94614280E-09
   9.14999962      -2.04450767E-09
   9.21000004      -2.12259854E-09
   9.27000046      -2.17619411E-09
   9.32999992      -2.20291274E-09
   9.39000034      -2.20226792E-09
   9.44999981      -2.17546559E-09
   9.51000023      -2.12507723E-09
   9.56999969      -2.05470574E-09
   9.63000011      -1.96871741E-09
   9.68999958      -1.87206473E-09
   9.75000000      -1.77017134E-09
   9.81000042      -1.66881586E-09
   9.86999989      -1.57391800E-09
   9.93000031      -1.49114032E-09
   9.98999977      -1.42525935E-09
   10.0500002      -1.37934519E-09
   10.1099997      -1.35390732E-09
   10.1700001      -1.34625622E-09
   10.2299995      -1.35036105E-09
   10.2900000      -1.35740608E-09
   10.3500004      -1.35706701E-09
   10.4099998      -1.33930178E-09
   10.4700003      -1.29624911E-09
   10.5299997      -1.22375510E-09
   10.5900002      -1.12212484E-09
   10.6499996      -9.95919125E-10
   10.7100000      -8.52892645E-10
   10.7700005      -7.02402803E-10
   10.8299999      -5.53722512E-10
   10.8900003      -4.14641432E-10
   10.9499998      -2.90592078E-10
   11.0100002      -1.84350896E-10
   11.0699997      -9.62280047E-11
   11.1300001      -2.45892664E-11
   11.1899996       3.34598182E-11
   11.2500000       8.13961606E-11
   11.3100004       1.22771071E-10
   11.3699999       1.61013883E-10
   11.4300003       1.99608843E-10
   11.4899998       2.42548343E-10
   11.5500002       2.94775454E-10
   11.6099997       3.62204600E-10
   11.6700001       4.50964349E-10
   11.7299995       5.65785307E-10
   11.7900000       7.07884473E-10
   11.8500004       8.73087991E-10
   11.9099998       1.05107212E-09
   11.9700003       1.22635457E-09
   12.0299997       1.38108058E-09
   12.0900002       1.49893342E-09
   12.1499996       1.56897284E-09
   12.2100000       1.58811608E-09
   12.2700005       1.56139934E-09
   12.3299999       1.49995372E-09
   12.3900003       1.41747092E-09
   12.4499998       1.32649480E-09
   12.5100002       1.23590493E-09
   12.5699997       1.15043752E-09
   12.6300001       1.07221254E-09
   12.6899996       1.00336461E-09
   12.7500000       9.48363610E-10
   12.8100004       9.14723519E-10
   12.8699999       9.11517750E-10
   12.9300003       9.46175804E-10
   12.9899998       1.02095299E-09
   13.0500002       1.13079646E-09
   13.1099997       1.26383803E-09
   13.1700001       1.40459255E-09
   13.2299995       1.53865576E-09
   13.2900000       1.65690328E-09
   13.3500004       1.75736592E-09
   13.4099998       1.84402771E-09
   13.4700003       1.92327509E-09
   13.5299997       1.99982320E-09
   13.5900002       2.07409023E-09
   13.6499996       2.14210183E-09
   13.7100000       2.19761498E-09
   13.7700005       2.23501906E-09
   13.8299999       2.25133490E-09
   13.8900003       2.24635976E-09
   13.9499998       2.22120100E-09
   14.0100002       2.17636975E-09
   14.0699997       2.11075846E-09
   14.1300001       2.02218708E-09
   14.1899996       1.90925209E-09
   14.2500000       1.77354331E-09
   14.3100004       1.62120195E-09
   14.3699999       1.46319656E-09
   14.4300003       1.31418465E-09
   14.4899998       1.19012755E-09
   14.5500002       1.10494014E-09
   14.6099997       1.06664400E-09
   14.6700001       1.07392528E-09
   14.7299995       1.11450471E-09
   14.7900000       1.16676391E-09
   14.8500004       1.20517574E-09
   14.9099998       1.20833421E-09
   14.9700003       1.16659116E-09
   15.0299997       1.08565834E-09
   15.0900002       9.83826798E-10
   15.1499996       8.83383255E-10
   15.2100000       7.99958100E-10
   15.2700005       7.35063566E-10
   15.3299999       6.75861533E-10
   15.3900003       6.02627448E-10
   15.4499998       5.00308073E-10
   15.5100002       3.68282127E-10
   15.5699997       2.23265031E-10
   15.6300001       9.38233310E-11
   15.6899996       9.20188752E-12
   15.7500000      -1.22085432E-11
   15.8100004       3.02907421E-11
   15.8699999       1.19891694E-10
   15.9300003       2.28414981E-10
   15.9899998       3.25123733E-10
   16.0499992       3.84794974E-10
   16.1100006       3.92981037E-10
   16.1700001       3.47962048E-10
   16.2299995       2.59684246E-10
   16.2900009       1.46000947E-10
   16.3500004       2.65614215E-11
   16.4099998      -8.45794476E-11
   16.4699993      -1.85287133E-10
   16.5300007      -2.87541602E-10
   16.5900002      -4.13393070E-10
   16.6499996      -5.85337501E-10
   16.7099991      -8.15029599E-10
   16.7700005      -1.09591214E-09
   16.8299999      -1.40395651E-09
   16.8899994      -1.70664116E-09
   16.9500008      -1.97577110E-09
   17.0100002      -2.19750107E-09
   17.0699997      -2.37450015E-09
   17.1299992      -2.51973442E-09
   17.1900005      -2.64610267E-09
   17.2500000      -2.75819501E-09
   17.3099995      -2.85061530E-09
   17.3700008      -2.91287927E-09
   17.4300003      -2.93685565E-09
   17.4899998      -2.92160585E-09
   17.5499992      -2.87281243E-09
   17.6100006      -2.79797696E-09
   17.6700001      -2.70136469E-09
   17.7299995      -2.58248112E-09
   17.7900009      -2.43899057E-09
   17.8500004      -2.27163621E-09
   17.9099998      -2.08731699E-09
   17.9699993      -1.89792182E-09
   18.0300007      -1.71564962E-09
   18.0900002      -1.54804747E-09
   18.1499996      -1.39608147E-09
   18.2099991      -1.25628152E-09
   18.2700005      -1.12508969E-09
   18.3299999      -1.00215181E-09
   18.3899994      -8.90313989E-10
   18.4500008      -7.92693633E-10
   18.5100002      -7.09343473E-10
   18.5699997      -6.36191488E-10
   18.6299992      -5.67057068E-10
   18.6900005      -4.97131225E-10
   18.7500000      -4.25185998E-10
   18.8099995      -3.52797180E-10
   18.8700008      -2.81174306E-10
   18.9300003      -2.08053311E-10
   18.9899998      -1.27113695E-10
   19.0499992      -3.05619696E-11
   19.1100006       8.67453886E-11
   19.1700001       2.24310653E-10
   19.2299995       3.75917797E-10
   19.2900009       5.32186462E-10
   19.3500004       6.83795187E-10
   19.4099998       8.23317969E-10
   19.4699993       9.45047152E-10
   19.5300007       1.04390174E-09
   19.5900002       1.11516651E-09
   19.6499996       1.15589738E-09
   19.7099991       1.16715793E-09
   19.7700005       1.15520660E-09
   19.8299999       1.13023046E-09
   19.8899994       1.10288634E-09
   19.9500008       1.08051823E-09
   20.0100002       1.06521592E-09
   20.0699997       1.05464959E-09
   20.1299992       1.04477527E-09
   20.1900005       1.03244002E-09
   20.2500000       1.01635111E-09
   20.3099995       9.96381755E-10
   20.3700008       9.72503300E-10
   20.4300003       9.44715417E-10
   20.4899998       9.14171516E-10
   20.5499992       8.84287588E-10
   20.6100006       8.60236438E-10
   20.6700001       8.46318904E-10
   20.7299995       8.42502679E-10
   20.7900009       8.42530989E-10
   20.8500004       8.35425118E-10
   20.9099998       8.10176148E-10
   20.9699993       7.61282315E-10
   21.0300007       6.92047863E-10
   21.0900002       6.13766205E-10
   21.1499996       5.41298228E-10
   21.2099991       4.87551499E-10
   21.2700005       4.59715627E-10
   21.3299999       4.58742322E-10
   21.3899994       4.81510776E-10
   21.4500008       5.23768418E-10
   21.5100002       5.82009330E-10
   21.5699997       6.53612664E-10
   21.6299992       7.35835781E-10
   21.6900005       8.24777135E-10
   21.7500000       9.15080733E-10
   21.8099995       1.00045217E-09
   21.8700008       1.07463749E-09
   21.9300003       1.13254228E-09
   21.9899998       1.17134424E-09
   22.0499992       1.19138388E-09
   22.1100006       1.19632571E-09
   22.1700001       1.19199273E-09
   22.2299995       1.18381382E-09
   22.2900009       1.17387389E-09
   22.3500004       1.15935272E-09
   22.4099998       1.13382814E-09
   22.4699993       1.09132969E-09
   22.5300007       1.03104758E-09
   22.5900002       9.59649804E-10
   22.6499996       8.89235630E-10
   22.7099991       8.31616109E-10
   22.7700005       7.92203414E-10
   22.8299999       7.67449437E-10
   22.8899994       7.47775730E-10
   22.9500008       7.24448612E-10
   23.0100002       6.96146973E-10
   23.0699997       6.70970002E-10
   23.1299992       6.62449096E-10
   23.1900005       6.81933177E-10
   23.2500000       7.31975758E-10
   23.3099995       8.04574185E-10
   23.3700008       8.84894935E-10
   23.4300003       9.57740554E-10
   23.4899998       1.01275044E-09
   23.5499992       1.04583764E-09
   23.6100006       1.05733733E-09
   23.6700001       1.04947240E-09
   23.7299995       1.02554742E-09
   23.7900009       9.91130178E-10
   23.8500004       9.55264312E-10
   23.9099998       9.29371746E-10
   23.9699993       9.23330967E-10
   24.0300007       9.40815648E-10
   24.0900002       9.77227854E-10
   24.1499996       1.02225717E-09
   24.2099991       1.06606124E-09
   24.2700005       1.10542209E-09
   24.3299999       1.14600729E-09
   24.3899994       1.19932042E-09
   24.4500008       1.27634148E-09
   24.5100002       1.38188250E-09
   24.5699997       1.51292123E-09
   24.6299992       1.66128999E-09
   24.6900005       1.81827120E-09
   24.7500000       1.97780459E-09
   24.8099995       2.13665241E-09
   24.8700008       2.29245001E-09
   24.9300003       2.44208986E-09
   24.9899998       2.58219557E-09
   25.0499992       2.71126877E-09
   25.1100006       2.83133272E-09
   25.1700001       2.94708657E-09
   25.2299995       3.06262704E-09
   25.2900009       3.17804738E-09
   25.3500004       3.28875038E-09
   25.4099998       3.38850792E-09
   25.4699993       3.47439566E-09
   25.5300007       3.55000740E-09
   25.5900002       3.62423069E-09
   25.6499996       3.70593134E-09
   25.7099991       3.79792153E-09
   25.7700005       3.89434440E-09
   25.8299999       3.98339273E-09
   25.8899994       4.05362588E-09
   25.9500008       4.09969170E-09
   26.0100002       4.12374801E-09
   26.0699997       4.13202406E-09
   26.1299992       4.12940260E-09
   26.1900005       4.11617407E-09
   26.2500000       4.08924317E-09
   26.3099995       4.04652845E-09
   26.3700008       3.99070288E-09
   26.4300003       3.92879995E-09
   26.4899998       3.86731580E-09
   26.5499992       3.80605014E-09
   26.6100006       3.73535025E-09
   26.6700001       3.63948849E-09
   26.7299995       3.50488305E-09
   26.7900009       3.32846772E-09
   26.8500004       3.12108739E-09
   26.9099998       2.90369329E-09
   26.9699993       2.69838818E-09
   27.0300007       2.51930543E-09
   27.0900002       2.36811259E-09
   27.1499996       2.23595120E-09
   27.2099991       2.10991757E-09
   27.2700005       1.98005945E-09
   27.3299999       1.84333504E-09
   27.3899994       1.70335113E-09
   27.4500008       1.56721502E-09
   27.5100002       1.44195256E-09
   27.5699997       1.33237388E-09
   27.6299992       1.24081001E-09
   27.6900005       1.16793830E-09
   27.7500000       1.11368115E-09
   27.8099995       1.07764631E-09
   27.8700008       1.05916576E-09
   27.9300003       1.05719700E-09
   27.9899998       1.07016651E-09
   28.0499992       1.09564813E-09
   28.1100006       1.12989773E-09
   28.1700001       1.16757781E-09
   28.2299995       1.20214427E-09
   28.2900009       1.22705190E-09
   28.3500004       1.23735200E-09
   28.4099998       1.23084087E-09
   28.4699993       1.20808408E-09
   28.5300007       1.17134324E-09
   28.5900002       1.12312049E-09
   28.6499996       1.06520182E-09
   28.7099991       9.98575667E-10
   28.7700005       9.23862542E-10
   28.8299999       8.41537784E-10
   28.8899994       7.51584683E-10
   28.9500008       6.52959076E-10
   29.0100002       5.43691259E-10
   29.0699997       4.22131358E-10
   29.1299992       2.88900709E-10
   29.1900005       1.48301399E-10
   29.2500000       7.99066716E-12
   29.3099995      -1.23251062E-10
   29.3700008      -2.38529835E-10
   29.4300003      -3.34899830E-10
   29.4899998      -4.13372614E-10
   29.5499992      -4.77189288E-10
   29.6100006      -5.29824296E-10
   29.6700001      -5.74166992E-10
   29.7299995      -6.13147200E-10
   29.7900009      -6.50692555E-10
   29.8500004      -6.91493918E-10
   29.9099998      -7.39059813E-10
   29.9699993      -7.93220378E-10
   30.0300007      -8.49202153E-10
   30.0900002      -8.99667840E-10
   30.1499996      -9.39026079E-10
   30.2099991      -9.67355085E-10
   30.2700005      -9.91057791E-10
   30.3299999      -1.01931086E-09
   30.3899994      -1.05829001E-09
   30.4500008      -1.10696741E-09
   30.5100002      -1.15751053E-09
   30.5699997      -1.20029986E-09
   30.6299992      -1.23033039E-09
   30.6900005      -1.25060473E-09
   30.7500000      -1.27002309E-09
   30.8099995      -1.29701405E-09
   30.8700008      -1.33315070E-09
   30.9300003      -1.37110712E-09
   30.9899998      -1.39839873E-09
   31.0499992      -1.40441903E-09
   31.1100006      -1.38610912E-09
   31.1700001      -1.34868761E-09
   31.2299995      -1.30140421E-09
   31.2900009      -1.25167832E-09
   31.3500004      -1.20181221E-09
   31.4099998      -1.15020071E-09
   31.4699993      -1.09537401E-09
   31.5300007      -1.03906195E-09
   31.5900002      -9.85384552E-10
   31.6499996      -9.36556610E-10
   31.7099991      -8.88606744E-10
   31.7700005      -8.31068769E-10
   31.8299999      -7.51897211E-10
   31.8899994      -6.44910236E-10
   31.9500008      -5.14794152E-10
   32.0099983      -3.75946718E-10
   32.0699997      -2.45446691E-10
   32.1300011      -1.34419517E-10
   32.1899986      -4.31829537E-11
   32.2500000       3.70217607E-11
   32.3100014       1.17336335E-10
   32.3699989       2.04396333E-10
   32.4300003       2.97702113E-10
   32.4900017       3.92305272E-10
   32.5499992       4.83995344E-10
   32.6100006       5.72653203E-10
   32.6699982       6.61311839E-10
   32.7299995       7.52104212E-10
   32.7900009       8.42841685E-10
   32.8499985       9.27402988E-10
   32.9099998       9.99938354E-10
   32.9700012       1.05958631E-09
   33.0299988       1.11167420E-09
   33.0900002       1.16389476E-09
   33.1500015       1.21990484E-09
   33.2099991       1.27510946E-09
   33.2700005       1.31818656E-09
   33.3300018       1.33789335E-09
   33.3899994       1.33079248E-09
   33.4500008       1.30463607E-09
   33.5099983       1.27501665E-09
   33.5699997       1.25747313E-09
   33.6300011       1.26021704E-09
   33.6899986       1.28189526E-09
   33.7500000       1.31495781E-09
   33.8100014       1.35121625E-09
   33.8699989       1.38503731E-09
   33.9300003       1.41208401E-09
   33.9900017       1.42557532E-09
   34.0499992       1.41438861E-09
   34.1100006       1.36602674E-09
   34.1699982       1.27340527E-09
   34.2299995       1.14075926E-09
   34.2900009       9.83714776E-10
   34.3499985       8.22244661E-10
   34.4099998       6.70321354E-10
   34.4700012       5.28833977E-10
   34.5299988       3.86554511E-10
   34.5900002       2.28675717E-10
   34.6500015       4.73231697E-11
   34.7099991      -1.52875365E-10
   34.7700005      -3.57667507E-10
   34.8300018      -5.52224710E-10
   34.8899994      -7.30012384E-10
   34.9500008      -8.95568952E-10
   35.0099983      -1.05974762E-09
   35.0699997      -1.23121624E-09
   35.1300011      -1.41030354E-09
   35.1899986      -1.58920666E-09
   35.2500000      -1.75781734E-09
   35.3100014      -1.91057392E-09
   35.3699989      -2.04940442E-09
   35.4300003      -2.18104934E-09
   35.4900017      -2.31119079E-09
   35.5499992      -2.43987497E-09
   35.6100006      -2.56135047E-09
   35.6699982      -2.66797451E-09
   35.7299995      -2.75498424E-09
   35.7900009      -2.82271384E-09
   35.8499985      -2.87513302E-09
   35.9099998      -2.91638069E-09
   35.9700012      -2.94811175E-09
   36.0299988      -2.96929015E-09
   36.0900002      -2.97780445E-09
   36.1500015      -2.97193004E-09
   36.2099991      -2.95024671E-09
   36.2700005      -2.91046454E-09
   36.3300018      -2.84891444E-09
   36.3899994      -2.76198686E-09
   36.4500008      -2.64889843E-09
   36.5099983      -2.51352006E-09
   36.5699997      -2.36323783E-09
   36.6300011      -2.20496577E-09
   36.6899986      -2.04089456E-09
   36.7500000      -1.86722549E-09
   36.8100014      -1.67725889E-09
   36.8699989      -1.46700641E-09
   36.9300003      -1.23942612E-09
   36.9900017      -1.00414399E-09
   37.0499992      -7.72707454E-10
   37.1100006      -5.52681179E-10
   37.1699982      -3.44741957E-10
   37.2299995      -1.44668291E-10
   37.2900009       5.15772633E-11
   37.3499985       2.43758430E-10
   37.4099998       4.27445745E-10
   37.4700012       5.98019523E-10
   37.5299988       7.55084162E-10
   37.5900002       9.03299935E-10
   37.6500015       1.04842002E-09
   37.7099991       1.19127086E-09
   37.7700005       1.32445699E-09
   37.8300018       1.43494738E-09
   37.8899994       1.51147939E-09
   37.9500008       1.55196989E-09
   38.0099983       1.56573821E-09
   38.0699997       1.56872837E-09
   38.1300011       1.57469793E-09
   38.1899986       1.58810209E-09
   38.2500000       1.60314806E-09
   38.3100014       1.60921287E-09
   38.3699989       1.59857771E-09
   38.4300003       1.57124835E-09
   38.4900017       1.53412083E-09
   38.5499992       1.49591783E-09
   38.6100006       1.46203805E-09
   38.6699982       1.43291323E-09
   38.7299995       1.40637613E-09
   38.7900009       1.38145861E-09
   38.8499985       1.36028433E-09
   38.9099998       1.34668943E-09
   38.9700012       1.34308131E-09
   39.0299988       1.34846057E-09
   39.0900002       1.35941114E-09
   39.1500015       1.37322809E-09
   39.2099991       1.39045597E-09
   39.2700005       1.41450340E-09
   39.3300018       1.44838674E-09
   39.3899994       1.49106216E-09
   39.4500008       1.53628932E-09
   39.5099983       1.57510394E-09
   39.5699997       1.60025682E-09
   39.6300011       1.60953939E-09
   39.6899986       1.60585623E-09
   39.7500000       1.59441438E-09
   39.8100014       1.57945690E-09
   39.8699989       1.56297075E-09
   39.9300003       1.54585411E-09
   39.9900017       1.52984703E-09
   40.0499992       1.51793111E-09
   40.1100006       1.51241186E-09
   40.1699982       1.51219692E-09
   40.2299995       1.51190183E-09
   40.2900009       1.50426582E-09
   40.3499985       1.48476464E-09
   40.4099998       1.45529877E-09
   40.4700012       1.42411782E-09
   40.5299988       1.40163503E-09
   40.5900002       1.39467771E-09
   40.6500015       1.40285716E-09
   40.7099991       1.41924961E-09
   40.7700005       1.43460543E-09
   40.8300018       1.44204759E-09
   40.8899994       1.43927348E-09
   40.9500008       1.42740553E-09
   41.0099983       1.40808165E-09
   41.0699997       1.38127898E-09
   41.1300011       1.34524147E-09
   41.1899986       1.29789446E-09
   41.2500000       1.23804289E-09
   41.3100014       1.16530530E-09
   41.3699989       1.07935882E-09
   41.4300003       9.80036052E-10
   41.4900017       8.69068539E-10
   41.5499992       7.52361062E-10
   41.6100006       6.40366760E-10
   41.6699982       5.44856049E-10
   41.7299995       4.72961281E-10
   41.7900009       4.21947921E-10
   41.8499985       3.78544307E-10
   41.9099998       3.24180682E-10
   41.9700012       2.43666504E-10
   42.0299988       1.32393846E-10
   42.0900002      -2.05510847E-12
   42.1500015      -1.44455836E-10
   42.2099991      -2.79381157E-10
   42.2700005      -3.96888078E-10
   42.3300018      -4.93691532E-10
   42.3899994      -5.70620495E-10
   42.4500008      -6.29568342E-10
   42.5099983      -6.72681300E-10
   42.5699997      -7.03803960E-10
   42.6300011      -7.29678873E-10
   42.6899986      -7.58334173E-10
   42.7500000      -7.94632193E-10
   42.8100014      -8.35964964E-10
   42.8699989      -8.71922812E-10
   42.9300003      -8.89347762E-10
   42.9900017      -8.80192141E-10
   43.0499992      -8.47101167E-10
   43.1100006      -8.02745315E-10
   43.1699982      -7.63073660E-10
   43.2299995      -7.38853756E-10
   43.2900009      -7.30940142E-10
   43.3499985      -7.31870453E-10
   43.4099998      -7.31781136E-10
   43.4700012      -7.23794136E-10
   43.5299988      -7.05097258E-10
   43.5900002      -6.73957834E-10
   43.6500015      -6.26531493E-10
   43.7099991      -5.57528079E-10
   43.7700005      -4.65275457E-10
   43.8300018      -3.57309765E-10
   43.8899994      -2.51063004E-10
   43.9500008      -1.67178979E-10
   44.0099983      -1.18536250E-10
   44.0699997      -1.01994892E-10
   44.1300011      -9.89226617E-11
   44.1899986      -8.49811541E-11
   44.2500000      -4.33054148E-11
   44.3100014       2.72611014E-11
   44.3699989       1.13869317E-10
   44.4300003       1.99438924E-10
   44.4900017       2.73231826E-10
   44.5499992       3.34892003E-10
   44.6100006       3.89894478E-10
   44.6699982       4.40934622E-10
   44.7299995       4.82739626E-10
   44.7900009       5.04894460E-10
   44.8499985       5.00778474E-10
   44.9099998       4.75596285E-10
   44.9700012       4.46686743E-10
   45.0299988       4.34781322E-10
   45.0900002       4.51595900E-10
   45.1500015       4.92080099E-10
   45.2099991       5.36632183E-10
   45.2700005       5.61805602E-10
   45.3300018       5.52431156E-10
   45.3899994       5.07619169E-10
   45.4500008       4.37866993E-10
   45.5099983       3.56761870E-10
   45.5699997       2.73877587E-10
   45.6300011       1.93398769E-10
   45.6899986       1.17740512E-10
   45.7500000       5.13244273E-11
   45.8100014      -6.47421841E-14
   45.8699989      -3.45807098E-11
   45.9300003      -5.97644989E-11
   45.9900017      -9.24868584E-11
   46.0499992      -1.51345103E-10
   46.1100006      -2.45349657E-10
   46.1699982      -3.66309455E-10
   46.2299995      -4.90711360E-10
   46.2900009      -5.90883897E-10
   46.3499985      -6.49063636E-10
   46.4099998      -6.65946576E-10
   46.4700012      -6.58849086E-10
   46.5299988      -6.51224574E-10
   46.5900002      -6.60362098E-10
   46.6500015      -6.90380086E-10
   46.7099991      -7.33309247E-10
   46.7700005      -7.75578435E-10
   46.8300018      -8.04460054E-10
   46.8899994      -8.10617407E-10
   46.9500008      -7.87026055E-10
   47.0099983      -7.27696348E-10
   47.0699997      -6.29360897E-10
   47.1300011      -4.95961106E-10
   47.1899986      -3.42253198E-10
   47.2500000      -1.92203198E-10
   47.3100014      -7.08438933E-11
   47.3699989       7.06353639E-12
   47.4300003       4.52977066E-11
   47.4900017       6.61391289E-11
   47.5499992       1.01295757E-10
   47.6100006       1.78116785E-10
   47.6699982       3.07930320E-10
   47.7299995       4.81886420E-10
   47.7900009       6.75506040E-10
   47.8499985       8.58925819E-10
   47.9099998       1.00787279E-09
   47.9700012       1.11123577E-09
   48.0299988       1.17349452E-09
   48.0900002       1.21247135E-09
   48.1500015       1.25390298E-09
   48.2099991       1.32436695E-09
   48.2700005       1.44398471E-09
   48.3300018       1.62051417E-09
   48.3899994       1.84666848E-09
   48.4500008       2.10202611E-09
   48.5099983       2.35943465E-09
   48.5699997       2.59388178E-09
   48.6300011       2.79053647E-09
   48.6899986       2.94888558E-09
   48.7500000       3.08158277E-09
   48.8100014       3.20881011E-09
   48.8699989       3.35049322E-09
   48.9300003       3.51904195E-09
   48.9900017       3.71461839E-09
   49.0499992       3.92400157E-09
   49.1100006       4.12333812E-09
   49.1699982       4.28439950E-09
   49.2299995       4.38306369E-09
   49.2900009       4.40762538E-09
   49.3499985       4.36379777E-09
   49.4099998       4.27378888E-09
   49.4700012       4.16890877E-09
   49.5299988       4.07812717E-09
   49.5900002       4.01717903E-09
   49.6500015       3.98293576E-09
   49.7099991       3.95539290E-09
   49.7700005       3.90609189E-09
   49.8300018       3.80898646E-09
   49.8899994       3.64916097E-09
   49.9500008       3.42652196E-09
   50.0099983       3.15424353E-09
   50.0699997       2.85378943E-09
   50.1300011       2.54881738E-09
   50.1899986       2.25955854E-09
   50.2500000       1.99838901E-09
   50.3100014       1.76708803E-09
   50.3699989       1.55656055E-09
   50.4300003       1.34980360E-09
   50.4900017       1.12793774E-09
   50.5499992       8.77484363E-10
   50.6100006       5.95860528E-10