  -2.400000      0.0000000E+00
  -2.340000      0.0000000E+00
  -2.280000      0.0000000E+00
  -2.220000      0.0000000E+00
  -2.160000      0.0000000E+00
  -2.100000      0.0000000E+00
  -2.040000      0.0000000E+00
  -1.980000     -4.4655614E-23
  -1.920000     -4.2750783E-22
  -1.860000     -1.9479677E-21
  -1.800000     -5.2661904E-21
  -1.740000     -7.7282531E-21
  -1.680000      1.9462613E-21
  -1.620000      4.4375002E-20
  -1.560000      1.3288593E-19
  -1.500000      2.3362589E-19
  -1.440000      2.2514497E-19
  -1.380000     -8.4402375E-20
  -1.320000     -8.2821903E-19
  -1.260000     -1.8706690E-18
  -1.200000     -2.6804980E-18
  -1.140000     -2.4962206E-18
  -1.080000     -7.9321880E-19
  -1.020000      2.3381718E-18
 -0.9600000      6.5117155E-18
 -0.9000000      1.2171089E-17
 -0.8400000      2.1336480E-17
 -0.7800000      3.5660276E-17
 -0.7200000      5.0347169E-17
 -0.6600000      4.6552454E-17
 -0.6000000     -9.4198534E-18
 -0.5400000     -1.4954066E-16
 -0.4800000     -3.6686270E-16
 -0.4200000     -5.7282964E-16
 -0.3600000     -5.8485931E-16
 -0.3000000     -1.8478414E-16
 -0.2400000      7.3940333E-16
 -0.1800000      2.0166148E-15
 -0.1200000      3.0923970E-15
 -5.9999999E-02  3.1336405E-15
  0.0000000E+00  1.3942403E-15
  5.9999999E-02 -2.2573720E-15
  0.1200000     -6.9127240E-15
  0.1800000     -1.0623550E-14
  0.2400000     -1.1018272E-14
  0.3000000     -6.4133159E-15
  0.3600000      3.0479581E-15
  0.4200000      1.4860048E-14
  0.4800000      2.4679804E-14
  0.5400000      2.7877262E-14
  0.6000000      2.1513050E-14
  0.6600000      5.8321081E-15
  0.7200000     -1.5467552E-14
  0.7800000     -3.6340888E-14
  0.8400000     -5.0347510E-14
  0.9000000     -5.2569158E-14
  0.9600000     -4.0801523E-14
   1.020000     -1.5892640E-14
   1.080000      1.8404796E-14
   1.140000      5.5674168E-14
   1.200000      8.7237326E-14
   1.260000      1.0329939E-13
   1.320000      9.5384407E-14
   1.380000      5.9789738E-14
   1.440000      6.1271653E-16
   1.500000     -6.9682277E-14
   1.560000     -1.3339681E-13
   1.620000     -1.7360691E-13
   1.680000     -1.8008792E-13
   1.740000     -1.5165793E-13
   1.800000     -9.3413416E-14
   1.860000     -1.0997241E-14
   1.920000      9.3026058E-14
   1.980000      2.1602486E-13
   2.040000      3.4527692E-13
   2.100000      4.4745289E-13
   2.160000      4.6796361E-13
   2.220000      3.4794224E-13
   2.280000      5.6991995E-14
   2.340000     -3.7240599E-13
   2.400000     -8.3008931E-13
   2.460000     -1.1499264E-12
   2.520000     -1.1685503E-12
   2.580000     -8.0031283E-13
   2.640000     -9.3363637E-14
   2.700000      7.6548457E-13
   2.760000      1.5080414E-12
   2.820000      1.8844002E-12
   2.880000      1.7613063E-12
   2.940000      1.1727470E-12
   3.000000      2.9807946E-13
   3.060000     -6.2073881E-13
   3.120000     -1.3798588E-12
   3.180000     -1.8803665E-12
   3.240000     -2.1288819E-12
   3.300000     -2.1772974E-12
   3.360000     -2.0421648E-12
   3.420000     -1.6568756E-12
   3.480000     -8.9222732E-13
   3.540000      3.5763908E-13
   3.600000      2.0657196E-12
   3.660000      3.9986855E-12
   3.720000      5.7262636E-12
   3.780000      6.7231476E-12
   3.840000      6.5303713E-12
   3.900000      4.9152071E-12
   3.960000      1.9678647E-12
   4.020000     -1.9016620E-12
   4.080000     -6.0645568E-12
   4.140000     -9.8339713E-12
   4.200000     -1.2627360E-11
   4.260000     -1.4072807E-11
   4.320000     -1.4021261E-11
   4.380000     -1.2457761E-11
   4.440000     -9.3382481E-12
   4.500000     -4.4051737E-12
   4.560000      2.9529972E-12
   4.620000      1.3741177E-11
   4.680000      2.9265600E-11
   4.740000      5.0919095E-11
   4.800000      7.9891156E-11
   4.860000      1.1687536E-10
   4.920000      1.6184885E-10
   4.980000      2.1397763E-10
   5.040000      2.7166458E-10
   5.100000      3.3271946E-10
   5.160000      3.9460113E-10
   5.220000      4.5467236E-10
   5.280000      5.1041582E-10
   5.340000      5.5958227E-10
   5.400000      6.0026989E-10
   5.460000      6.3095967E-10
   5.520000      6.5054329E-10
   5.580000      6.5837091E-10
   5.640000      6.5432199E-10
   5.700000      6.3886546E-10
   5.760000      6.1305105E-10
   5.820000      5.7837668E-10
   5.880000      5.3651594E-10
   5.940000      4.8895332E-10
   6.000000      4.3663367E-10
   6.060000      3.7975018E-10
   6.120000      3.1776007E-10
   6.180000      2.4962993E-10
   6.240000      1.7422384E-10
   6.300000      9.0694841E-11
   6.360000     -1.2453997E-12
   6.420000     -1.0123093E-10
   6.480000     -2.0828803E-10
   6.540000     -3.2094347E-10
   6.600000     -4.3733225E-10
   6.660000     -5.5530630E-10
   6.720000     -6.7260930E-10
   6.780000     -7.8718554E-10
   6.840000     -8.9762103E-10
   6.900000     -1.0035992E-09
   6.960000     -1.1061692E-09
   7.020000     -1.2076311E-09
   7.080000     -1.3109592E-09
   7.140000     -1.4188745E-09
   7.200000     -1.5328357E-09
   7.260000     -1.6522822E-09
   7.320000     -1.7743741E-09
   7.380000     -1.8943025E-09
   7.440000     -2.0060416E-09
   7.500000     -2.1032955E-09
   7.560000     -2.1803841E-09
   7.620000     -2.2329012E-09
   7.680000     -2.2580977E-09
   7.740000     -2.2550319E-09
   7.800000     -2.2245537E-09
   7.860000     -2.1691673E-09
   7.920000     -2.0927895E-09
   7.980000     -2.0004103E-09
   8.040000     -1.8977020E-09
   8.100000     -1.7906252E-09
   8.160000     -1.6850983E-09
   8.220000     -1.5867226E-09
   8.280000     -1.5005052E-09
   8.340000     -1.4304704E-09
   8.400000     -1.3791014E-09
   8.460000     -1.3466588E-09
   8.520000     -1.3305785E-09
   8.580000     -1.3252380E-09
   8.640000     -1.3223644E-09
   8.700000     -1.3121884E-09
   8.760000     -1.2851940E-09
   8.820000     -1.2340592E-09
   8.880000     -1.1552531E-09
   8.940000     -1.0498066E-09
   9.000000     -9.2301455E-10
   9.060000     -7.8315809E-10
   9.120000     -6.3963917E-10
   9.180000     -5.0107596E-10
   9.240000     -3.7386527E-10
   9.300000     -2.6151342E-10
   9.360000     -1.6475889E-10
   9.420000     -8.2272904E-11
   9.480000     -1.1603153E-11
   9.540000      4.9968068E-11
   9.600000      1.0488560E-10
   9.660000      1.5521000E-10
   9.720000      2.0291462E-10
   9.780000      2.5046104E-10
   9.840000      3.0141323E-10
   9.900000      3.6076891E-10
   9.960000      4.3467641E-10
   10.02000      5.2933552E-10
   10.08000      6.4916600E-10
   10.14000      7.9469786E-10
   10.20000      9.6093788E-10
   10.26000      1.1370093E-09
   10.32000      1.3075494E-09
   10.38000      1.4557403E-09
   10.44000      1.5671725E-09
   10.50000      1.6333001E-09
   10.56000      1.6532823E-09
   10.62000      1.6335495E-09
   10.68000      1.5852829E-09
   10.74000      1.5208035E-09
   10.80000      1.4502775E-09
   10.86000      1.3799674E-09
   10.92000      1.3125729E-09
   10.98000      1.2492947E-09
   11.04000      1.1924939E-09
   11.10000      1.1475610E-09
   11.16000      1.1229387E-09
   11.22000      1.1280726E-09
   11.28000      1.1700312E-09
   11.34000      1.2502385E-09
   11.40000      1.3628567E-09
   11.46000      1.4957486E-09
   11.52000      1.6338538E-09
   11.58000      1.7637084E-09
   11.64000      1.8772406E-09
   11.70000      1.9732365E-09
   11.76000      2.0558999E-09
   11.82000      2.1312923E-09
   11.88000      2.2034183E-09
   11.94000      2.2718376E-09
   12.00000      2.3318232E-09
   12.06000      2.3767424E-09
   12.12000      2.4011986E-09
   12.18000      2.4031712E-09
   12.24000      2.3840840E-09
   12.30000      2.3469651E-09
   12.36000      2.2939284E-09
   12.42000      2.2245350E-09
   12.48000      2.1360134E-09
   12.54000      2.0252791E-09
   12.60000      1.8917670E-09
   12.66000      1.7397559E-09
   12.72000      1.5791684E-09
   12.78000      1.4244641E-09
   12.84000      1.2918467E-09
   12.90000      1.1953868E-09
   12.96000      1.1429097E-09
   13.02000      1.1327427E-09
   13.08000      1.1525770E-09
   13.14000      1.1815053E-09
   13.20000      1.1954173E-09
   13.26000      1.1744749E-09
   13.32000      1.1099659E-09
   13.38000      1.0073974E-09
   13.44000      8.8387447E-10
   13.50000      7.6035916E-10
   13.56000      6.5213446E-10
   13.62000      5.6211641E-10
   13.68000      4.8057691E-10
   13.74000      3.9168721E-10
   13.80000      2.8367711E-10
   13.86000      1.5735400E-10
   13.92000      2.8469036E-11
   13.98000     -7.7416872E-11
   14.04000     -1.3508904E-10
   14.10000     -1.3001031E-10
   14.16000     -6.4252700E-11
   14.22000      4.4033003E-11
   14.28000      1.6654927E-10
   14.34000      2.7313796E-10
   14.40000      3.3927861E-10
   14.46000      3.5094774E-10
   14.52000      3.0643080E-10
   14.58000      2.1535204E-10
   14.64000      9.5142144E-11
   14.70000     -3.4830687E-11
   14.76000     -1.6047329E-10
   14.82000     -2.7921609E-10
   14.88000     -4.0221040E-10
   14.94000     -5.5031263E-10
   15.00000     -7.4447132E-10
   15.06000     -9.9444486E-10
   15.12000     -1.2915021E-09
   15.18000     -1.6093817E-09
   15.24000     -1.9136641E-09
   15.30000     -2.1750723E-09
   15.36000     -2.3798765E-09
   15.42000     -2.5321485E-09
   15.48000     -2.6472529E-09
   15.54000     -2.7408955E-09
   15.60000     -2.8202467E-09
   15.66000     -2.8818230E-09
   15.72000     -2.9162810E-09
   15.78000     -2.9160276E-09
   15.84000     -2.8803118E-09
   15.90000     -2.8147942E-09
   15.96000     -2.7267097E-09
   16.02000     -2.6197013E-09
   16.08000     -2.4922813E-09
   16.14000     -2.3409468E-09
   16.20000     -2.1654567E-09
   16.26000     -1.9722490E-09
   16.32000     -1.7733958E-09
   16.38000     -1.5817586E-09
   16.44000     -1.4056735E-09
   16.50000     -1.2466862E-09
   16.56000     -1.1015496E-09
   16.62000     -9.6665365E-10
   16.68000     -8.4150564E-10
   16.74000     -7.2886452E-10
   16.80000     -6.3179983E-10
   16.86000     -5.5023802E-10
   16.92000     -4.7980381E-10
   16.98000     -4.1386777E-10
   17.04000     -3.4718503E-10
   17.10000     -2.7828909E-10
   17.16000     -2.0878546E-10
   17.22000     -1.4008428E-10
   17.28000     -7.0083252E-11
   17.34000      7.6059133E-12
   17.40000      1.0113806E-10
   17.46000      2.1623327E-10
   17.52000      3.5303521E-10
   17.58000      5.0589855E-10
   17.64000      6.6584810E-10
   17.70000      8.2370538E-10
   17.76000      9.7179320E-10
   17.82000      1.1036242E-09
   17.88000      1.2127945E-09
   17.94000      1.2929386E-09
   18.00000      1.3395830E-09
   18.06000      1.3528916E-09
   18.12000      1.3391646E-09
   18.18000      1.3094964E-09
   18.24000      1.2758891E-09
   18.30000      1.2469388E-09
   18.36000      1.2255728E-09
   18.42000      1.2099260E-09
   18.48000      1.1963271E-09
   18.54000      1.1821060E-09
   18.60000      1.1664230E-09
   18.66000      1.1491140E-09
   18.72000      1.1291811E-09
   18.78000      1.1047376E-09
   18.84000      1.0748027E-09
   18.90000      1.0414738E-09
   18.96000      1.0102670E-09
   19.02000      9.8751196E-10
   19.08000      9.7593389E-10
   19.14000      9.7126951E-10
   19.20000      9.6257891E-10
   19.26000      9.3676644E-10
   19.32000      8.8510010E-10
   19.38000      8.0809581E-10
   19.44000      7.1598277E-10
   19.50000      6.2457683E-10
   19.56000      5.4901678E-10
   19.62000      4.9880716E-10
   19.68000      4.7644833E-10
   19.74000      4.7954901E-10
   19.80000      5.0433741E-10
   19.86000      5.4810301E-10
   19.92000      6.0930222E-10
   19.98000      6.8583694E-10
   20.04000      7.7313117E-10
   20.10000      8.6351598E-10
   20.16000      9.4742147E-10
   20.22000      1.0157829E-09
   20.28000      1.0625497E-09
   20.34000      1.0863141E-09
   20.40000      1.0905209E-09
   20.46000      1.0821407E-09
   20.52000      1.0690637E-09
   20.58000      1.0569104E-09
   20.64000      1.0464645E-09
   20.70000      1.0331134E-09
   20.76000      1.0090991E-09
   20.82000      9.6798836E-10
   20.88000      9.0922786E-10
   20.94000      8.4006818E-10
   21.00000      7.7322054E-10
   21.06000      7.2102957E-10
   21.12000      6.8928963E-10
   21.18000      6.7446748E-10
   21.24000      6.6633443E-10
   21.30000      6.5474731E-10
   21.36000      6.3659639E-10
   21.42000      6.1860872E-10
   21.48000      6.1411415E-10
   21.54000      6.3557437E-10
   21.60000      6.8726835E-10
   21.66000      7.6235024E-10
   21.72000      8.4571938E-10
   21.78000      9.2064284E-10
   21.84000      9.7515063E-10
   21.90000      1.0049633E-09
   21.96000      1.0123538E-09
   22.02000      1.0029034E-09
   22.08000      9.8284203E-10
   22.14000      9.5833208E-10
   22.20000      9.3596808E-10
   22.26000      9.2266861E-10
   22.32000      9.2389479E-10
   22.38000      9.4102237E-10
   22.44000      9.7003094E-10
   22.50000      1.0032550E-09
   22.56000      1.0338662E-09
   22.62000      1.0605857E-09
   22.68000      1.0895468E-09
   22.74000      1.1318197E-09
   22.80000      1.1978715E-09
   22.86000      1.2922305E-09
   22.92000      1.4114613E-09
   22.98000      1.5463678E-09
   23.04000      1.6866970E-09
   23.10000      1.8253113E-09
   23.16000      1.9596242E-09
   23.22000      2.0902406E-09
   23.28000      2.2185553E-09
   23.34000      2.3452764E-09
   23.40000      2.4705358E-09
   23.46000      2.5946585E-09
   23.52000      2.7181708E-09
   23.58000      2.8405902E-09
   23.64000      2.9590421E-09
   23.70000      3.0684066E-09
   23.76000      3.1637353E-09
   23.82000      3.2437637E-09
   23.88000      3.3129981E-09
   23.94000      3.3803356E-09
   24.00000      3.4543892E-09
   24.06000      3.5381476E-09
   24.12000      3.6264383E-09
   24.18000      3.7081069E-09
   24.24000      3.7717980E-09
   24.30000      3.8117776E-09
   24.36000      3.8301757E-09
   24.42000      3.8343715E-09
   24.48000      3.8315187E-09
   24.54000      3.8240056E-09
   24.60000      3.8088195E-09
   24.66000      3.7808774E-09
   24.72000      3.7375347E-09
   24.78000      3.6806886E-09
   24.84000      3.6147711E-09
   24.90000      3.5420815E-09
   24.96000      3.4590701E-09
   25.02000      3.3567802E-09
   25.08000      3.2258713E-09
   25.14000      3.0633769E-09
   25.20000      2.8768716E-09
   25.26000      2.6830496E-09
   25.32000      2.5010798E-09
   25.38000      2.3442870E-09
   25.44000      2.2147557E-09
   25.50000      2.1037241E-09
   25.56000      1.9973059E-09
   25.62000      1.8841955E-09
   25.68000      1.7612337E-09
   25.74000      1.6342837E-09
   25.80000      1.5146197E-09
   25.86000      1.4133155E-09
   25.92000      1.3367102E-09
   25.98000      1.2849144E-09
   26.04000      1.2534094E-09
   26.10000      1.2362456E-09
   26.16000      1.2289104E-09
   26.22000      1.2295730E-09
   26.28000      1.2385157E-09
   26.34000      1.2564734E-09
   26.40000      1.2829343E-09
   26.46000      1.3152097E-09
   26.52000      1.3485548E-09
   26.58000      1.3771322E-09
   26.64000      1.3953176E-09
   26.70000      1.3988390E-09
   26.76000      1.3854189E-09
   26.82000      1.3548330E-09
   26.88000      1.3085245E-09
   26.94000      1.2489683E-09
   27.00000      1.1789565E-09
   27.06000      1.1008738E-09
   27.12000      1.0160323E-09
   27.18000      9.2422980E-10
   27.24000      8.2379897E-10
   27.30000      7.1237249E-10
   27.36000      5.8828342E-10
   27.42000      4.5210075E-10
   27.48000      3.0752725E-10
   27.54000      1.6105210E-10
   27.60000      2.0358845E-11
   27.66000     -1.0779698E-10
   27.72000     -2.1919627E-10
   27.78000     -3.1253081E-10
   27.84000     -3.8863621E-10
   27.90000     -4.4940798E-10
   27.96000     -4.9731036E-10
   28.02000     -5.3573235E-10
   28.08000     -5.6952842E-10
   28.14000     -6.0467098E-10
   28.20000     -6.4648970E-10
   28.26000     -6.9718387E-10
   28.32000     -7.5427042E-10
   28.38000     -8.1148249E-10
   28.44000     -8.6221769E-10
   28.50000     -9.0378272E-10
   28.56000     -9.3973640E-10
   28.62000     -9.7845609E-10
   28.68000     -1.0283508E-09
   28.74000     -1.0924600E-09
   28.80000     -1.1659065E-09
   28.86000     -1.2380941E-09
   28.92000     -1.2985676E-09
   28.98000     -1.3429794E-09
   29.04000     -1.3753741E-09
   29.10000     -1.4052665E-09
   29.16000     -1.4413236E-09
   29.22000     -1.4856498E-09
   29.28000     -1.5322295E-09
   29.34000     -1.5703143E-09
   29.40000     -1.5903324E-09
   29.46000     -1.5884474E-09
   29.52000     -1.5671238E-09
   29.58000     -1.5319895E-09
   29.64000     -1.4877843E-09
   29.70000     -1.4364547E-09
   29.76000     -1.3784215E-09
   29.82000     -1.3153260E-09
   29.88000     -1.2512927E-09
   29.94000     -1.1909578E-09
   30.00000     -1.1353071E-09
   30.06000     -1.0785762E-09
   30.12000     -1.0092616E-09
   30.18000     -9.1560731E-10
   30.24000     -7.9261653E-10
   30.30000     -6.4611244E-10
   30.36000     -4.9091980E-10
   30.42000     -3.4391509E-10
   30.48000     -2.1602707E-10
   30.54000     -1.0791879E-10
   30.60000     -1.1620168E-11
   30.66000      8.3490506E-11
   30.72000      1.8452800E-10
   30.78000      2.9251540E-10
   30.84000      4.0420217E-10
   30.90000      5.1593896E-10
   30.96000      6.2616862E-10
   31.02000      7.3474671E-10
   31.08000      8.4024571E-10
   31.14000      9.3821495E-10
   31.20000      1.0226070E-09
   31.26000      1.0898009E-09
   31.32000      1.1421379E-09
   31.38000      1.1877289E-09
   31.44000      1.2358483E-09
   31.50000      1.2906533E-09
   31.56000      1.3476297E-09
   31.62000      1.3956377E-09
   31.68000      1.4236330E-09
   31.74000      1.4277941E-09
   31.80000      1.4143552E-09
   31.86000      1.3963353E-09
   31.92000      1.3865041E-09
   31.98000      1.3913360E-09
   32.04000      1.4096478E-09
   32.10000      1.4359535E-09
   32.16000      1.4651057E-09
   32.22000      1.4941732E-09
   32.28000      1.5201598E-09
   32.34000      1.5359912E-09
   32.40000      1.5290971E-09
   32.46000      1.4852330E-09
   32.52000      1.3960383E-09
   32.58000      1.2653392E-09
   32.64000      1.1092267E-09
   32.70000      9.4878194E-10
   32.76000      7.9940982E-10
   32.82000      6.6340911E-10
   32.88000      5.3056282E-10
   32.94000      3.8631379E-10
   33.00000      2.2205332E-10
   33.06000      4.0746434E-11
   33.12000     -1.4554458E-10
   33.18000     -3.2407557E-10
   33.24000     -4.8967513E-10
   33.30000     -6.4716549E-10
   33.36000     -8.0663753E-10
   33.42000     -9.7533615E-10
   33.48000     -1.1520848E-09
   33.54000     -1.3280650E-09
   33.60000     -1.4930536E-09
   33.66000     -1.6424010E-09
   33.72000     -1.7797639E-09
   33.78000     -1.9138902E-09
   33.84000     -2.0520368E-09
   33.90000     -2.1947648E-09
   33.96000     -2.3355402E-09
   34.02000     -2.4649565E-09
   34.08000     -2.5762712E-09
   34.14000     -2.6684586E-09
   34.20000     -2.7451994E-09
   34.26000     -2.8112335E-09
   34.32000     -2.8690212E-09
   34.38000     -2.9177885E-09
   34.44000     -2.9548075E-09
   34.50000     -2.9771210E-09
   34.56000     -2.9820901E-09
   34.62000     -2.9667495E-09
   34.68000     -2.9273692E-09
   34.74000     -2.8605214E-09
   34.80000     -2.7654024E-09
   34.86000     -2.6455604E-09
   34.92000     -2.5081239E-09
   34.98000     -2.3603450E-09
   35.04000     -2.2055369E-09
   35.10000     -2.0413700E-09
   35.16000     -1.8620953E-09
   35.22000     -1.6634745E-09
   35.28000     -1.4470771E-09
   35.34000     -1.2208824E-09
   35.40000     -9.9568487E-10
   35.46000     -7.7979062E-10
   35.52000     -5.7566107E-10
   35.58000     -3.8062534E-10
   35.64000     -1.9072005E-10
   35.70000     -4.4708972E-12
   35.76000      1.7625312E-10
   35.82000      3.4861872E-10
   35.88000      5.1199206E-10
   35.94000      6.6872935E-10
   36.00000      8.2140356E-10
   36.06000      9.6841157E-10
   36.12000      1.1016875E-09
   36.18000      1.2091098E-09
   36.24000      1.2808428E-09
   36.30000      1.3157004E-09
   36.36000      1.3231395E-09
   36.42000      1.3191347E-09
   36.48000      1.3182286E-09
   36.54000      1.3265904E-09
   36.60000      1.3402111E-09
   36.66000      1.3489337E-09
   36.72000      1.3433381E-09
   36.78000      1.3200385E-09
   36.84000      1.2825555E-09
   36.90000      1.2381678E-09
   36.96000      1.1936284E-09
   37.02000      1.1527288E-09
   37.08000      1.1166988E-09
   37.14000      1.0861280E-09
   37.20000      1.0622544E-09
   37.26000      1.0465400E-09
   37.32000      1.0392783E-09
   37.38000      1.0389319E-09
   37.44000      1.0431789E-09
   37.50000      1.0509927E-09
   37.56000      1.0639406E-09
   37.62000      1.0853387E-09
   37.68000      1.1175987E-09
   37.74000      1.1596479E-09
   37.80000      1.2064038E-09
   37.86000      1.2508015E-09
   37.92000      1.2869896E-09
   37.98000      1.3125057E-09
   38.04000      1.3281534E-09
   38.10000      1.3361455E-09
   38.16000      1.3383282E-09
   38.22000      1.3359631E-09
   38.28000      1.3309545E-09
   38.34000      1.3269399E-09
   38.40000      1.3286341E-09
   38.46000      1.3393173E-09
   38.52000      1.3581702E-09
   38.58000      1.3797292E-09
   38.64000      1.3964420E-09
   38.70000      1.4030322E-09
   38.76000      1.3998601E-09
   38.82000      1.3929382E-09
   38.88000      1.3904657E-09
   38.94000      1.3980851E-09
   39.00000      1.4158602E-09
   39.06000      1.4386663E-09
   39.12000      1.4593193E-09
   39.18000      1.4720933E-09
   39.24000      1.4744169E-09
   39.30000      1.4661901E-09
   39.36000      1.4479081E-09
   39.42000      1.4193154E-09
   39.48000      1.3794099E-09
   39.54000      1.3272683E-09
   39.60000      1.2625954E-09
   39.66000      1.1855255E-09
   39.72000      1.0963045E-09
   39.78000      9.9585973E-10
   39.84000      8.8740226E-10
   39.90000      7.7779899E-10
   39.96000      6.7686795E-10
   40.02000      5.9382887E-10
   40.08000      5.3232652E-10
   40.14000      4.8709614E-10
   40.20000      4.4493451E-10
   40.26000      3.9017009E-10
   40.32000      3.1186498E-10
   40.38000      2.0869378E-10
   40.44000      8.8835828E-11
   40.50000     -3.4613843E-11
   40.56000     -1.4954937E-10
   40.62000     -2.4858002E-10
   40.68000     -3.2918984E-10
   40.74000     -3.9170298E-10
   40.80000     -4.3765203E-10
   40.86000     -4.7000720E-10
   40.92000     -4.9434390E-10
   40.98000     -5.1861393E-10
   41.04000     -5.5011534E-10
   41.10000     -5.9088745E-10
   41.16000     -6.3486744E-10
   41.22000     -6.6970773E-10
   41.28000     -6.8312905E-10
   41.34000     -6.7019318E-10
   41.40000     -6.3669342E-10
   41.46000     -5.9615690E-10
   41.52000     -5.6225469E-10
   41.58000     -5.4159832E-10
   41.64000     -5.3153831E-10
   41.70000     -5.2386717E-10
   41.76000     -5.1105037E-10
   41.82000     -4.9003940E-10
   41.88000     -4.6106438E-10
   41.94000     -4.2319684E-10
   42.00000     -3.7137132E-10
   42.06000     -2.9850242E-10
   42.12000     -2.0199462E-10
   42.18000     -8.9704098E-11
   42.24000      2.0176616E-11
   42.30000      1.0691830E-10
   42.36000      1.5858739E-10
   42.42000      1.7950458E-10
   42.48000      1.8838948E-10
   42.54000      2.0784344E-10
   42.60000      2.5177471E-10
   42.66000      3.1883507E-10
   42.72000      3.9573950E-10
   42.78000      4.6745463E-10
   42.84000      5.2665677E-10
   42.90000      5.7586258E-10
   42.96000      6.2143518E-10
   43.02000      6.6486627E-10
   43.08000      6.9871098E-10
   43.14000      7.1083767E-10
   43.20000      6.9408429E-10
   43.26000      6.5396683E-10
   43.32000      6.0814326E-10
   43.38000      5.7718863E-10
   43.44000      5.7255295E-10
   43.50000      5.8971905E-10
   43.56000      6.1099981E-10
   43.62000      6.1579514E-10
   43.68000      5.9129429E-10
   43.74000      5.3693899E-10
   43.80000      4.6093107E-10
   43.86000      3.7278700E-10
   43.92000      2.7812733E-10
   43.98000      1.7917615E-10
   44.04000      7.9225092E-11
   44.10000     -1.4141875E-11
   44.16000     -9.1182818E-11
   44.22000     -1.4689057E-10
   44.28000     -1.8745779E-10
   44.34000     -2.3042766E-10
   44.40000     -2.9669459E-10
   44.46000     -3.9847178E-10
   44.52000     -5.3078458E-10
   44.58000     -6.7233480E-10
   44.64000     -7.9571549E-10
   44.70000     -8.8101587E-10
   44.76000     -9.2481950E-10
   44.82000     -9.3981167E-10
   44.88000     -9.4620267E-10
   44.94000     -9.6087827E-10
   45.00000     -9.9056452E-10
   45.06000     -1.0316749E-09
   45.12000     -1.0748178E-09
   45.18000     -1.1096085E-09
   45.24000     -1.1267038E-09
   45.30000     -1.1173408E-09
   45.36000     -1.0731467E-09
   45.42000     -9.8859199E-10
   45.48000     -8.6561242E-10
   45.54000     -7.1706546E-10
   45.60000     -5.6527938E-10
   45.66000     -4.3461204E-10
   45.72000     -3.4093497E-10
   45.78000     -2.8349756E-10
   45.84000     -2.4389060E-10
   45.90000     -1.9318536E-10
   45.96000     -1.0402228E-10
   46.02000      3.8004561E-11
   46.08000      2.2865987E-10
   46.14000      4.4706108E-10
   46.20000      6.6383898E-10
   46.26000      8.5175694E-10
   46.32000      9.9482866E-10
   46.38000      1.0931841E-09
   46.44000      1.1626617E-09
   46.50000      1.2296496E-09
   46.56000      1.3228539E-09
   46.62000      1.4644378E-09
   46.68000      1.6632293E-09
   46.74000      1.9122002E-09
   46.80000      2.1910647E-09
   46.86000      2.4730307E-09
   46.92000      2.7332459E-09
   46.98000      2.9559986E-09
   47.04000      3.1384790E-09
   47.10000      3.2903127E-09
   47.16000      3.4294474E-09
   47.22000      3.5757606E-09
   47.28000      3.7440433E-09
   47.34000      3.9381023E-09
   47.40000      4.1477803E-09
   47.46000      4.3504089E-09
   47.52000      4.5171196E-09
   47.58000      4.6225352E-09
   47.64000      4.6543973E-09
   47.70000      4.6189266E-09
   47.76000      4.5390394E-09
   47.82000      4.4456558E-09
   47.88000      4.3657082E-09
   47.94000      4.3121120E-09
   48.00000      4.2799693E-09
   48.06000      4.2500439E-09
   48.12000      4.1971613E-09
   48.18000      4.0993604E-09
   48.24000      3.9442716E-09
   48.30000      3.7313597E-09
   48.36000      3.4707757E-09
   48.42000      3.1803122E-09
   48.48000      2.8814253E-09
   48.54000      2.5945308E-09
   48.60000      2.3338251E-09
   48.66000      2.1028685E-09
   48.72000      1.8930180E-09
   48.78000      1.6863728E-09
   48.84000      1.4629041E-09
   48.90000      1.2089432E-09
   48.96000      9.2299751E-10
   49.02000      6.1601269E-10
   49.08000      3.0620903E-10
   49.14000      1.1589688E-11
   49.20000     -2.5580005E-10
   49.26000     -4.9139054E-10
   49.32000     -6.9589273E-10
   49.38000     -8.7210394E-10
   49.44000     -1.0233659E-09
   49.50000     -1.1542530E-09
   49.56000     -1.2717583E-09
   49.62000     -1.3846119E-09
   49.68000     -1.4999295E-09
   49.74000     -1.6189202E-09
   49.80000     -1.7347755E-09
   49.86000     -1.8348543E-09
   49.92000     -1.9064250E-09
   49.98000     -1.9426210E-09
   50.04000     -1.9448776E-09
   50.10000     -1.9204229E-09
   50.16000     -1.8767639E-09
   50.22000     -1.8171483E-09
   50.28000     -1.7401480E-09
   50.34000     -1.6433729E-09
   50.40000     -1.5281563E-09
   50.46000     -1.4011996E-09
   50.52000     -1.2713315E-09
   50.58000     -1.1432255E-09
   50.64000     -1.0124964E-09
   50.70000     -8.6612773E-10
   50.76000     -6.8886419E-10
   50.82000     -4.7221621E-10
   50.88000     -2.2074181E-10
   50.94000      4.8333143E-11
   51.00000      3.1221009E-10
   51.06000      5.5247151E-10
   51.12000      7.6251794E-10
   51.18000      9.4878982E-10
   51.24000      1.1257223E-09
   51.30000      1.3076829E-09
   51.36000      1.5022216E-09
   51.42000      1.7075147E-09
   51.48000      1.9141717E-09
   51.54000      2.1094113E-09
   51.60000      2.2811548E-09
   51.66000      2.4206470E-09
   51.72000      2.5236939E-09
   51.78000      2.5912652E-09
   51.84000      2.6297657E-09
   51.90000      2.6503371E-09
   51.96000      2.6662075E-09
   52.02000      2.6879443E-09
   52.08000      2.7180707E-09
   52.14000      2.7477343E-09
   52.20000      2.7578297E-09
   52.26000      2.7250076E-09
   52.32000      2.6303359E-09
   52.38000      2.4666369E-09
   52.44000      2.2409232E-09
   52.50000      1.9707953E-09
   52.56000      1.6767793E-09
   52.62000      1.3744923E-09
   52.68000      1.0701151E-09
   52.74000      7.6033579E-10
   52.80000      4.3531562E-10
   52.86000      8.2080495E-11
   52.92000     -3.1333960E-10
   52.98000     -7.6466838E-10
   53.04000     -1.2833768E-09
   53.10000     -1.8749031E-09
   53.16000     -2.5343201E-09
   53.22000     -3.2446665E-09
   53.28000     -3.9809294E-09
   53.34000     -4.7197233E-09
   53.40000     -5.4507834E-09
   53.46000     -6.1841354E-09
   53.52000     -6.9483228E-09
   53.58000     -7.7798044E-09
   53.64000     -8.7088337E-09
   53.70000     -9.7493249E-09
   53.76000     -1.0897858E-08
   53.82000     -1.2141551E-08
   53.88000     -1.3469512E-08
   53.94000     -1.4881245E-08
   54.00000     -1.6388304E-08
   54.06000     -1.8010345E-08
   54.12000     -1.9770056E-08
   54.18000     -2.1690807E-08
   54.24000     -2.3797513E-08
   54.30000     -2.6117714E-08
   54.36000     -2.8679404E-08
   54.42000     -3.1505021E-08
   54.48000     -3.4604874E-08
   54.54000     -3.7974910E-08
   54.60000     -4.1601595E-08
   54.66000     -4.5471904E-08
   54.72000     -4.9582859E-08
   54.78000     -5.3944927E-08
   54.84000     -5.8577644E-08
   54.90000     -6.3500444E-08
   54.96000     -6.8724383E-08
   55.02000     -7.4248739E-08
   55.08000     -8.0062399E-08
   55.14000     -8.6146848E-08
   55.20000     -9.2477087E-08
   55.26000     -9.9019893E-08
   55.32000     -1.0573148E-07
   55.38000     -1.1255754E-07
   55.44000     -1.1943644E-07
   55.50000     -1.2630314E-07
   55.56000     -1.3309064E-07