  -2.400000      0.0000000E+00
  -2.340000      0.0000000E+00
  -2.280000      0.0000000E+00
  -2.220000      0.0000000E+00
  -2.160000      0.0000000E+00
  -2.100000      0.0000000E+00
  -2.040000      0.0000000E+00
  -1.980000     -3.7754754E-23
  -1.920000     -2.1890476E-22
  -1.860000     -4.0427436E-23
  -1.800000      4.4124883E-21
  -1.740000      2.4527694E-20
  -1.680000      7.5273636E-20
  -1.620000      1.4566326E-19
  -1.560000      1.3776494E-19
  -1.500000     -1.7990069E-19
  -1.440000     -1.0881495E-18
  -1.380000     -2.5832350E-18
  -1.320000     -3.8475897E-18
  -1.260000     -2.9250480E-18
  -1.200000      2.7185740E-18
  -1.140000      1.4266647E-17
  -1.080000      2.8717494E-17
  -1.020000      3.6993032E-17
 -0.9600000      2.5641012E-17
 -0.9000000     -1.6228288E-17
 -0.8400000     -8.6338723E-17
 -0.7800000     -1.6061657E-16
 -0.7200000     -1.9425107E-16
 -0.6600000     -1.3754992E-16
 -0.6000000      3.5924490E-17
 -0.5400000      3.0073995E-16
 -0.4800000      5.6753362E-16
 -0.4200000      7.0101754E-16
 -0.3600000      5.6914378E-16
 -0.3000000      1.0852971E-16
 -0.2400000     -6.2024141E-16
 -0.1800000     -1.4147303E-15
 -0.1200000     -1.9669962E-15
 -5.9999999E-02 -1.9533662E-15
  0.0000000E+00 -1.1575977E-15
  5.9999999E-02  4.0889054E-16
  0.1200000      2.4357271E-15
  0.1800000      4.3348597E-15
  0.2400000      5.3765082E-15
  0.3000000      4.9192357E-15
  0.3600000      2.6621445E-15
  0.4200000     -1.1841477E-15
  0.4800000     -5.8911192E-15
  0.5400000     -1.0376545E-14
  0.6000000     -1.3449470E-14
  0.6600000     -1.4004541E-14
  0.7200000     -1.1103070E-14
  0.7800000     -4.0352628E-15
  0.8400000      7.4165654E-15
  0.9000000      2.2356635E-14
  0.9600000      3.7953751E-14
   1.020000      4.9003976E-14
   1.080000      4.8676287E-14
   1.140000      3.0908988E-14
   1.200000     -6.0016532E-15
   1.260000     -5.6199091E-14
   1.320000     -1.0559885E-13
   1.380000     -1.3526573E-13
   1.440000     -1.2845783E-13
   1.500000     -7.8647206E-14
   1.560000      5.5118767E-15
   1.620000      1.0151138E-13
   1.680000      1.8091987E-13
   1.740000      2.2052855E-13
   1.800000      2.1110149E-13
   1.860000      1.5904166E-13
   1.920000      8.0246980E-14
   1.980000     -9.7507705E-15
   2.040000     -1.0271241E-13
   2.100000     -1.9677364E-13
   2.160000     -2.8817947E-13
   2.220000     -3.6192281E-13
   2.280000     -3.8956856E-13
   2.340000     -3.3879683E-13
   2.400000     -1.9141833E-13
   2.460000      4.0281946E-14
   2.520000      3.0998454E-13
   2.580000      5.5110842E-13
   2.640000      7.0187617E-13
   2.700000      7.2787073E-13
   2.760000      6.2913157E-13
   2.820000      4.2870094E-13
   2.880000      1.5239559E-13
   2.940000     -1.8355071E-13
   3.000000     -5.6534394E-13
   3.060000     -9.5829442E-13
   3.120000     -1.2858670E-12
   3.180000     -1.4338078E-12
   3.240000     -1.2896033E-12
   3.300000     -8.0410223E-13
   3.360000     -4.2104337E-14
   3.420000      8.1328862E-13
   3.480000      1.5169159E-12
   3.540000      1.8587055E-12
   3.600000      1.7545792E-12
   3.660000      1.2813366E-12
   3.720000      6.3266097E-13
   3.780000      1.6681070E-14
   3.840000     -4.4945617E-13
   3.900000     -7.8744189E-13
   3.960000     -1.1176347E-12
   4.020000     -1.5503622E-12
   4.080000     -2.0701084E-12
   4.140000     -2.4833486E-12
   4.200000     -2.4706385E-12
   4.260000     -1.7288531E-12
   4.320000     -1.3865685E-13
   4.380000      2.1280222E-12
   4.440000      4.6250334E-12
   4.500000      6.7861068E-12
   4.560000      8.1694651E-12
   4.620000      8.7057167E-12
   4.680000      8.8552169E-12
   4.740000      9.6092023E-12
   4.800000      1.2319788E-11
   4.860000      1.8399263E-11
   4.920000      2.8971388E-11
   4.980000      4.4573695E-11
   5.040000      6.4994954E-11
   5.100000      8.9288549E-11
   5.160000      1.1594405E-10
   5.220000      1.4314508E-10
   5.280000      1.6901512E-10
   5.340000      1.9176641E-10
   5.400000      2.0972007E-10
   5.460000      2.2123443E-10
   5.520000      2.2463220E-10
   5.580000      2.1822665E-10
   5.640000      2.0050187E-10
   5.700000      1.7042301E-10
   5.760000      1.2777442E-10
   5.820000      7.3387199E-11
   5.880000      9.1449808E-12
   5.940000     -6.2261883E-11
   6.000000     -1.3776272E-10
   6.060000     -2.1436790E-10
   6.120000     -2.8950520E-10
   6.180000     -3.6112457E-10
   6.240000     -4.2756249E-10
   6.300000     -4.8725668E-10
   6.360000     -5.3846266E-10
   6.420000     -5.7911642E-10
   6.480000     -6.0692007E-10
   6.540000     -6.1962596E-10
   6.600000     -6.1540556E-10
   6.660000     -5.9314997E-10
   6.720000     -5.5257843E-10
   6.780000     -4.9411591E-10
   6.840000     -4.1860862E-10
   6.900000     -3.2702310E-10
   6.960000     -2.2028827E-10
   7.020000     -9.9382724E-11
   7.080000      3.4334018E-11
   7.140000      1.7865205E-10
   7.200000      3.3006850E-10
   7.260000      4.8353072E-10
   7.320000      6.3246269E-10
   7.380000      7.6909168E-10
   7.440000      8.8503010E-10
   7.500000      9.7203734E-10
   7.560000      1.0228839E-09
   7.620000      1.0322372E-09
   7.680000      9.9746356E-10
   7.740000      9.1921160E-10
   7.800000      8.0162371E-10
   7.860000      6.5206746E-10
   7.920000      4.8038634E-10
   7.980000      2.9780980E-10
   8.040000      1.1577446E-10
   8.100000     -5.5076138E-11
   8.160000     -2.0554038E-10
   8.220000     -3.2815398E-10
   8.280000     -4.1728304E-10
   8.340000     -4.6922244E-10
   8.400000     -4.8243465E-10
   8.460000     -4.5790338E-10
   8.520000     -3.9942721E-10
   8.580000     -3.1362299E-10
   8.640000     -2.0948800E-10
   8.700000     -9.7527889E-11
   8.760000      1.1390707E-11
   8.820000      1.0724536E-10
   8.880000      1.8194433E-10
   8.940000      2.3021385E-10
   9.000000      2.5026739E-10
   9.060000      2.4422536E-10
   9.120000      2.1818911E-10
   9.180000      1.8183546E-10
   9.240000      1.4746036E-10
   9.300000      1.2855957E-10
   9.360000      1.3821372E-10
   9.420000      1.8762714E-10
   9.480000      2.8508956E-10
   9.540000      4.3542495E-10
   9.600000      6.3978989E-10
   9.660000      8.9561630E-10
   9.720000      1.1966041E-09
   9.780000      1.5328746E-09
   9.840000      1.8915312E-09
   9.900000      2.2578144E-09
   9.960000      2.6167906E-09
   10.02000      2.9552090E-09
   10.08000      3.2630192E-09
   10.14000      3.5341359E-09
   10.20000      3.7663521E-09
   10.26000      3.9606212E-09
   10.32000      4.1200861E-09
   10.38000      4.2491499E-09
   10.44000      4.3527000E-09
   10.50000      4.4354245E-09
   10.56000      4.5012314E-09
   10.62000      4.5529123E-09
   10.68000      4.5923074E-09
   10.74000      4.6210658E-09
   10.80000      4.6417434E-09
   10.86000      4.6586135E-09
   10.92000      4.6775028E-09
   10.98000      4.7044173E-09
   11.04000      4.7434305E-09
   11.10000      4.7949733E-09
   11.16000      4.8556785E-09
   11.22000      4.9202904E-09
   11.28000      4.9849791E-09
   11.34000      5.0504645E-09
   11.40000      5.1231623E-09
   11.46000      5.2134013E-09
   11.52000      5.3312239E-09
   11.58000      5.4816249E-09
   11.64000      5.6615801E-09
   11.70000      5.8605178E-09
   11.76000      6.0643508E-09
   11.82000      6.2614682E-09
   11.88000      6.4481376E-09
   11.94000      6.6308994E-09
   12.00000      6.8247528E-09
   12.06000      7.0476407E-09
   12.12000      7.3131994E-09
   12.18000      7.6244397E-09
   12.24000      7.9706792E-09
   12.30000      8.3288727E-09
   12.36000      8.6689207E-09
   12.42000      8.9610976E-09
   12.48000      9.1830303E-09
   12.54000      9.3238182E-09
   12.60000      9.3840340E-09
   12.66000      9.3719201E-09
   12.72000      9.2975858E-09
   12.78000      9.1677066E-09
   12.84000      8.9828500E-09
   12.90000      8.7382901E-09
   12.96000      8.4275911E-09
   13.02000      8.0471869E-09
   13.08000      7.5999260E-09
   13.14000      7.0962569E-09
   13.20000      6.5528365E-09
   13.26000      5.9892371E-09
   13.32000      5.4238791E-09
   13.38000      4.8702420E-09
   13.44000      4.3341699E-09
   13.50000      3.8129317E-09
   13.56000      3.2965735E-09
   13.62000      2.7717533E-09
   13.68000      2.2274962E-09
   13.74000      1.6612500E-09
   13.80000      1.0828608E-09
   13.86000      5.1427140E-10
   13.92000     -1.5854139E-11
   13.98000     -4.8117366E-10
   14.04000     -8.6701873E-10
   14.10000     -1.1761153E-09
   14.16000     -1.4280171E-09
   14.22000     -1.6522631E-09
   14.28000     -1.8780451E-09
   14.34000     -2.1246460E-09
   14.40000     -2.3963633E-09
   14.46000     -2.6834108E-09
   14.52000     -2.9675642E-09
   14.58000     -3.2294900E-09
   14.64000     -3.4545240E-09
   14.70000     -3.6350054E-09
   14.76000     -3.7692209E-09
   14.82000     -3.8584931E-09
   14.88000     -3.9043346E-09
   14.94000     -3.9069543E-09
   15.00000     -3.8653321E-09
   15.06000     -3.7782661E-09
   15.12000     -3.6455929E-09
   15.18000     -3.4690524E-09
   15.24000     -3.2527026E-09
   15.30000     -3.0029654E-09
   15.36000     -2.7282758E-09
   15.42000     -2.4381244E-09
   15.48000     -2.1413109E-09
   15.54000     -1.8436189E-09
   15.60000     -1.5456904E-09
   15.66000     -1.2422683E-09
   15.72000     -9.2375879E-10
   15.78000     -5.8020971E-10
   15.84000     -2.0658927E-10
   15.90000      1.9268835E-10
   15.96000      6.0211586E-10
   16.02000      9.9744923E-10
   16.08000      1.3514820E-09
   16.14000      1.6410624E-09
   16.20000      1.8525507E-09
   16.26000      1.9836579E-09
   16.32000      2.0413884E-09
   16.38000      2.0376671E-09
   16.44000      1.9851658E-09
   16.50000      1.8953259E-09
   16.56000      1.7789485E-09
   16.62000      1.6480177E-09
   16.68000      1.5166779E-09
   16.74000      1.3999507E-09
   16.80000      1.3103834E-09
   16.86000      1.2543153E-09
   16.92000      1.2298753E-09
   16.98000      1.2279159E-09
   17.04000      1.2355054E-09
   17.10000      1.2403681E-09
   17.16000      1.2345002E-09
   17.22000      1.2160483E-09
   17.28000      1.1896722E-09
   17.34000      1.1661541E-09
   17.40000      1.1616897E-09
   17.46000      1.1965299E-09
   17.52000      1.2922328E-09
   17.58000      1.4672890E-09
   17.64000      1.7320106E-09
   17.70000      2.0845567E-09
   17.76000      2.5099389E-09
   17.82000      2.9826879E-09
   17.88000      3.4722087E-09
   17.94000      3.9487520E-09
   18.00000      4.3879966E-09
   18.06000      4.7733315E-09
   18.12000      5.0961577E-09
   18.18000      5.3550830E-09
   18.24000      5.5545599E-09
   18.30000      5.7028746E-09
   18.36000      5.8092042E-09
   18.42000      5.8800285E-09
   18.48000      5.9160792E-09
   18.54000      5.9113119E-09
   18.60000      5.8546057E-09
   18.66000      5.7333862E-09
   18.72000      5.5371712E-09
   18.78000      5.2592002E-09
   18.84000      4.8957753E-09
   18.90000      4.4447646E-09
   18.96000      3.9054235E-09
   19.02000      3.2805902E-09
   19.08000      2.5801628E-09
   19.14000      1.8231416E-09
   19.20000      1.0358819E-09
   19.26000      2.4651567E-10
   19.32000     -5.2175059E-10
   19.38000     -1.2546664E-09
   19.44000     -1.9460376E-09
   19.50000     -2.5929321E-09
   19.56000     -3.1907543E-09
   19.62000     -3.7320547E-09
   19.68000     -4.2101651E-09
   19.74000     -4.6249786E-09
   19.80000     -4.9861804E-09
   19.86000     -5.3106057E-09
   19.92000     -5.6143721E-09
   19.98000     -5.9042824E-09
   20.04000     -6.1739320E-09
   20.10000     -6.4071739E-09
   20.16000     -6.5869430E-09
   20.22000     -6.7040880E-09
   20.28000     -6.7611103E-09
   20.34000     -6.7693398E-09
   20.40000     -6.7424084E-09
   20.46000     -6.6909078E-09
   20.52000     -6.6214989E-09
   20.58000     -6.5399033E-09
   20.64000     -6.4541186E-09
   20.70000     -6.3742136E-09
   20.76000     -6.3080767E-09
   20.82000     -6.2560983E-09
   20.88000     -6.2091532E-09
   20.94000     -6.1522027E-09
   21.00000     -6.0718719E-09
   21.06000     -5.9634311E-09
   21.12000     -5.8329230E-09
   21.18000     -5.6934981E-09
   21.24000     -5.5588560E-09
   21.30000     -5.4382459E-09
   21.36000     -5.3356723E-09
   21.42000     -5.2524065E-09
   21.48000     -5.1894671E-09
   21.54000     -5.1473181E-09
   21.60000     -5.1230873E-09
   21.66000     -5.1084719E-09
   21.72000     -5.0916480E-09
   21.78000     -5.0634545E-09
   21.84000     -5.0241860E-09
   21.90000     -4.9857487E-09
   21.96000     -4.9663482E-09
   22.02000     -4.9799826E-09
   22.08000     -5.0271778E-09
   22.14000     -5.0933679E-09
   22.20000     -5.1567794E-09
   22.26000     -5.2014446E-09
   22.32000     -5.2274487E-09
   22.38000     -5.2521352E-09
   22.44000     -5.3017462E-09
   22.50000     -5.3989506E-09
   22.56000     -5.5537699E-09
   22.62000     -5.7624727E-09
   22.68000     -6.0133503E-09
   22.74000     -6.2940448E-09
   22.80000     -6.5952195E-09
   22.86000     -6.9092621E-09
   22.92000     -7.2271313E-09
   22.98000     -7.5378406E-09
   23.04000     -7.8324289E-09
   23.10000     -8.1097955E-09
   23.16000     -8.3792582E-09
   23.22000     -8.6563503E-09
   23.28000     -8.9532168E-09
   23.34000     -9.2693915E-09
   23.40000     -9.5892636E-09
   23.46000     -9.8884936E-09
   23.52000     -1.0145746E-08
   23.58000     -1.0352556E-08
   23.64000     -1.0515469E-08
   23.70000     -1.0649788E-08
   23.76000     -1.0769725E-08
   23.82000     -1.0881565E-08
   23.88000     -1.0983678E-08
   23.94000     -1.1072116E-08
   24.00000     -1.1146904E-08
   24.06000     -1.1214484E-08
   24.12000     -1.1285375E-08
   24.18000     -1.1369933E-08
   24.24000     -1.1476017E-08
   24.30000     -1.1610015E-08
   24.36000     -1.1779054E-08
   24.42000     -1.1990744E-08
   24.48000     -1.2248723E-08
   24.54000     -1.2546294E-08
   24.60000     -1.2863087E-08
   24.66000     -1.3168568E-08
   24.72000     -1.3431702E-08
   24.78000     -1.3631440E-08
   24.84000     -1.3761503E-08
   24.90000     -1.3826463E-08
   24.96000     -1.3831991E-08
   25.02000     -1.3776309E-08
   25.08000     -1.3649041E-08
   25.14000     -1.3438417E-08
   25.20000     -1.3141805E-08
   25.26000     -1.2772047E-08
   25.32000     -1.2354924E-08
   25.38000     -1.1919200E-08
   25.44000     -1.1485652E-08
   25.50000     -1.1061834E-08
   25.56000     -1.0644944E-08
   25.62000     -1.0229408E-08
   25.68000     -9.8129265E-09
   25.74000     -9.3965653E-09
   25.80000     -8.9795558E-09
   25.86000     -8.5537017E-09
   25.92000     -8.1025044E-09
   25.98000     -7.6063378E-09
   26.04000     -7.0501782E-09
   26.10000     -6.4283041E-09
   26.16000     -5.7427338E-09
   26.22000     -4.9969930E-09
   26.28000     -4.1905381E-09
   26.34000     -3.3187437E-09
   26.40000     -2.3791928E-09
   26.46000     -1.3800892E-09
   26.52000     -3.4473516E-10
   26.58000      6.9149042E-10
   26.64000      1.6901581E-09
   26.70000      2.6194862E-09
   26.76000      3.4594410E-09
   26.82000      4.2007140E-09
   26.88000      4.8404387E-09
   26.94000      5.3791975E-09
   27.00000      5.8217040E-09
   27.06000      6.1795054E-09
   27.12000      6.4715429E-09
   27.18000      6.7196746E-09
   27.24000      6.9404926E-09
   27.30000      7.1386208E-09
   27.36000      7.3069018E-09
   27.42000      7.4348052E-09
   27.48000      7.5206472E-09
   27.54000      7.5799065E-09
   27.60000      7.6436493E-09
   27.66000      7.7469098E-09
   27.72000      7.9131057E-09
   27.78000      8.1429397E-09
   27.84000      8.4133980E-09
   27.90000      8.6863423E-09
   27.96000      8.9210115E-09
   28.02000      9.0836547E-09
   28.08000      9.1507406E-09
   28.14000      9.1070431E-09
   28.20000      8.9427221E-09
   28.26000      8.6527345E-09
   28.32000      8.2385530E-09
   28.38000      7.7092768E-09
   28.44000      7.0791586E-09
   28.50000      6.3614012E-09
   28.56000      5.5614575E-09
   28.62000      4.6743707E-09
   28.68000      3.6886003E-09
   28.74000      2.5947693E-09
   28.80000      1.3945477E-09
   28.86000      1.0467283E-10
   28.92000     -1.2460252E-09
   28.98000     -2.6247868E-09
   29.04000     -4.0039621E-09
   29.10000     -5.3668670E-09
   29.16000     -6.7087425E-09
   29.22000     -8.0336759E-09
   29.28000     -9.3495887E-09
   29.34000     -1.0663024E-08
   29.40000     -1.1974588E-08
   29.46000     -1.3275473E-08
   29.52000     -1.4545912E-08
   29.58000     -1.5756751E-08
   29.64000     -1.6874726E-08
   29.70000     -1.7870217E-08
   29.76000     -1.8724460E-08
   29.82000     -1.9432761E-08
   29.88000     -2.0002057E-08
   29.94000     -2.0444027E-08
   30.00000     -2.0767546E-08
   30.06000     -2.0974335E-08
   30.12000     -2.1059609E-08
   30.18000     -2.1016401E-08
   30.24000     -2.0840417E-08
   30.30000     -2.0532504E-08
   30.36000     -2.0098067E-08
   30.42000     -1.9544830E-08
   30.48000     -1.8881094E-08
   30.54000     -1.8115536E-08
   30.60000     -1.7257905E-08
   30.66000     -1.6319058E-08
   30.72000     -1.5309478E-08
   30.78000     -1.4236956E-08
   30.84000     -1.3105105E-08
   30.90000     -1.1914044E-08
   30.96000     -1.0662935E-08
   31.02000     -9.3527506E-09
   31.08000     -7.9874765E-09
   31.14000     -6.5732895E-09
   31.20000     -5.1168514E-09
   31.26000     -3.6243915E-09
   31.32000     -2.1023214E-09
   31.38000     -5.5850902E-10
   31.44000      9.9744024E-10
   31.50000      2.5556925E-09
   31.56000      4.1084145E-09
   31.62000      5.6504295E-09
   31.68000      7.1767006E-09
   31.74000      8.6774721E-09
   31.80000      1.0134230E-08
   31.86000      1.1519935E-08
   31.92000      1.2804549E-08
   31.98000      1.3963295E-08
   32.04000      1.4982916E-08
   32.10000      1.5862250E-08
   32.16000      1.6607192E-08
   32.22000      1.7223954E-08
   32.28000      1.7715466E-08
   32.34000      1.8083162E-08
   32.40000      1.8331985E-08
   32.46000      1.8473655E-08
   32.52000      1.8524398E-08
   32.58000      1.8497685E-08
   32.64000      1.8396854E-08
   32.70000      1.8213381E-08
   32.76000      1.7932919E-08
   32.82000      1.7545540E-08
   32.88000      1.7053210E-08
   32.94000      1.6468981E-08
   33.00000      1.5808201E-08
   33.06000      1.5077955E-08
   33.12000      1.4272541E-08
   33.18000      1.3378786E-08
   33.24000      1.2387897E-08
   33.30000      1.1305567E-08
   33.36000      1.0152994E-08
   33.42000      8.9577297E-09
   33.48000      7.7406037E-09
   33.54000      6.5078694E-09
   33.60000      5.2540985E-09
   33.66000      3.9736912E-09
   33.72000      2.6726856E-09
   33.78000      1.3723698E-09
   33.84000      1.0220775E-10
   33.90000     -1.1126693E-09
   33.96000     -2.2602804E-09
   34.02000     -3.3406635E-09
   34.08000     -4.3560058E-09
   34.14000     -5.2997726E-09
   34.20000     -6.1533356E-09
   34.26000     -6.8930408E-09
   34.32000     -7.5028952E-09
   34.38000     -7.9838651E-09
   34.44000     -8.3531440E-09
   34.50000     -8.6340046E-09
   34.56000     -8.8434202E-09
   34.62000     -8.9858752E-09
   34.68000     -9.0568060E-09
   34.74000     -9.0518508E-09
   34.80000     -8.9740109E-09
   34.86000     -8.8329077E-09
   34.92000     -8.6369081E-09
   34.98000     -8.3847098E-09
   35.04000     -8.0636609E-09
   35.10000     -7.6570146E-09
   35.16000     -7.1553674E-09
   35.22000     -6.5640853E-09
   35.28000     -5.9011707E-09
   35.34000     -5.1869007E-09
   35.40000     -4.4324722E-09
   35.46000     -3.6354613E-09
   35.52000     -2.7848464E-09
   35.58000     -1.8714474E-09
   35.64000     -8.9615482E-10
   35.70000      1.2937970E-10
   35.76000      1.1888256E-09
   35.82000      2.2682425E-09
   35.88000      3.3582475E-09
   35.94000      4.4500998E-09
   36.00000      5.5300462E-09
   36.06000      6.5780337E-09
   36.12000      7.5732922E-09
   36.18000      8.5031466E-09
   36.24000      9.3677954E-09
   36.30000      1.0175953E-08
   36.36000      1.0932980E-08
   36.42000      1.1629528E-08
   36.48000      1.2239546E-08
   36.54000      1.2730786E-08
   36.60000      1.3082238E-08
   36.66000      1.3297587E-08
   36.72000      1.3405699E-08
   36.78000      1.3447252E-08
   36.84000      1.3455328E-08
   36.90000      1.3441230E-08
   36.96000      1.3392757E-08
   37.02000      1.3283920E-08
   37.08000      1.3088505E-08
   37.14000      1.2789295E-08
   37.20000      1.2379804E-08
   37.26000      1.1861586E-08
   37.32000      1.1242560E-08
   37.38000      1.0538878E-08
   37.44000      9.7775494E-09
   37.50000      8.9942400E-09
   37.56000      8.2233287E-09
   37.62000      7.4836723E-09
   37.68000      6.7686834E-09
   37.74000      6.0486154E-09
   37.80000      5.2861675E-09
   37.86000      4.4578568E-09
   37.92000      3.5692511E-09
   37.98000      2.6553186E-09
   38.04000      1.7659024E-09
   38.10000      9.4490937E-10
   38.16000      2.1458479E-10
   38.22000     -4.2808274E-10
   38.28000     -1.0037299E-09
   38.34000     -1.5385512E-09
   38.40000     -2.0548900E-09
   38.46000     -2.5672080E-09
   38.52000     -3.0813498E-09
   38.58000     -3.5937393E-09
   38.64000     -4.0898969E-09
   38.70000     -4.5452908E-09
   38.76000     -4.9320574E-09
   38.82000     -5.2312346E-09
   38.88000     -5.4446692E-09
   38.94000     -5.5983840E-09
   39.00000     -5.7328138E-09
   39.06000     -5.8833289E-09
   39.12000     -6.0613723E-09
   39.18000     -6.2472876E-09
   39.24000     -6.3992669E-09
   39.30000     -6.4731256E-09
   39.36000     -6.4412538E-09
   39.42000     -6.3004966E-09
   39.48000     -6.0665974E-09
   39.54000     -5.7615441E-09
   39.60000     -5.4035501E-09
   39.66000     -5.0054845E-09
   39.72000     -4.5798707E-09
   39.78000     -4.1432200E-09
   39.84000     -3.7136620E-09
   39.90000     -3.3024037E-09
   39.96000     -2.9060934E-09
   40.02000     -2.5080769E-09
   40.08000     -2.0905904E-09
   40.14000     -1.6512913E-09
   40.20000     -1.2128254E-09
   40.26000     -8.1737583E-10
   40.32000     -5.0761489E-10
   40.38000     -3.0473532E-10
   40.44000     -1.9674813E-10
   40.50000     -1.4407003E-10
   40.56000     -9.8773455E-11
   40.62000     -2.5946649E-11
   40.68000      8.4471846E-11
   40.74000      2.1978629E-10
   40.80000      3.5594136E-10
   40.86000      4.6914128E-10
   40.92000      5.4120680E-10
   40.98000      5.5893157E-10
   41.04000      5.1283311E-10
   41.10000      4.0015935E-10
   41.16000      2.3158489E-10
   41.22000      3.5546212E-11
   41.28000     -1.4634816E-10
   41.34000     -2.7389649E-10
   41.40000     -3.2625483E-10
   41.46000     -3.1271369E-10
   41.52000     -2.6903407E-10
   41.58000     -2.4072544E-10
   41.64000     -2.6279975E-10
   41.70000     -3.4745012E-10
   41.76000     -4.8546472E-10
   41.82000     -6.5806532E-10
   41.88000     -8.4969937E-10
   41.94000     -1.0532470E-09
   42.00000     -1.2659803E-09
   42.06000     -1.4819836E-09
   42.12000     -1.6890480E-09
   42.18000     -1.8737389E-09
   42.24000     -2.0309812E-09
   42.30000     -2.1699764E-09
   42.36000     -2.3102802E-09
   42.42000     -2.4690747E-09
   42.48000     -2.6477318E-09
   42.54000     -2.8272504E-09
   42.60000     -2.9766944E-09
   42.66000     -3.0700789E-09
   42.72000     -3.1013245E-09
   42.78000     -3.0880365E-09
   42.84000     -3.0620686E-09
   42.90000     -3.0530833E-09
   42.96000     -3.0750285E-09
   43.02000     -3.1225291E-09
   43.08000     -3.1772256E-09
   43.14000     -3.2182295E-09
   43.20000     -3.2299694E-09
   43.26000     -3.2045473E-09
   43.32000     -3.1407517E-09
   43.38000     -3.0438909E-09
   43.44000     -2.9283247E-09
   43.50000     -2.8202578E-09
   43.56000     -2.7560330E-09
   43.62000     -2.7731470E-09
   43.68000     -2.8963816E-09
   43.74000     -3.1259439E-09
   43.80000     -3.4347132E-09
   43.86000     -3.7770893E-09
   43.92000     -4.1054879E-09
   43.98000     -4.3864938E-09
   44.04000     -4.6095985E-09
   44.10000     -4.7862545E-09
   44.16000     -4.9421214E-09
   44.22000     -5.1075317E-09
   44.28000     -5.3096265E-09
   44.34000     -5.5665805E-09
   44.40000     -5.8827636E-09
   44.46000     -6.2449588E-09
   44.52000     -6.6222188E-09
   44.58000     -6.9726407E-09
   44.64000     -7.2574831E-09
   44.70000     -7.4579249E-09
   44.76000     -7.5860118E-09
   44.82000     -7.6824396E-09
   44.88000     -7.8000690E-09
   44.94000     -7.9800495E-09
   45.00000     -8.2321918E-09
   45.06000     -8.5294376E-09
   45.12000     -8.8188905E-09
   45.18000     -9.0433030E-09
   45.24000     -9.1622612E-09
   45.30000     -9.1638910E-09
   45.36000     -9.0640073E-09
   45.42000     -8.8960173E-09
   45.48000     -8.6978265E-09
   45.54000     -8.5008756E-09
   45.60000     -8.3232381E-09
   45.66000     -8.1665519E-09
   45.72000     -8.0165767E-09
   45.78000     -7.8481994E-09
   45.84000     -7.6355260E-09
   45.90000     -7.3651321E-09
   45.96000     -7.0472446E-09
   46.02000     -6.7184165E-09
   46.08000     -6.4322165E-09
   46.14000     -6.2405849E-09
   46.20000     -6.1741523E-09
   46.26000     -6.2310761E-09
   46.32000     -6.3795582E-09
   46.38000     -6.5717760E-09
   46.44000     -6.7612373E-09
   46.50000     -6.9150743E-09
   46.56000     -7.0174346E-09
   46.62000     -7.0662245E-09
   46.68000     -7.0685759E-09
   46.74000     -7.0386852E-09
   46.80000     -6.9971411E-09
   46.86000     -6.9677868E-09
   46.92000     -6.9694939E-09
   46.98000     -7.0052426E-09
   47.04000     -7.0554309E-09
   47.10000     -7.0821167E-09
   47.16000     -7.0449571E-09
   47.22000     -6.9215553E-09
   47.28000     -6.7205410E-09
   47.34000     -6.4787344E-09
   47.40000     -6.2429684E-09
   47.46000     -6.0466800E-09
   47.52000     -5.8948748E-09
   47.58000     -5.7658855E-09
   47.64000     -5.6278555E-09
   47.70000     -5.4589768E-09
   47.76000     -5.2590527E-09
   47.82000     -5.0465743E-09
   47.88000     -4.8453428E-09
   47.94000     -4.6708890E-09
   48.00000     -4.5255457E-09
   48.06000     -4.4036592E-09
   48.12000     -4.3008233E-09
   48.18000     -4.2188057E-09
   48.24000     -4.1623003E-09
   48.30000     -4.1309822E-09
   48.36000     -4.1146562E-09
   48.42000     -4.0971404E-09
   48.48000     -4.0674926E-09
   48.54000     -4.0307429E-09
   48.60000     -4.0095922E-09
   48.66000     -4.0344399E-09
   48.72000     -4.1274375E-09
   48.78000     -4.2909378E-09
   48.84000     -4.5080877E-09
   48.90000     -4.7550999E-09
   48.96000     -5.0167737E-09
   49.02000     -5.2947673E-09
   49.08000     -5.6034137E-09
   49.14000     -5.9566179E-09
   49.20000     -6.3553611E-09
   49.26000     -6.7843802E-09
   49.32000     -7.2197044E-09
   49.38000     -7.6410815E-09
   49.44000     -8.0404279E-09
   49.50000     -8.4210985E-09
   49.56000     -8.7898773E-09
   49.62000     -9.1485903E-09
   49.68000     -9.4916466E-09
   49.74000     -9.8102202E-09
   49.80000     -1.0098137E-08
   49.86000     -1.0353164E-08
   49.92000     -1.0571608E-08
   49.98000     -1.0740426E-08
   50.04000     -1.0834311E-08
   50.10000     -1.0822458E-08
   50.16000     -1.0682697E-08
   50.22000     -1.0414540E-08
   50.28000     -1.0042224E-08
   50.34000     -9.6047561E-09
   50.40000     -9.1383523E-09
   50.46000     -8.6614884E-09
   50.52000     -8.1708720E-09
   50.58000     -7.6492599E-09
   50.64000     -7.0786541E-09
   50.70000     -6.4500263E-09
   50.76000     -5.7646683E-09
   50.82000     -5.0291082E-09
   50.88000     -4.2499142E-09
   50.94000     -3.4334526E-09
   51.00000     -2.5901770E-09
   51.06000     -1.7379834E-09
   51.12000     -8.9898877E-10
   51.18000     -8.9199571E-11
   51.24000      6.9288986E-10
   51.30000      1.4700366E-09
   51.36000      2.2774167E-09
   51.42000      3.1444465E-09
   51.48000      4.0773194E-09
   51.54000      5.0528666E-09
   51.60000      6.0278991E-09
   51.66000      6.9589547E-09
   51.72000      7.8213898E-09
   51.78000      8.6178638E-09
   51.84000      9.3732986E-09
   51.90000      1.0121312E-08
   51.96000      1.0890929E-08
   52.02000      1.1700097E-08
   52.08000      1.2556799E-08
   52.14000      1.3463947E-08
   52.20000      1.4423635E-08
   52.26000      1.5439348E-08
   52.32000      1.6517966E-08
   52.38000      1.7673738E-08
   52.44000      1.8933708E-08
   52.50000      2.0340776E-08
   52.56000      2.1950267E-08
   52.62000      2.3819464E-08
   52.68000      2.5994895E-08
   52.74000      2.8505070E-08
   52.80000      3.1364152E-08
   52.86000      3.4585849E-08
   52.92000      3.8200522E-08
   52.98000      4.2266571E-08
   53.04000      4.6871016E-08
   53.10000      5.2120750E-08
   53.16000      5.8131114E-08
   53.22000      6.5018334E-08
   53.28000      7.2897777E-08
   53.34000      8.1884913E-08
   53.40000      9.2093948E-08
   53.46000      1.0363230E-07
   53.52000      1.1659407E-07
   53.58000      1.3105839E-07
   53.64000      1.4709669E-07
   53.70000      1.6478586E-07
   53.76000      1.8421987E-07
   53.82000      2.0551050E-07
   53.88000      2.2877461E-07
   53.94000      2.5411285E-07
   54.00000      2.8159059E-07
   54.06000      3.1123022E-07
   54.12000      3.4301692E-07
   54.18000      3.7691186E-07
   54.24000      4.1286137E-07
   54.30000      4.5079494E-07
   54.36000      4.9061163E-07
   54.42000      5.3216240E-07
   54.48000      5.7523675E-07
   54.54000      6.1955905E-07
   54.60000      6.6479146E-07
   54.66000      7.1053796E-07
   54.72000      7.5634279E-07
   54.78000      8.0168320E-07
   54.84000      8.4596189E-07
   54.90000      8.8850339E-07
   54.96000      9.2855839E-07
   55.02000      9.6531051E-07
   55.08000      9.9787940E-07
   55.14000      1.0253175E-06
   55.20000      1.0465994E-06
   55.26000      1.0606161E-06
   55.32000      1.0661779E-06
   55.38000      1.0620344E-06
   55.44000      1.0468996E-06
   55.50000      1.0194757E-06
   55.56000      9.7846385E-07