  -2.400000      0.0000000E+00
  -2.340000      0.0000000E+00
  -2.280000      0.0000000E+00
  -2.220000      0.0000000E+00
  -2.160000      0.0000000E+00
  -2.100000      0.0000000E+00
  -2.040000     -3.3670048E-22
  -1.980000     -9.1824409E-22
  -1.920000      6.5360799E-21
  -1.860000      5.2997588E-20
  -1.800000      1.8013625E-19
  -1.740000      3.3716469E-19
  -1.680000      1.8693501E-19
  -1.620000     -9.5481055E-19
  -1.560000     -3.6052886E-18
  -1.500000     -6.8021605E-18
  -1.440000     -6.7404223E-18
  -1.380000      2.6379836E-18
  -1.320000      2.5056712E-17
  -1.260000      5.3986178E-17
  -1.200000      6.7054079E-17
  -1.140000      3.1864923E-17
  -1.080000     -7.1457056E-17
  -1.020000     -2.1885902E-16
 -0.9600000     -3.2602438E-16
 -0.9000000     -2.7524632E-16
 -0.8400000      7.3751150E-18
 -0.7800000      4.6041667E-16
 -0.7200000      8.5512619E-16
 -0.6600000      8.8928560E-16
 -0.6000000      3.9916782E-16
 -0.5400000     -4.3029517E-16
 -0.4800000     -1.0465381E-15
 -0.4200000     -8.3067870E-16
 -0.3600000      3.6099814E-16
 -0.3000000      1.7525999E-15
 -0.2400000      1.7491361E-15
 -0.1800000     -1.1743007E-15
 -0.1200000     -7.0620466E-15
 -5.9999999E-02 -1.3374211E-14
  0.0000000E+00 -1.5217409E-14
  5.9999999E-02 -7.4624958E-15
  0.1200000      1.1788607E-14
  0.1800000      3.8105495E-14
  0.2400000      6.0207217E-14
  0.3000000      6.3434589E-14
  0.3600000      3.6656354E-14
  0.4200000     -2.0236408E-14
  0.4800000     -9.2343701E-14
  0.5400000     -1.5253566E-13
  0.6000000     -1.7129401E-13
  0.6600000     -1.3007348E-13
  0.7200000     -3.1966566E-14
  0.7800000      9.6273487E-14
  0.8400000      2.1317637E-13
  0.9000000      2.7928650E-13
  0.9600000      2.7392156E-13
   1.020000      2.0328333E-13
   1.080000      9.5079042E-14
   1.140000     -1.8086774E-14
   1.200000     -1.1751883E-13
   1.260000     -2.0794275E-13
   1.320000     -3.1021128E-13
   1.380000     -4.3887387E-13
   1.440000     -5.7621567E-13
   1.500000     -6.5941041E-13
   1.560000     -5.9376142E-13
   1.620000     -2.9304410E-13
   1.680000      2.6715969E-13
   1.740000      1.0078589E-12
   1.800000      1.7411814E-12
   1.860000      2.2126376E-12
   1.920000      2.1822151E-12
   1.980000      1.5164341E-12
   2.040000      2.5542513E-13
   2.100000     -1.3734300E-12
   2.160000     -3.0034573E-12
   2.220000     -4.2223985E-12
   2.280000     -4.6793593E-12
   2.340000     -4.1705446E-12
   2.400000     -2.6820258E-12
   2.460000     -3.8767755E-13
   2.520000      2.3833446E-12
   2.580000      5.1907263E-12
   2.640000      7.5281786E-12
   2.700000      8.8735321E-12
   2.760000      8.7572822E-12
   2.820000      6.8598295E-12
   2.880000      3.1302918E-12
   2.940000     -2.1038635E-12
   3.000000     -8.0840794E-12
   3.060000     -1.3671181E-11
   3.120000     -1.7521559E-11
   3.180000     -1.8371546E-11
   3.240000     -1.5370436E-11
   3.300000     -8.3750012E-12
   3.360000      1.8824720E-12
   3.420000      1.3812627E-11
   3.480000      2.5185106E-11
   3.540000      3.3499321E-11
   3.600000      3.6426365E-11
   3.660000      3.2222860E-11
   3.720000      2.0032269E-11
   3.780000      2.6358729E-14
   3.840000     -2.6617741E-11
   3.900000     -5.7875219E-11
   3.960000     -9.1123477E-11
   4.020000     -1.2344645E-10
   4.080000     -1.5196670E-10
   4.140000     -1.7418296E-10
   4.200000     -1.8827896E-10
   4.260000     -1.9335161E-10
   4.320000     -1.8949919E-10
   4.380000     -1.7773229E-10
   4.440000     -1.5972391E-10
   4.500000     -1.3747947E-10
   4.560000     -1.1304935E-10
   4.620000     -8.8394771E-11
   4.680000     -6.5444462E-11
   4.740000     -4.6274370E-11
   4.800000     -3.3257560E-11
   4.860000     -2.9014485E-11
   4.920000     -3.6065970E-11
   4.980000     -5.6225330E-11
   5.040000     -8.9907005E-11
   5.100000     -1.3560850E-10
   5.160000     -1.8980155E-10
   5.220000     -2.4735236E-10
   5.280000     -3.0241917E-10
   5.340000     -3.4961420E-10
   5.400000     -3.8512432E-10
   5.460000     -4.0748488E-10
   5.520000     -4.1779732E-10
   5.580000     -4.1933676E-10
   5.640000     -4.1667003E-10
   5.700000     -4.1453302E-10
   5.760000     -4.1677400E-10
   5.820000     -4.2562884E-10
   5.880000     -4.4147608E-10
   5.940000     -4.6306819E-10
   6.000000     -4.8810511E-10
   6.060000     -5.1395299E-10
   6.120000     -5.3832128E-10
   6.180000     -5.5977162E-10
   6.240000     -5.7799582E-10
   6.300000     -5.9384048E-10
   6.360000     -6.0907418E-10
   6.420000     -6.2591510E-10
   6.480000     -6.4638650E-10
   6.540000     -6.7164507E-10
   6.600000     -7.0148504E-10
   6.660000     -7.3420497E-10
   6.720000     -7.6691192E-10
   6.780000     -7.9616846E-10
   6.840000     -8.1873686E-10
   6.900000     -8.3213519E-10
   6.960000     -8.3481499E-10
   7.020000     -8.2596163E-10
   7.080000     -8.0509488E-10
   7.140000     -7.7172657E-10
   7.200000     -7.2527662E-10
   7.260000     -6.6530198E-10
   7.320000     -5.9194283E-10
   7.380000     -5.0640975E-10
   7.440000     -4.1135056E-10
   7.500000     -3.1101266E-10
   7.560000     -2.1121711E-10
   7.620000     -1.1922358E-10
   7.680000     -4.3580532E-11
   7.740000      5.9853867E-12
   7.800000      1.8669729E-11
   7.860000     -1.7194664E-11
   7.920000     -1.1363294E-10
   7.980000     -2.8211561E-10
   8.040000     -5.3228372E-10
   8.100000     -8.7061258E-10
   8.160000     -1.2994800E-09
   8.220000     -1.8170819E-09
   8.280000     -2.4183318E-09
   8.340000     -3.0964342E-09
   8.400000     -3.8444430E-09
   8.460000     -4.6560467E-09
   8.520000     -5.5251514E-09
   8.580000     -6.4444134E-09
   8.640000     -7.4033517E-09
   8.700000     -8.3868938E-09
   8.760000     -9.3749328E-09
   8.820000     -1.0343036E-08
   8.880000     -1.1263994E-08
   8.940000     -1.2109722E-08
   9.000000     -1.2853089E-08
   9.060000     -1.3469462E-08
   9.120000     -1.3937894E-08
   9.180000     -1.4241874E-08
   9.240000     -1.4369630E-08
   9.300000     -1.4313991E-08
   9.360000     -1.4072032E-08
   9.420000     -1.3644798E-08
   9.480000     -1.3037347E-08
   9.540000     -1.2259071E-08
   9.600000     -1.1323926E-08
   9.660000     -1.0250087E-08
   9.720000     -9.0588337E-09
   9.780000     -7.7729130E-09
   9.840000     -6.4150303E-09
   9.900000     -5.0070743E-09
   9.960000     -3.5702308E-09
   10.02000     -2.1255304E-09
   10.08000     -6.9405270E-10
   10.14000      7.0380374E-10
   10.20000      2.0499458E-09
   10.26000      3.3304830E-09
   10.32000      4.5370325E-09
   10.38000      5.6668892E-09
   10.44000      6.7221144E-09
   10.50000      7.7080875E-09
   10.56000      8.6321252E-09
   10.62000      9.5025259E-09
   10.68000      1.0327967E-08
   10.74000      1.1117022E-08
   10.80000      1.1877641E-08
   10.86000      1.2616643E-08
   10.92000      1.3339337E-08
   10.98000      1.4049273E-08
   11.04000      1.4747892E-08
   11.10000      1.5433841E-08
   11.16000      1.6101907E-08
   11.22000      1.6741952E-08
   11.28000      1.7338506E-08
   11.34000      1.7871535E-08
   11.40000      1.8318451E-08
   11.46000      1.8656870E-08
   11.52000      1.8867244E-08
   11.58000      1.8934591E-08
   11.64000      1.8848992E-08
   11.70000      1.8605080E-08
   11.76000      1.8201101E-08
   11.82000      1.7638177E-08
   11.88000      1.6920268E-08
   11.94000      1.6054928E-08
   12.00000      1.5054672E-08
   12.06000      1.3938505E-08
   12.12000      1.2732952E-08
   12.18000      1.1471982E-08
   12.24000      1.0195432E-08
   12.30000      8.9458689E-09
   12.36000      7.7643776E-09
   12.42000      6.6860406E-09
   12.48000      5.7359650E-09
   12.54000      4.9265507E-09
   12.60000      4.2563562E-09
   12.66000      3.7106489E-09
   12.72000      3.2635248E-09
   12.78000      2.8813294E-09
   12.84000      2.5269806E-09
   12.90000      2.1645938E-09
   12.96000      1.7637189E-09
   13.02000      1.3025532E-09
   13.08000      7.6975493E-10
   13.14000      1.6480742E-10
   13.20000     -5.0289195E-10
   13.26000     -1.2160017E-09
   13.32000     -1.9521147E-09
   13.38000     -2.6873774E-09
   13.44000     -3.4004839E-09
   13.50000     -4.0763770E-09
   13.56000     -4.7088209E-09
   13.62000     -5.3011973E-09
   13.68000     -5.8653851E-09
   13.74000     -6.4192140E-09
   13.80000     -6.9833006E-09
   13.86000     -7.5780440E-09
   13.92000     -8.2211606E-09
   13.98000     -8.9257730E-09
   14.04000     -9.6989554E-09
   14.10000     -1.0540797E-08
   14.16000     -1.1444234E-08
   14.22000     -1.2395908E-08
   14.28000     -1.3378041E-08
   14.34000     -1.4370958E-08
   14.40000     -1.5355713E-08
   14.46000     -1.6316429E-08
   14.52000     -1.7242195E-08
   14.58000     -1.8128567E-08
   14.64000     -1.8978561E-08
   14.70000     -1.9802723E-08
   14.76000     -2.0617783E-08
   14.82000     -2.1443643E-08
   14.88000     -2.2299201E-08
   14.94000     -2.3198066E-08
   15.00000     -2.4145532E-08
   15.06000     -2.5137549E-08
   15.12000     -2.6161645E-08
   15.18000     -2.7198958E-08
   15.24000     -2.8226342E-08
   15.30000     -2.9218008E-08
   15.36000     -3.0146751E-08
   15.42000     -3.0985362E-08
   15.48000     -3.1708559E-08
   15.54000     -3.2295389E-08
   15.60000     -3.2731545E-08
   15.66000     -3.3010817E-08
   15.72000     -3.3135414E-08
   15.78000     -3.3115192E-08
   15.84000     -3.2966216E-08
   15.90000     -3.2708943E-08
   15.96000     -3.2366085E-08
   16.02000     -3.1960145E-08
   16.08000     -3.1510744E-08
   16.14000     -3.1032368E-08
   16.20000     -3.0533176E-08
   16.26000     -3.0015492E-08
   16.32000     -2.9477814E-08
   16.38000     -2.8917613E-08
   16.44000     -2.8333790E-08
   16.50000     -2.7727944E-08
   16.56000     -2.7104289E-08
   16.62000     -2.6468610E-08
   16.68000     -2.5826987E-08
   16.74000     -2.5184708E-08
   16.80000     -2.4545644E-08
   16.86000     -2.3911891E-08
   16.92000     -2.3283741E-08
   16.98000     -2.2660076E-08
   17.04000     -2.2039332E-08
   17.10000     -2.1420934E-08
   17.16000     -2.0806715E-08
   17.22000     -2.0201586E-08
   17.28000     -1.9613026E-08
   17.34000     -1.9049478E-08
   17.40000     -1.8518442E-08
   17.46000     -1.8025151E-08
   17.52000     -1.7572395E-08
   17.58000     -1.7161231E-08
   17.64000     -1.6791805E-08
   17.70000     -1.6463440E-08
   17.76000     -1.6173798E-08
   17.82000     -1.5917665E-08
   17.88000     -1.5686389E-08
   17.94000     -1.5468800E-08
   18.00000     -1.5253628E-08
   18.06000     -1.5032724E-08
   18.12000     -1.4803883E-08
   18.18000     -1.4572393E-08
   18.24000     -1.4350965E-08
   18.30000     -1.4158354E-08
   18.36000     -1.4017198E-08
   18.42000     -1.3951508E-08
   18.48000     -1.3983984E-08
   18.54000     -1.4133262E-08
   18.60000     -1.4411303E-08
   18.66000     -1.4821349E-08
   18.72000     -1.5356910E-08
   18.78000     -1.6002073E-08
   18.84000     -1.6732983E-08
   18.90000     -1.7520080E-08
   18.96000     -1.8330498E-08
   19.02000     -1.9130239E-08
   19.08000     -1.9885899E-08
   19.14000     -2.0565983E-08
   19.20000     -2.1141826E-08
   19.26000     -2.1588363E-08
   19.32000     -2.1884974E-08
   19.38000     -2.2016840E-08
   19.44000     -2.1977176E-08
   19.50000     -2.1770322E-08
   19.56000     -2.1415074E-08
   19.62000     -2.0946946E-08
   19.68000     -2.0417831E-08
   19.74000     -1.9891957E-08
   19.80000     -1.9437996E-08
   19.86000     -1.9118543E-08
   19.92000     -1.8979156E-08
   19.98000     -1.9039563E-08
   20.04000     -1.9289319E-08
   20.10000     -1.9689180E-08
   20.16000     -2.0178316E-08
   20.22000     -2.0686066E-08
   20.28000     -2.1146006E-08
   20.34000     -2.1509271E-08
   20.40000     -2.1754079E-08
   20.46000     -2.1889011E-08
   20.52000     -2.1949006E-08
   20.58000     -2.1984929E-08
   20.64000     -2.2049381E-08
   20.70000     -2.2182533E-08
   20.76000     -2.2401803E-08
   20.82000     -2.2698012E-08
   20.88000     -2.3038613E-08
   20.94000     -2.3376522E-08
   21.00000     -2.3661563E-08
   21.06000     -2.3850998E-08
   21.12000     -2.3916391E-08
   21.18000     -2.3845486E-08
   21.24000     -2.3639487E-08
   21.30000     -2.3307674E-08
   21.36000     -2.2861895E-08
   21.42000     -2.2313330E-08
   21.48000     -2.1672875E-08
   21.54000     -2.0954992E-08
   21.60000     -2.0183315E-08
   21.66000     -1.9395316E-08
   21.72000     -1.8643247E-08
   21.78000     -1.7989546E-08
   21.84000     -1.7496767E-08
   21.90000     -1.7214214E-08
   21.96000     -1.7165044E-08
   22.02000     -1.7337953E-08
   22.08000     -1.7686427E-08
   22.14000     -1.8136310E-08
   22.20000     -1.8599744E-08
   22.26000     -1.8991633E-08
   22.32000     -1.9244187E-08
   22.38000     -1.9315914E-08
   22.44000     -1.9193415E-08
   22.50000     -1.8886464E-08
   22.56000     -1.8418644E-08
   22.62000     -1.7816653E-08
   22.68000     -1.7101382E-08
   22.74000     -1.6283165E-08
   22.80000     -1.5362252E-08
   22.86000     -1.4334092E-08
   22.92000     -1.3197439E-08
   22.98000     -1.1962261E-08
   23.04000     -1.0654233E-08
   23.10000     -9.3135775E-09
   23.16000     -7.9880058E-09
   23.22000     -6.7217880E-09
   23.28000     -5.5446772E-09
   23.34000     -4.4646868E-09
   23.40000     -3.4674916E-09
   23.46000     -2.5228606E-09
   23.52000     -1.5961080E-09
   23.58000     -6.6092293E-10
   23.64000      2.9034325E-10
   23.70000      1.2419196E-09
   23.76000      2.1566728E-09
   23.82000      2.9844354E-09
   23.88000      3.6745185E-09
   23.94000      4.1893173E-09
   24.00000      4.5155577E-09
   24.06000      4.6701185E-09
   24.12000      4.6985407E-09
   24.18000      4.6662190E-09
   24.24000      4.6443858E-09
   24.30000      4.6947215E-09
   24.36000      4.8570405E-09
   24.42000      5.1436420E-09
   24.48000      5.5418137E-09
   24.54000      6.0232983E-09
   24.60000      6.5573174E-09
   24.66000      7.1227135E-09
   24.72000      7.7152755E-09
   24.78000      8.3480289E-09
   24.84000      9.0445846E-09
   24.90000      9.8277804E-09
   24.96000      1.0707167E-08
   25.02000      1.1669181E-08
   25.08000      1.2673112E-08
   25.14000      1.3654344E-08
   25.20000      1.4534478E-08
   25.26000      1.5235951E-08
   25.32000      1.5697454E-08
   25.38000      1.5885973E-08
   25.44000      1.5802023E-08
   25.50000      1.5476372E-08
   25.56000      1.4958980E-08
   25.62000      1.4303128E-08
   25.68000      1.3549251E-08
   25.74000      1.2713015E-08
   25.80000      1.1780934E-08
   25.86000      1.0714403E-08
   25.92000      9.4604786E-09
   25.98000      7.9659408E-09
   26.04000      6.1904788E-09
   26.10000      4.1157233E-09
   26.16000      1.7485442E-09
   26.22000     -8.8106378E-10
   26.28000     -3.7257939E-09
   26.34000     -6.7283485E-09
   26.40000     -9.8284136E-09
   26.46000     -1.2968195E-08
   26.52000     -1.6096104E-08
   26.58000     -1.9168670E-08
   26.64000     -2.2150855E-08
   26.70000     -2.5015099E-08
   26.76000     -2.7739583E-08
   26.82000     -3.0306353E-08
   26.88000     -3.2700058E-08
   26.94000     -3.4907735E-08
   27.00000     -3.6919470E-08
   27.06000     -3.8729272E-08
   27.12000     -4.0335209E-08
   27.18000     -4.1738193E-08
   27.24000     -4.2939622E-08
   27.30000     -4.3938865E-08
   27.36000     -4.4731781E-08
   27.42000     -4.5311364E-08
   27.48000     -4.5670497E-08
   27.54000     -4.5805994E-08
   27.60000     -4.5722572E-08
   27.66000     -4.5435389E-08
   27.72000     -4.4970360E-08
   27.78000     -4.4362174E-08
   27.84000     -4.3650406E-08
   27.90000     -4.2874447E-08
   27.96000     -4.2068130E-08
   28.02000     -4.1254928E-08
   28.08000     -4.0444764E-08
   28.14000     -3.9633321E-08
   28.20000     -3.8804369E-08
   28.26000     -3.7934964E-08
   28.32000     -3.7002451E-08
   28.38000     -3.5991754E-08
   28.44000     -3.4901060E-08
   28.50000     -3.3744541E-08
   28.56000     -3.2551430E-08
   28.62000     -3.1361637E-08
   28.68000     -3.0218878E-08
   28.74000     -2.9162781E-08
   28.80000     -2.8221647E-08
   28.86000     -2.7407520E-08
   28.92000     -2.6714702E-08
   28.98000     -2.6122169E-08
   29.04000     -2.5599279E-08
   29.10000     -2.5113291E-08
   29.16000     -2.4636705E-08
   29.22000     -2.4152577E-08
   29.28000     -2.3656725E-08
   29.34000     -2.3156712E-08
   29.40000     -2.2668495E-08
   29.46000     -2.2212031E-08
   29.52000     -2.1807102E-08
   29.58000     -2.1470171E-08
   29.64000     -2.1212628E-08
   29.70000     -2.1040266E-08
   29.76000     -2.0953783E-08
   29.82000     -2.0949985E-08
   29.88000     -2.1023434E-08
   29.94000     -2.1168288E-08
   30.00000     -2.1380039E-08
   30.06000     -2.1656794E-08
   30.12000     -2.1999790E-08
   30.18000     -2.2412902E-08
   30.24000     -2.2901199E-08
   30.30000     -2.3468955E-08
   30.36000     -2.4117710E-08
   30.42000     -2.4845171E-08
   30.48000     -2.5645381E-08
   30.54000     -2.6510127E-08
   30.60000     -2.7430945E-08
   30.66000     -2.8400756E-08
   30.72000     -2.9414281E-08
   30.78000     -3.0467067E-08
   30.84000     -3.1553586E-08
   30.90000     -3.2665504E-08
   30.96000     -3.3791160E-08
   31.02000     -3.4916805E-08
   31.08000     -3.6029288E-08
   31.14000     -3.7119456E-08
   31.20000     -3.8185149E-08
   31.26000     -3.9232837E-08
   31.32000     -4.0277417E-08
   31.38000     -4.1339799E-08
   31.44000     -4.2442419E-08
   31.50000     -4.3603119E-08
   31.56000     -4.4828528E-08
   31.62000     -4.6108589E-08
   31.68000     -4.7414222E-08
   31.74000     -4.8699647E-08
   31.80000     -4.9909694E-08
   31.86000     -5.0990540E-08
   31.92000     -5.1901029E-08
   31.98000     -5.2620980E-08
   32.04000     -5.3153855E-08
   32.10000     -5.3522861E-08
   32.16000     -5.3761884E-08
   32.22000     -5.3904181E-08
   32.28000     -5.3972478E-08
   32.34000     -5.3973217E-08
   32.40000     -5.3896294E-08
   32.46000     -5.3719734E-08
   32.52000     -5.3417445E-08
   32.58000     -5.2967348E-08
   32.64000     -5.2357613E-08
   32.70000     -5.1589286E-08
   32.76000     -5.0674917E-08
   32.82000     -4.9633893E-08
   32.88000     -4.8486182E-08
   32.94000     -4.7246427E-08
   33.00000     -4.5920292E-08
   33.06000     -4.4504127E-08
   33.12000     -4.2987931E-08
   33.18000     -4.1360650E-08
   33.24000     -3.9615927E-08
   33.30000     -3.7756411E-08
   33.36000     -3.5795107E-08
   33.42000     -3.3753214E-08
   33.48000     -3.1655027E-08
   33.54000     -2.9521443E-08
   33.60000     -2.7364003E-08
   33.66000     -2.5181352E-08
   33.72000     -2.2959144E-08
   33.78000     -2.0673538E-08
   33.84000     -1.8297452E-08
   33.90000     -1.5808046E-08
   33.96000     -1.3193700E-08
   34.02000     -1.0458864E-08
   34.08000     -7.6256885E-09
   34.14000     -4.7319682E-09
   34.20000     -1.8257378E-09
   34.26000      1.0423150E-09
   34.32000      3.8268686E-09
   34.38000      6.4943686E-09
   34.44000      9.0260635E-09
   34.50000      1.1416775E-08
   34.56000      1.3669764E-08
   34.62000      1.5789288E-08
   34.68000      1.7773255E-08
   34.74000      1.9608335E-08
   34.80000      2.1269086E-08
   34.86000      2.2721220E-08
   34.92000      2.3927791E-08
   34.98000      2.4856137E-08
   35.04000      2.5483343E-08
   35.10000      2.5798665E-08
   35.16000      2.5802487E-08
   35.22000      2.5502642E-08
   35.28000      2.4909546E-08
   35.34000      2.4031939E-08
   35.40000      2.2874497E-08
   35.46000      2.1437991E-08
   35.52000      1.9721854E-08
   35.58000      1.7728393E-08
   35.64000      1.5467448E-08
   35.70000      1.2960152E-08
   35.76000      1.0240450E-08
   35.82000      7.3534654E-09
   35.88000      4.3504738E-09
   35.94000      1.2813184E-09
   36.00000     -1.8139703E-09
   36.06000     -4.9119313E-09
   36.12000     -8.0085645E-09
   36.18000     -1.1117161E-08
   36.24000     -1.4261449E-08
   36.30000     -1.7466034E-08
   36.36000     -2.0746965E-08
   36.42000     -2.4105123E-08
   36.48000     -2.7523997E-08
   36.54000     -3.0971883E-08
   36.60000     -3.4407268E-08
   36.66000     -3.7785519E-08
   36.72000     -4.1065150E-08
   36.78000     -4.4212445E-08
   36.84000     -4.7203862E-08
   36.90000     -5.0025974E-08
   36.96000     -5.2673169E-08
   37.02000     -5.5143527E-08
   37.08000     -5.7433894E-08
   37.14000     -5.9535591E-08
   37.20000     -6.1432210E-08
   37.26000     -6.3100515E-08
   37.32000     -6.4514282E-08
   37.38000     -6.5650042E-08
   37.44000     -6.6492710E-08
   37.50000     -6.7039636E-08
   37.56000     -6.7301968E-08
   37.62000     -6.7303603E-08
   37.68000     -6.7078261E-08
   37.74000     -6.6665550E-08
   37.80000     -6.6106324E-08
   37.86000     -6.5437760E-08
   37.92000     -6.4688408E-08
   37.98000     -6.3874104E-08
   38.04000     -6.2996165E-08
   38.10000     -6.2042979E-08
   38.16000     -6.0995127E-08
   38.22000     -5.9833162E-08
   38.28000     -5.8545414E-08
   38.34000     -5.7133423E-08
   38.40000     -5.5612976E-08
   38.46000     -5.4010254E-08
   38.52000     -5.2354409E-08
   38.58000     -5.0668884E-08
   38.64000     -4.8964264E-08
   38.70000     -4.7234806E-08
   38.76000     -4.5459760E-08
   38.82000     -4.3609024E-08
   38.88000     -4.1651653E-08
   38.94000     -3.9564739E-08
   39.00000     -3.7340037E-08
   39.06000     -3.4986265E-08
   39.12000     -3.2526302E-08
   39.18000     -2.9990101E-08
   39.24000     -2.7405648E-08
   39.30000     -2.4791127E-08
   39.36000     -2.2151129E-08
   39.42000     -1.9478502E-08
   39.48000     -1.6761527E-08
   39.54000     -1.3994225E-08
   39.60000     -1.1186404E-08
   39.66000     -8.3699350E-09
   39.72000     -5.5987606E-09
   39.78000     -2.9420504E-09
   39.84000     -4.7215015E-10
   39.90000      1.7492382E-09
   39.96000      3.6824048E-09
   40.02000      5.3149130E-09
   40.08000      6.6591226E-09
   40.14000      7.7428224E-09
   40.20000      8.5961105E-09
   40.26000      9.2388062E-09
   40.32000      9.6722799E-09
   40.38000      9.8778834E-09
   40.44000      9.8219335E-09
   40.50000      9.4652570E-09
   40.56000      8.7742880E-09
   40.62000      7.7306899E-09
   40.68000      6.3372232E-09
   40.74000      4.6186273E-09
   40.80000      2.6174294E-09
   40.86000      3.8569536E-10
   40.92000     -2.0252571E-09
   40.98000     -4.5744040E-09
   41.04000     -7.2369151E-09
   41.10000     -1.0004300E-08
   41.16000     -1.2878412E-08
   41.22000     -1.5861056E-08
   41.28000     -1.8942789E-08
   41.34000     -2.2095010E-08
   41.40000     -2.5268584E-08
   41.46000     -2.8399894E-08
   41.52000     -3.1422672E-08
   41.58000     -3.4281761E-08
   41.64000     -3.6944375E-08
   41.70000     -3.9405162E-08
   41.76000     -4.1683489E-08
   41.82000     -4.3813905E-08
   41.88000     -4.5832763E-08
   41.94000     -4.7765187E-08
   42.00000     -4.9616318E-08
   42.06000     -5.1369362E-08
   42.12000     -5.2990885E-08
   42.18000     -5.4441625E-08
   42.24000     -5.5689533E-08
   42.30000     -5.6721149E-08
   42.36000     -5.7547972E-08
   42.42000     -5.8206055E-08
   42.48000     -5.8748803E-08
   42.54000     -5.9235045E-08
   42.60000     -5.9715610E-08
   42.66000     -6.0222241E-08
   42.72000     -6.0761984E-08
   42.78000     -6.1318630E-08
   42.84000     -6.1860725E-08
   42.90000     -6.2353614E-08
   42.96000     -6.2771541E-08
   43.02000     -6.3106206E-08
   43.08000     -6.3369249E-08
   43.14000     -6.3588338E-08
   43.20000     -6.3798772E-08
   43.26000     -6.4033628E-08
   43.32000     -6.4315728E-08
   43.38000     -6.4653570E-08
   43.44000     -6.5041810E-08
   43.50000     -6.5465571E-08
   43.56000     -6.5906740E-08
   43.62000     -6.6350353E-08
   43.68000     -6.6789333E-08
   43.74000     -6.7226445E-08
   43.80000     -6.7672858E-08
   43.86000     -6.8144033E-08
   43.92000     -6.8653776E-08
   43.98000     -6.9208326E-08
   44.04000     -6.9802340E-08
   44.10000     -7.0418061E-08
   44.16000     -7.1028275E-08
   44.22000     -7.1602294E-08
   44.28000     -7.2113437E-08
   44.34000     -7.2545724E-08
   44.40000     -7.2897770E-08
   44.46000     -7.3182562E-08
   44.52000     -7.3423017E-08
   44.58000     -7.3644522E-08
   44.64000     -7.3866595E-08
   44.70000     -7.4096242E-08
   44.76000     -7.4324930E-08
   44.82000     -7.4529979E-08
   44.88000     -7.4679825E-08
   44.94000     -7.4741315E-08
   45.00000     -7.4687016E-08
   45.06000     -7.4500768E-08
   45.12000     -7.4180441E-08
   45.18000     -7.3737610E-08
   45.24000     -7.3194563E-08
   45.30000     -7.2579319E-08
   45.36000     -7.1919473E-08
   45.42000     -7.1236165E-08
   45.48000     -7.0539500E-08
   45.54000     -6.9826598E-08
   45.60000     -6.9083036E-08
   45.66000     -6.8287228E-08
   45.72000     -6.7416543E-08
   45.78000     -6.6453161E-08
   45.84000     -6.5388207E-08
   45.90000     -6.4223151E-08
   45.96000     -6.2968809E-08
   46.02000     -6.1642758E-08
   46.08000     -6.0266167E-08
   46.14000     -5.8861030E-08
   46.20000     -5.7447821E-08
   46.26000     -5.6043852E-08
   46.32000     -5.4662241E-08
   46.38000     -5.3311666E-08
   46.44000     -5.1997056E-08
   46.50000     -5.0721319E-08
   46.56000     -4.9487660E-08
   46.62000     -4.8301793E-08
   46.68000     -4.7173202E-08
   46.74000     -4.6115002E-08
   46.80000     -4.5142738E-08
   46.86000     -4.4273168E-08
   46.92000     -4.3524565E-08
   46.98000     -4.2919563E-08
   47.04000     -4.2490438E-08
   47.10000     -4.2285322E-08
   47.16000     -4.2372889E-08
   47.22000     -4.2843240E-08
   47.28000     -4.3804022E-08
   47.34000     -4.5372946E-08
   47.40000     -4.7669289E-08
   47.46000     -5.0807731E-08
   47.52000     -5.4897001E-08
   47.58000     -6.0044201E-08
   47.64000     -6.6364166E-08
   47.70000     -7.3992204E-08
   47.76000     -8.3098350E-08
   47.82000     -9.3901328E-08
   47.88000     -1.0668063E-07
   47.94000     -1.2178521E-07
   48.00000     -1.3963749E-07
   48.06000     -1.6073317E-07
   48.12000     -1.8563770E-07
   48.18000     -2.1498325E-07
   48.24000     -2.4946939E-07
   48.30000     -2.8987046E-07
   48.36000     -3.3705052E-07
   48.42000     -3.9198483E-07
   48.48000     -4.5578511E-07
   48.54000     -5.2972496E-07
   48.60000     -6.1526350E-07
   48.66000     -7.1406521E-07
   48.72000     -8.2801591E-07
   48.78000     -9.5923588E-07
   48.84000     -1.1100909E-06
   48.90000     -1.2832051E-06
   48.96000     -1.4814755E-06
   49.02000     -1.7080926E-06
   49.08000     -1.9665636E-06
   49.14000     -2.2607401E-06
   49.20000     -2.5948459E-06
   49.26000     -2.9735063E-06
   49.32000     -3.4017735E-06
   49.38000     -3.8851517E-06
   49.44000     -4.4296198E-06
   49.50000     -5.0416502E-06
   49.56000     -5.7282259E-06
   49.62000     -6.4968513E-06
   49.68000     -7.3555570E-06
   49.74000     -8.3129034E-06
   49.80000     -9.3779890E-06
   49.86000     -1.0560459E-05
   49.92000     -1.1870510E-05
   49.98000     -1.3318891E-05
   50.04000     -1.4916898E-05
   50.10000     -1.6676346E-05
   50.16000     -1.8609533E-05
   50.22000     -2.0729194E-05
   50.28000     -2.3048447E-05
   50.34000     -2.5580728E-05
   50.40000     -2.8339729E-05
   50.46000     -3.1339336E-05
   50.52000     -3.4593540E-05
   50.58000     -3.8116363E-05
   50.64000     -4.1921750E-05
   50.70000     -4.6023481E-05
   50.76000     -5.0435032E-05
   50.82000     -5.5169476E-05
   50.88000     -6.0239312E-05
   50.94000     -6.5656335E-05
   51.00000     -7.1431474E-05
   51.06000     -7.7574652E-05
   51.12000     -8.4094638E-05
   51.18000     -9.0998874E-05
   51.24000     -9.8293356E-05
   51.30000     -1.0598243E-04
   51.36000     -1.1406870E-04
   51.42000     -1.2255287E-04
   51.48000     -1.3143357E-04
   51.54000     -1.4070729E-04
   51.60000     -1.5036823E-04
   51.66000     -1.6040822E-04
   51.72000     -1.7081657E-04
   51.78000     -1.8158012E-04
   51.84000     -1.9268309E-04
   51.90000     -2.0410710E-04
   51.96000     -2.1583124E-04
   52.02000     -2.2783205E-04
   52.08000     -2.4008364E-04
   52.14000     -2.5255763E-04
   52.20000     -2.6522341E-04
   52.26000     -2.7804816E-04
   52.32000     -2.9099701E-04
   52.38000     -3.0403337E-04
   52.44000     -3.1711906E-04
   52.50000     -3.3021462E-04
   52.56000     -3.4327956E-04
   52.62000     -3.5627265E-04
   52.68000     -3.6915229E-04
   52.74000     -3.8187660E-04
   52.80000     -3.9440417E-04
   52.86000     -4.0669396E-04
   52.92000     -4.1870604E-04
   52.98000     -4.3040182E-04
   53.04000     -4.4174423E-04
   53.10000     -4.5269824E-04
   53.16000     -4.6323115E-04
   53.22000     -4.7331298E-04
   53.28000     -4.8291669E-04
   53.34000     -4.9201876E-04
   53.40000     -5.0059904E-04
   53.46000     -5.0864107E-04
   53.52000     -5.1613239E-04
   53.58000     -5.2306440E-04
   53.64000     -5.2943267E-04
   53.70000     -5.3523714E-04
   53.76000     -5.4048182E-04
   53.82000     -5.4517528E-04
   53.88000     -5.4932997E-04
   53.94000     -5.5296242E-04
   54.00000     -5.5609283E-04
   54.06000     -5.5874500E-04
   54.12000     -5.6094589E-04
   54.18000     -5.6272571E-04
   54.24000     -5.6411739E-04
   54.30000     -5.6515646E-04
   54.36000     -5.6588033E-04
   54.42000     -5.6632789E-04
   54.48000     -5.6653901E-04
   54.54000     -5.6655431E-04
   54.60000     -5.6641438E-04
   54.66000     -5.6615949E-04
   54.72000     -5.6582940E-04
   54.78000     -5.6546257E-04
   54.84000     -5.6509615E-04
   54.90000     -5.6476501E-04
   54.96000     -5.6450150E-04
   55.02000     -5.6433509E-04
   55.08000     -5.6429207E-04
   55.14000     -5.6439539E-04
   55.20000     -5.6466437E-04
   55.26000     -5.6511466E-04
   55.32000     -5.6575780E-04
   55.38000     -5.6660123E-04
   55.44000     -5.6764833E-04
   55.50000     -5.6889816E-04
   55.56000     -5.7034579E-04