  -2.400000      0.0000000E+00
  -2.340000      0.0000000E+00
  -2.280000      0.0000000E+00
  -2.220000      0.0000000E+00
  -2.160000      0.0000000E+00
  -2.100000      0.0000000E+00
  -2.040000     -4.9473527E-21
  -1.980000     -3.8464390E-20
  -1.920000     -1.3501471E-19
  -1.860000     -2.3218133E-19
  -1.800000      5.6359609E-20
  -1.740000      1.5163727E-18
  -1.680000      4.6152617E-18
  -1.620000      7.5119200E-18
  -1.560000      3.7324135E-18
  -1.500000     -1.7103700E-17
  -1.440000     -6.0835223E-17
  -1.380000     -1.1143322E-16
  -1.320000     -1.1393649E-16
  -1.260000      2.0374398E-17
  -1.200000      3.6158643E-16
  -1.140000      8.5833353E-16
  -1.080000      1.2314033E-15
  -1.020000      9.6631689E-16
 -0.9600000     -4.8131906E-16
 -0.9000000     -3.2394394E-15
 -0.8400000     -6.4931411E-15
 -0.7800000     -8.2508861E-15
 -0.7200000     -5.8444503E-15
 -0.6600000      2.6382514E-15
 -0.6000000      1.6371436E-14
 -0.5400000      3.0343231E-14
 -0.4800000      3.5869972E-14
 -0.4200000      2.4003967E-14
 -0.3600000     -8.7293123E-15
 -0.3000000     -5.4817120E-14
 -0.2400000     -9.4347415E-14
 -0.1800000     -1.0092961E-13
 -0.1200000     -5.4950747E-14
 -5.9999999E-02  4.0737812E-14
  0.0000000E+00  1.5167887E-13
  5.9999999E-02  2.1826937E-13
  0.1200000      1.8104439E-13
  0.1800000      1.7427601E-14
  0.2400000     -2.2792198E-13
  0.3000000     -4.4068406E-13
  0.3600000     -4.7554463E-13
  0.4200000     -2.2931161E-13
  0.4800000      2.8149751E-13
  0.5400000      8.8237761E-13
  0.6000000      1.2781949E-12
  0.6600000      1.1711209E-12
  0.7200000      4.1966945E-13
  0.7800000     -8.3602103E-13
  0.8400000     -2.1606462E-12
  0.9000000     -2.9599884E-12
  0.9600000     -2.7333045E-12
   1.020000     -1.3372540E-12
   1.080000      8.7337586E-13
   1.140000      3.1259851E-12
   1.200000      4.5313323E-12
   1.260000      4.4876667E-12
   1.320000      2.9936914E-12
   1.380000      6.9151987E-13
   1.440000     -1.4234679E-12
   1.500000     -2.5178204E-12
   1.560000     -2.4095012E-12
   1.620000     -1.7498347E-12
   1.680000     -1.7337459E-12
   1.740000     -3.4034941E-12
   1.800000     -6.8490964E-12
   1.860000     -1.0730544E-11
   1.920000     -1.2468988E-11
   1.980000     -9.1829183E-12
   2.040000      9.1302042E-13
   2.100000      1.7210195E-11
   2.160000      3.6129769E-11
   2.220000      5.1666029E-11
   2.280000      5.7018033E-11
   2.340000      4.6819205E-11
   2.400000      1.9190384E-11
   2.460000     -2.3131832E-11
   2.520000     -7.3002548E-11
   2.580000     -1.2031887E-10
   2.640000     -1.5417106E-10
   2.700000     -1.6495970E-10
   2.760000     -1.4588616E-10
   2.820000     -9.3625586E-11
   2.880000     -8.4432591E-12
   2.940000      1.0570842E-10
   3.000000      2.4063013E-10
   3.060000      3.8274064E-10
   3.120000      5.1177251E-10
   3.180000      6.0011041E-10
   3.240000      6.1365968E-10
   3.300000      5.1478855E-10
   3.360000      2.6722616E-10
   3.420000     -1.5793430E-10
   3.480000     -7.7649226E-10
   3.540000     -1.5870962E-09
   3.600000     -2.5699327E-09
   3.660000     -3.6884324E-09
   3.720000     -4.8934523E-09
   3.780000     -6.1287984E-09
   3.840000     -7.3367632E-09
   3.900000     -8.4626626E-09
   3.960000     -9.4579260E-09
   4.020000     -1.0282001E-08
   4.080000     -1.0903728E-08
   4.140000     -1.1302956E-08
   4.200000     -1.1472740E-08
   4.260000     -1.1421871E-08
   4.320000     -1.1176827E-08
   4.380000     -1.0781942E-08
   4.440000     -1.0296706E-08
   4.500000     -9.7897921E-09
   4.560000     -9.3304191E-09
   4.620000     -8.9785734E-09
   4.680000     -8.7762357E-09
   4.740000     -8.7416980E-09
   4.800000     -8.8683070E-09
   4.860000     -9.1278070E-09
   4.920000     -9.4771870E-09
   4.980000     -9.8670911E-09
   5.040000     -1.0249630E-08
   5.100000     -1.0584023E-08
   5.160000     -1.0839472E-08
   5.220000     -1.0995779E-08
   5.280000     -1.1042824E-08
   5.340000     -1.0980036E-08
   5.400000     -1.0816375E-08
   5.460000     -1.0570452E-08
   5.520000     -1.0269763E-08
   5.580000     -9.9479722E-09
   5.640000     -9.6398027E-09
   5.700000     -9.3742214E-09
   5.760000     -9.1675796E-09
   5.820000     -9.0188887E-09
   5.880000     -8.9089660E-09
   5.940000     -8.8040526E-09
   6.000000     -8.6630552E-09
   6.060000     -8.4463734E-09
   6.120000     -8.1238456E-09
   6.180000     -7.6798390E-09
   6.240000     -7.1146382E-09
   6.300000     -6.4425429E-09
   6.360000     -5.6879843E-09
   6.420000     -4.8811506E-09
   6.480000     -4.0540957E-09
   6.540000     -3.2375076E-09
   6.600000     -2.4576516E-09
   6.660000     -1.7328835E-09
   6.720000     -1.0696279E-09
   6.780000     -4.5857274E-10
   6.840000      1.2742606E-10
   6.900000      7.3207623E-10
   6.960000      1.4100153E-09
   7.020000      2.2171536E-09
   7.080000      3.1988856E-09
   7.140000      4.3792152E-09
   7.200000      5.7540470E-09
   7.260000      7.2909843E-09
   7.320000      8.9361443E-09
   7.380000      1.0626341E-08
   7.440000      1.2303262E-08
   7.500000      1.3925577E-08
   7.560000      1.5475514E-08
   7.620000      1.6958241E-08
   7.680000      1.8394665E-08
   7.740000      1.9810356E-08
   7.800000      2.1224464E-08
   7.860000      2.2642306E-08
   7.920000      2.4053884E-08
   7.980000      2.5438419E-08
   8.040000      2.6772815E-08
   8.100000      2.8040647E-08
   8.160000      2.9238164E-08
   8.220000      3.0374949E-08
   8.280000      3.1468986E-08
   8.340000      3.2537901E-08
   8.400000      3.3589750E-08
   8.460000      3.4616612E-08
   8.520000      3.5593594E-08
   8.580000      3.6483510E-08
   8.640000      3.7245719E-08
   8.700000      3.7846178E-08
   8.760000      3.8265419E-08
   8.820000      3.8502321E-08
   8.880000      3.8572960E-08
   8.940000      3.8505693E-08
   9.000000      3.8334559E-08
   9.060000      3.8093212E-08
   9.120000      3.7810768E-08
   9.180000      3.7510038E-08
   9.240000      3.7207581E-08
   9.300000      3.6914766E-08
   9.360000      3.6639133E-08
   9.420000      3.6385906E-08
   9.480000      3.6159683E-08
   9.540000      3.5966305E-08
   9.600000      3.5814505E-08
   9.660000      3.5716713E-08
   9.720000      3.5688284E-08
   9.780000      3.5744971E-08
   9.840000      3.5899216E-08
   9.900000      3.6156436E-08
   9.960000      3.6512766E-08
   10.02000      3.6955136E-08
   10.08000      3.7463685E-08
   10.14000      3.8015678E-08
   10.20000      3.8589434E-08
   10.26000      3.9167034E-08
   10.32000      3.9735117E-08
   10.38000      4.0283972E-08
   10.44000      4.0805720E-08
   10.50000      4.1292598E-08
   10.56000      4.1735973E-08
   10.62000      4.2126331E-08
   10.68000      4.2453863E-08
   10.74000      4.2709267E-08
   10.80000      4.2884285E-08
   10.86000      4.2971951E-08
   10.92000      4.2966683E-08
   10.98000      4.2864365E-08
   11.04000      4.2662627E-08
   11.10000      4.2361084E-08
   11.16000      4.1961282E-08
   11.22000      4.1465889E-08
   11.28000      4.0877104E-08
   11.34000      4.0194514E-08
   11.40000      3.9413123E-08
   11.46000      3.8522611E-08
   11.52000      3.7508656E-08
   11.58000      3.6356596E-08
   11.64000      3.5056868E-08
   11.70000      3.3610572E-08
   11.76000      3.2033238E-08
   11.82000      3.0354958E-08
   11.88000      2.8616252E-08
   11.94000      2.6860432E-08
   12.00000      2.5124692E-08
   12.06000      2.3432714E-08
   12.12000      2.1791204E-08
   12.18000      2.0191386E-08
   12.24000      1.8614687E-08
   12.30000      1.7040522E-08
   12.36000      1.5453525E-08
   12.42000      1.3848049E-08
   12.48000      1.2229090E-08
   12.54000      1.0609981E-08
   12.60000      9.0082199E-09
   12.66000      7.4409434E-09
   12.72000      5.9212244E-09
   12.78000      4.4557322E-09
   12.84000      3.0437832E-09
   12.90000      1.6775665E-09
   12.96000      3.4332737E-10
   13.02000     -9.7662367E-10
   13.08000     -2.3012328E-09
   13.14000     -3.6476546E-09
   13.20000     -5.0283249E-09
   13.26000     -6.4487340E-09
   13.32000     -7.9063840E-09
   13.38000     -9.3911234E-09
   13.44000     -1.0886724E-08
   13.50000     -1.2373290E-08
   13.56000     -1.3829996E-08
   13.62000     -1.5237749E-08
   13.68000     -1.6581454E-08
   13.74000     -1.7851759E-08
   13.80000     -1.9046151E-08
   13.86000     -2.0169246E-08
   13.92000     -2.1232136E-08
   13.98000     -2.2250683E-08
   14.04000     -2.3242881E-08
   14.10000     -2.4225702E-08
   14.16000     -2.5211987E-08
   14.22000     -2.6208061E-08
   14.28000     -2.7212508E-08
   14.34000     -2.8216300E-08
   14.40000     -2.9204037E-08
   14.46000     -3.0155960E-08
   14.52000     -3.1050327E-08
   14.58000     -3.1865888E-08
   14.64000     -3.2584314E-08
   14.70000     -3.3192460E-08
   14.76000     -3.3684188E-08
   14.82000     -3.4061213E-08
   14.88000     -3.4332622E-08
   14.94000     -3.4512698E-08
   15.00000     -3.4617429E-08
   15.06000     -3.4660520E-08
   15.12000     -3.4650185E-08
   15.18000     -3.4587753E-08
   15.24000     -3.4468670E-08
   15.30000     -3.4285563E-08
   15.36000     -3.4032276E-08
   15.42000     -3.3707522E-08
   15.48000     -3.3317026E-08
   15.54000     -3.2873597E-08
   15.60000     -3.2395342E-08
   15.66000     -3.1902630E-08
   15.72000     -3.1414523E-08
   15.78000     -3.0945337E-08
   15.84000     -3.0501809E-08
   15.90000     -3.0081505E-08
   15.96000     -2.9673005E-08
   16.02000     -2.9258496E-08
   16.08000     -2.8818754E-08
   16.14000     -2.8339663E-08
   16.20000     -2.7818434E-08
   16.26000     -2.7267211E-08
   16.32000     -2.6712268E-08
   16.38000     -2.6188390E-08
   16.44000     -2.5729827E-08
   16.50000     -2.5360741E-08
   16.56000     -2.5088310E-08
   16.62000     -2.4900793E-08
   16.68000     -2.4770971E-08
   16.74000     -2.4663544E-08
   16.80000     -2.4543811E-08
   16.86000     -2.4385077E-08
   16.92000     -2.4173019E-08
   16.98000     -2.3906562E-08
   17.04000     -2.3595893E-08
   17.10000     -2.3258618E-08
   17.16000     -2.2915103E-08
   17.22000     -2.2583798E-08
   17.28000     -2.2277140E-08
   17.34000     -2.1998613E-08
   17.40000     -2.1741473E-08
   17.46000     -2.1489381E-08
   17.52000     -2.1218657E-08
   17.58000     -2.0901401E-08
   17.64000     -2.0508491E-08
   17.70000     -2.0011651E-08
   17.76000     -1.9384519E-08
   17.82000     -1.8603227E-08
   17.88000     -1.7647482E-08
   17.94000     -1.6502771E-08
   18.00000     -1.5163783E-08
   18.06000     -1.3638187E-08
   18.12000     -1.1949488E-08
   18.18000     -1.0137718E-08
   18.24000     -8.2573139E-09
   18.30000     -6.3723098E-09
   18.36000     -4.5497504E-09
   18.42000     -2.8526437E-09
   18.48000     -1.3338515E-09
   18.54000     -3.2074336E-11
   18.60000      1.0294086E-09
   18.66000      1.8412769E-09
   18.72000      2.4047937E-09
   18.78000      2.7279745E-09
   18.84000      2.8229321E-09
   18.90000      2.7055209E-09
   18.96000      2.3972617E-09
   19.02000      1.9281956E-09
   19.08000      1.3384713E-09
   19.14000      6.7675049E-10
   19.20000     -5.0966332E-12
   19.26000     -6.5953643E-10
   19.32000     -1.2501562E-09
   19.38000     -1.7545421E-09
   19.44000     -2.1615694E-09
   19.50000     -2.4639899E-09
   19.56000     -2.6495248E-09
   19.62000     -2.6946216E-09
   19.68000     -2.5639868E-09
   19.74000     -2.2164877E-09
   19.80000     -1.6152019E-09
   19.86000     -7.3770273E-10
   19.92000      4.1714976E-10
   19.98000      1.8278121E-09
   20.04000      3.4535195E-09
   20.10000      5.2403308E-09
   20.16000      7.1272037E-09
   20.22000      9.0506438E-09
   20.28000      1.0948079E-08
   20.34000      1.2761136E-08
   20.40000      1.4439827E-08
   20.46000      1.5947515E-08
   20.52000      1.7265210E-08
   20.58000      1.8393280E-08
   20.64000      1.9349297E-08
   20.70000      2.0162426E-08
   20.76000      2.0866176E-08
   20.82000      2.1491994E-08
   20.88000      2.2065334E-08
   20.94000      2.2604457E-08
   21.00000      2.3120666E-08
   21.06000      2.3618451E-08
   21.12000      2.4094660E-08
   21.18000      2.4537279E-08
   21.24000      2.4925340E-08
   21.30000      2.5231483E-08
   21.36000      2.5427402E-08
   21.42000      2.5490968E-08
   21.48000      2.5412584E-08
   21.54000      2.5198661E-08
   21.60000      2.4871191E-08
   21.66000      2.4464105E-08
   21.72000      2.4018179E-08
   21.78000      2.3576147E-08
   21.84000      2.3178886E-08
   21.90000      2.2862290E-08
   21.96000      2.2654087E-08
   22.02000      2.2570237E-08
   22.08000      2.2611713E-08
   22.14000      2.2763338E-08
   22.20000      2.2996275E-08
   22.26000      2.3274547E-08
   22.32000      2.3564020E-08
   22.38000      2.3840986E-08
   22.44000      2.4097128E-08
   22.50000      2.4339162E-08
   22.56000      2.4583526E-08
   22.62000      2.4848507E-08
   22.68000      2.5146905E-08
   22.74000      2.5481553E-08
   22.80000      2.5844264E-08
   22.86000      2.6217306E-08
   22.92000      2.6575828E-08
   22.98000      2.6890303E-08
   23.04000      2.7129145E-08
   23.10000      2.7262216E-08
   23.16000      2.7265598E-08
   23.22000      2.7126628E-08
   23.28000      2.6846930E-08
   23.34000      2.6441061E-08
   23.40000      2.5929841E-08
   23.46000      2.5329967E-08
   23.52000      2.4643825E-08
   23.58000      2.3854138E-08
   23.64000      2.2926557E-08
   23.70000      2.1820082E-08
   23.76000      2.0501796E-08
   23.82000      1.8960392E-08
   23.88000      1.7213363E-08
   23.94000      1.5305217E-08
   24.00000      1.3297662E-08
   24.06000      1.1255407E-08
   24.12000      9.2324530E-09
   24.18000      7.2627917E-09
   24.24000      5.3573270E-09
   24.30000      3.5064893E-09
   24.36000      1.6865364E-09
   24.42000     -1.3283233E-10
   24.48000     -1.9813970E-09
   24.54000     -3.8829087E-09
   24.60000     -5.8516147E-09
   24.66000     -7.8911047E-09
   24.72000     -9.9957065E-09
   24.78000     -1.2154409E-08
   24.84000     -1.4356603E-08
   24.90000     -1.6598095E-08
   24.96000     -1.8885316E-08
   25.02000     -2.1235968E-08
   25.08000     -2.3675511E-08
   25.14000     -2.6230564E-08
   25.20000     -2.8921596E-08
   25.26000     -3.1757590E-08
   25.32000     -3.4734448E-08
   25.38000     -3.7837292E-08
   25.44000     -4.1045212E-08
   25.50000     -4.4336460E-08
   25.56000     -4.7692257E-08
   25.62000     -5.1098510E-08
   25.68000     -5.4545648E-08
   25.74000     -5.8027066E-08
   25.80000     -6.1536596E-08
   25.86000     -6.5065144E-08
   25.92000     -6.8596854E-08
   25.98000     -7.2105699E-08
   26.04000     -7.5554283E-08
   26.10000     -7.8896527E-08
   26.16000     -8.2084689E-08
   26.22000     -8.5079222E-08
   26.28000     -8.7857892E-08
   26.34000     -9.0420279E-08
   26.40000     -9.2784774E-08
   26.46000     -9.4978503E-08
   26.52000     -9.7023516E-08
   26.58000     -9.8924595E-08
   26.64000     -1.0066328E-07
   26.70000     -1.0220040E-07
   26.76000     -1.0348555E-07
   26.82000     -1.0446944E-07
   26.88000     -1.0511459E-07
   26.94000     -1.0540106E-07
   27.00000     -1.0532643E-07
   27.06000     -1.0490208E-07
   27.12000     -1.0414793E-07
   27.18000     -1.0308772E-07
   27.24000     -1.0174546E-07
   27.30000     -1.0014260E-07
   27.36000     -9.8295601E-08
   27.42000     -9.6214727E-08
   27.48000     -9.3905243E-08
   27.54000     -9.1372279E-08
   27.60000     -8.8628880E-08
   27.66000     -8.5704478E-08
   27.72000     -8.2649507E-08
   27.78000     -7.9532413E-08
   27.84000     -7.6428094E-08
   27.90000     -7.3400791E-08
   27.96000     -7.0487481E-08
   28.02000     -6.7688688E-08
   28.08000     -6.4971154E-08
   28.14000     -6.2282076E-08
   28.20000     -5.9570006E-08
   28.26000     -5.6805092E-08
   28.32000     -5.3991744E-08
   28.38000     -5.1170193E-08
   28.44000     -4.8407660E-08
   28.50000     -4.5783057E-08
   28.56000     -4.3370356E-08
   28.62000     -4.1224890E-08
   28.68000     -3.9374939E-08
   28.74000     -3.7819426E-08
   28.80000     -3.6531340E-08
   28.86000     -3.5466286E-08
   28.92000     -3.4574796E-08
   28.98000     -3.3816196E-08
   29.04000     -3.3170426E-08
   29.10000     -3.2643939E-08
   29.16000     -3.2266794E-08
   29.22000     -3.2080916E-08
   29.28000     -3.2122916E-08
   29.34000     -3.2407598E-08
   29.40000     -3.2918479E-08
   29.46000     -3.3609197E-08
   29.52000     -3.4415475E-08
   29.58000     -3.5272951E-08
   29.64000     -3.6133951E-08
   29.70000     -3.6977070E-08
   29.76000     -3.7806437E-08
   29.82000     -3.8642064E-08
   29.88000     -3.9505721E-08
   29.94000     -4.0408072E-08
   30.00000     -4.1341401E-08
   30.06000     -4.2279598E-08
   30.12000     -4.3184262E-08
   30.18000     -4.4014161E-08
   30.24000     -4.4734968E-08
   30.30000     -4.5326946E-08
   30.36000     -4.5789282E-08
   30.42000     -4.6140286E-08
   30.48000     -4.6413245E-08
   30.54000     -4.6648029E-08
   30.60000     -4.6879510E-08
   30.66000     -4.7125315E-08
   30.72000     -4.7376542E-08
   30.78000     -4.7595204E-08
   30.84000     -4.7720711E-08
   30.90000     -4.7684726E-08
   30.96000     -4.7430504E-08
   31.02000     -4.6930552E-08
   31.08000     -4.6196451E-08
   31.14000     -4.5277066E-08
   31.20000     -4.4245496E-08
   31.26000     -4.3179014E-08
   31.32000     -4.2138840E-08
   31.38000     -4.1156479E-08
   31.44000     -4.0230823E-08
   31.50000     -3.9336388E-08
   31.56000     -3.8439168E-08
   31.62000     -3.7514123E-08
   31.68000     -3.6558205E-08
   31.74000     -3.5594425E-08
   31.80000     -3.4665934E-08
   31.86000     -3.3822378E-08
   31.92000     -3.3103369E-08
   31.98000     -3.2524575E-08
   32.04000     -3.2070826E-08
   32.10000     -3.1698153E-08
   32.16000     -3.1343617E-08
   32.22000     -3.0939621E-08
   32.28000     -3.0428467E-08
   32.34000     -2.9773345E-08
   32.40000     -2.8963518E-08
   32.46000     -2.8013211E-08
   32.52000     -2.6955137E-08
   32.58000     -2.5830582E-08
   32.64000     -2.4678371E-08
   32.70000     -2.3525287E-08
   32.76000     -2.2380265E-08
   32.82000     -2.1234181E-08
   32.88000     -2.0065622E-08
   32.94000     -1.8851258E-08
   33.00000     -1.7577554E-08
   33.06000     -1.6249624E-08
   33.12000     -1.4893661E-08
   33.18000     -1.3551549E-08
   33.24000     -1.2269350E-08
   33.30000     -1.1083791E-08
   33.36000     -1.0011798E-08
   33.42000     -9.0467731E-09
   33.48000     -8.1625311E-09
   33.54000     -7.3228086E-09
   33.60000     -6.4924488E-09
   33.66000     -5.6464851E-09
   33.72000     -4.7749236E-09
   33.78000     -3.8831529E-09
   33.84000     -2.9892671E-09
   33.90000     -2.1197748E-09
   33.96000     -1.3044559E-09
   34.02000     -5.7049221E-10
   34.08000      6.3821122E-11
   34.14000      5.9450728E-10
   34.20000      1.0342147E-09
   34.26000      1.4092456E-09
   34.32000      1.7508679E-09
   34.38000      2.0832258E-09
   34.44000      2.4124376E-09
   34.50000      2.7217226E-09
   34.56000      2.9750669E-09
   34.62000      3.1279854E-09
   34.68000      3.1404448E-09
   34.74000      2.9860057E-09
   34.80000      2.6534011E-09
   34.86000      2.1409523E-09
   34.92000      1.4480185E-09
   34.98000      5.6887312E-10
   35.04000     -5.0764110E-10
   35.10000     -1.7932932E-09
   35.16000     -3.2943959E-09
   35.22000     -5.0090327E-09
   35.28000     -6.9296253E-09
   35.34000     -9.0490495E-09
   35.40000     -1.1365850E-08
   35.46000     -1.3884455E-08
   35.52000     -1.6609535E-08
   35.58000     -1.9537534E-08
   35.64000     -2.2650530E-08
   35.70000     -2.5916110E-08
   35.76000     -2.9293165E-08
   35.82000     -3.2739489E-08
   35.88000     -3.6215798E-08
   35.94000     -3.9683187E-08
   36.00000     -4.3095685E-08
   36.06000     -4.6393584E-08
   36.12000     -4.9503566E-08
   36.18000     -5.2348316E-08
   36.24000     -5.4862358E-08
   36.30000     -5.7006659E-08
   36.36000     -5.8774312E-08
   36.42000     -6.0183901E-08
   36.48000     -6.1263769E-08
   36.54000     -6.2035284E-08
   36.60000     -6.2503851E-08
   36.66000     -6.2661904E-08
   36.72000     -6.2501506E-08
   36.78000     -6.2028818E-08
   36.84000     -6.1272132E-08
   36.90000     -6.0278808E-08
   36.96000     -5.9103133E-08
   37.02000     -5.7791759E-08
   37.08000     -5.6374496E-08
   37.14000     -5.4864511E-08
   37.20000     -5.3266490E-08
   37.26000     -5.1587055E-08
   37.32000     -4.9841425E-08
   37.38000     -4.8053316E-08
   37.44000     -4.6249799E-08
   37.50000     -4.4455568E-08
   37.56000     -4.2690509E-08
   37.62000     -4.0971155E-08
   37.68000     -3.9313207E-08
   37.74000     -3.7731159E-08
   37.80000     -3.6233622E-08
   37.86000     -3.4816708E-08
   37.92000     -3.3460765E-08
   37.98000     -3.2134800E-08
   38.04000     -3.0808391E-08
   38.10000     -2.9465697E-08
   38.16000     -2.8113412E-08
   38.22000     -2.6776718E-08
   38.28000     -2.5483709E-08
   38.34000     -2.4245447E-08
   38.40000     -2.3041927E-08
   38.46000     -2.1821819E-08
   38.52000     -2.0516575E-08
   38.58000     -1.9062359E-08
   38.64000     -1.7419449E-08
   38.70000     -1.5581042E-08
   38.76000     -1.3569562E-08
   38.82000     -1.1425040E-08
   38.88000     -9.1929859E-09
   38.94000     -6.9172565E-09
   39.00000     -4.6385491E-09
   39.06000     -2.3949707E-09
   39.12000     -2.2039447E-10
   39.18000      1.8607418E-09
   39.24000      3.8393262E-09
   39.30000      5.7231273E-09
   39.36000      7.5307076E-09
   39.42000      9.2791383E-09
   39.48000      1.0971545E-08
   39.54000      1.2591764E-08
   39.60000      1.4109982E-08
   39.66000      1.5497003E-08
   39.72000      1.6739421E-08
   39.78000      1.7846842E-08
   39.84000      1.8846496E-08
   39.90000      1.9767535E-08
   39.96000      2.0623364E-08
   40.02000      2.1401565E-08
   40.08000      2.2066789E-08
   40.14000      2.2574831E-08
   40.20000      2.2889825E-08
   40.26000      2.2995282E-08
   40.32000      2.2893502E-08
   40.38000      2.2594891E-08
   40.44000      2.2104404E-08
   40.50000      2.1413573E-08
   40.56000      2.0502741E-08
   40.62000      1.9351706E-08
   40.68000      1.7952015E-08
   40.74000      1.6313370E-08
   40.80000      1.4460550E-08
   40.86000      1.2423014E-08
   40.92000      1.0223600E-08
   40.98000      7.8728251E-09
   41.04000      5.3713989E-09
   41.10000      2.7184373E-09
   41.16000     -8.0399208E-11
   41.22000     -3.0099723E-09
   41.28000     -6.0492695E-09
   41.34000     -9.1785148E-09
   41.40000     -1.2384667E-08
   41.46000     -1.5661668E-08
   41.52000     -1.9005636E-08
   41.58000     -2.2408720E-08
   41.64000     -2.5856096E-08
   41.70000     -2.9328200E-08
   41.76000     -3.2806192E-08
   41.82000     -3.6275949E-08
   41.88000     -3.9726370E-08
   41.94000     -4.3141576E-08
   42.00000     -4.6491202E-08
   42.06000     -4.9725440E-08
   42.12000     -5.2779946E-08
   42.18000     -5.5590434E-08
   42.24000     -5.8111198E-08
   42.30000     -6.0328503E-08
   42.36000     -6.2261748E-08
   42.42000     -6.3950914E-08
   42.48000     -6.5436012E-08
   42.54000     -6.6737805E-08
   42.60000     -6.7848731E-08
   42.66000     -6.8737329E-08
   42.72000     -6.9362969E-08
   42.78000     -6.9692973E-08
   42.84000     -6.9714318E-08
   42.90000     -6.9435750E-08
   42.96000     -6.8881612E-08
   43.02000     -6.8082144E-08
   43.08000     -6.7065649E-08
   43.14000     -6.5854934E-08
   43.20000     -6.4467642E-08
   43.26000     -6.2918097E-08
   43.32000     -6.1218906E-08
   43.38000     -5.9382700E-08
   43.44000     -5.7425456E-08
   43.50000     -5.5372322E-08
   43.56000     -5.3264049E-08
   43.62000     -5.1160065E-08
   43.68000     -4.9133515E-08
   43.74000     -4.7257132E-08
   43.80000     -4.5583256E-08
   43.86000     -4.4125834E-08
   43.92000     -4.2852761E-08
   43.98000     -4.1693344E-08
   44.04000     -4.0559094E-08
   44.10000     -3.9370249E-08
   44.16000     -3.8077815E-08
   44.22000     -3.6673441E-08
   44.28000     -3.5185035E-08
   44.34000     -3.3662108E-08
   44.40000     -3.2158155E-08
   44.46000     -3.0716841E-08
   44.52000     -2.9365269E-08
   44.58000     -2.8113760E-08
   44.64000     -2.6959173E-08
   44.70000     -2.5889165E-08
   44.76000     -2.4886495E-08
   44.82000     -2.3933810E-08
   44.88000     -2.3019322E-08
   44.94000     -2.2142148E-08
   45.00000     -2.1314618E-08
   45.06000     -2.0558925E-08
   45.12000     -1.9897968E-08
   45.18000     -1.9343730E-08
   45.24000     -1.8889015E-08
   45.30000     -1.8507857E-08
   45.36000     -1.8166013E-08
   45.42000     -1.7837470E-08
   45.48000     -1.7518945E-08
   45.54000     -1.7234370E-08
   45.60000     -1.7025773E-08
   45.66000     -1.6933685E-08
   45.72000     -1.6975717E-08
   45.78000     -1.7133036E-08
   45.84000     -1.7350734E-08
   45.90000     -1.7551393E-08
   45.96000     -1.7655411E-08
   46.02000     -1.7599547E-08
   46.08000     -1.7347730E-08
   46.14000     -1.6893024E-08
   46.20000     -1.6253805E-08
   46.26000     -1.5468341E-08
   46.32000     -1.4589975E-08
   46.38000     -1.3682234E-08
   46.44000     -1.2811946E-08
   46.50000     -1.2039930E-08
   46.56000     -1.1411962E-08
   46.62000     -1.0954714E-08
   46.68000     -1.0680322E-08
   46.74000     -1.0598923E-08
   46.80000     -1.0733596E-08
   46.86000     -1.1129648E-08
   46.92000     -1.1852311E-08
   46.98000     -1.2972875E-08
   47.04000     -1.4549850E-08
   47.10000     -1.6615253E-08
   47.16000     -1.9174294E-08
   47.22000     -2.2220409E-08
   47.28000     -2.5760052E-08
   47.34000     -2.9836848E-08
   47.40000     -3.4545195E-08
   47.46000     -4.0028734E-08
   47.52000     -4.6466575E-08
   47.58000     -5.4055711E-08
   47.64000     -6.2999227E-08
   47.70000     -7.3506129E-08
   47.76000     -8.5802405E-08
   47.82000     -1.0014773E-07
   47.88000     -1.1685115E-07
   47.94000     -1.3628153E-07
   48.00000     -1.5887417E-07
   48.06000     -1.8513803E-07
   48.12000     -2.1566858E-07
   48.18000     -2.5116657E-07
   48.24000     -2.9245916E-07
   48.30000     -3.4051661E-07
   48.36000     -3.9646002E-07
   48.42000     -4.6156208E-07
   48.48000     -5.3724733E-07
   48.54000     -6.2510026E-07
   48.60000     -7.2688556E-07
   48.66000     -8.4457861E-07
   48.72000     -9.8039823E-07
   48.78000     -1.1368337E-06
   48.84000     -1.3166630E-06
   48.90000     -1.5229671E-06
   48.96000     -1.7591486E-06
   49.02000     -2.0289615E-06
   49.08000     -2.3365501E-06
   49.14000     -2.6864966E-06
   49.20000     -3.0838603E-06
   49.26000     -3.5342100E-06
   49.32000     -4.0436407E-06
   49.38000     -4.6187879E-06
   49.44000     -5.2668433E-06
   49.50000     -5.9955778E-06
   49.56000     -6.8133745E-06
   49.62000     -7.7292570E-06
   49.68000     -8.7529206E-06
   49.74000     -9.8947503E-06
   49.80000     -1.1165829E-05
   49.86000     -1.2577940E-05
   49.92000     -1.4143557E-05
   49.98000     -1.5875838E-05
   50.04000     -1.7788612E-05
   50.10000     -1.9896357E-05
   50.16000     -2.2214168E-05
   50.22000     -2.4757730E-05
   50.28000     -2.7543239E-05
   50.34000     -3.0587365E-05
   50.40000     -3.3907170E-05
   50.46000     -3.7520036E-05
   50.52000     -4.1443607E-05
   50.58000     -4.5695684E-05
   50.64000     -5.0294122E-05
   50.70000     -5.5256700E-05
   50.76000     -6.0600978E-05
   50.82000     -6.6344146E-05
   50.88000     -7.2502829E-05
   50.94000     -7.9092984E-05
   51.00000     -8.6129679E-05
   51.06000     -9.3626972E-05
   51.12000     -1.0159774E-04
   51.18000     -1.1005349E-04
   51.24000     -1.1900419E-04
   51.30000     -1.2845808E-04
   51.36000     -1.3842146E-04
   51.42000     -1.4889863E-04
   51.48000     -1.5989161E-04
   51.54000     -1.7140008E-04
   51.60000     -1.8342119E-04
   51.66000     -1.9594941E-04
   51.72000     -2.0897655E-04
   51.78000     -2.2249157E-04
   51.84000     -2.3648056E-04
   51.90000     -2.5092668E-04
   51.96000     -2.6581023E-04
   52.02000     -2.8110849E-04
   52.08000     -2.9679589E-04
   52.14000     -3.1284403E-04
   52.20000     -3.2922192E-04
   52.26000     -3.4589620E-04
   52.32000     -3.6283105E-04
   52.38000     -3.7998857E-04
   52.44000     -3.9732907E-04
   52.50000     -4.1481105E-04
   52.56000     -4.3239171E-04
   52.62000     -4.5002741E-04
   52.68000     -4.6767361E-04
   52.74000     -4.8528553E-04
   52.80000     -5.0281838E-04
   52.86000     -5.2022777E-04
   52.92000     -5.3747016E-04
   52.98000     -5.5450329E-04
   53.04000     -5.7128654E-04
   53.10000     -5.8778137E-04
   53.16000     -6.0395175E-04
   53.22000     -6.1976421E-04
   53.28000     -6.3518848E-04
   53.34000     -6.5019744E-04
   53.40000     -6.6476775E-04
   53.46000     -6.7887997E-04
   53.52000     -6.9251878E-04
   53.58000     -7.0567342E-04
   53.64000     -7.1833743E-04
   53.70000     -7.3050876E-04
   53.76000     -7.4218994E-04
   53.82000     -7.5338793E-04
   53.88000     -7.6411414E-04
   53.94000     -7.7438448E-04
   54.00000     -7.8421884E-04
   54.06000     -7.9364126E-04
   54.12000     -8.0267922E-04
   54.18000     -8.1136369E-04
   54.24000     -8.1972865E-04
   54.30000     -8.2781067E-04
   54.36000     -8.3564862E-04
   54.42000     -8.4328314E-04
   54.48000     -8.5075613E-04
   54.54000     -8.5811020E-04
   54.60000     -8.6538825E-04
   54.66000     -8.7263307E-04
   54.72000     -8.7988650E-04
   54.78000     -8.8718947E-04
   54.84000     -8.9458073E-04
   54.90000     -9.0209726E-04
   54.96000     -9.0977299E-04
   55.02000     -9.1763906E-04
   55.08000     -9.2572300E-04
   55.14000     -9.3404873E-04
   55.20000     -9.4263605E-04
   55.26000     -9.5150020E-04
   55.32000     -9.6065190E-04
   55.38000     -9.7009697E-04
   55.44000     -9.7983645E-04
   55.50000     -9.8986633E-04
   55.56000     -1.0001779E-03