  -2.400000      0.0000000E+00
  -2.340000      0.0000000E+00
  -2.280000      0.0000000E+00
  -2.220000      0.0000000E+00
  -2.160000      0.0000000E+00
  -2.100000      0.0000000E+00
  -2.040000     -3.9237248E-21
  -1.980000     -1.9527975E-20
  -1.920000     -1.6408082E-21
  -1.860000      3.0575524E-19
  -1.800000      1.4493314E-18
  -1.740000      3.7238956E-18
  -1.680000      5.5659404E-18
  -1.620000      1.7616236E-18
  -1.560000     -1.5481539E-17
  -1.500000     -4.8986470E-17
  -1.440000     -8.3339644E-17
  -1.380000     -7.6198369E-17
  -1.320000      2.7603889E-17
  -1.260000      2.4695235E-16
  -1.200000      4.9621932E-16
  -1.140000      5.5396818E-16
  -1.080000      1.4369718E-16
  -1.020000     -8.4112653E-16
 -0.9600000     -2.0520667E-15
 -0.9000000     -2.5630154E-15
 -0.8400000     -1.1761005E-15
 -0.7800000      2.7437995E-15
 -0.7200000      8.1948845E-15
 -0.6600000      1.1949992E-14
 -0.6000000      9.3259666E-15
 -0.5400000     -3.2814152E-15
 -0.4800000     -2.4796629E-14
 -0.4200000     -4.6789453E-14
 -0.3600000     -5.4315981E-14
 -0.3000000     -3.1907701E-14
 -0.2400000      2.6361763E-14
 -0.1800000      1.0726274E-13
 -0.1200000      1.7594482E-13
 -5.9999999E-02  1.8601209E-13
  0.0000000E+00  1.0193174E-13
  5.9999999E-02 -7.4572096E-14
  0.1200000     -2.8888610E-13
  0.1800000     -4.4302927E-13
  0.2400000     -4.3495318E-13
  0.3000000     -2.1551714E-13
  0.3600000      1.6465974E-13
  0.4200000      5.5050138E-13
  0.4800000      7.3776391E-13
  0.5400000      5.7578025E-13
  0.6000000      7.1935893E-14
  0.6600000     -5.6418607E-13
  0.7200000     -9.8284900E-13
  0.7800000     -8.5898319E-13
  0.8400000     -9.3742783E-14
  0.9000000      1.0553158E-12
  0.9600000      2.0136867E-12
   1.020000      2.1263833E-12
   1.080000      1.0118679E-12
   1.140000     -1.1360680E-12
   1.200000     -3.4841886E-12
   1.260000     -4.8335632E-12
   1.320000     -4.1679177E-12
   1.380000     -1.2462922E-12
   1.440000      3.0683652E-12
   1.500000      6.9797436E-12
   1.560000      8.4475682E-12
   1.620000      6.1474684E-12
   1.680000      2.6659529E-13
   1.740000     -7.2908979E-12
   1.800000     -1.3483897E-11
   1.860000     -1.5330898E-11
   1.920000     -1.1227548E-11
   1.980000     -1.7753464E-12
   2.040000      1.0306401E-11
   2.100000      2.1197589E-11
   2.160000      2.7478549E-11
   2.220000      2.7407156E-11
   2.280000      2.1348569E-11
   2.340000      1.1154067E-11
   2.400000     -1.1539992E-12
   2.460000     -1.4620676E-11
   2.520000     -2.9721670E-11
   2.580000     -4.7467592E-11
   2.640000     -6.7551860E-11
   2.700000     -8.6471177E-11
   2.760000     -9.6777329E-11
   2.820000     -8.8285081E-11
   2.880000     -5.1262546E-11
   2.940000      1.9295093E-11
   3.000000      1.1983435E-10
   3.060000      2.3639804E-10
   3.120000      3.4567410E-10
   3.180000      4.1881479E-10
   3.240000      4.2691367E-10
   3.300000      3.4650038E-10
   3.360000      1.6355740E-10
   3.420000     -1.2472562E-10
   3.480000     -5.1031285E-10
   3.540000     -9.7593489E-10
   3.600000     -1.4968912E-09
   3.660000     -2.0423474E-09
   3.720000     -2.5761322E-09
   3.780000     -3.0576941E-09
   3.840000     -3.4441296E-09
   3.900000     -3.6939016E-09
   3.960000     -3.7721173E-09
   4.020000     -3.6563716E-09
   4.080000     -3.3415550E-09
   4.140000     -2.8419826E-09
   4.200000     -2.1897892E-09
   4.260000     -1.4295904E-09
   4.320000     -6.1056404E-10
   4.380000      2.2204677E-10
   4.440000      1.0337882E-09
   4.500000      1.8045128E-09
   4.560000      2.5279663E-09
   4.620000      3.2081475E-09
   4.680000      3.8541805E-09
   4.740000      4.4757784E-09
   4.800000      5.0809152E-09
   4.860000      5.6761680E-09
   4.920000      6.2689058E-09
   4.980000      6.8695627E-09
   5.040000      7.4921624E-09
   5.100000      8.1521261E-09
   5.160000      8.8617957E-09
   5.220000      9.6254755E-09
   5.280000      1.0436350E-08
   5.340000      1.1277060E-08
   5.400000      1.2124171E-08
   5.460000      1.2954962E-08
   5.520000      1.3753675E-08
   5.580000      1.4514476E-08
   5.640000      1.5239733E-08
   5.700000      1.5934464E-08
   5.760000      1.6599772E-08
   5.820000      1.7228713E-08
   5.880000      1.7807171E-08
   5.940000      1.8319895E-08
   6.000000      1.8759273E-08
   6.060000      1.9132768E-08
   6.120000      1.9465132E-08
   6.180000      1.9793507E-08
   6.240000      2.0156545E-08
   6.300000      2.0581375E-08
   6.360000      2.1073324E-08
   6.420000      2.1612410E-08
   6.480000      2.2157939E-08
   6.540000      2.2659620E-08
   6.600000      2.3071143E-08
   6.660000      2.3361759E-08
   6.720000      2.3522471E-08
   6.780000      2.3565825E-08
   6.840000      2.3520561E-08
   6.900000      2.3423864E-08
   6.960000      2.3313989E-08
   7.020000      2.3225141E-08
   7.080000      2.3184969E-08
   7.140000      2.3214016E-08
   7.200000      2.3325963E-08
   7.260000      2.3527866E-08
   7.320000      2.3820141E-08
   7.380000      2.4196765E-08
   7.440000      2.4646193E-08
   7.500000      2.5153341E-08
   7.560000      2.5702501E-08
   7.620000      2.6280599E-08
   7.680000      2.6879940E-08
   7.740000      2.7499675E-08
   7.800000      2.8145491E-08
   7.860000      2.8827303E-08
   7.920000      2.9555363E-08
   7.980000      3.0335567E-08
   8.040000      3.1165271E-08
   8.100000      3.2031114E-08
   8.160000      3.2910002E-08
   8.220000      3.3773681E-08
   8.280000      3.4595846E-08
   8.340000      3.5359658E-08
   8.400000      3.6062797E-08
   8.460000      3.6717793E-08
   8.520000      3.7347029E-08
   8.580000      3.7974015E-08
   8.640000      3.8614196E-08
   8.700000      3.9268869E-08
   8.760000      3.9924412E-08
   8.820000      4.0556401E-08
   8.880000      4.1135969E-08
   8.940000      4.1634735E-08
   9.000000      4.2025768E-08
   9.060000      4.2280636E-08
   9.120000      4.2365169E-08
   9.180000      4.2237826E-08
   9.240000      4.1853465E-08
   9.300000      4.1172335E-08
   9.360000      4.0171006E-08
   9.420000      3.8850253E-08
   9.480000      3.7235797E-08
   9.540000      3.5371009E-08
   9.600000      3.3304428E-08
   9.660000      3.1077491E-08
   9.720000      2.8717585E-08
   9.780000      2.6238855E-08
   9.840000      2.3649241E-08
   9.900000      2.0959412E-08
   9.960000      1.8188620E-08
   10.02000      1.5364773E-08
   10.08000      1.2519286E-08
   10.14000      9.6803348E-09
   10.20000      6.8687087E-09
   10.26000      4.0988954E-09
   10.32000      1.3847030E-09
   10.38000     -1.2540595E-09
   10.44000     -3.7882595E-09
   10.50000     -6.1823280E-09
   10.56000     -8.4029352E-09
   10.62000     -1.0429822E-08
   10.68000     -1.2263632E-08
   10.74000     -1.3926673E-08
   10.80000     -1.5455599E-08
   10.86000     -1.6888684E-08
   10.92000     -1.8252697E-08
   10.98000     -1.9554447E-08
   11.04000     -2.0779790E-08
   11.10000     -2.1899583E-08
   11.16000     -2.2879330E-08
   11.22000     -2.3688393E-08
   11.28000     -2.4305704E-08
   11.34000     -2.4721256E-08
   11.40000     -2.4934732E-08
   11.46000     -2.4953554E-08
   11.52000     -2.4791827E-08
   11.58000     -2.4470260E-08
   11.64000     -2.4015744E-08
   11.70000     -2.3459171E-08
   11.76000     -2.2831081E-08
   11.82000     -2.2156264E-08
   11.88000     -2.1449534E-08
   11.94000     -2.0714623E-08
   12.00000     -1.9946899E-08
   12.06000     -1.9138723E-08
   12.12000     -1.8285261E-08
   12.18000     -1.7388549E-08
   12.24000     -1.6458804E-08
   12.30000     -1.5513425E-08
   12.36000     -1.4574955E-08
   12.42000     -1.3669083E-08
   12.48000     -1.2822836E-08
   12.54000     -1.2062274E-08
   12.60000     -1.1409068E-08
   12.66000     -1.0876241E-08
   12.72000     -1.0464636E-08
   12.78000     -1.0162218E-08
   12.84000     -9.9474420E-09
   12.90000     -9.7959303E-09
   12.96000     -9.6876800E-09
   13.02000     -9.6112753E-09
   13.08000     -9.5629087E-09
   13.14000     -9.5408028E-09
   13.20000     -9.5384696E-09
   13.26000     -9.5413117E-09
   13.32000     -9.5295078E-09
   13.38000     -9.4866106E-09
   13.44000     -9.4096668E-09
   13.50000     -9.3150891E-09
   13.56000     -9.2360342E-09
   13.62000     -9.2111243E-09
   13.68000     -9.2688586E-09
   13.74000     -9.4145873E-09
   13.80000     -9.6260742E-09
   13.86000     -9.8597877E-09
   13.92000     -1.0065157E-08
   13.98000     -1.0200520E-08
   14.04000     -1.0244130E-08
   14.10000     -1.0196355E-08
   14.16000     -1.0073553E-08
   14.22000     -9.8977537E-09
   14.28000     -9.6875272E-09
   14.34000     -9.4538155E-09
   14.40000     -9.2012238E-09
   14.46000     -8.9321368E-09
   14.52000     -8.6497343E-09
   14.58000     -8.3571212E-09
   14.64000     -8.0526412E-09
   14.70000     -7.7242817E-09
   14.76000     -7.3473609E-09
   14.82000     -6.8885111E-09
   14.88000     -6.3158319E-09
   14.94000     -5.6116547E-09
   15.00000     -4.7823412E-09
   15.06000     -3.8602606E-09
   15.12000     -2.8963478E-09
   15.18000     -1.9458755E-09
   15.24000     -1.0533080E-09
   15.30000     -2.4256325E-10
   15.36000      4.8352328E-10
   15.42000      1.1350590E-09
   15.48000      1.7227546E-09
   15.54000      2.2475033E-09
   15.60000      2.6966127E-09
   15.66000      3.0478700E-09
   15.72000      3.2788110E-09
   15.78000      3.3763978E-09
   15.84000      3.3426863E-09
   15.90000      3.1945078E-09
   15.96000      2.9581955E-09
   16.02000      2.6623923E-09
   16.08000      2.3321642E-09
   16.14000      1.9862805E-09
   16.20000      1.6376170E-09
   16.26000      1.2952973E-09
   16.32000      9.6690511E-10
   16.38000      6.5976796E-10
   16.44000      3.8121281E-10
   16.50000      1.3832406E-10
   16.56000     -6.2208495E-11
   16.62000     -2.1386963E-10
   16.68000     -3.0980268E-10
   16.74000     -3.4226710E-10
   16.80000     -3.0236502E-10
   16.86000     -1.8029610E-10
   16.92000      3.3619451E-11
   16.98000      3.4700051E-10
   17.04000      7.6267254E-10
   17.10000      1.2757531E-09
   17.16000      1.8716346E-09
   17.22000      2.5260674E-09
   17.28000      3.2080589E-09
   17.34000      3.8852863E-09
   17.40000      4.5305404E-09
   17.46000      5.1270206E-09
   17.52000      5.6704423E-09
   17.58000      6.1670193E-09
   17.64000      6.6279453E-09
   17.70000      7.0623627E-09
   17.76000      7.4714022E-09
   17.82000      7.8454043E-09
   17.88000      8.1652045E-09
   17.94000      8.4068530E-09
   18.00000      8.5480405E-09
   18.06000      8.5741867E-09
   18.12000      8.4825649E-09
   18.18000      8.2838953E-09
   18.24000      8.0017664E-09
   18.30000      7.6708346E-09
   18.36000      7.3346711E-09
   18.42000      7.0435413E-09
   18.48000      6.8516788E-09
   18.54000      6.8132633E-09
   18.60000      6.9766273E-09
   18.66000      7.3771704E-09
   18.72000      8.0306508E-09
   18.78000      8.9292591E-09
   18.84000      1.0042636E-08
   18.90000      1.1324527E-08
   18.96000      1.2723598E-08
   19.02000      1.4194971E-08
   19.08000      1.5708242E-08
   19.14000      1.7248810E-08
   19.20000      1.8811956E-08
   19.26000      2.0392253E-08
   19.32000      2.1973174E-08
   19.38000      2.3521872E-08
   19.44000      2.4991994E-08
   19.50000      2.6333634E-08
   19.56000      2.7506164E-08
   19.62000      2.8487982E-08
   19.68000      2.9278450E-08
   19.74000      2.9890842E-08
   19.80000      3.0339326E-08
   19.86000      3.0626101E-08
   19.92000      3.0734949E-08
   19.98000      3.0634798E-08
   20.04000      3.0292338E-08
   20.10000      2.9688563E-08
   20.16000      2.8832357E-08
   20.22000      2.7765310E-08
   20.28000      2.6555954E-08
   20.34000      2.5285917E-08
   20.40000      2.4033717E-08
   20.46000      2.2862306E-08
   20.52000      2.1814037E-08
   20.58000      2.0913030E-08
   20.64000      2.0171498E-08
   20.70000      1.9595506E-08
   20.76000      1.9186745E-08
   20.82000      1.8939968E-08
   20.88000      1.8838616E-08
   20.94000      1.8852456E-08
   21.00000      1.8940080E-08
   21.06000      1.9056454E-08
   21.12000      1.9162693E-08
   21.18000      1.9233806E-08
   21.24000      1.9260940E-08
   21.30000      1.9247276E-08
   21.36000      1.9199902E-08
   21.42000      1.9121943E-08
   21.48000      1.9008887E-08
   21.54000      1.8850688E-08
   21.60000      1.8638108E-08
   21.66000      1.8369496E-08
   21.72000      1.8054122E-08
   21.78000      1.7710040E-08
   21.84000      1.7357483E-08
   21.90000      1.7011105E-08
   21.96000      1.6675051E-08
   22.02000      1.6343430E-08
   22.08000      1.6006224E-08
   22.14000      1.5658232E-08
   22.20000      1.5307256E-08
   22.26000      1.4978125E-08
   22.32000      1.4710655E-08
   22.38000      1.4551707E-08
   22.44000      1.4543432E-08
   22.50000      1.4710976E-08
   22.56000      1.5053319E-08
   22.62000      1.5540325E-08
   22.68000      1.6117648E-08
   22.74000      1.6718829E-08
   22.80000      1.7281353E-08
   22.86000      1.7761542E-08
   22.92000      1.8142785E-08
   22.98000      1.8433591E-08
   23.04000      1.8655644E-08
   23.10000      1.8826446E-08
   23.16000      1.8943828E-08
   23.22000      1.8979513E-08
   23.28000      1.8885375E-08
   23.34000      1.8610359E-08
   23.40000      1.8121181E-08
   23.46000      1.7417646E-08
   23.52000      1.6535733E-08
   23.58000      1.5536942E-08
   23.64000      1.4488805E-08
   23.70000      1.3445475E-08
   23.76000      1.2437127E-08
   23.82000      1.1472364E-08
   23.88000      1.0551287E-08
   23.94000      9.6816146E-09
   24.00000      8.8888648E-09
   24.06000      8.2149381E-09
   24.12000      7.7057329E-09
   24.18000      7.3943425E-09
   24.24000      7.2889468E-09
   24.30000      7.3720923E-09
   24.36000      7.6121083E-09
   24.42000      7.9808151E-09
   24.48000      8.4681231E-09
   24.54000      9.0854950E-09
   24.60000      9.8558814E-09
   24.66000      1.0794914E-08
   24.72000      1.1892837E-08
   24.78000      1.3106612E-08
   24.84000      1.4366602E-08
   24.90000      1.5594965E-08
   24.96000      1.6726997E-08
   25.02000      1.7725355E-08
   25.08000      1.8580881E-08
   25.14000      1.9300652E-08
   25.20000      1.9890271E-08
   25.26000      2.0339996E-08
   25.32000      2.0621897E-08
   25.38000      2.0699213E-08
   25.44000      2.0542775E-08
   25.50000      2.0145958E-08
   25.56000      1.9530662E-08
   25.62000      1.8741591E-08
   25.68000      1.7831777E-08
   25.74000      1.6846123E-08
   25.80000      1.5809931E-08
   25.86000      1.4726363E-08
   25.92000      1.3582477E-08
   25.98000      1.2360029E-08
   26.04000      1.1046263E-08
   26.10000      9.6410684E-09
   26.16000      8.1591818E-09
   26.22000      6.6280403E-09
   26.28000      5.0828288E-09
   26.34000      3.5602379E-09
   26.40000      2.0922697E-09
   26.46000      7.0142347E-10
   26.52000     -6.0130684E-10
   26.58000     -1.8145955E-09
   26.64000     -2.9413978E-09
   26.70000     -3.9821582E-09
   26.76000     -4.9301363E-09
   26.82000     -5.7720011E-09
   26.88000     -6.4944943E-09
   26.94000     -7.0943762E-09
   27.00000     -7.5861788E-09
   27.06000     -8.0022664E-09
   27.12000     -8.3829850E-09
   27.18000     -8.7599368E-09
   27.24000     -9.1398942E-09
   27.30000     -9.4978576E-09
   27.36000     -9.7841815E-09
   27.42000     -9.9439976E-09
   27.48000     -9.9406101E-09
   27.54000     -9.7717701E-09
   27.60000     -9.4705319E-09
   27.66000     -9.0896668E-09
   27.72000     -8.6768361E-09
   27.78000     -8.2525444E-09
   27.84000     -7.8017948E-09
   27.90000     -7.2835871E-09
   27.96000     -6.6534738E-09
   28.02000     -5.8877982E-09
   28.08000     -4.9975193E-09
   28.14000     -4.0249586E-09
   28.20000     -3.0255816E-09
   28.26000     -2.0444917E-09
   28.32000     -1.0997075E-09
   28.38000     -1.8045369E-10
   28.44000      7.3931833E-10
   28.50000      1.6798249E-09
   28.56000      2.6380953E-09
   28.62000      3.5834691E-09
   28.68000      4.4681885E-09
   28.74000      5.2476068E-09
   28.80000      5.8998322E-09
   28.86000      6.4351910E-09
   28.92000      6.8911978E-09
   28.98000      7.3158137E-09
   29.04000      7.7471558E-09
   29.10000      8.1990468E-09
   29.16000      8.6585512E-09
   29.22000      9.0959080E-09
   29.28000      9.4817167E-09
   29.34000      9.8034212E-09
   29.40000      1.0073915E-08
   29.46000      1.0328786E-08
   29.52000      1.0613611E-08
   29.58000      1.0966692E-08
   29.64000      1.1404312E-08
   29.70000      1.1914532E-08
   29.76000      1.2462073E-08
   29.82000      1.3002561E-08
   29.88000      1.3500499E-08
   29.94000      1.3943804E-08
   30.00000      1.4348778E-08
   30.06000      1.4753230E-08
   30.12000      1.5200333E-08
   30.18000      1.5719824E-08
   30.24000      1.6314385E-08
   30.30000      1.6956937E-08
   30.36000      1.7599742E-08
   30.42000      1.8191059E-08
   30.48000      1.8691996E-08
   30.54000      1.9086508E-08
   30.60000      1.9381106E-08
   30.66000      1.9595822E-08
   30.72000      1.9751779E-08
   30.78000      1.9861588E-08
   30.84000      1.9926544E-08
   30.90000      1.9940559E-08
   30.96000      1.9897344E-08
   31.02000      1.9796083E-08
   31.08000      1.9642329E-08
   31.14000      1.9443943E-08
   31.20000      1.9204807E-08
   31.26000      1.8920142E-08
   31.32000      1.8576316E-08
   31.38000      1.8155504E-08
   31.44000      1.7643112E-08
   31.50000      1.7034626E-08
   31.56000      1.6339120E-08
   31.62000      1.5578358E-08
   31.68000      1.4782369E-08
   31.74000      1.3983620E-08
   31.80000      1.3211903E-08
   31.86000      1.2491267E-08
   31.92000      1.1839252E-08
   31.98000      1.1267871E-08
   32.04000      1.0785532E-08
   32.10000      1.0399051E-08
   32.16000      1.0114964E-08
   32.22000      9.9392601E-09
   32.28000      9.8748618E-09
   32.34000      9.9168815E-09
   32.40000      1.0046880E-08
   32.46000      1.0228657E-08
   32.52000      1.0408582E-08
   32.58000      1.0522314E-08
   32.64000      1.0507217E-08
   32.70000      1.0316684E-08
   32.76000      9.9306963E-09
   32.82000      9.3578816E-09
   32.88000      8.6277678E-09
   32.94000      7.7768831E-09
   33.00000      6.8358337E-09
   33.06000      5.8244960E-09
   33.12000      4.7584621E-09
   33.18000      3.6635486E-09
   33.24000      2.5900482E-09
   33.30000      1.6173726E-09
   33.36000      8.4394958E-10
   33.42000      3.6472775E-10
   33.48000      2.4548633E-10
   33.54000      5.0550009E-10
   33.60000      1.1164051E-09
   33.66000      2.0171187E-09
   33.72000      3.1366272E-09
   33.78000      4.4127701E-09
   33.84000      5.7978857E-09
   33.90000      7.2498230E-09
   33.96000      8.7152046E-09
   34.02000      1.0116253E-08
   34.08000      1.1350599E-08
   34.14000      1.2306372E-08
   34.20000      1.2886470E-08
   34.26000      1.3030893E-08
   34.32000      1.2726910E-08
   34.38000      1.2003050E-08
   34.44000      1.0910885E-08
   34.50000      9.5040917E-09
   34.56000      7.8245810E-09
   34.62000      5.9007834E-09
   34.68000      3.7564964E-09
   34.74000      1.4234900E-09
   34.80000     -1.0498438E-09
   34.86000     -3.5983256E-09
   34.92000     -6.1476939E-09
   34.98000     -8.6255403E-09
   35.04000     -1.0970027E-08
   35.10000     -1.3133342E-08
   35.16000     -1.5080534E-08
   35.22000     -1.6786810E-08
   35.28000     -1.8236232E-08
   35.34000     -1.9422201E-08
   35.40000     -2.0347400E-08
   35.46000     -2.1020096E-08
   35.52000     -2.1445814E-08
   35.58000     -2.1617284E-08
   35.64000     -2.1508596E-08
   35.70000     -2.1079137E-08
   35.76000     -2.0288587E-08
   35.82000     -1.9117945E-08
   35.88000     -1.7586851E-08
   35.94000     -1.5757617E-08
   36.00000     -1.3722039E-08
   36.06000     -1.1575829E-08
   36.12000     -9.3925268E-09
   36.18000     -7.2098891E-09
   36.24000     -5.0359250E-09
   36.30000     -2.8715279E-09
   36.36000     -7.3767265E-10
   36.42000      1.3076703E-09
   36.48000      3.1725673E-09
   36.54000      4.7533035E-09
   36.60000      5.9649117E-09
   36.66000      6.7651755E-09
   36.72000      7.1612640E-09
   36.78000      7.1978050E-09
   36.84000      6.9348922E-09
   36.90000      6.4288121E-09
   36.96000      5.7250347E-09
   37.02000      4.8645381E-09
   37.08000      3.8961221E-09
   37.14000      2.8839742E-09
   37.20000      1.9032085E-09
   37.26000      1.0240748E-09
   37.32000      2.9304931E-10
   37.38000     -2.7845476E-10
   37.44000     -7.1091916E-10
   37.50000     -1.0402199E-09
   37.56000     -1.2962513E-09
   37.62000     -1.4876606E-09
   37.68000     -1.6001298E-09
   37.74000     -1.6082301E-09
   37.80000     -1.4937868E-09
   37.86000     -1.2608383E-09
   37.92000     -9.3977115E-10
   37.98000     -5.7935740E-10
   38.04000     -2.3154298E-10
   38.10000      6.3321508E-11
   38.16000      2.8461589E-10
   38.22000      4.3122705E-10
   38.28000      5.1570453E-10
   38.34000      5.5748173E-10
   38.40000      5.7857247E-10
   38.46000      6.0194377E-10
   38.52000      6.5019035E-10
   38.58000      7.4191270E-10
   38.64000      8.8551838E-10
   38.70000      1.0732749E-09
   38.76000      1.2800053E-09
   38.82000      1.4693221E-09
   38.88000      1.6062864E-09
   38.94000      1.6711682E-09
   39.00000      1.6672698E-09
   39.06000      1.6180753E-09
   39.12000      1.5543826E-09
   39.18000      1.4976844E-09
   39.24000      1.4486101E-09
   39.30000      1.3869856E-09
   39.36000      1.2839514E-09
   39.42000      1.1199315E-09
   39.48000      8.9879898E-10
   39.54000      6.5045502E-10
   39.60000      4.2032122E-10
   39.66000      2.5146449E-10
   39.72000      1.6912538E-10
   39.78000      1.7593016E-10
   39.84000      2.5984187E-10
   39.90000      4.0950709E-10
   39.96000      6.2740646E-10
   40.02000      9.3258445E-10
   40.08000      1.3510243E-09
   40.14000      1.8992303E-09
   40.20000      2.5709177E-09
   40.26000      3.3352174E-09
   40.32000      4.1483013E-09
   40.38000      4.9724505E-09
   40.44000      5.7919807E-09
   40.50000      6.6167267E-09
   40.56000      7.4704420E-09
   40.62000      8.3697245E-09
   40.68000      9.3044052E-09
   40.74000      1.0229829E-08
   40.80000      1.1075394E-08
   40.86000      1.1765517E-08
   40.92000      1.2243146E-08
   40.98000      1.2485076E-08
   41.04000      1.2502772E-08
   41.10000      1.2329490E-08
   41.16000      1.2000641E-08
   41.22000      1.1536586E-08
   41.28000      1.0934974E-08
   41.34000      1.0174894E-08
   41.40000      9.2299812E-09
   41.46000      8.0846023E-09
   41.52000      6.7468799E-09
   41.58000      5.2541713E-09
   41.64000      3.6694838E-09
   41.70000      2.0700028E-09
   41.76000      5.3102739E-10
   41.82000     -8.9017338E-10
   41.88000     -2.1657942E-09
   41.94000     -3.3003864E-09
   42.00000     -4.3237529E-09
   42.06000     -5.2756932E-09
   42.12000     -6.1877783E-09
   42.18000     -7.0690187E-09
   42.24000     -7.9013560E-09
   42.30000     -8.6472056E-09
   42.36000     -9.2661656E-09
   42.42000     -9.7338404E-09
   42.48000     -1.0054472E-08
   42.54000     -1.0261640E-08
   42.60000     -1.0406764E-08
   42.66000     -1.0540712E-08
   42.72000     -1.0697104E-08
   42.78000     -1.0884959E-08
   42.84000     -1.1093643E-08
   42.90000     -1.1306894E-08
   42.96000     -1.1518234E-08
   43.02000     -1.1739543E-08
   43.08000     -1.1998297E-08
   43.14000     -1.2325089E-08
   43.20000     -1.2738174E-08
   43.26000     -1.3233338E-08
   43.32000     -1.3784427E-08
   43.38000     -1.4354164E-08
   43.44000     -1.4909464E-08
   43.50000     -1.5433464E-08
   43.56000     -1.5928766E-08
   43.62000     -1.6411519E-08
   43.68000     -1.6901016E-08
   43.74000     -1.7411304E-08
   43.80000     -1.7949283E-08
   43.86000     -1.8519126E-08
   43.92000     -1.9128850E-08
   43.98000     -1.9793664E-08
   44.04000     -2.0533252E-08
   44.10000     -2.1364450E-08
   44.16000     -2.2293914E-08
   44.22000     -2.3315565E-08
   44.28000     -2.4414506E-08
   44.34000     -2.5575039E-08
   44.40000     -2.6787900E-08
   44.46000     -2.8052579E-08
   44.52000     -2.9373879E-08
   44.58000     -3.0755533E-08
   44.64000     -3.2195235E-08
   44.70000     -3.3684206E-08
   44.76000     -3.5210949E-08
   44.82000     -3.6766203E-08
   44.88000     -3.8345465E-08
   44.94000     -3.9947523E-08
   45.00000     -4.1570459E-08
   45.06000     -4.3208455E-08
   45.12000     -4.4851973E-08
   45.18000     -4.6491305E-08
   45.24000     -4.8120494E-08
   45.30000     -4.9737828E-08
   45.36000     -5.1341090E-08
   45.42000     -5.2919262E-08
   45.48000     -5.4445657E-08
   45.54000     -5.5877621E-08
   45.60000     -5.7165206E-08
   45.66000     -5.8266238E-08
   45.72000     -5.9161088E-08
   45.78000     -5.9859474E-08
   45.84000     -6.0394967E-08
   45.90000     -6.0808773E-08
   45.96000     -6.1129931E-08
   46.02000     -6.1361725E-08
   46.08000     -6.1481103E-08
   46.14000     -6.1451665E-08
   46.20000     -6.1243298E-08
   46.26000     -6.0847910E-08
   46.32000     -6.0282360E-08
   46.38000     -5.9576461E-08
   46.44000     -5.8752139E-08
   46.50000     -5.7804890E-08
   46.56000     -5.6697335E-08
   46.62000     -5.5367877E-08
   46.68000     -5.3748597E-08
   46.74000     -5.1780958E-08
   46.80000     -4.9419079E-08
   46.86000     -4.6617167E-08
   46.92000     -4.3306784E-08
   46.98000     -3.9375035E-08
   47.04000     -3.4653848E-08
   47.10000     -2.8923754E-08
   47.16000     -2.1927212E-08
   47.22000     -1.3381338E-08
   47.28000     -2.9807028E-09
   47.34000      9.6133617E-09
   47.40000      2.4793557E-08
   47.46000      4.3030042E-08
   47.52000      6.4889612E-08
   47.58000      9.1048385E-08
   47.64000      1.2230096E-07
   47.70000      1.5957181E-07
   47.76000      2.0393377E-07
   47.82000      2.5663496E-07
   47.88000      3.1913115E-07
   47.94000      3.9311885E-07
   48.00000      4.8056586E-07
   48.06000      5.8373894E-07
   48.12000      7.0523339E-07
   48.18000      8.4801070E-07
   48.24000      1.0154466E-06
   48.30000      1.2113936E-06
   48.36000      1.4402493E-06
   48.42000      1.7070280E-06
   48.48000      2.0174275E-06
   48.54000      2.3778923E-06
   48.60000      2.7956796E-06
   48.66000      3.2789378E-06
   48.72000      3.8368012E-06
   48.78000      4.4795033E-06
   48.84000      5.2184969E-06
   48.90000      6.0665766E-06
   48.96000      7.0379933E-06
   49.02000      8.1485514E-06
   49.08000      9.4157140E-06
   49.14000      1.0858704E-05
   49.20000      1.2498626E-05
   49.26000      1.4358598E-05
   49.32000      1.6463884E-05
   49.38000      1.8842029E-05
   49.44000      2.1522974E-05
   49.50000      2.4539166E-05
   49.56000      2.7925658E-05
   49.62000      3.1720196E-05
   49.68000      3.5963309E-05
   49.74000      4.0698385E-05
   49.80000      4.5971705E-05
   49.86000      5.1832470E-05
   49.92000      5.8332782E-05
   49.98000      6.5527631E-05
   50.04000      7.3474803E-05
   50.10000      8.2234867E-05
   50.16000      9.1870992E-05
   50.22000      1.0244885E-04
   50.28000      1.1403638E-04
   50.34000      1.2670360E-04
   50.40000      1.4052220E-04
   50.46000      1.5556529E-04
   50.52000      1.7190697E-04
   50.58000      1.8962187E-04
   50.64000      2.0878475E-04
   50.70000      2.2946988E-04
   50.76000      2.5175061E-04
   50.82000      2.7569869E-04
   50.88000      3.0138376E-04
   50.94000      3.2887235E-04
   51.00000      3.5822741E-04
   51.06000      3.8950745E-04
   51.12000      4.2276568E-04
   51.18000      4.5804938E-04
   51.24000      4.9539906E-04
   51.30000      5.3484750E-04
   51.36000      5.7641958E-04
   51.42000      6.2013074E-04
   51.48000      6.6598697E-04
   51.54000      7.1398367E-04
   51.60000      7.6410512E-04
   51.66000      8.1632409E-04
   51.72000      8.7060122E-04
   51.78000      9.2688476E-04
   51.84000      9.8510983E-04
   51.90000      1.0451990E-03
   51.96000      1.1070614E-03
   52.02000      1.1705935E-03
   52.08000      1.2356789E-03
   52.14000      1.3021885E-03
   52.20000      1.3699813E-03
   52.26000      1.4389053E-03
   52.32000      1.5087973E-03
   52.38000      1.5794847E-03
   52.44000      1.6507861E-03
   52.50000      1.7225121E-03
   52.56000      1.7944664E-03
   52.62000      1.8664480E-03
   52.68000      1.9382521E-03
   52.74000      2.0096723E-03
   52.80000      2.0805015E-03
   52.86000      2.1505344E-03
   52.92000      2.2195682E-03
   52.98000      2.2874046E-03
   53.04000      2.3538517E-03
   53.10000      2.4187253E-03
   53.16000      2.4818513E-03
   53.22000      2.5430671E-03
   53.28000      2.6022231E-03
   53.34000      2.6591839E-03
   53.40000      2.7138293E-03
   53.46000      2.7660562E-03
   53.52000      2.8157786E-03
   53.58000      2.8629284E-03
   53.64000      2.9074573E-03
   53.70000      2.9493368E-03
   53.76000      2.9885576E-03
   53.82000      3.0251304E-03
   53.88000      3.0590848E-03
   53.94000      3.0904687E-03
   54.00000      3.1193490E-03
   54.06000      3.1458088E-03
   54.12000      3.1699489E-03
   54.18000      3.1918848E-03
   54.24000      3.2117462E-03
   54.30000      3.2296740E-03
   54.36000      3.2458196E-03
   54.42000      3.2603433E-03
   54.48000      3.2734107E-03
   54.54000      3.2851924E-03
   54.60000      3.2958617E-03
   54.66000      3.3055914E-03
   54.72000      3.3145545E-03
   54.78000      3.3229194E-03
   54.84000      3.3308489E-03
   54.90000      3.3384974E-03
   54.96000      3.3460103E-03
   55.02000      3.3535219E-03
   55.08000      3.3611543E-03
   55.14000      3.3690147E-03
   55.20000      3.3771957E-03
   55.26000      3.3857750E-03
   55.32000      3.3948126E-03
   55.38000      3.4043510E-03
   55.44000      3.4144162E-03
   55.50000      3.4250163E-03
   55.56000      3.4361409E-03