  -2.400000      0.0000000E+00
  -2.340000      0.0000000E+00
  -2.280000      0.0000000E+00
  -2.220000      0.0000000E+00
  -2.160000      0.0000000E+00
  -2.100000      0.0000000E+00
  -2.040000      0.0000000E+00
  -1.980000      0.0000000E+00
  -1.920000      0.0000000E+00
  -1.860000      0.0000000E+00
  -1.800000      1.2738204E-30
  -1.740000      1.7808530E-29
  -1.680000      1.1506529E-28
  -1.620000      4.1774735E-28
  -1.560000      6.5711955E-28
  -1.500000     -1.8041066E-27
  -1.440000     -1.5898173E-26
  -1.380000     -5.7263222E-26
  -1.320000     -1.2595189E-25
  -1.260000     -1.3330789E-25
  -1.200000      2.1106698E-25
  -1.140000      1.3992684E-24
  -1.080000      3.6473035E-24
  -1.020000      5.5741365E-24
 -0.9600000      2.4269619E-24
 -0.9000000     -1.3907921E-23
 -0.8400000     -4.8863865E-23
 -0.7800000     -8.9873263E-23
 -0.7200000     -8.6854494E-23
 -0.6600000      4.9970410E-23
 -0.6000000      3.9896886E-22
 -0.5400000      8.9828755E-22
 -0.4800000      1.1784232E-21
 -0.4200000      5.0695554E-22
 -0.3600000     -1.9142587E-21
 -0.3000000     -6.1308906E-21
 -0.2400000     -1.0290949E-20
 -0.1800000     -9.9787184E-21
 -0.1200000      6.6978794E-22
 -5.9999999E-02  2.5043035E-20
  0.0000000E+00  5.7910197E-20
  5.9999999E-02  8.0408547E-20
  0.1200000      6.1915716E-20
  0.1800000     -2.6000515E-20
  0.2400000     -1.8411056E-19
  0.3000000     -3.5947447E-19
  0.3600000     -4.3964112E-19
  0.4200000     -2.8839763E-19
  0.4800000      1.7235174E-19
  0.5400000      8.6309907E-19
  0.6000000      1.4926201E-18
  0.6600000      1.6212530E-18
  0.7200000      8.7256708E-19
  0.7800000     -7.6776625E-19
  0.8400000     -2.7319133E-18
  0.9000000     -3.9391429E-18
  0.9600000     -3.2774490E-18
   1.020000     -3.8676337E-19
   1.080000      3.6589453E-18
   1.140000      6.3394134E-18
   1.200000      4.7568882E-18
   1.260000     -2.3567174E-18
   1.320000     -1.2612498E-17
   1.380000     -1.9399088E-17
   1.440000     -1.4090039E-17
   1.500000      8.8638036E-18
   1.560000      4.5808303E-17
   1.620000      8.0374467E-17
   1.680000      8.6546657E-17
   1.740000      4.0102639E-17
   1.800000     -6.4328844E-17
   1.860000     -1.9853326E-16
   1.920000     -2.9903524E-16
   1.980000     -2.8661078E-16
   2.040000     -1.0602887E-16
   2.100000      2.2800793E-16
   2.160000      6.0362003E-16
   2.220000      8.2896928E-16
   2.280000      7.0527177E-16
   2.340000      1.3881466E-16
   2.400000     -7.5590951E-16
   2.460000     -1.6265153E-15
   2.520000     -1.9768218E-15
   2.580000     -1.3847953E-15
   2.640000      2.2769601E-16
   2.700000      2.4059156E-15
   2.760000      4.1952034E-15
   2.820000      4.4670913E-15
   2.880000      2.4708436E-15
   2.940000     -1.6117756E-15
   3.000000     -6.4171026E-15
   3.060000     -9.7067231E-15
   3.120000     -9.2611152E-15
   3.180000     -4.0721621E-15
   3.240000      4.7193804E-15
   3.300000      1.3740954E-14
   3.360000      1.8483455E-14
   3.420000      1.5350851E-14
   3.480000      3.8423608E-15
   3.540000     -1.2282055E-14
   3.600000     -2.5791543E-14
   3.660000     -2.8873693E-14
   3.720000     -1.7159375E-14
   3.780000      6.9772378E-15
   3.840000      3.3830906E-14
   3.900000      4.9550584E-14
   3.960000      4.2401910E-14
   4.020000      9.5675726E-15
   4.080000     -3.8999423E-14
   4.140000     -8.2459897E-14
   4.200000     -9.7136539E-14
   4.260000     -6.7991463E-14
   4.320000      1.6486511E-15
   4.380000      8.7565426E-14
   4.440000      1.5221847E-13
   4.500000      1.6069256E-13
   4.560000      9.8609272E-14
   4.620000     -1.6733353E-14
   4.680000     -1.3899948E-13
   4.740000     -2.1055953E-13
   4.800000     -1.8922654E-13
   4.860000     -7.2163887E-14
   4.920000      9.5599737E-14
   4.980000      2.3513540E-13
   5.040000      2.6714465E-13
   5.100000      1.5187532E-13
   5.160000     -8.3207055E-14
   5.220000     -3.4377186E-13
   5.280000     -5.0173272E-13
   5.340000     -4.5074651E-13
   5.400000     -1.6131621E-13
   5.460000      2.9064812E-13
   5.520000      7.3937590E-13
   5.580000      9.8839318E-13
   5.640000      8.9253496E-13
   5.700000      4.2883064E-13
   5.760000     -2.7690353E-13
   5.820000     -9.8483287E-13
   5.880000     -1.4286478E-12
   5.940000     -1.4228413E-12
   6.000000     -9.4470699E-13
   6.060000     -1.5316794E-13
   6.120000      6.6868619E-13
   6.180000      1.2277136E-12
   6.240000      1.3451180E-12
   6.300000      1.0365560E-12
   6.360000      5.0883440E-13
   6.420000      6.8187751E-14
   6.480000     -2.5784049E-14
   6.540000      3.0078441E-13
   6.600000      8.6772673E-13
   6.660000      1.2821236E-12
   6.720000      1.0841691E-12
   6.780000     -5.2264467E-14
   6.840000     -2.1411596E-12
   6.900000     -4.8012744E-12
   6.960000     -7.3078817E-12
   7.020000     -8.7678389E-12
   7.080000     -8.3598926E-12
   7.140000     -5.5601825E-12
   7.200000     -2.8551247E-13
   7.260000      7.0716840E-12
   7.320000      1.5692770E-11
   7.380000      2.4409953E-11
   7.440000      3.1757780E-11
   7.500000      3.5988195E-11
   7.560000      3.5101019E-11
   7.620000      2.6991652E-11
   7.680000      9.8213547E-12
   7.740000     -1.7345616E-11
   7.800000     -5.3710113E-11
   7.860000     -9.5917919E-11
   7.920000     -1.3755619E-10
   7.980000     -1.6928400E-10
   8.040000     -1.7981609E-10
   8.100000     -1.5778241E-10
   8.160000     -9.4243800E-11
   8.220000      1.4572371E-11
   8.280000      1.6487232E-10
   8.340000      3.4376751E-10
   8.400000      5.2899674E-10
   8.460000      6.9002926E-10
   8.520000      7.9041207E-10
   8.580000      7.9101958E-10
   8.640000      6.5376210E-10
   8.700000      3.4532721E-10
   8.760000     -1.5937006E-10
   8.820000     -8.7423496E-10
   8.880000     -1.7996575E-09
   8.940000     -2.9209035E-09
   9.000000     -4.2073820E-09
   9.060000     -5.6130105E-09
   9.120000     -7.0778983E-09
   9.180000     -8.5315008E-09
   9.240000     -9.8971844E-09
   9.300000     -1.1097907E-08
   9.360000     -1.2062418E-08
   9.420000     -1.2731291E-08
   9.480000     -1.3062008E-08
   9.540000     -1.3032572E-08
   9.600000     -1.2643302E-08
   9.660000     -1.1916851E-08
   9.720000     -1.0896608E-08
   9.780000     -9.6437889E-09
   9.840000     -8.2333740E-09
   9.900000     -6.7490142E-09
   9.960000     -5.2769096E-09
   10.02000     -3.8988288E-09
   10.08000     -2.6847333E-09
   10.14000     -1.6858782E-09
   10.20000     -9.2957930E-10
   10.26000     -4.1687032E-10
   10.32000     -1.2389491E-10
   10.38000     -7.1268668E-12
   10.44000     -1.1572083E-11
   10.50000     -8.0292190E-11
   10.56000     -1.6320310E-10
   10.62000     -2.2331333E-10
   10.68000     -2.3933691E-10
   10.74000     -2.0469164E-10
   10.80000     -1.2390175E-10
   10.86000     -8.0153497E-12
   10.92000      1.2937351E-10
   10.98000      2.7449393E-10
   11.04000      4.1404688E-10
   11.10000      5.3485338E-10
   11.16000      6.2365663E-10
   11.22000      6.6810796E-10
   11.28000      6.5934469E-10
   11.34000      5.9570859E-10
   11.40000      4.8641591E-10
   11.46000      3.5367109E-10
   11.52000      2.3197501E-10
   11.58000      1.6412631E-10
   11.64000      1.9441708E-10
   11.70000      3.6042383E-10
   11.76000      6.8530470E-10
   11.82000      1.1724685E-09
   11.88000      1.8039197E-09
   11.94000      2.5426947E-09
   12.00000      3.3388621E-09
   12.06000      4.1378319E-09
   12.12000      4.8893285E-09
   12.18000      5.5553890E-09
   12.24000      6.1160330E-09
   12.30000      6.5716992E-09
   12.36000      6.9420705E-09
   12.42000      7.2613977E-09
   12.48000      7.5709696E-09
   12.54000      7.9098514E-09
   12.60000      8.3055189E-09
   12.66000      8.7662873E-09
   12.72000      9.2774668E-09
   12.78000      9.8026778E-09
   12.84000      1.0290775E-08
   12.90000      1.0687456E-08
   12.96000      1.0949166E-08
   13.02000      1.1055840E-08
   13.08000      1.1018797E-08
   13.14000      1.0880964E-08
   13.20000      1.0708463E-08
   13.26000      1.0575153E-08
   13.32000      1.0543955E-08
   13.38000      1.0650202E-08
   13.44000      1.0892078E-08
   13.50000      1.1231282E-08
   13.56000      1.1604111E-08
   13.62000      1.1939806E-08
   13.68000      1.2180627E-08
   13.74000      1.2297495E-08
   13.80000      1.2296367E-08
   13.86000      1.2213549E-08
   13.92000      1.2101778E-08
   13.98000      1.2011830E-08
   14.04000      1.1975776E-08
   14.10000      1.1997226E-08
   14.16000      1.2051355E-08
   14.22000      1.2094173E-08
   14.28000      1.2077489E-08
   14.34000      1.1964329E-08
   14.40000      1.1739822E-08
   14.46000      1.1414374E-08
   14.52000      1.1018687E-08
   14.58000      1.0592821E-08
   14.64000      1.0173169E-08
   14.70000      9.7814397E-09
   14.76000      9.4186854E-09
   14.82000      9.0655323E-09
   14.88000      8.6878416E-09
   14.94000      8.2456353E-09
   15.00000      7.7026323E-09
   15.06000      7.0340689E-09
   15.12000      6.2313537E-09
   15.18000      5.3031544E-09
   15.24000      4.2732999E-09
   15.30000      3.1764349E-09
   15.36000      2.0525004E-09
   15.42000      9.4108199E-10
   15.48000     -1.2351584E-10
   15.54000     -1.1158420E-09
   15.60000     -2.0211730E-09
   15.66000     -2.8356473E-09
   15.72000     -3.5649257E-09
   15.78000     -4.2218806E-09
   15.84000     -4.8239119E-09
   15.90000     -5.3904148E-09
   15.96000     -5.9407008E-09
   16.02000     -6.4923737E-09
   16.08000     -7.0599091E-09
   16.14000     -7.6530720E-09
   16.20000     -8.2749434E-09
   16.26000     -8.9196055E-09
   16.32000     -9.5700283E-09
   16.38000     -1.0197080E-08
   16.44000     -1.0760811E-08
   16.50000     -1.1214930E-08
   16.56000     -1.1514645E-08
   16.62000     -1.1626940E-08
   16.68000     -1.1541103E-08
   16.74000     -1.1276398E-08
   16.80000     -1.0883756E-08
   16.86000     -1.0439370E-08
   16.92000     -1.0030231E-08
   16.98000     -9.7342561E-09
   17.04000     -9.5999679E-09
   17.10000     -9.6317079E-09
   17.16000     -9.7854480E-09
   17.22000     -9.9775690E-09
   17.28000     -1.0105001E-08
   17.34000     -1.0071375E-08
   17.40000     -9.8115578E-09
   17.46000     -9.3071382E-09
   17.52000     -8.5881489E-09
   17.58000     -7.7207494E-09
   17.64000     -6.7851493E-09
   17.70000     -5.8512462E-09
   17.76000     -4.9599862E-09
   17.82000     -4.1163060E-09
   17.88000     -3.2953458E-09
   17.94000     -2.4590119E-09
   18.00000     -1.5764677E-09
   18.06000     -6.4096328E-10
   18.12000      3.2309988E-10
   18.18000      1.2654079E-09
   18.24000      2.1254385E-09
   18.30000      2.8531044E-09
   18.36000      3.4270533E-09
   18.42000      3.8640824E-09
   18.48000      4.2160671E-09
   18.54000      4.5549600E-09
   18.60000      4.9503805E-09
   18.66000      5.4468110E-09
   18.72000      6.0476326E-09
   18.78000      6.7111792E-09
   18.84000      7.3603128E-09
   18.90000      7.9029299E-09
   18.96000      8.2575395E-09
   19.02000      8.3765208E-09
   19.08000      8.2603506E-09
   19.14000      7.9586542E-09
   19.20000      7.5577287E-09
   19.26000      7.1580049E-09
   19.32000      6.8478485E-09
   19.38000      6.6810903E-09
   19.44000      6.6646173E-09
   19.50000      6.7593899E-09
   19.56000      6.8942803E-09
   19.62000      6.9883788E-09
   19.68000      6.9750072E-09
   19.74000      6.8203549E-09
   19.80000      6.5315122E-09
   19.86000      6.1520860E-09
   19.92000      5.7474034E-09
   19.98000      5.3843756E-09
   20.04000      5.1124314E-09
   20.10000      4.9512043E-09
   20.16000      4.8881845E-09
   20.22000      4.8861568E-09
   20.28000      4.8970898E-09
   20.34000      4.8772462E-09
   20.40000      4.7982773E-09
   20.46000      4.6508881E-09
   20.52000      4.4406647E-09
   20.58000      4.1786978E-09
   20.64000      3.8715560E-09
   20.70000      3.5152492E-09
   20.76000      3.0960232E-09
   20.82000      2.5978870E-09
   20.88000      2.0138866E-09
   20.94000      1.3564139E-09
   21.00000      6.6199340E-10
   21.06000     -1.2089789E-11
   21.12000     -5.9899591E-10
   21.18000     -1.0381235E-09
   21.24000     -1.2904217E-09
   21.30000     -1.3480483E-09
   21.36000     -1.2348631E-09
   21.42000     -9.9716913E-10
   21.48000     -6.8736894E-10
   21.54000     -3.4572864E-10
   21.60000      1.3643883E-11
   21.66000      4.0762699E-10
   21.72000      8.7765401E-10
   21.78000      1.4737475E-09
   21.84000      2.2341184E-09
   21.90000      3.1671084E-09
   21.96000      4.2415915E-09
   22.02000      5.3891220E-09
   22.08000      6.5171260E-09
   22.14000      7.5287918E-09
   22.20000      8.3432914E-09
   22.26000      8.9102130E-09
   22.32000      9.2143884E-09
   22.38000      9.2706491E-09
   22.44000      9.1112291E-09
   22.50000      8.7704546E-09
   22.56000      8.2715577E-09
   22.62000      7.6190760E-09
   22.68000      6.7981096E-09
   22.74000      5.7794383E-09
   22.80000      4.5280277E-09
   22.86000      3.0120830E-09
   22.92000      1.2104067E-09
   22.98000     -8.8295887E-10
   23.04000     -3.2566476E-09
   23.10000     -5.8816023E-09
   23.16000     -8.7115897E-09
   23.22000     -1.1684310E-08
   23.28000     -1.4723520E-08
   23.34000     -1.7742940E-08
   23.40000     -2.0652564E-08
   23.46000     -2.3367228E-08
   23.52000     -2.5816217E-08
   23.58000     -2.7951947E-08
   23.64000     -2.9755327E-08
   23.70000     -3.1236041E-08
   23.76000     -3.2427071E-08
   23.82000     -3.3374508E-08
   23.88000     -3.4125168E-08
   23.94000     -3.4715431E-08
   24.00000     -3.5164742E-08
   24.06000     -3.5475903E-08
   24.12000     -3.5642223E-08
   24.18000     -3.5659316E-08
   24.24000     -3.5537443E-08
   24.30000     -3.5309792E-08
   24.36000     -3.5033224E-08
   24.42000     -3.4780300E-08
   24.48000     -3.4624495E-08
   24.54000     -3.4622950E-08
   24.60000     -3.4802198E-08
   24.66000     -3.5151650E-08
   24.72000     -3.5627149E-08
   24.78000     -3.6163932E-08
   24.84000     -3.6695315E-08
   24.90000     -3.7171773E-08
   24.96000     -3.7574949E-08
   25.02000     -3.7922533E-08
   25.08000     -3.8262513E-08
   25.14000     -3.8658246E-08
   25.20000     -3.9168174E-08
   25.26000     -3.9825530E-08
   25.32000     -4.0623732E-08
   25.38000     -4.1511619E-08
   25.44000     -4.2400359E-08
   25.50000     -4.3180695E-08
   25.56000     -4.3746056E-08
   25.62000     -4.4015195E-08
   25.68000     -4.3947875E-08
   25.74000     -4.3549075E-08
   25.80000     -4.2860979E-08
   25.86000     -4.1945793E-08
   25.92000     -4.0865810E-08
   25.98000     -3.9667619E-08
   26.04000     -3.8375653E-08
   26.10000     -3.6996486E-08
   26.16000     -3.5530920E-08
   26.22000     -3.3988012E-08
   26.28000     -3.2394595E-08
   26.34000     -3.0795974E-08
   26.40000     -2.9247218E-08
   26.46000     -2.7798425E-08
   26.52000     -2.6479775E-08
   26.58000     -2.5292424E-08
   26.64000     -2.4209132E-08
   26.70000     -2.3185004E-08
   26.76000     -2.2175023E-08
   26.82000     -2.1152545E-08
   26.88000     -2.0122378E-08
   26.94000     -1.9123620E-08
   27.00000     -1.8220694E-08
   27.06000     -1.7484924E-08
   27.12000     -1.6972185E-08
   27.18000     -1.6703799E-08
   27.24000     -1.6656944E-08
   27.30000     -1.6768038E-08
   27.36000     -1.6948395E-08
   27.42000     -1.7107464E-08
   27.48000     -1.7176575E-08
   27.54000     -1.7125904E-08
   27.60000     -1.6969606E-08
   27.66000     -1.6757767E-08
   27.72000     -1.6558005E-08
   27.78000     -1.6432665E-08
   27.84000     -1.6418868E-08
   27.90000     -1.6517722E-08
   27.96000     -1.6696065E-08
   28.02000     -1.6900012E-08
   28.08000     -1.7075783E-08
   28.14000     -1.7190603E-08
   28.20000     -1.7246464E-08
   28.26000     -1.7281765E-08
   28.32000     -1.7360026E-08
   28.38000     -1.7549338E-08
   28.44000     -1.7899547E-08
   28.50000     -1.8424814E-08
   28.56000     -1.9097421E-08
   28.62000     -1.9854676E-08
   28.68000     -2.0616479E-08
   28.74000     -2.1307654E-08
   28.80000     -2.1877907E-08
   28.86000     -2.2313182E-08
   28.92000     -2.2635053E-08
   28.98000     -2.2888548E-08
   29.04000     -2.3122325E-08
   29.10000     -2.3367573E-08
   29.16000     -2.3622606E-08
   29.22000     -2.3848640E-08
   29.28000     -2.3978801E-08
   29.34000     -2.3938250E-08
   29.40000     -2.3669344E-08
   29.46000     -2.3153712E-08
   29.52000     -2.2423738E-08
   29.58000     -2.1559224E-08
   29.64000     -2.0669770E-08
   29.70000     -1.9868139E-08
   29.76000     -1.9242654E-08
   29.82000     -1.8836804E-08
   29.88000     -1.8641629E-08
   29.94000     -1.8602272E-08
   30.00000     -1.8635831E-08
   30.06000     -1.8654495E-08
   30.12000     -1.8587048E-08
   30.18000     -1.8392869E-08
   30.24000     -1.8065395E-08
   30.30000     -1.7625458E-08
   30.36000     -1.7107983E-08
   30.42000     -1.6547281E-08
   30.48000     -1.5966100E-08
   30.54000     -1.5371642E-08
   30.60000     -1.4758862E-08
   30.66000     -1.4118505E-08
   30.72000     -1.3445778E-08
   30.78000     -1.2745742E-08
   30.84000     -1.2033455E-08
   30.90000     -1.1329418E-08
   30.96000     -1.0652994E-08
   31.02000     -1.0017081E-08
   31.08000     -9.4264765E-09
   31.14000     -8.8803667E-09
   31.20000     -8.3775582E-09
   31.26000     -7.9219253E-09
   31.32000     -7.5257223E-09
   31.38000     -7.2094979E-09
   31.44000     -6.9987460E-09
   31.50000     -6.9185431E-09
   31.56000     -6.9878845E-09
   31.62000     -7.2152346E-09
   31.68000     -7.5962374E-09
   31.74000     -8.1138456E-09
   31.80000     -8.7405798E-09
   31.86000     -9.4422248E-09
   31.92000     -1.0182118E-08
   31.98000     -1.0925183E-08
   32.04000     -1.1641053E-08
   32.10000     -1.2306026E-08
   32.16000     -1.2903923E-08
   32.22000     -1.3426286E-08
   32.28000     -1.3872341E-08
   32.34000     -1.4248966E-08
   32.40000     -1.4570412E-08
   32.46000     -1.4857221E-08
   32.52000     -1.5133640E-08
   32.58000     -1.5423154E-08
   32.64000     -1.5742538E-08
   32.70000     -1.6095649E-08
   32.76000     -1.6468940E-08
   32.82000     -1.6830674E-08
   32.88000     -1.7135196E-08
   32.94000     -1.7332155E-08
   33.00000     -1.7378838E-08
   33.06000     -1.7252473E-08
   33.12000     -1.6958735E-08
   33.18000     -1.6533615E-08
   33.24000     -1.6037614E-08
   33.30000     -1.5543657E-08
   33.36000     -1.5122115E-08
   33.42000     -1.4827306E-08
   33.48000     -1.4689233E-08
   33.54000     -1.4712616E-08
   33.60000     -1.4882914E-08
   33.66000     -1.5177015E-08
   33.72000     -1.5575022E-08
   33.78000     -1.6069531E-08
   33.84000     -1.6669732E-08
   33.90000     -1.7399195E-08
   33.96000     -1.8287947E-08
   34.02000     -1.9361048E-08
   34.08000     -2.0626866E-08
   34.14000     -2.2068606E-08
   34.20000     -2.3641972E-08
   34.26000     -2.5280295E-08
   34.32000     -2.6906481E-08
   34.38000     -2.8448897E-08
   34.44000     -2.9857144E-08
   34.50000     -3.1113338E-08
   34.56000     -3.2235679E-08
   34.62000     -3.3273199E-08
   34.68000     -3.4293020E-08
   34.74000     -3.5363325E-08
   34.80000     -3.6536587E-08
   34.86000     -3.7837360E-08
   34.92000     -3.9257831E-08
   34.98000     -4.0762227E-08
   35.04000     -4.2298698E-08
   35.10000     -4.3815056E-08
   35.16000     -4.5273499E-08
   35.22000     -4.6659611E-08
   35.28000     -4.7982695E-08
   35.34000     -4.9267449E-08
   35.40000     -5.0539985E-08
   35.46000     -5.1813281E-08
   35.52000     -5.3077375E-08
   35.58000     -5.4297960E-08
   35.64000     -5.5423961E-08
   35.70000     -5.6401678E-08
   35.76000     -5.7190821E-08
   35.82000     -5.7777154E-08
   35.88000     -5.8177758E-08
   35.94000     -5.8437205E-08
   36.00000     -5.8615679E-08
   36.06000     -5.8772525E-08
   36.12000     -5.8950132E-08
   36.18000     -5.9162797E-08
   36.24000     -5.9393969E-08
   36.30000     -5.9602392E-08
   36.36000     -5.9735058E-08
   36.42000     -5.9742504E-08
   36.48000     -5.9591297E-08
   36.54000     -5.9269770E-08
   36.60000     -5.8785844E-08
   36.66000     -5.8158399E-08
   36.72000     -5.7406229E-08
   36.78000     -5.6538969E-08
   36.84000     -5.5553269E-08
   36.90000     -5.4435208E-08
   36.96000     -5.3167525E-08
   37.02000     -5.1738830E-08
   37.08000     -5.0151559E-08
   37.14000     -4.8426369E-08
   37.20000     -4.6602082E-08
   37.26000     -4.4731504E-08
   37.32000     -4.2874625E-08
   37.38000     -4.1090750E-08
   37.44000     -3.9431217E-08
   37.50000     -3.7933845E-08
   37.56000     -3.6619703E-08
   37.62000     -3.5492398E-08
   37.68000     -3.4539777E-08
   37.74000     -3.3737500E-08
   37.80000     -3.3054079E-08
   37.86000     -3.2456722E-08
   37.92000     -3.1917260E-08
   37.98000     -3.1417361E-08
   38.04000     -3.0951952E-08
   38.10000     -3.0529979E-08
   38.16000     -3.0171858E-08
   38.22000     -2.9903713E-08
   38.28000     -2.9749437E-08
   38.34000     -2.9722564E-08
   38.40000     -2.9820420E-08
   38.46000     -3.0022743E-08
   38.52000     -3.0295890E-08
   38.58000     -3.0601853E-08
   38.64000     -3.0909497E-08
   38.70000     -3.1204394E-08
   38.76000     -3.1493553E-08
   38.82000     -3.1803175E-08
   38.88000     -3.2169819E-08
   38.94000     -3.2627867E-08
   39.00000     -3.3197733E-08
   39.06000     -3.3878859E-08
   39.12000     -3.4649936E-08
   39.18000     -3.5476010E-08
   39.24000     -3.6319751E-08
   39.30000     -3.7152802E-08
   39.36000     -3.7963311E-08
   39.42000     -3.8757292E-08
   39.48000     -3.9553687E-08
   39.54000     -4.0375109E-08
   39.60000     -4.1237630E-08
   39.66000     -4.2143039E-08
   39.72000     -4.3076216E-08
   39.78000     -4.4008420E-08
   39.84000     -4.4905260E-08
   39.90000     -4.5736506E-08
   39.96000     -4.6484267E-08
   40.02000     -4.7146386E-08
   40.08000     -4.7733909E-08
   40.14000     -4.8263395E-08
   40.20000     -4.8746994E-08
   40.26000     -4.9184152E-08
   40.32000     -4.9558171E-08
   40.38000     -4.9839425E-08
   40.44000     -4.9994298E-08
   40.50000     -4.9996970E-08
   40.56000     -4.9839890E-08
   40.62000     -4.9539047E-08
   40.68000     -4.9131813E-08
   40.74000     -4.8667619E-08
   40.80000     -4.8194330E-08
   40.86000     -4.7744855E-08
   40.92000     -4.7328641E-08
   40.98000     -4.6931280E-08
   41.04000     -4.6522597E-08
   41.10000     -4.6070483E-08
   41.16000     -4.5555549E-08
   41.22000     -4.4981157E-08
   41.28000     -4.4374847E-08
   41.34000     -4.3780407E-08
   41.40000     -4.3243094E-08
   41.46000     -4.2793339E-08
   41.52000     -4.2434806E-08
   41.58000     -4.2141497E-08
   41.64000     -4.1865299E-08
   41.70000     -4.1551932E-08
   41.76000     -4.1160078E-08
   41.82000     -4.0677193E-08
   41.88000     -4.0126402E-08
   41.94000     -3.9561542E-08
   42.00000     -3.9051468E-08
   42.06000     -3.8658214E-08
   42.12000     -3.8416047E-08
   42.18000     -3.8318280E-08
   42.24000     -3.8316418E-08
   42.30000     -3.8332164E-08
   42.36000     -3.8278568E-08
   42.42000     -3.8083606E-08
   42.48000     -3.7708730E-08
   42.54000     -3.7156724E-08
   42.60000     -3.6466979E-08
   42.66000     -3.5700516E-08
   42.72000     -3.4920390E-08
   42.78000     -3.4174374E-08
   42.84000     -3.3485637E-08
   42.90000     -3.2854029E-08
   42.96000     -3.2266563E-08
   43.02000     -3.1712410E-08
   43.08000     -3.1195935E-08
   43.14000     -3.0742097E-08
   43.20000     -3.0391270E-08
   43.26000     -3.0184651E-08
   43.32000     -3.0145230E-08
   43.38000     -3.0261500E-08
   43.44000     -3.0480912E-08
   43.50000     -3.0716894E-08
   43.56000     -3.0868751E-08
   43.62000     -3.0848842E-08
   43.68000     -3.0608426E-08
   43.74000     -3.0153217E-08
   43.80000     -2.9542788E-08
   43.86000     -2.8873231E-08
   43.92000     -2.8248211E-08
   43.98000     -2.7747651E-08
   44.04000     -2.7404433E-08
   44.10000     -2.7196863E-08
   44.16000     -2.7059492E-08
   44.22000     -2.6908593E-08
   44.28000     -2.6673785E-08
   44.34000     -2.6325266E-08
   44.40000     -2.5887786E-08
   44.46000     -2.5437174E-08
   44.52000     -2.5081029E-08
   44.58000     -2.4930442E-08
   44.64000     -2.5072239E-08
   44.70000     -2.5550731E-08
   44.76000     -2.6364599E-08
   44.82000     -2.7479643E-08
   44.88000     -2.8853048E-08
   44.94000     -3.0461404E-08
   45.00000     -3.2323570E-08
   45.06000     -3.4511032E-08
   45.12000     -3.7142240E-08
   45.18000     -4.0362497E-08
   45.24000     -4.4315939E-08
   45.30000     -4.9119340E-08
   45.36000     -5.4847565E-08
   45.42000     -6.1537449E-08
   45.48000     -6.9210884E-08
   45.54000     -7.7911523E-08
   45.60000     -8.7744674E-08
   45.66000     -9.8908366E-08
   45.72000     -1.1170671E-07
   45.78000     -1.2654249E-07
   45.84000     -1.4389285E-07
   45.90000     -1.6427782E-07
   45.96000     -1.8823370E-07
   46.02000     -2.1630157E-07
   46.08000     -2.4903684E-07
   46.14000     -2.8703909E-07
   46.20000     -3.3099570E-07
   46.26000     -3.8172919E-07
   46.32000     -4.4023713E-07
   46.38000     -5.0771740E-07
   46.44000     -5.8557595E-07
   46.50000     -6.7541924E-07
   46.56000     -7.7904150E-07
   46.62000     -8.9841359E-07
   46.68000     -1.0356844E-06
   46.74000     -1.1931971E-06
   46.80000     -1.3735215E-06
   46.86000     -1.5794967E-06
   46.92000     -1.8142766E-06
   46.98000     -2.0813736E-06
   47.04000     -2.3846894E-06
   47.10000     -2.7285375E-06
   47.16000     -3.1176489E-06
   47.22000     -3.5571750E-06
   47.28000     -4.0526888E-06
   47.34000     -4.6101927E-06
   47.40000     -5.2361370E-06
   47.46000     -5.9374474E-06
   47.52000     -6.7215610E-06
   47.58000     -7.5964567E-06
   47.64000     -8.5706752E-06
   47.70000     -9.6533240E-06
   47.76000     -1.0854057E-05
   47.82000     -1.2183054E-05
   47.88000     -1.3650981E-05
   47.94000     -1.5268955E-05
   48.00000     -1.7048524E-05
   48.06000     -1.9001618E-05
   48.12000     -2.1140537E-05
   48.18000     -2.3477907E-05
   48.24000     -2.6026632E-05
   48.30000     -2.8799834E-05
   48.36000     -3.1810792E-05
   48.42000     -3.5072830E-05
   48.48000     -3.8599228E-05
   48.54000     -4.2403102E-05
   48.60000     -4.6497269E-05
   48.66000     -5.0894127E-05
   48.72000     -5.5605527E-05
   48.78000     -6.0642651E-05
   48.84000     -6.6015862E-05
   48.90000     -7.1734561E-05
   48.96000     -7.7807090E-05
   49.02000     -8.4240521E-05
   49.08000     -9.1040551E-05
   49.14000     -9.8211378E-05
   49.20000     -1.0575546E-04
   49.26000     -1.1367352E-04
   49.32000     -1.2196424E-04
   49.38000     -1.3062431E-04
   49.44000     -1.3964824E-04
   49.50000     -1.4902824E-04
   49.56000     -1.5875424E-04
   49.62000     -1.6881370E-04
   49.68000     -1.7919169E-04
   49.74000     -1.8987080E-04
   49.80000     -2.0083123E-04
   49.86000     -2.1205079E-04
   49.92000     -2.2350493E-04
   49.98000     -2.3516692E-04
   50.04000     -2.4700788E-04
   50.10000     -2.5899697E-04
   50.16000     -2.7110154E-04
   50.22000     -2.8328743E-04
   50.28000     -2.9551898E-04
   50.34000     -3.0775953E-04
   50.40000     -3.1997153E-04
   50.46000     -3.3211688E-04
   50.52000     -3.4415734E-04
   50.58000     -3.5605469E-04
   50.64000     -3.6777116E-04
   50.70000     -3.7926994E-04
   50.76000     -3.9051526E-04
   50.82000     -4.0147279E-04
   50.88000     -4.1211012E-04
   50.94000     -4.2239684E-04
   51.00000     -4.3230501E-04
   51.06000     -4.4180948E-04
   51.12000     -4.5088810E-04
   51.18000     -4.5952207E-04
   51.24000     -4.6769611E-04
   51.30000     -4.7539864E-04
   51.36000     -4.8262195E-04
   51.42000     -4.8936217E-04
   51.48000     -4.9561943E-04
   51.54000     -5.0139794E-04
   51.60000     -5.0670578E-04
   51.66000     -5.1155488E-04
   51.72000     -5.1596074E-04
   51.78000     -5.1994267E-04
   51.84000     -5.2352296E-04
   51.90000     -5.2672712E-04
   51.96000     -5.2958337E-04
   52.02000     -5.3212227E-04
   52.08000     -5.3437654E-04
   52.14000     -5.3638063E-04
   52.20000     -5.3816999E-04
   52.26000     -5.3978089E-04
   52.32000     -5.4124970E-04
   52.38000     -5.4261246E-04
   52.44000     -5.4390478E-04
   52.50000     -5.4516096E-04
   52.56000     -5.4641406E-04
   52.62000     -5.4769503E-04
   52.68000     -5.4903247E-04
   52.74000     -5.5045221E-04
   52.80000     -5.5197673E-04
   52.86000     -5.5362523E-04
   52.92000     -5.5541331E-04
   52.98000     -5.5735256E-04
   53.04000     -5.5945077E-04
   53.10000     -5.6171179E-04
   53.16000     -5.6413532E-04
   53.22000     -5.6671700E-04
   53.28000     -5.6944834E-04
   53.34000     -5.7231693E-04
   53.40000     -5.7530659E-04
   53.46000     -5.7839788E-04
   53.52000     -5.8156799E-04
   53.58000     -5.8479147E-04
   53.64000     -5.8804028E-04
   53.70000     -5.9128425E-04
   53.76000     -5.9449172E-04
   53.82000     -5.9762970E-04
   53.88000     -6.0066429E-04
   53.94000     -6.0356158E-04
   54.00000     -6.0628774E-04
   54.06000     -6.0880947E-04
   54.12000     -6.1109493E-04
   54.18000     -6.1311352E-04
   54.24000     -6.1483664E-04
   54.30000     -6.1623805E-04
   54.36000     -6.1729382E-04
   54.42000     -6.1798311E-04
   54.48000     -6.1828812E-04
   54.54000     -6.1819458E-04
   54.60000     -6.1769207E-04
   54.66000     -6.1677356E-04
   54.72000     -6.1543606E-04
   54.78000     -6.1368005E-04
   54.84000     -6.1150984E-04
   54.90000     -6.0893322E-04
   54.96000     -6.0596131E-04
   55.02000     -6.0260849E-04
   55.08000     -5.9889234E-04
   55.14000     -5.9483305E-04
   55.20000     -5.9045292E-04
   55.26000     -5.8577629E-04
   55.32000     -5.8082875E-04
   55.38000     -5.7563744E-04
   55.44000     -5.7023030E-04
   55.50000     -5.6463596E-04
   55.56000     -5.5888313E-04