  -2.400000      0.0000000E+00
  -2.340000      0.0000000E+00
  -2.280000      0.0000000E+00
  -2.220000      0.0000000E+00
  -2.160000      0.0000000E+00
  -2.100000      0.0000000E+00
  -2.040000      0.0000000E+00
  -1.980000      0.0000000E+00
  -1.920000      0.0000000E+00
  -1.860000      0.0000000E+00
  -1.800000      5.7493752E-32
  -1.740000      2.5864139E-30
  -1.680000      3.0211434E-29
  -1.620000      1.8487719E-28
  -1.560000      6.8938022E-28
  -1.500000      1.4559929E-27
  -1.440000      1.1320756E-28
  -1.380000     -1.1878700E-26
  -1.320000     -4.9983432E-26
  -1.260000     -1.1788670E-25
  -1.200000     -1.4768417E-25
  -1.140000      8.9281804E-26
  -1.080000      9.8474946E-25
  -1.020000      2.7575560E-24
 -0.9600000      4.5578514E-24
 -0.9000000      3.2947430E-24
 -0.8400000     -6.4533890E-24
 -0.7800000     -2.9102817E-23
 -0.7200000     -5.9735463E-23
 -0.6600000     -7.3525389E-23
 -0.6000000     -2.3070221E-23
 -0.5400000      1.4091581E-22
 -0.4800000      4.1628109E-22
 -0.4200000      6.7916516E-22
 -0.3600000      6.5027993E-22
 -0.3000000     -2.4504407E-23
 -0.2400000     -1.5299388E-21
 -0.1800000     -3.5283607E-21
 -0.1200000     -4.9026882E-21
 -5.9999999E-02 -3.8996598E-21
  0.0000000E+00  1.0973943E-21
  5.9999999E-02  1.0246299E-20
  0.1200000      2.0907124E-20
  0.1800000      2.7169901E-20
  0.2400000      2.1103195E-20
  0.3000000     -3.9486585E-21
  0.3600000     -4.8567868E-20
  0.4200000     -1.0242185E-19
  0.4800000     -1.4154217E-19
  0.5400000     -1.3037013E-19
  0.6000000     -3.1402400E-20
  0.6600000      1.7552323E-19
  0.7200000      4.6557240E-19
  0.7800000      7.4140219E-19
  0.8400000      8.2444342E-19
  0.9000000      4.9080353E-19
  0.9600000     -4.2841801E-19
   1.020000     -1.8909783E-18
   1.080000     -3.4889870E-18
   1.140000     -4.4020542E-18
   1.200000     -3.5743401E-18
   1.260000     -1.6717645E-19
   1.320000      5.8057752E-18
   1.380000      1.2928696E-17
   1.440000      1.8291228E-17
   1.500000      1.8153623E-17
   1.560000      9.3828023E-18
   1.620000     -8.7429790E-18
   1.680000     -3.3106610E-17
   1.740000     -5.6496661E-17
   1.800000     -6.8972437E-17
   1.860000     -6.0676477E-17
   1.920000     -2.5334294E-17
   1.980000      3.6556016E-17
   2.040000      1.1564197E-16
   2.100000      1.9315841E-16
   2.160000      2.4218464E-16
   2.220000      2.3137899E-16
   2.280000      1.3236974E-16
   2.340000     -6.8296478E-17
   2.400000     -3.5380182E-16
   2.460000     -6.6333268E-16
   2.520000     -8.8909745E-16
   2.580000     -8.9434863E-16
   2.640000     -5.5773562E-16
   2.700000      1.6253108E-16
   2.760000      1.1665625E-15
   2.820000      2.1858124E-15
   2.880000      2.8225533E-15
   2.940000      2.6671509E-15
   3.000000      1.4695977E-15
   3.060000     -6.9482711E-16
   3.120000     -3.3450519E-15
   3.180000     -5.6635969E-15
   3.240000     -6.7290724E-15
   3.300000     -5.8520964E-15
   3.360000     -2.8919615E-15
   3.420000      1.5872077E-15
   3.480000      6.4164821E-15
   3.540000      1.0173400E-14
   3.600000      1.1663816E-14
   3.660000      1.0338904E-14
   3.720000      6.4635606E-15
   3.780000      9.5842413E-16
   3.840000     -5.0037459E-15
   3.900000     -1.0433690E-14
   3.960000     -1.4751025E-14
   4.020000     -1.7667159E-14
   4.080000     -1.8803369E-14
   4.140000     -1.7325463E-14
   4.200000     -1.1946978E-14
   4.260000     -1.5116643E-15
   4.320000      1.3960274E-14
   4.380000      3.2243769E-14
   4.440000      4.8577211E-14
   4.500000      5.6564931E-14
   4.560000      5.0348221E-14
   4.620000      2.7390299E-14
   4.680000     -9.3256938E-15
   4.740000     -5.0951170E-14
   4.800000     -8.4962378E-14
   4.860000     -9.9480889E-14
   4.920000     -8.8168161E-14
   4.980000     -5.3508477E-14
   5.040000     -6.6290226E-15
   5.100000      3.6855335E-14
   5.160000      6.3612079E-14
   5.220000      6.9049319E-14
   5.280000      6.0132990E-14
   5.340000      5.2431140E-14
   5.400000      6.1773171E-14
   5.460000      9.3762698E-14
   5.520000      1.3622588E-13
   5.580000      1.5940695E-13
   5.640000      1.2603675E-13
   5.700000      9.0774844E-15
   5.760000     -1.8933696E-13
   5.820000     -4.2651174E-13
   5.880000     -6.2291004E-13
   5.940000     -6.8369312E-13
   6.000000     -5.3364388E-13
   6.060000     -1.5417139E-13
   6.120000      3.9251285E-13
   6.180000      9.6511774E-13
   6.240000      1.3763236E-12
   6.300000      1.4511301E-12
   6.360000      1.0931355E-12
   6.420000      3.3483836E-13
   6.480000     -6.5014633E-13
   6.540000     -1.5841483E-12
   6.600000     -2.1657968E-12
   6.660000     -2.1701963E-12
   6.720000     -1.5346229E-12
   6.780000     -3.9660462E-13
   6.840000      9.3451234E-13
   6.900000      2.0682158E-12
   6.960000      2.6575465E-12
   7.020000      2.5147152E-12
   7.080000      1.6751040E-12
   7.140000      3.8451474E-13
   7.200000     -9.8707316E-13
   7.260000     -2.0733389E-12
   7.320000     -2.6319372E-12
   7.380000     -2.6102887E-12
   7.440000     -2.1315658E-12
   7.500000     -1.4090504E-12
   7.560000     -6.2860432E-13
   7.620000      1.4518120E-13
   7.680000      9.9170281E-13
   7.740000      2.0688874E-12
   7.800000      3.4835205E-12
   7.860000      5.1553293E-12
   7.920000      6.7435619E-12
   7.980000      7.6850470E-12
   8.040000      7.3481247E-12
   8.100000      5.2550906E-12
   8.160000      1.2895861E-12
   8.220000     -4.1973183E-12
   8.280000     -1.0433243E-11
   8.340000     -1.6412465E-11
   8.400000     -2.1153430E-11
   8.460000     -2.3918249E-11
   8.520000     -2.4296435E-11
   8.580000     -2.2109528E-11
   8.640000     -1.7172447E-11
   8.700000     -9.0186122E-12
   8.760000      3.2722134E-12
   8.820000      2.1029362E-11
   8.880000      4.5693001E-11
   8.940000      7.8326984E-11
   9.000000      1.1909569E-10
   9.060000      1.6689523E-10
   9.120000      2.1929812E-10
   9.180000      2.7287680E-10
   9.240000      3.2384592E-10
   9.300000      3.6884990E-10
   9.360000      4.0566600E-10
   9.420000      4.3361117E-10
   9.480000      4.5353632E-10
   9.540000      4.6742243E-10
   9.600000      4.7772042E-10
   9.660000      4.8664395E-10
   9.720000      4.9561749E-10
   9.780000      5.0499738E-10
   9.840000      5.1406973E-10
   9.900000      5.2122889E-10
   9.960000      5.2420462E-10
   10.02000      5.2024846E-10
   10.08000      5.0628995E-10
   10.14000      4.7917931E-10
   10.20000      4.3618251E-10
   10.26000      3.7585887E-10
   10.32000      2.9931491E-10
   10.38000      2.1164863E-10
   10.44000      1.2323936E-10
   10.50000      5.0466818E-11
   10.56000      1.5505658E-11
   10.62000      4.5018829E-11
   10.68000      1.6781730E-10
   10.74000      4.1178244E-10
   10.80000      8.0049134E-10
   10.86000      1.3500088E-09
   10.92000      2.0662210E-09
   10.98000      2.9429403E-09
   11.04000      3.9608663E-09
   11.10000      5.0874100E-09
   11.16000      6.2773808E-09
   11.22000      7.4745801E-09
   11.28000      8.6143910E-09
   11.34000      9.6274357E-09
   11.40000      1.0444247E-08
   11.46000      1.1000719E-08
   11.52000      1.1243811E-08
   11.58000      1.1136839E-08
   11.64000      1.0663569E-08
   11.70000      9.8304289E-09
   11.76000      8.6664418E-09
   11.82000      7.2208315E-09
   11.88000      5.5586358E-09
   11.94000      3.7549861E-09
   12.00000      1.8888169E-09
   12.06000      3.6760914E-11
   12.12000     -1.7321731E-09
   12.18000     -3.3607510E-09
   12.24000     -4.8062878E-09
   12.30000     -6.0419443E-09
   12.36000     -7.0565180E-09
   12.42000     -7.8527336E-09
   12.48000     -8.4441485E-09
   12.54000     -8.8509733E-09
   12.60000     -9.0953209E-09
   12.66000     -9.1966417E-09
   12.72000     -9.1681480E-09
   12.78000     -9.0149666E-09
   12.84000     -8.7344159E-09
   12.90000     -8.3183629E-09
   12.96000     -7.7571443E-09
   13.02000     -7.0442110E-09
   13.08000     -6.1805130E-09
   13.14000     -5.1777618E-09
   13.20000     -4.0600172E-09
   13.26000     -2.8634242E-09
   13.32000     -1.6342756E-09
   13.38000     -4.2583148E-10
   13.44000      7.0561673E-10
   13.50000      1.7049743E-09
   13.56000      2.5225557E-09
   13.62000      3.1181240E-09
   13.68000      3.4646914E-09
   13.74000      3.5520120E-09
   13.80000      3.3895355E-09
   13.86000      3.0083627E-09
   13.92000      2.4615014E-09
   13.98000      1.8216201E-09
   14.04000      1.1756818E-09
   14.10000      6.1634786E-10
   14.16000      2.3083892E-10
   14.22000      8.8812846E-11
   14.28000      2.3149130E-10
   14.34000      6.6446126E-10
   14.40000      1.3561338E-09
   14.46000      2.2427991E-09
   14.52000      3.2398086E-09
   14.58000      4.2570001E-09
   14.64000      5.2154325E-09
   14.70000      6.0620708E-09
   14.76000      6.7793846E-09
   14.82000      7.3877908E-09
   14.88000      7.9403231E-09
   14.94000      8.5105265E-09
   15.00000      9.1760963E-09
   15.06000      1.0001827E-08
   15.12000      1.1025763E-08
   15.18000      1.2251890E-08
   15.24000      1.3651231E-08
   15.30000      1.5171064E-08
   15.36000      1.6749777E-08
   15.42000      1.8333141E-08
   15.48000      1.9887230E-08
   15.54000      2.1403984E-08
   15.60000      2.2897714E-08
   15.66000      2.4393580E-08
   15.72000      2.5911801E-08
   15.78000      2.7452867E-08
   15.84000      2.8988918E-08
   15.90000      3.0464626E-08
   15.96000      3.1807954E-08
   16.02000      3.2947998E-08
   16.08000      3.3834802E-08
   16.14000      3.4455226E-08
   16.20000      3.4839974E-08
   16.26000      3.5059333E-08
   16.32000      3.5208405E-08
   16.38000      3.5385533E-08
   16.44000      3.5669462E-08
   16.50000      3.6101277E-08
   16.56000      3.6675726E-08
   16.62000      3.7344275E-08
   16.68000      3.8028986E-08
   16.74000      3.8643616E-08
   16.80000      3.9116301E-08
   16.86000      3.9407752E-08
   16.92000      3.9520110E-08
   16.98000      3.9493965E-08
   17.04000      3.9394475E-08
   17.10000      3.9290470E-08
   17.16000      3.9232567E-08
   17.22000      3.9236522E-08
   17.28000      3.9276610E-08
   17.34000      3.9290811E-08
   17.40000      3.9195985E-08
   17.46000      3.8908549E-08
   17.52000      3.8364384E-08
   17.58000      3.7532473E-08
   17.64000      3.6418619E-08
   17.70000      3.5058981E-08
   17.76000      3.3505945E-08
   17.82000      3.1811169E-08
   17.88000      3.0010945E-08
   17.94000      2.8118087E-08
   18.00000      2.6122130E-08
   18.06000      2.3997167E-08
   18.12000      2.1714190E-08
   18.18000      1.9253768E-08
   18.24000      1.6615042E-08
   18.30000      1.3818475E-08
   18.36000      1.0902091E-08
   18.42000      7.9131928E-09
   18.48000      4.8991713E-09
   18.54000      1.9012620E-09
   18.60000     -1.0461108E-09
   18.66000     -3.9101242E-09
   18.72000     -6.6509322E-09
   18.78000     -9.2140482E-09
   18.84000     -1.1528504E-08
   18.90000     -1.3513887E-08
   18.96000     -1.5096060E-08
   19.02000     -1.6227597E-08
   19.08000     -1.6906153E-08
   19.14000     -1.7183515E-08
   19.20000     -1.7160311E-08
   19.26000     -1.6965821E-08
   19.32000     -1.6727618E-08
   19.38000     -1.6539810E-08
   19.44000     -1.6440010E-08
   19.50000     -1.6403110E-08
   19.56000     -1.6354765E-08
   19.62000     -1.6201291E-08
   19.68000     -1.5866947E-08
   19.74000     -1.5326762E-08
   19.80000     -1.4623989E-08
   19.86000     -1.3865801E-08
   19.92000     -1.3197734E-08
   19.98000     -1.2764300E-08
   20.04000     -1.2668013E-08
   20.10000     -1.2939966E-08
   20.16000     -1.3531800E-08
   20.22000     -1.4332239E-08
   20.28000     -1.5203424E-08
   20.34000     -1.6025691E-08
   20.40000     -1.6736426E-08
   20.46000     -1.7350111E-08
   20.52000     -1.7952564E-08
   20.58000     -1.8670628E-08
   20.64000     -1.9626587E-08
   20.70000     -2.0891932E-08
   20.76000     -2.2455684E-08
   20.82000     -2.4218318E-08
   20.88000     -2.6014357E-08
   20.94000     -2.7657597E-08
   21.00000     -2.8995441E-08
   21.06000     -2.9955501E-08
   21.12000     -3.0569492E-08
   21.18000     -3.0966312E-08
   21.24000     -3.1335489E-08
   21.30000     -3.1871672E-08
   21.36000     -3.2716663E-08
   21.42000     -3.3916727E-08
   21.48000     -3.5408139E-08
   21.54000     -3.7035523E-08
   21.60000     -3.8597396E-08
   21.66000     -3.9905039E-08
   21.72000     -4.0836660E-08
   21.78000     -4.1370303E-08
   21.84000     -4.1585373E-08
   21.90000     -4.1632312E-08
   21.96000     -4.1679641E-08
   22.02000     -4.1854719E-08
   22.08000     -4.2196486E-08
   22.14000     -4.2635008E-08
   22.20000     -4.3004448E-08
   22.26000     -4.3086178E-08
   22.32000     -4.2669480E-08
   22.38000     -4.1612090E-08
   22.44000     -3.9882998E-08
   22.50000     -3.7575369E-08
   22.56000     -3.4886256E-08
   22.62000     -3.2069615E-08
   22.68000     -2.9376636E-08
   22.74000     -2.7000429E-08
   22.80000     -2.5040167E-08
   22.86000     -2.3493380E-08
   22.92000     -2.2276334E-08
   22.98000     -2.1264320E-08
   23.04000     -2.0338229E-08
   23.10000     -1.9422920E-08
   23.16000     -1.8506432E-08
   23.22000     -1.7635722E-08
   23.28000     -1.6892391E-08
   23.34000     -1.6357884E-08
   23.40000     -1.6080497E-08
   23.46000     -1.6055214E-08
   23.52000     -1.6222600E-08
   23.58000     -1.6486396E-08
   23.64000     -1.6743341E-08
   23.70000     -1.6914898E-08
   23.76000     -1.6970317E-08
   23.82000     -1.6933651E-08
   23.88000     -1.6872988E-08
   23.94000     -1.6876131E-08
   24.00000     -1.7021513E-08
   24.06000     -1.7354587E-08
   24.12000     -1.7877792E-08
   24.18000     -1.8557330E-08
   24.24000     -1.9343881E-08
   24.30000     -2.0199399E-08
   24.36000     -2.1119812E-08
   24.42000     -2.2144880E-08
   24.48000     -2.3351035E-08
   24.54000     -2.4829024E-08
   24.60000     -2.6653694E-08
   24.66000     -2.8856045E-08
   24.72000     -3.1407037E-08
   24.78000     -3.4218608E-08
   24.84000     -3.7161726E-08
   24.90000     -4.0095724E-08
   24.96000     -4.2899742E-08
   25.02000     -4.5496900E-08
   25.08000     -4.7864354E-08
   25.14000     -5.0027179E-08
   25.20000     -5.2039109E-08
   25.26000     -5.3956789E-08
   25.32000     -5.5815704E-08
   25.38000     -5.7614976E-08
   25.44000     -5.9314704E-08
   25.50000     -6.0845913E-08
   25.56000     -6.2129054E-08
   25.62000     -6.3095122E-08
   25.68000     -6.3703091E-08
   25.74000     -6.3948988E-08
   25.80000     -6.3864704E-08
   25.86000     -6.3507798E-08
   25.92000     -6.2945823E-08
   25.98000     -6.2239820E-08
   26.04000     -6.1431642E-08
   26.10000     -6.0538106E-08
   26.16000     -5.9553216E-08
   26.22000     -5.8457427E-08
   26.28000     -5.7231265E-08
   26.34000     -5.5869478E-08
   26.40000     -5.4391862E-08
   26.46000     -5.2847664E-08
   26.52000     -5.1312075E-08
   26.58000     -4.9875261E-08
   26.64000     -4.8626553E-08
   26.70000     -4.7637652E-08
   26.76000     -4.6949211E-08
   26.82000     -4.6564288E-08
   26.88000     -4.6450278E-08
   26.94000     -4.6548536E-08
   27.00000     -4.6788784E-08
   27.06000     -4.7103985E-08
   27.12000     -4.7441510E-08
   27.18000     -4.7767774E-08
   27.24000     -4.8065683E-08
   27.30000     -4.8326633E-08
   27.36000     -4.8540443E-08
   27.42000     -4.8686985E-08
   27.48000     -4.8732673E-08
   27.54000     -4.8632842E-08
   27.60000     -4.8339377E-08
   27.66000     -4.7811060E-08
   27.72000     -4.7023597E-08
   27.78000     -4.5976510E-08
   27.84000     -4.4695380E-08
   27.90000     -4.3229125E-08
   27.96000     -4.1643283E-08
   28.02000     -4.0011038E-08
   28.08000     -3.8403776E-08
   28.14000     -3.6882870E-08
   28.20000     -3.5493873E-08
   28.26000     -3.4263817E-08
   28.32000     -3.3201921E-08
   28.38000     -3.2303202E-08
   28.44000     -3.1554297E-08
   28.50000     -3.0940051E-08
   28.56000     -3.0449502E-08
   28.62000     -3.0079850E-08
   28.68000     -2.9837476E-08
   28.74000     -2.9735869E-08
   28.80000     -2.9790884E-08
   28.86000     -3.0014565E-08
   28.92000     -3.0408987E-08
   28.98000     -3.0961679E-08
   29.04000     -3.1643900E-08
   29.10000     -3.2412416E-08
   29.16000     -3.3214679E-08
   29.22000     -3.3996589E-08
   29.28000     -3.4711253E-08
   29.34000     -3.5327005E-08
   29.40000     -3.5832784E-08
   29.46000     -3.6239506E-08
   29.52000     -3.6576839E-08
   29.58000     -3.6885641E-08
   29.64000     -3.7207432E-08
   29.70000     -3.7572981E-08
   29.76000     -3.7992685E-08
   29.82000     -3.8451205E-08
   29.88000     -3.8908272E-08
   29.94000     -3.9306162E-08
   30.00000     -3.9582691E-08
   30.06000     -3.9686924E-08
   30.12000     -3.9593751E-08
   30.18000     -3.9313239E-08
   30.24000     -3.8891720E-08
   30.30000     -3.8403623E-08
   30.36000     -3.7935337E-08
   30.42000     -3.7564913E-08
   30.48000     -3.7342733E-08
   30.54000     -3.7278454E-08
   30.60000     -3.7338175E-08
   30.66000     -3.7453152E-08
   30.72000     -3.7538140E-08
   30.78000     -3.7514418E-08
   30.84000     -3.7330867E-08
   30.90000     -3.6976431E-08
   30.96000     -3.6479861E-08
   31.02000     -3.5896296E-08
   31.08000     -3.5284742E-08
   31.14000     -3.4683858E-08
   31.20000     -3.4094292E-08
   31.26000     -3.3474212E-08
   31.32000     -3.2750187E-08
   31.38000     -3.1840528E-08
   31.44000     -3.0683562E-08
   31.50000     -2.9261479E-08
   31.56000     -2.7611318E-08
   31.62000     -2.5818837E-08
   31.68000     -2.3996400E-08
   31.74000     -2.2251376E-08
   31.80000     -2.0654859E-08
   31.86000     -1.9220757E-08
   31.92000     -1.7902341E-08
   31.98000     -1.6608038E-08
   32.04000     -1.5232096E-08
   32.10000     -1.3690855E-08
   32.16000     -1.1953101E-08
   32.22000     -1.0054575E-08
   32.28000     -8.0914324E-09
   32.34000     -6.1942314E-09
   32.40000     -4.4904280E-09
   32.46000     -3.0673180E-09
   32.52000     -1.9474087E-09
   32.58000     -1.0842901E-09
   32.64000     -3.8038050E-10
   32.70000      2.7920879E-10
   32.76000      9.8773822E-10
   32.82000      1.7855010E-09
   32.88000      2.6462266E-09
   32.94000      3.4855474E-09
   33.00000      4.1886361E-09
   33.06000      4.6478732E-09
   33.12000      4.7981583E-09
   33.18000      4.6382631E-09
   33.24000      4.2312305E-09
   33.30000      3.6836936E-09
   33.36000      3.1109164E-09
   33.42000      2.5990050E-09
   33.48000      2.1766122E-09
   33.54000      1.8052950E-09
   33.60000      1.3915884E-09
   33.66000      8.1687801E-10
   33.72000     -2.4431492E-11
   33.78000     -1.1904259E-09
   33.84000     -2.6715243E-09
   33.90000     -4.3907411E-09
   33.96000     -6.2241212E-09
   34.02000     -8.0349425E-09
   34.08000     -9.7111723E-09
   34.14000     -1.1194770E-08
   34.20000     -1.2494101E-08
   34.26000     -1.3676086E-08
   34.32000     -1.4841241E-08
   34.38000     -1.6090143E-08
   34.44000     -1.7492466E-08
   34.50000     -1.9068544E-08
   34.56000     -2.0788759E-08
   34.62000     -2.2589735E-08
   34.68000     -2.4400505E-08
   34.74000     -2.6168593E-08
   34.80000     -2.7876471E-08
   34.86000     -2.9542814E-08
   34.92000     -3.1208604E-08
   34.98000     -3.2913658E-08
   35.04000     -3.4672524E-08
   35.10000     -3.6458740E-08
   35.16000     -3.8203538E-08
   35.22000     -3.9810150E-08
   35.28000     -4.1179348E-08
   35.34000     -4.2237879E-08
   35.40000     -4.2960117E-08
   35.46000     -4.3375149E-08
   35.52000     -4.3556277E-08
   35.58000     -4.3596135E-08
   35.64000     -4.3575710E-08
   35.70000     -4.3538293E-08
   35.76000     -4.3477709E-08
   35.82000     -4.3345207E-08
   35.88000     -4.3072276E-08
   35.94000     -4.2600600E-08
   36.00000     -4.1907537E-08
   36.06000     -4.1017270E-08
   36.12000     -3.9993264E-08
   36.18000     -3.8914870E-08
   36.24000     -3.7847016E-08
   36.30000     -3.6814335E-08
   36.36000     -3.5789487E-08
   36.42000     -3.4700161E-08
   36.48000     -3.3452661E-08
   36.54000     -3.1964298E-08
   36.60000     -3.0194002E-08
   36.66000     -2.8161066E-08
   36.72000     -2.5945919E-08
   36.78000     -2.3672284E-08
   36.84000     -2.1475982E-08
   36.90000     -1.9469660E-08
   36.96000     -1.7714022E-08
   37.02000     -1.6204186E-08
   37.08000     -1.4875043E-08
   37.14000     -1.3623747E-08
   37.20000     -1.2342152E-08
   37.26000     -1.0949242E-08
   37.32000     -9.4140322E-09
   37.38000     -7.7628117E-09
   37.44000     -6.0698331E-09
   37.50000     -4.4355923E-09
   37.56000     -2.9602703E-09
   37.62000     -1.7205951E-09
   37.68000     -7.5648782E-10
   37.74000     -7.0141767E-11
   37.80000      3.6395936E-10
   37.86000      5.8286997E-10
   37.92000      6.1907141E-10
   37.98000      4.8987375E-10
   38.04000      1.9518058E-10
   38.10000     -2.7697361E-10
   38.16000     -9.4070407E-10
   38.22000     -1.8033424E-09
   38.28000     -2.8614866E-09
   38.34000     -4.1036667E-09
   38.40000     -5.5180278E-09
   38.46000     -7.1010042E-09
   38.52000     -8.8624290E-09
   38.58000     -1.0824033E-08
   38.64000     -1.3011205E-08
   38.70000     -1.5440804E-08
   38.76000     -1.8109519E-08
   38.82000     -2.0987153E-08
   38.88000     -2.4017448E-08
   38.94000     -2.7126491E-08
   39.00000     -3.0236240E-08
   39.06000     -3.3279193E-08
   39.12000     -3.6209766E-08
   39.18000     -3.9008995E-08
   39.24000     -4.1680959E-08
   39.30000     -4.4241865E-08
   39.36000     -4.6705171E-08
   39.42000     -4.9067648E-08
   39.48000     -5.1301601E-08
   39.54000     -5.3356558E-08
   39.60000     -5.5170769E-08
   39.66000     -5.6689181E-08
   39.72000     -5.7881813E-08
   39.78000     -5.8755870E-08
   39.84000     -5.9356612E-08
   39.90000     -5.9755742E-08
   39.96000     -6.0030473E-08
   40.02000     -6.0239735E-08
   40.08000     -6.0405512E-08
   40.14000     -6.0505748E-08
   40.20000     -6.0482208E-08
   40.26000     -6.0261414E-08
   40.32000     -5.9782970E-08
   40.38000     -5.9026107E-08
   40.44000     -5.8025662E-08
   40.50000     -5.6871130E-08
   40.56000     -5.5687540E-08
   40.62000     -5.4602896E-08
   40.68000     -5.3711666E-08
   40.74000     -5.3045714E-08
   40.80000     -5.2562452E-08
   40.86000     -5.2154739E-08
   40.92000     -5.1680328E-08
   40.98000     -5.1002306E-08
   41.04000     -5.0028341E-08
   41.10000     -4.8736783E-08
   41.16000     -4.7181818E-08
   41.22000     -4.5476320E-08
   41.28000     -4.3757993E-08
   41.34000     -4.2149384E-08
   41.40000     -4.0723918E-08
   41.46000     -3.9487979E-08
   41.52000     -3.8383742E-08
   41.58000     -3.7311068E-08
   41.64000     -3.6160905E-08
   41.70000     -3.4849649E-08
   41.76000     -3.3344044E-08
   41.82000     -3.1669924E-08
   41.88000     -2.9903216E-08
   41.94000     -2.8147214E-08
   42.00000     -2.6503875E-08
   42.06000     -2.5048090E-08
   42.12000     -2.3812254E-08
   42.18000     -2.2784800E-08
   42.24000     -2.1922018E-08
   42.30000     -2.1168484E-08
   42.36000     -2.0479195E-08
   42.42000     -1.9836484E-08
   42.48000     -1.9256790E-08
   42.54000     -1.8785890E-08
   42.60000     -1.8485043E-08
   42.66000     -1.8413205E-08
   42.72000     -1.8611523E-08
   42.78000     -1.9094907E-08
   42.84000     -1.9852662E-08
   42.90000     -2.0856680E-08
   42.96000     -2.2073193E-08
   43.02000     -2.3473218E-08
   43.08000     -2.5037949E-08
   43.14000     -2.6757881E-08
   43.20000     -2.8627083E-08
   43.26000     -3.0635988E-08
   43.32000     -3.2766437E-08
   43.38000     -3.4991540E-08
   43.44000     -3.7280596E-08
   43.50000     -3.9607055E-08
   43.56000     -4.1955882E-08
   43.62000     -4.4326512E-08
   43.68000     -4.6729209E-08
   43.74000     -4.9175018E-08
   43.80000     -5.1662411E-08
   43.86000     -5.4165540E-08
   43.92000     -5.6629148E-08
   43.98000     -5.8973413E-08
   44.04000     -6.1108707E-08
   44.10000     -6.2956715E-08
   44.16000     -6.4471777E-08
   44.22000     -6.5655563E-08
   44.28000     -6.6560034E-08
   44.34000     -6.7276950E-08
   44.40000     -6.7916510E-08
   44.46000     -6.8581123E-08
   44.52000     -6.9342228E-08
   44.58000     -7.0226974E-08
   44.64000     -7.1218885E-08
   44.70000     -7.2272101E-08
   44.76000     -7.3334718E-08
   44.82000     -7.4374086E-08
   44.88000     -7.5396635E-08
   44.94000     -7.6457091E-08
   45.00000     -7.7655457E-08
   45.06000     -7.9124234E-08
   45.12000     -8.1010938E-08
   45.18000     -8.3462012E-08
   45.24000     -8.6612964E-08
   45.30000     -9.0587136E-08
   45.36000     -9.5502756E-08
   45.42000     -1.0148570E-07
   45.48000     -1.0868409E-07
   45.54000     -1.1728132E-07
   45.60000     -1.2750499E-07
   45.66000     -1.3963128E-07
   45.72000     -1.5398601E-07
   45.78000     -1.7094449E-07
   45.84000     -1.9093306E-07
   45.90000     -2.1443437E-07
   45.96000     -2.4199741E-07
   46.02000     -2.7425170E-07
   46.08000     -3.1192445E-07
   46.14000     -3.5585856E-07
   46.20000     -4.0702986E-07
   46.26000     -4.6656226E-07
   46.32000     -5.3574121E-07
   46.38000     -6.1602657E-07
   46.44000     -7.0906577E-07
   46.50000     -8.1671050E-07
   46.56000     -9.4103746E-07
   46.62000     -1.0843730E-06
   46.68000     -1.2493210E-06
   46.74000     -1.4387906E-06
   46.80000     -1.6560230E-06
   46.86000     -1.9046161E-06
   46.92000     -2.1885469E-06
   46.98000     -2.5121963E-06
   47.04000     -2.8803765E-06
   47.10000     -3.2983635E-06
   47.16000     -3.7719342E-06
   47.22000     -4.3074019E-06
   47.28000     -4.9116493E-06
   47.34000     -5.5921510E-06
   47.40000     -6.3569942E-06
   47.46000     -7.2148887E-06
   47.52000     -8.1751814E-06
   47.58000     -9.2478631E-06
   47.64000     -1.0443597E-05
   47.70000     -1.1773722E-05
   47.76000     -1.3250286E-05
   47.82000     -1.4886050E-05
   47.88000     -1.6694492E-05
   47.94000     -1.8689783E-05
   48.00000     -2.0886755E-05
   48.06000     -2.3300841E-05
   48.12000     -2.5948006E-05
   48.18000     -2.8844666E-05
   48.24000     -3.2007629E-05
   48.30000     -3.5453995E-05
   48.36000     -3.9201113E-05
   48.42000     -4.3266460E-05
   48.48000     -4.7667581E-05
   48.54000     -5.2421972E-05
   48.60000     -5.7546924E-05
   48.66000     -6.3059379E-05
   48.72000     -6.8975743E-05
   48.78000     -7.5311735E-05
   48.84000     -8.2082130E-05
   48.90000     -8.9300658E-05
   48.96000     -9.6979733E-05
   49.02000     -1.0513040E-04
   49.08000     -1.1376203E-04
   49.14000     -1.2288229E-04
   49.20000     -1.3249683E-04
   49.26000     -1.4260915E-04
   49.32000     -1.5322045E-04
   49.38000     -1.6432941E-04
   49.44000     -1.7593206E-04
   49.50000     -1.8802163E-04
   49.56000     -2.0058850E-04
   49.62000     -2.1362005E-04
   49.68000     -2.2710064E-04
   49.74000     -2.4101153E-04
   49.80000     -2.5533093E-04
   49.86000     -2.7003398E-04
   49.92000     -2.8509271E-04
   49.98000     -3.0047615E-04
   50.04000     -3.1615052E-04
   50.10000     -3.3207919E-04
   50.16000     -3.4822302E-04
   50.22000     -3.6454061E-04
   50.28000     -3.8098847E-04
   50.34000     -3.9752151E-04
   50.40000     -4.1409329E-04
   50.46000     -4.3065634E-04
   50.52000     -4.4716251E-04
   50.58000     -4.6356328E-04
   50.64000     -4.7981023E-04
   50.70000     -4.9585541E-04
   50.76000     -5.1165192E-04
   50.82000     -5.2715401E-04
   50.88000     -5.4231792E-04
   50.94000     -5.5710203E-04
   51.00000     -5.7146739E-04
   51.06000     -5.8537844E-04
   51.12000     -5.9880287E-04
   51.18000     -6.1171211E-04
   51.24000     -6.2408199E-04
   51.30000     -6.3589256E-04
   51.36000     -6.4712833E-04
   51.42000     -6.5777882E-04
   51.48000     -6.6783803E-04
   51.54000     -6.7730498E-04
   51.60000     -6.8618386E-04
   51.66000     -6.9448364E-04
   51.72000     -7.0221827E-04
   51.78000     -7.0940651E-04
   51.84000     -7.1607169E-04
   51.90000     -7.2224118E-04
   51.96000     -7.2794623E-04
   52.02000     -7.3322153E-04
   52.08000     -7.3810457E-04
   52.14000     -7.4263557E-04
   52.20000     -7.4685691E-04
   52.26000     -7.5081224E-04
   52.32000     -7.5454661E-04
   52.38000     -7.5810542E-04
   52.44000     -7.6153391E-04
   52.50000     -7.6487666E-04
   52.56000     -7.6817704E-04
   52.62000     -7.7147665E-04
   52.68000     -7.7481481E-04
   52.74000     -7.7822799E-04
   52.80000     -7.8174926E-04
   52.86000     -7.8540813E-04
   52.92000     -7.8923011E-04
   52.98000     -7.9323602E-04
   53.04000     -7.9744245E-04
   53.10000     -8.0186100E-04
   53.16000     -8.0649840E-04
   53.22000     -8.1135647E-04
   53.28000     -8.1643177E-04
   53.34000     -8.2171609E-04
   53.40000     -8.2719658E-04
   53.46000     -8.3285588E-04
   53.52000     -8.3867251E-04
   53.58000     -8.4462162E-04
   53.64000     -8.5067458E-04
   53.70000     -8.5679960E-04
   53.76000     -8.6296245E-04
   53.82000     -8.6912635E-04
   53.88000     -8.7525306E-04
   53.94000     -8.8130345E-04
   54.00000     -8.8723819E-04
   54.06000     -8.9301786E-04
   54.12000     -8.9860405E-04
   54.18000     -9.0395944E-04
   54.24000     -9.0904866E-04
   54.30000     -9.1383851E-04
   54.36000     -9.1829890E-04
   54.42000     -9.2240277E-04
   54.48000     -9.2612655E-04
   54.54000     -9.2945038E-04
   54.60000     -9.3235821E-04
   54.66000     -9.3483849E-04
   54.72000     -9.3688379E-04
   54.78000     -9.3849131E-04
   54.84000     -9.3966257E-04
   54.90000     -9.4040361E-04
   54.96000     -9.4072439E-04
   55.02000     -9.4063918E-04
   55.08000     -9.4016572E-04
   55.14000     -9.3932549E-04
   55.20000     -9.3814300E-04
   55.26000     -9.3664526E-04
   55.32000     -9.3486154E-04
   55.38000     -9.3282276E-04
   55.44000     -9.3056122E-04
   55.50000     -9.2810992E-04
   55.56000     -9.2550204E-04