  -2.400000      0.0000000E+00
  -2.340000      0.0000000E+00
  -2.280000      0.0000000E+00
  -2.220000      0.0000000E+00
  -2.160000      0.0000000E+00
  -2.100000      0.0000000E+00
  -2.040000      0.0000000E+00
  -1.980000      0.0000000E+00
  -1.920000      0.0000000E+00
  -1.860000      0.0000000E+00
  -1.800000      2.5821045E-31
  -1.740000      1.2271291E-29
  -1.680000      1.5157005E-28
  -1.620000      1.0017752E-27
  -1.560000      4.2264548E-27
  -1.500000      1.1646327E-26
  -1.440000      1.6865122E-26
  -1.380000     -1.8199926E-26
  -1.320000     -1.9203711E-25
  -1.260000     -6.3031929E-25
  -1.200000     -1.2468071E-24
  -1.140000     -1.1901601E-24
  -1.080000      1.7433936E-24
  -1.020000      1.0607619E-23
 -0.9600000      2.5847700E-23
 -0.9000000      3.7978781E-23
 -0.8400000      2.0077933E-23
 -0.7800000     -6.8401548E-23
 -0.7200000     -2.5010475E-22
 -0.6600000     -4.6471102E-22
 -0.6000000     -5.0116250E-22
 -0.5400000     -1.1767268E-23
 -0.4800000      1.2818193E-21
 -0.4200000      3.1571949E-21
 -0.3600000      4.4255342E-21
 -0.3000000      2.9221886E-21
 -0.2400000     -3.4368825E-21
 -0.1800000     -1.4343519E-20
 -0.1200000     -2.4476336E-20
 -5.9999999E-02 -2.2957558E-20
  0.0000000E+00  2.1650829E-21
  5.9999999E-02  5.3321736E-20
  0.1200000      1.1054889E-19
  0.1800000      1.2641644E-19
  0.2400000      4.1588816E-20
  0.3000000     -1.7283035E-19
  0.3600000     -4.5874346E-19
  0.4200000     -6.3740739E-19
  0.4800000     -4.4923155E-19
  0.5400000      3.0151925E-19
  0.6000000      1.5279186E-18
  0.6600000      2.6857874E-18
  0.7200000      2.8210833E-18
  0.7800000      9.7775333E-19
  0.8400000     -3.0757514E-18
  0.9000000     -8.1233934E-18
  0.9600000     -1.1334580E-17
   1.020000     -9.1726927E-18
   1.080000      5.5268848E-19
   1.140000      1.6226082E-17
   1.200000      3.1078661E-17
   1.260000      3.4639856E-17
   1.320000      1.7717444E-17
   1.380000     -2.0439300E-17
   1.440000     -6.6507670E-17
   1.500000     -9.3850847E-17
   1.560000     -7.2928253E-17
   1.620000      1.0179471E-17
   1.680000      1.3512856E-16
   1.740000      2.4115298E-16
   1.800000      2.4457706E-16
   1.860000      8.1484464E-17
   1.920000     -2.3885996E-16
   1.980000     -5.9899481E-16
   2.040000     -7.8915137E-16
   2.100000     -5.9053988E-16
   2.160000      9.2089985E-17
   2.220000      1.1068921E-15
   2.280000      2.0215309E-15
   2.340000      2.2442309E-15
   2.400000      1.2990387E-15
   2.460000     -8.3876670E-16
   2.520000     -3.5198672E-15
   2.580000     -5.4925085E-15
   2.640000     -5.3544925E-15
   2.700000     -2.2842600E-15
   2.760000      3.2550773E-15
   2.820000      9.2532988E-15
   2.880000      1.2656963E-14
   2.940000      1.0652015E-14
   3.000000      2.2994914E-15
   3.060000     -1.0259126E-14
   3.120000     -2.1853516E-14
   3.180000     -2.6011523E-14
   3.240000     -1.7994199E-14
   3.300000      2.0773246E-15
   3.360000      2.7676258E-14
   3.420000      4.7259895E-14
   3.480000      4.8782081E-14
   3.540000      2.5880353E-14
   3.600000     -1.7058690E-14
   3.660000     -6.3989050E-14
   3.720000     -9.2151723E-14
   3.780000     -8.1950146E-14
   3.840000     -2.7952668E-14
   3.900000      5.4423165E-14
   3.960000      1.3119235E-13
   4.020000      1.6223997E-13
   4.080000      1.2012941E-13
   4.140000      7.2392272E-15
   4.200000     -1.3794693E-13
   4.260000     -2.5124206E-13
   4.320000     -2.6857317E-13
   4.380000     -1.5782502E-13
   4.440000      5.7850527E-14
   4.500000      2.9877191E-13
   4.560000      4.5495313E-13
   4.620000      4.3276881E-13
   4.680000      2.0346101E-13
   4.740000     -1.6976447E-13
   4.800000     -5.4341460E-13
   4.860000     -7.4598579E-13
   4.920000     -6.5334516E-13
   4.980000     -2.5537927E-13
   5.040000      3.1939178E-13
   5.100000      8.4018973E-13
   5.160000      1.0643926E-12
   5.220000      8.4815504E-13
   5.280000      2.2832005E-13
   5.340000     -5.6745765E-13
   5.400000     -1.1982222E-12
   5.460000     -1.3517703E-12
   5.520000     -8.9426437E-13
   5.580000      4.1607238E-14
   5.640000      1.0802364E-12
   5.700000      1.7437467E-12
   5.760000      1.6610285E-12
   5.820000      7.5764313E-13
   5.880000     -6.6450388E-13
   5.940000     -2.0106976E-12
   6.000000     -2.6253281E-12
   6.060000     -2.0871349E-12
   6.120000     -4.4190517E-13
   6.180000      1.7423389E-12
   6.240000      3.5483309E-12
   6.300000      4.0660184E-12
   6.360000      2.8001427E-12
   6.420000     -4.3360860E-14
   6.480000     -3.5334439E-12
   6.540000     -6.2973246E-12
   6.600000     -7.0289421E-12
   6.660000     -5.0347066E-12
   6.720000     -5.9281746E-13
   6.780000      5.0413541E-12
   6.840000      1.0018208E-11
   6.900000      1.2539925E-11
   6.960000      1.1524617E-11
   7.020000      7.0193924E-12
   7.080000      1.8269250E-13
   7.140000     -7.1697834E-12
   7.200000     -1.3272165E-11
   7.260000     -1.7062962E-11
   7.320000     -1.8486370E-11
   7.380000     -1.8280990E-11
   7.440000     -1.7324503E-11
   7.500000     -1.5824529E-11
   7.560000     -1.2761273E-11
   7.620000     -5.9332838E-12
   7.680000      7.2632668E-12
   7.740000      2.8503018E-11
   7.800000      5.7108287E-11
   7.860000      8.9120100E-11
   7.920000      1.1734885E-10
   7.980000      1.3258117E-10
   8.040000      1.2570721E-10
   8.100000      9.0174146E-11
   8.160000      2.4018057E-11
   8.220000     -6.9146786E-11
   8.280000     -1.8042681E-10
   8.340000     -2.9700056E-10
   8.400000     -4.0389689E-10
   8.460000     -4.8544979E-10
   8.520000     -5.2589244E-10
   8.580000     -5.0903148E-10
   8.640000     -4.1749190E-10
   8.700000     -2.3239423E-10
   8.760000      6.5676173E-11
   8.820000      4.9396787E-10
   8.880000      1.0634027E-09
   8.940000      1.7739527E-09
   9.000000      2.6109837E-09
   9.060000      3.5439185E-09
   9.120000      4.5279633E-09
   9.180000      5.5087015E-09
   9.240000      6.4284502E-09
   9.300000      7.2327366E-09
   9.360000      7.8753173E-09
   9.420000      8.3208613E-09
   9.480000      8.5453387E-09
   9.540000      8.5351202E-09
   9.600000      8.2861282E-09
   9.660000      7.8041422E-09
   9.720000      7.1064852E-09
   9.780000      6.2242882E-09
   9.840000      5.2037072E-09
   9.900000      4.1044488E-09
   9.960000      2.9946456E-09
   10.02000      1.9424846E-09
   10.08000      1.0063835E-09
   10.14000      2.2641278E-10
   10.20000     -3.8040249E-10
   10.26000     -8.1933704E-10
   10.32000     -1.1119622E-09
   10.38000     -1.2868399E-09
   10.44000     -1.3699781E-09
   10.50000     -1.3781013E-09
   10.56000     -1.3166402E-09
   10.62000     -1.1824972E-09
   10.68000     -9.6983199E-10
   10.74000     -6.7606221E-10
   10.80000     -3.0543529E-10
   10.86000      1.3119182E-10
   10.92000      6.1984712E-10
   10.98000      1.1480490E-09
   11.04000      1.7076889E-09
   11.10000      2.2940205E-09
   11.16000      2.9003695E-09
   11.22000      3.5103611E-09
   11.28000      4.0911026E-09
   11.34000      4.5910551E-09
   11.40000      4.9450262E-09
   11.46000      5.0861768E-09
   11.52000      4.9621534E-09
   11.58000      4.5504533E-09
   11.64000      3.8678860E-09
   11.70000      2.9706206E-09
   11.76000      1.9443143E-09
   11.82000      8.8711744E-10
   11.88000     -1.0935380E-10
   11.94000     -9.7553010E-10
   12.00000     -1.6719152E-09
   12.06000     -2.1885913E-09
   12.12000     -2.5382858E-09
   12.18000     -2.7471152E-09
   12.24000     -2.8472675E-09
   12.30000     -2.8741640E-09
   12.36000     -2.8678435E-09
   12.42000     -2.8757512E-09
   12.48000     -2.9529756E-09
   12.54000     -3.1568674E-09
   12.60000     -3.5356080E-09
   12.66000     -4.1135313E-09
   12.72000     -4.8784194E-09
   12.78000     -5.7763727E-09
   12.84000     -6.7178361E-09
   12.90000     -7.5945712E-09
   12.96000     -8.3032647E-09
   13.02000     -8.7687138E-09
   13.08000     -8.9592929E-09
   13.14000     -8.8899643E-09
   13.20000     -8.6124388E-09
   13.26000     -8.1965741E-09
   13.32000     -7.7100264E-09
   13.38000     -7.2032513E-09
   13.44000     -6.7043748E-09
   13.50000     -6.2241474E-09
   13.56000     -5.7671130E-09
   13.62000     -5.3427551E-09
   13.68000     -4.9708713E-09
   13.74000     -4.6783475E-09
   13.80000     -4.4886579E-09
   13.86000     -4.4089967E-09
   13.92000     -4.4213349E-09
   13.98000     -4.4823736E-09
   14.04000     -4.5337103E-09
   14.10000     -4.5191926E-09
   14.16000     -4.4031281E-09
   14.22000     -4.1822048E-09
   14.28000     -3.8860977E-09
   14.34000     -3.5659413E-09
   14.40000     -3.2745566E-09
   14.46000     -3.0456289E-09
   14.52000     -2.8795912E-09
   14.58000     -2.7415654E-09
   14.64000     -2.5722173E-09
   14.70000     -2.3075839E-09
   14.76000     -1.9006645E-09
   14.82000     -1.3370771E-09
   14.88000     -6.3952438E-10
   14.94000      1.3986723E-10
   15.00000      9.3579544E-10
   15.06000      1.6882140E-09
   15.12000      2.3563305E-09
   15.18000      2.9239340E-09
   15.24000      3.3956464E-09
   15.30000      3.7873500E-09
   15.36000      4.1159729E-09
   15.42000      4.3933839E-09
   15.48000      4.6266511E-09
   15.54000      4.8235860E-09
   15.60000      4.9998707E-09
   15.66000      5.1832143E-09
   15.72000      5.4112945E-09
   15.78000      5.7230500E-09
   15.84000      6.1459304E-09
   15.90000      6.6837438E-09
   15.96000      7.3098203E-09
   16.02000      7.9684401E-09
   16.08000      8.5844771E-09
   16.14000      9.0783114E-09
   16.20000      9.3813286E-09
   16.26000      9.4473736E-09
   16.32000      9.2573602E-09
   16.38000      8.8168575E-09
   16.44000      8.1490397E-09
   16.50000      7.2866833E-09
   16.56000      6.2666365E-09
   16.62000      5.1285021E-09
   16.68000      3.9169921E-09
   16.74000      2.6855003E-09
   16.80000      1.4977295E-09
   16.86000      4.2498496E-10
   16.92000     -4.6140022E-10
   16.98000     -1.1008130E-09
   17.04000     -1.4540155E-09
   17.10000     -1.5101204E-09
   17.16000     -1.2873980E-09
   17.22000     -8.2749335E-10
   17.28000     -1.8485502E-10
   17.34000      5.8531135E-10
   17.40000      1.4370006E-09
   17.46000      2.3387492E-09
   17.52000      3.2736740E-09
   17.58000      4.2353925E-09
   17.64000      5.2221707E-09
   17.70000      6.2317236E-09
   17.76000      7.2581874E-09
   17.82000      8.2914298E-09
   17.88000      9.3177110E-09
   17.94000      1.0320302E-08
   18.00000      1.1279095E-08
   18.06000      1.2169245E-08
   18.12000      1.2959920E-08
   18.18000      1.3614676E-08
   18.24000      1.4094693E-08
   18.30000      1.4365058E-08
   18.36000      1.4402959E-08
   18.42000      1.4205706E-08
   18.48000      1.3796120E-08
   18.54000      1.3223461E-08
   18.60000      1.2559224E-08
   18.66000      1.1888586E-08
   18.72000      1.1299293E-08
   18.78000      1.0870361E-08
   18.84000      1.0662655E-08
   18.90000      1.0712728E-08
   18.96000      1.1030497E-08
   19.02000      1.1600530E-08
   19.08000      1.2386390E-08
   19.14000      1.3337183E-08
   19.20000      1.4395384E-08
   19.26000      1.5504849E-08
   19.32000      1.6617738E-08
   19.38000      1.7699167E-08
   19.44000      1.8728709E-08
   19.50000      1.9698714E-08
   19.56000      2.0610322E-08
   19.62000      2.1468878E-08
   19.68000      2.2280561E-08
   19.74000      2.3051465E-08
   19.80000      2.3789113E-08
   19.86000      2.4505054E-08
   19.92000      2.5216529E-08
   19.98000      2.5945365E-08
   20.04000      2.6713558E-08
   20.10000      2.7536657E-08
   20.16000      2.8417457E-08
   20.22000      2.9342758E-08
   20.28000      3.0285026E-08
   20.34000      3.1208824E-08
   20.40000      3.2079793E-08
   20.46000      3.2872634E-08
   20.52000      3.3574626E-08
   20.58000      3.4182698E-08
   20.64000      3.4694558E-08
   20.70000      3.5096754E-08
   20.76000      3.5354191E-08
   20.82000      3.5405588E-08
   20.88000      3.5167865E-08
   20.94000      3.4549846E-08
   21.00000      3.3472539E-08
   21.06000      3.1891048E-08
   21.12000      2.9811986E-08
   21.18000      2.7301050E-08
   21.24000      2.4477824E-08
   21.30000      2.1498263E-08
   21.36000      1.8528912E-08
   21.42000      1.5719477E-08
   21.48000      1.3180946E-08
   21.54000      1.0974990E-08
   21.60000      9.1168815E-09
   21.66000      7.5899118E-09
   21.72000      6.3656729E-09
   21.78000      5.4228271E-09
   21.84000      4.7578279E-09
   21.90000      4.3842325E-09
   21.96000      4.3215995E-09
   22.02000      4.5789079E-09
   22.08000      5.1394351E-09
   22.14000      5.9533760E-09
   22.20000      6.9414119E-09
   22.26000      8.0081870E-09
   22.32000      9.0608916E-09
   22.38000      1.0026350E-08
   22.44000      1.0860778E-08
   22.50000      1.1549408E-08
   22.56000      1.2097098E-08
   22.62000      1.2514416E-08
   22.68000      1.2805058E-08
   22.74000      1.2959583E-08
   22.80000      1.2957646E-08
   22.86000      1.2777416E-08
   22.92000      1.2408115E-08
   22.98000      1.1860564E-08
   23.04000      1.1171539E-08
   23.10000      1.0400271E-08
   23.16000      9.6183035E-09
   23.22000      8.8963148E-09
   23.28000      8.2922673E-09
   23.34000      7.8445188E-09
   23.40000      7.5714102E-09
   23.46000      7.4765074E-09
   23.52000      7.5567046E-09
   23.58000      7.8097822E-09
   23.64000      8.2385831E-09
   23.70000      8.8505692E-09
   23.76000      9.6533412E-09
   23.82000      1.0648142E-08
   23.88000      1.1823839E-08
   23.94000      1.3153494E-08
   24.00000      1.4594484E-08
   24.06000      1.6091899E-08
   24.12000      1.7583952E-08
   24.18000      1.9007697E-08
   24.24000      2.0303599E-08
   24.30000      2.1418048E-08
   24.36000      2.2303809E-08
   24.42000      2.2919107E-08
   24.48000      2.3226498E-08
   24.54000      2.3192673E-08
   24.60000      2.2789973E-08
   24.66000      2.1999549E-08
   24.72000      2.0815273E-08
   24.78000      1.9246892E-08
   24.84000      1.7320835E-08
   24.90000      1.5077710E-08
   24.96000      1.2566661E-08
   25.02000      9.8380779E-09
   25.08000      6.9369137E-09
   25.14000      3.8989616E-09
   25.20000      7.5139328E-10
   25.26000     -2.4826503E-09
   25.32000     -5.7772849E-09
   25.38000     -9.0977226E-09
   25.44000     -1.2397409E-08
   25.50000     -1.5619978E-08
   25.56000     -1.8705757E-08
   25.62000     -2.1600972E-08
   25.68000     -2.4266841E-08
   25.74000     -2.6685969E-08
   25.80000     -2.8864422E-08
   25.86000     -3.0829366E-08
   25.92000     -3.2623245E-08
   25.98000     -3.4296264E-08
   26.04000     -3.5898776E-08
   26.10000     -3.7474855E-08
   26.16000     -3.9057710E-08
   26.22000     -4.0667317E-08
   26.28000     -4.2310166E-08
   26.34000     -4.3980922E-08
   26.40000     -4.5665235E-08
   26.46000     -4.7342834E-08
   26.52000     -4.8989826E-08
   26.58000     -5.0579672E-08
   26.64000     -5.2083077E-08
   26.70000     -5.3467897E-08
   26.76000     -5.4700447E-08
   26.82000     -5.5749066E-08
   26.88000     -5.6589464E-08
   26.94000     -5.7210013E-08
   27.00000     -5.7614638E-08
   27.06000     -5.7821325E-08
   27.12000     -5.7856223E-08
   27.18000     -5.7745154E-08
   27.24000     -5.7505812E-08
   27.30000     -5.7143531E-08
   27.36000     -5.6652212E-08
   27.42000     -5.6019569E-08
   27.48000     -5.5234267E-08
   27.54000     -5.4291821E-08
   27.60000     -5.3197052E-08
   27.66000     -5.1962569E-08
   27.72000     -5.0604353E-08
   27.78000     -4.9136545E-08
   27.84000     -4.7567454E-08
   27.90000     -4.5898123E-08
   27.96000     -4.4123880E-08
   28.02000     -4.2238280E-08
   28.08000     -4.0238437E-08
   28.14000     -3.8130246E-08
   28.20000     -3.5931986E-08
   28.26000     -3.3675025E-08
   28.32000     -3.1400944E-08
   28.38000     -2.9155487E-08
   28.44000     -2.6980853E-08
   28.50000     -2.4908593E-08
   28.56000     -2.2955486E-08
   28.62000     -2.1123874E-08
   28.68000     -1.9406357E-08
   28.74000     -1.7793344E-08
   28.80000     -1.6280788E-08
   28.86000     -1.4875488E-08
   28.92000     -1.3596126E-08
   28.98000     -1.2469743E-08
   29.04000     -1.1524836E-08
   29.10000     -1.0783372E-08
   29.16000     -1.0254295E-08
   29.22000     -9.9305995E-09
   29.28000     -9.7908153E-09
   29.34000     -9.8042774E-09
   29.40000     -9.9382600E-09
   29.46000     -1.0164436E-08
   29.52000     -1.0462494E-08
   29.58000     -1.0819963E-08
   29.64000     -1.1228853E-08
   29.70000     -1.1681138E-08
   29.76000     -1.2165413E-08
   29.82000     -1.2666445E-08
   29.88000     -1.3167728E-08
   29.94000     -1.3655597E-08
   30.00000     -1.4122625E-08
   30.06000     -1.4568283E-08
   30.12000     -1.4996234E-08
   30.18000     -1.5409372E-08
   30.24000     -1.5804995E-08
   30.30000     -1.6172622E-08
   30.36000     -1.6495925E-08
   30.42000     -1.6758323E-08
   30.48000     -1.6950031E-08
   30.54000     -1.7073317E-08
   30.60000     -1.7143062E-08
   30.66000     -1.7181438E-08
   30.72000     -1.7207769E-08
   30.78000     -1.7227045E-08
   30.84000     -1.7221629E-08
   30.90000     -1.7150141E-08
   30.96000     -1.6955303E-08
   31.02000     -1.6579072E-08
   31.08000     -1.5980246E-08
   31.14000     -1.5148212E-08
   31.20000     -1.4107210E-08
   31.26000     -1.2909035E-08
   31.32000     -1.1616473E-08
   31.38000     -1.0283912E-08
   31.44000     -8.9429673E-09
   31.50000     -7.5991906E-09
   31.56000     -6.2412755E-09
   31.62000     -4.8587450E-09
   31.68000     -3.4601786E-09
   31.74000     -2.0835191E-09
   31.80000     -7.9324669E-10
   31.86000      3.3516331E-10
   31.92000      1.2375946E-09
   31.98000      1.8815907E-09
   32.04000      2.2766438E-09
   32.10000      2.4707691E-09
   32.16000      2.5353009E-09
   32.22000      2.5443410E-09
   32.28000      2.5567668E-09
   32.34000      2.6067866E-09
   32.40000      2.7048432E-09
   32.46000      2.8462954E-09
   32.52000      3.0226421E-09
   32.58000      3.2300485E-09
   32.64000      3.4721941E-09
   32.70000      3.7576586E-09
   32.76000      4.0946038E-09
   32.82000      4.4863304E-09
   32.88000      4.9302660E-09
   32.94000      5.4207332E-09
   33.00000      5.9536629E-09
   33.06000      6.5302364E-09
   33.12000      7.1568773E-09
   33.18000      7.8408169E-09
   33.24000      8.5828562E-09
   33.30000      9.3708676E-09
   33.36000      1.0177938E-08
   33.42000      1.0967452E-08
   33.48000      1.1704355E-08
   33.54000      1.2368499E-08
   33.60000      1.2964025E-08
   33.66000      1.3519482E-08
   33.72000      1.4076850E-08
   33.78000      1.4672606E-08
   33.84000      1.5318136E-08
   33.90000      1.5988133E-08
   33.96000      1.6622856E-08
   34.02000      1.7144583E-08
   34.08000      1.7482277E-08
   34.14000      1.7594697E-08
   34.20000      1.7482529E-08
   34.26000      1.7184647E-08
   34.32000      1.6760309E-08
   34.38000      1.6264851E-08
   34.44000      1.5728871E-08
   34.50000      1.5149091E-08
   34.56000      1.4493912E-08
   34.62000      1.3720725E-08
   34.68000      1.2797497E-08
   34.74000      1.1719892E-08
   34.80000      1.0517287E-08
   34.86000      9.2455554E-09
   34.92000      7.9695743E-09
   34.98000      6.7423045E-09
   35.04000      5.5884914E-09
   35.10000      4.4992650E-09
   35.16000      3.4396426E-09
   35.22000      2.3657978E-09
   35.28000      1.2448617E-09
   35.34000      6.8837727E-11
   35.40000     -1.1434264E-09
   35.46000     -2.3571072E-09
   35.52000     -3.5402199E-09
   35.58000     -4.6816773E-09
   35.64000     -5.7999947E-09
   35.70000     -6.9381518E-09
   35.76000     -8.1465208E-09
   35.82000     -9.4613872E-09
   35.88000     -1.0888816E-08
   35.94000     -1.2401253E-08
   36.00000     -1.3948451E-08
   36.06000     -1.5477735E-08
   36.12000     -1.6954480E-08
   36.18000     -1.8373729E-08
   36.24000     -1.9758163E-08
   36.30000     -2.1143860E-08
   36.36000     -2.2560746E-08
   36.42000     -2.4016623E-08
   36.48000     -2.5491598E-08
   36.54000     -2.6944674E-08
   36.60000     -2.8328623E-08
   36.66000     -2.9605847E-08
   36.72000     -3.0757981E-08
   36.78000     -3.1785536E-08
   36.84000     -3.2698974E-08
   36.90000     -3.3506808E-08
   36.96000     -3.4207599E-08
   37.02000     -3.4790329E-08
   37.08000     -3.5243271E-08
   37.14000     -3.5566455E-08
   37.20000     -3.5780914E-08
   37.26000     -3.5928856E-08
   37.32000     -3.6063405E-08
   37.38000     -3.6231786E-08
   37.44000     -3.6459404E-08
   37.50000     -3.6742424E-08
   37.56000     -3.7052750E-08
   37.62000     -3.7353619E-08
   37.68000     -3.7619021E-08
   37.74000     -3.7848125E-08
   37.80000     -3.8067803E-08
   37.86000     -3.8321780E-08
   37.92000     -3.8650647E-08
   37.98000     -3.9071356E-08
   38.04000     -3.9564938E-08
   38.10000     -4.0078174E-08
   38.16000     -4.0538932E-08
   38.22000     -4.0879620E-08
   38.28000     -4.1059945E-08
   38.34000     -4.1080717E-08
   38.40000     -4.0983970E-08
   38.46000     -4.0840032E-08
   38.52000     -4.0726732E-08
   38.58000     -4.0708315E-08
   38.64000     -4.0821103E-08
   38.70000     -4.1069566E-08
   38.76000     -4.1432379E-08
   38.82000     -4.1874515E-08
   38.88000     -4.2359783E-08
   38.94000     -4.2859135E-08
   39.00000     -4.3352713E-08
   39.06000     -4.3826695E-08
   39.12000     -4.4268216E-08
   39.18000     -4.4662269E-08
   39.24000     -4.4992838E-08
   39.30000     -4.5248171E-08
   39.36000     -4.5427644E-08
   39.42000     -4.5546390E-08
   39.48000     -4.5634565E-08
   39.54000     -4.5730076E-08
   39.60000     -4.5866720E-08
   39.66000     -4.6061722E-08
   39.72000     -4.6307456E-08
   39.78000     -4.6570804E-08
   39.84000     -4.6800722E-08
   39.90000     -4.6941302E-08
   39.96000     -4.6945519E-08
   40.02000     -4.6784468E-08
   40.08000     -4.6449248E-08
   40.14000     -4.5945626E-08
   40.20000     -4.5284953E-08
   40.26000     -4.4476096E-08
   40.32000     -4.3522171E-08
   40.38000     -4.2423014E-08
   40.44000     -4.1181249E-08
   40.50000     -3.9807833E-08
   40.56000     -3.8323599E-08
   40.62000     -3.6755583E-08
   40.68000     -3.5130174E-08
   40.74000     -3.3466826E-08
   40.80000     -3.1775912E-08
   40.86000     -3.0061926E-08
   40.92000     -2.8330383E-08
   40.98000     -2.6594581E-08
   41.04000     -2.4878757E-08
   41.10000     -2.3215918E-08
   41.16000     -2.1641510E-08
   41.22000     -2.0185949E-08
   41.28000     -1.8869233E-08
   41.34000     -1.7699369E-08
   41.40000     -1.6674157E-08
   41.46000     -1.5784231E-08
   41.52000     -1.5015026E-08
   41.58000     -1.4346488E-08
   41.64000     -1.3751118E-08
   41.70000     -1.3192436E-08
   41.76000     -1.2626308E-08
   41.82000     -1.2006640E-08
   41.88000     -1.1295011E-08
   41.94000     -1.0471740E-08
   42.00000     -9.5445198E-09
   42.06000     -8.5508205E-09
   42.12000     -7.5519715E-09
   42.18000     -6.6196701E-09
   42.24000     -5.8186518E-09
   42.30000     -5.1909943E-09
   42.36000     -4.7471720E-09
   42.42000     -4.4664592E-09
   42.48000     -4.3056052E-09
   42.54000     -4.2115693E-09
   42.60000     -4.1329313E-09
   42.66000     -4.0259960E-09
   42.72000     -3.8547103E-09
   42.78000     -3.5868055E-09
   42.84000     -3.1902270E-09
   42.90000     -2.6332958E-09
   42.96000     -1.8895128E-09
   43.02000     -9.4500507E-10
   43.08000      1.9518205E-10
   43.14000      1.5055205E-09
   43.20000      2.9446909E-09
   43.26000      4.4652908E-09
   43.32000      6.0251439E-09
   43.38000      7.5961086E-09
   43.44000      9.1672598E-09
   43.50000      1.0741491E-08
   43.56000      1.2326939E-08
   43.62000      1.3926476E-08
   43.68000      1.5529146E-08
   43.74000      1.7106752E-08
   43.80000      1.8617060E-08
   43.86000      2.0012887E-08
   43.92000      2.1254163E-08
   43.98000      2.2319050E-08
   44.04000      2.3210298E-08
   44.10000      2.3954664E-08
   44.16000      2.4595719E-08
   44.22000      2.5182706E-08
   44.28000      2.5759665E-08
   44.34000      2.6358871E-08
   44.40000      2.7001088E-08
   44.46000      2.7702484E-08
   44.52000      2.8485822E-08
   44.58000      2.9392128E-08
   44.64000      3.0489325E-08
   44.70000      3.1875757E-08
   44.76000      3.3678795E-08
   44.82000      3.6050444E-08
   44.88000      3.9162757E-08
   44.94000      4.3205638E-08
   45.00000      4.8388522E-08
   45.06000      5.4945911E-08
   45.12000      6.3145791E-08
   45.18000      7.3299340E-08
   45.24000      8.5770679E-08
   45.30000      1.0098617E-07
   45.36000      1.1944391E-07
   45.42000      1.4172458E-07
   45.48000      1.6850538E-07
   45.54000      2.0057783E-07
   45.60000      2.3886983E-07
   45.66000      2.8447039E-07
   45.72000      3.3865578E-07
   45.78000      4.0291650E-07
   45.84000      4.7898459E-07
   45.90000      5.6886262E-07
   45.96000      6.7485774E-07
   46.02000      7.9962035E-07
   46.08000      9.4618861E-07
   46.14000      1.1180390E-06
   46.20000      1.3191391E-06
   46.26000      1.5540048E-06
   46.32000      1.8277622E-06
   46.38000      2.1462133E-06
   46.44000      2.5159106E-06
   46.50000      2.9442378E-06
   46.56000      3.4394959E-06
   46.62000      4.0109926E-06
   46.68000      4.6691371E-06
   46.74000      5.4255293E-06
   46.80000      6.2930626E-06
   46.86000      7.2860262E-06
   46.92000      8.4202120E-06
   46.98000      9.7130351E-06
   47.04000      1.1183645E-05
   47.10000      1.2853049E-05
   47.16000      1.4744226E-05
   47.22000      1.6882239E-05
   47.28000      1.9294341E-05
   47.34000      2.2010077E-05
   47.40000      2.5061388E-05
   47.46000      2.8482682E-05
   47.52000      3.2310923E-05
   47.58000      3.6585698E-05
   47.64000      4.1349238E-05
   47.70000      4.6646459E-05
   47.76000      5.2524938E-05
   47.82000      5.9034868E-05
   47.88000      6.6228989E-05
   47.94000      7.4162512E-05
   48.00000      8.2892977E-05
   48.06000      9.2480106E-05
   48.12000      1.0298565E-04
   48.18000      1.1447315E-04
   48.24000      1.2700766E-04
   48.30000      1.4065541E-04
   48.36000      1.5548346E-04
   48.42000      1.7155921E-04
   48.48000      1.8894993E-04
   48.54000      2.0772233E-04
   48.60000      2.2794188E-04
   48.66000      2.4967239E-04
   48.72000      2.7297522E-04
   48.78000      2.9790885E-04
   48.84000      3.2452799E-04
   48.90000      3.5288295E-04
   48.96000      3.8301892E-04
   49.02000      4.1497522E-04
   49.08000      4.4878447E-04
   49.14000      4.8447200E-04
   49.20000      5.2205485E-04
   49.26000      5.6154153E-04
   49.32000      6.0293102E-04
   49.38000      6.4621237E-04
   49.44000      6.9136417E-04
   49.50000      7.3835388E-04
   49.56000      7.8713760E-04
   49.62000      8.3765964E-04
   49.68000      8.8985235E-04
   49.74000      9.4363617E-04
   49.80000      9.9891925E-04
   49.86000      1.0555983E-03
   49.92000      1.1135578E-03
   49.98000      1.1726719E-03
   50.04000      1.2328037E-03
   50.10000      1.2938068E-03
   50.16000      1.3555252E-03
   50.22000      1.4177950E-03
   50.28000      1.4804447E-03
   50.34000      1.5432975E-03
   50.40000      1.6061729E-03
   50.46000      1.6688862E-03
   50.52000      1.7312518E-03
   50.58000      1.7930844E-03
   50.64000      1.8541999E-03
   50.70000      1.9144180E-03
   50.76000      1.9735636E-03
   50.82000      2.0314676E-03
   50.88000      2.0879710E-03
   50.94000      2.1429239E-03
   51.00000      2.1961888E-03
   51.06000      2.2476411E-03
   51.12000      2.2971712E-03
   51.18000      2.3446847E-03
   51.24000      2.3901050E-03
   51.30000      2.4333734E-03
   51.36000      2.4744486E-03
   51.42000      2.5133099E-03
   51.48000      2.5499554E-03
   51.54000      2.5844027E-03
   51.60000      2.6166886E-03
   51.66000      2.6468695E-03
   51.72000      2.6750192E-03
   51.78000      2.7012301E-03
   51.84000      2.7256100E-03
   51.90000      2.7482822E-03
   51.96000      2.7693843E-03
   52.02000      2.7890648E-03
   52.08000      2.8074835E-03
   52.14000      2.8248075E-03
   52.20000      2.8412105E-03
   52.26000      2.8568706E-03
   52.32000      2.8719669E-03
   52.38000      2.8866783E-03
   52.44000      2.9011799E-03
   52.50000      2.9156425E-03
   52.56000      2.9302295E-03
   52.62000      2.9450944E-03
   52.68000      2.9603804E-03
   52.74000      2.9762171E-03
   52.80000      2.9927185E-03
   52.86000      3.0099826E-03
   52.92000      3.0280901E-03
   52.98000      3.0471021E-03
   53.04000      3.0670608E-03
   53.10000      3.0879888E-03
   53.16000      3.1098884E-03
   53.22000      3.1327417E-03
   53.28000      3.1565099E-03
   53.34000      3.1811353E-03
   53.40000      3.2065415E-03
   53.46000      3.2326344E-03
   53.52000      3.2593042E-03
   53.58000      3.2864262E-03
   53.64000      3.3138630E-03
   53.70000      3.3414650E-03
   53.76000      3.3690745E-03
   53.82000      3.3965260E-03
   53.88000      3.4236487E-03
   53.94000      3.4502693E-03
   54.00000      3.4762155E-03
   54.06000      3.5013151E-03
   54.12000      3.5254010E-03
   54.18000      3.5483111E-03
   54.24000      3.5698917E-03
   54.30000      3.5899989E-03
   54.36000      3.6085013E-03
   54.42000      3.6252795E-03
   54.48000      3.6402296E-03
   54.54000      3.6532637E-03
   54.60000      3.6643101E-03
   54.66000      3.6733143E-03
   54.72000      3.6802394E-03
   54.78000      3.6850658E-03
   54.84000      3.6877918E-03
   54.90000      3.6884334E-03
   54.96000      3.6870227E-03
   55.02000      3.6836085E-03
   55.08000      3.6782532E-03
   55.14000      3.6710338E-03
   55.20000      3.6620391E-03
   55.26000      3.6513687E-03
   55.32000      3.6391304E-03
   55.38000      3.6254402E-03
   55.44000      3.6104189E-03
   55.50000      3.5941903E-03
   55.56000      3.5768813E-03