  -2.400000      0.0000000E+00
  -2.340000      0.0000000E+00
  -2.280000      0.0000000E+00
  -2.220000      0.0000000E+00
  -2.160000      0.0000000E+00
  -2.100000      0.0000000E+00
  -2.040000      0.0000000E+00
  -1.980000      0.0000000E+00
  -1.920000      0.0000000E+00
  -1.860000      0.0000000E+00
  -1.800000     -1.0830530E-30
  -1.740000     -1.4124119E-29
  -1.680000     -8.6381726E-29
  -1.620000     -3.0766218E-28
  -1.560000     -5.6891932E-28
  -1.500000      3.8019424E-28
  -1.440000      6.5371047E-27
  -1.380000      2.4350397E-26
  -1.320000      5.3709096E-26
  -1.260000      6.3682430E-26
  -1.200000     -3.5767903E-26
  -1.140000     -3.7354832E-25
  -1.080000     -9.6252144E-25
  -1.020000     -1.3860563E-24
 -0.9600000     -5.5156992E-25
 -0.9000000      2.8981178E-24
 -0.8400000      8.8590389E-24
 -0.7800000      1.2975066E-23
 -0.7200000      5.1812487E-24
 -0.6600000     -2.5823289E-23
 -0.6000000     -7.8494607E-23
 -0.5400000     -1.1856534E-22
 -0.4800000     -7.0625638E-23
 -0.4200000      1.5151182E-22
 -0.3600000      5.5880458E-22
 -0.3000000      9.7246208E-22
 -0.2400000      9.7356290E-22
 -0.1800000      4.5610413E-23
 -0.1200000     -2.0270283E-21
 -5.9999999E-02 -4.6440206E-21
  0.0000000E+00 -6.1539216E-21
  5.9999999E-02 -4.3889076E-21
  0.1200000      1.8618713E-21
  0.1800000      1.1049967E-20
  0.2400000      1.8187692E-20
  0.3000000      1.6848467E-20
  0.3600000      4.0518368E-21
  0.4200000     -1.4433597E-20
  0.4800000     -2.3258929E-20
  0.5400000     -5.6359830E-21
  0.6000000      4.0094704E-20
  0.6600000      8.4541471E-20
  0.7200000      6.7774216E-20
  0.7800000     -7.0494594E-20
  0.8400000     -3.3406152E-19
  0.9000000     -6.1506684E-19
  0.9600000     -6.8801425E-19
   1.020000     -2.9367724E-19
   1.080000      6.8968334E-19
   1.140000      2.0578304E-18
   1.200000      3.1988989E-18
   1.260000      3.2367011E-18
   1.320000      1.4259332E-18
   1.380000     -2.3257711E-18
   1.440000     -7.0701559E-18
   1.500000     -1.0851314E-17
   1.560000     -1.1304689E-17
   1.620000     -6.6952462E-18
   1.680000      3.0087359E-18
   1.740000      1.5551373E-17
   1.800000      2.6687499E-17
   1.860000      3.1406116E-17
   1.920000      2.5715950E-17
   1.980000      8.3724955E-18
   2.040000     -1.8064023E-17
   2.100000     -4.7212167E-17
   2.160000     -6.9961070E-17
   2.220000     -7.6522353E-17
   2.280000     -5.9193064E-17
   2.340000     -1.5463845E-17
   2.400000      4.9184116E-17
   2.460000      1.1989660E-16
   2.520000      1.7387814E-16
   2.580000      1.8569470E-16
   2.640000      1.3619128E-16
   2.700000      2.2691991E-17
   2.760000     -1.3378017E-16
   2.820000     -2.8900380E-16
   2.880000     -3.8652297E-16
   2.940000     -3.7743571E-16
   3.000000     -2.4220743E-16
   3.060000     -4.4935578E-18
   3.120000      2.7172843E-16
   3.180000      5.0377025E-16
   3.240000      6.2284995E-16
   3.300000      6.0193173E-16
   3.360000      4.6227548E-16
   3.420000      2.5166876E-16
   3.480000      4.3695882E-18
   3.540000     -2.9122017E-16
   3.600000     -6.8744029E-16
   3.660000     -1.2210983E-15
   3.720000     -1.8249774E-15
   3.780000     -2.2599059E-15
   3.840000     -2.1326797E-15
   3.900000     -1.0390135E-15
   3.960000      1.1926831E-15
   4.020000      4.2557841E-15
   4.080000      7.2613170E-15
   4.140000      8.8943296E-15
   4.200000      7.8498982E-15
   4.260000      3.4267353E-15
   4.320000     -3.9585547E-15
   4.380000     -1.2594538E-14
   4.440000     -1.9791316E-14
   4.500000     -2.2653591E-14
   4.560000     -1.9074577E-14
   4.620000     -8.6028198E-15
   4.680000      7.1370979E-15
   4.740000      2.4635609E-14
   4.800000      3.9262901E-14
   4.860000      4.6403463E-14
   4.920000      4.2678646E-14
   4.980000      2.6979139E-14
   5.040000      1.0722260E-15
   5.100000     -3.0398935E-14
   5.160000     -6.0631777E-14
   5.220000     -8.2064448E-14
   5.280000     -8.8207992E-14
   5.340000     -7.5424089E-14
   5.400000     -4.4052259E-14
   5.460000      1.5594168E-15
   5.520000      5.4140506E-14
   5.580000      1.0519676E-13
   5.640000      1.4649776E-13
   5.700000      1.7068579E-13
   5.760000      1.7098504E-13
   5.820000      1.4081161E-13
   5.880000      7.4538771E-14
   5.940000     -2.9693519E-14
   6.000000     -1.6546152E-13
   6.060000     -3.1373485E-13
   6.120000     -4.4165751E-13
   6.180000     -5.0697689E-13
   6.240000     -4.6871106E-13
   6.300000     -3.0173721E-13
   6.360000     -1.0434296E-14
   6.420000      3.6430513E-13
   6.480000      7.4875419E-13
   6.540000      1.0511375E-12
   6.600000      1.1837451E-12
   6.660000      1.0857180E-12
   6.720000      7.3962657E-13
   6.780000      1.7747862E-13
   6.840000     -5.2418573E-13
   6.900000     -1.2569344E-12
   6.960000     -1.8962542E-12
   7.020000     -2.3171489E-12
   7.080000     -2.4087930E-12
   7.140000     -2.0896707E-12
   7.200000     -1.3245907E-12
   7.260000     -1.4247175E-13
   7.320000      1.3497889E-12
   7.380000      2.9642616E-12
   7.440000      4.4455737E-12
   7.500000      5.5024509E-12
   7.560000      5.8524951E-12
   7.620000      5.2710687E-12
   7.680000      3.6347386E-12
   7.740000      9.5340988E-13
   7.800000     -2.6094485E-12
   7.860000     -6.7259249E-12
   7.920000     -1.0901176E-11
   7.980000     -1.4484373E-11
   8.040000     -1.6704827E-11
   8.100000     -1.6747262E-11
   8.160000     -1.3874214E-11
   8.220000     -7.5892218E-12
   8.280000      2.1837508E-12
   8.340000      1.4944145E-11
   8.400000      2.9526850E-11
   8.460000      4.4119673E-11
   8.520000      5.6404017E-11
   8.580000      6.3810138E-11
   8.640000      6.3851813E-11
   8.700000      5.4484476E-11
   8.760000      3.4420671E-11
   8.820000      3.3390356E-12
   8.880000     -3.8061266E-11
   8.940000     -8.8181122E-11
   9.000000     -1.4480206E-10
   9.060000     -2.0547611E-10
   9.120000     -2.6794589E-10
   9.180000     -3.3050529E-10
   9.240000     -3.9222134E-10
   9.300000     -4.5297160E-10
   9.360000     -5.1329474E-10
   9.420000     -5.7409616E-10
   9.480000     -6.3627908E-10
   9.540000     -7.0037676E-10
   9.600000     -7.6624429E-10
   9.660000     -8.3284357E-10
   9.720000     -8.9812724E-10
   9.780000     -9.5902630E-10
   9.840000     -1.0115535E-09
   9.900000     -1.0510551E-09
   9.960000     -1.0726531E-09
   10.02000     -1.0718970E-09
   10.08000     -1.0455999E-09
   10.14000     -9.9275743E-10
   10.20000     -9.1539293E-10
   10.26000     -8.1914237E-10
   10.32000     -7.1342043E-10
   10.38000     -6.1107580E-10
   10.44000     -5.2754068E-10
   10.50000     -4.7956622E-10
   10.56000     -4.8369919E-10
   10.62000     -5.5469118E-10
   10.68000     -7.0405032E-10
   10.74000     -9.3895514E-10
   10.80000     -1.2617521E-09
   10.86000     -1.6702290E-09
   10.92000     -2.1587621E-09
   10.98000     -2.7202720E-09
   11.04000     -3.3486975E-09
   11.10000     -4.0414831E-09
   11.16000     -4.8014290E-09
   11.22000     -5.6372933E-09
   11.28000     -6.5627206E-09
   11.34000     -7.5934645E-09
   11.40000     -8.7432577E-09
   11.46000     -1.0019082E-08
   11.52000     -1.1416788E-08
   11.58000     -1.2917976E-08
   11.64000     -1.4488907E-08
   11.70000     -1.6081771E-08
   11.76000     -1.7638264E-08
   11.82000     -1.9095033E-08
   11.88000     -2.0390198E-08
   11.94000     -2.1470058E-08
   12.00000     -2.2295024E-08
   12.06000     -2.2844050E-08
   12.12000     -2.3117007E-08
   12.18000     -2.3134850E-08
   12.24000     -2.2937654E-08
   12.30000     -2.2580823E-08
   12.36000     -2.2129882E-08
   12.42000     -2.1654257E-08
   12.48000     -2.1220467E-08
   12.54000     -2.0885176E-08
   12.60000     -2.0688701E-08
   12.66000     -2.0649761E-08
   12.72000     -2.0762362E-08
   12.78000     -2.0995616E-08
   12.84000     -2.1297041E-08
   12.90000     -2.1599213E-08
   12.96000     -2.1829040E-08
   13.02000     -2.1918261E-08
   13.08000     -2.1813410E-08
   13.14000     -2.1483615E-08
   13.20000     -2.0924920E-08
   13.26000     -2.0160570E-08
   13.32000     -1.9237406E-08
   13.38000     -1.8219181E-08
   13.44000     -1.7177996E-08
   13.50000     -1.6185190E-08
   13.56000     -1.5303021E-08
   13.62000     -1.4578172E-08
   13.68000     -1.4037828E-08
   13.74000     -1.3688624E-08
   13.80000     -1.3518352E-08
   13.86000     -1.3499875E-08
   13.92000     -1.3596401E-08
   13.98000     -1.3767113E-08
   14.04000     -1.3972280E-08
   14.10000     -1.4177203E-08
   14.16000     -1.4354746E-08
   14.22000     -1.4486625E-08
   14.28000     -1.4563779E-08
   14.34000     -1.4586267E-08
   14.40000     -1.4562942E-08
   14.46000     -1.4510859E-08
   14.52000     -1.4454148E-08
   14.58000     -1.4421866E-08
   14.64000     -1.4444452E-08
   14.70000     -1.4548742E-08
   14.76000     -1.4752052E-08
   14.82000     -1.5056450E-08
   14.88000     -1.5444753E-08
   14.94000     -1.5879856E-08
   15.00000     -1.6308462E-08
   15.06000     -1.6669262E-08
   15.12000     -1.6904353E-08
   15.18000     -1.6971494E-08
   15.24000     -1.6854154E-08
   15.30000     -1.6566577E-08
   15.36000     -1.6152132E-08
   15.42000     -1.5674919E-08
   15.48000     -1.5206560E-08
   15.54000     -1.4811402E-08
   15.60000     -1.4534018E-08
   15.66000     -1.4392231E-08
   15.72000     -1.4377372E-08
   15.78000     -1.4461324E-08
   15.84000     -1.4607910E-08
   15.90000     -1.4784841E-08
   15.96000     -1.4972356E-08
   16.02000     -1.5165799E-08
   16.08000     -1.5371489E-08
   16.14000     -1.5597525E-08
   16.20000     -1.5843050E-08
   16.26000     -1.6090066E-08
   16.32000     -1.6301215E-08
   16.38000     -1.6424940E-08
   16.44000     -1.6407016E-08
   16.50000     -1.6205130E-08
   16.56000     -1.5801993E-08
   16.62000     -1.5212551E-08
   16.68000     -1.4482397E-08
   16.74000     -1.3676917E-08
   16.80000     -1.2863553E-08
   16.86000     -1.2091739E-08
   16.92000     -1.1376287E-08
   16.98000     -1.0689405E-08
   17.04000     -9.9645332E-09
   17.10000     -9.1119174E-09
   17.16000     -8.0424334E-09
   17.22000     -6.6934946E-09
   17.28000     -5.0499085E-09
   17.34000     -3.1537049E-09
   17.40000     -1.0998914E-09
   17.46000      9.8096464E-10
   17.52000      2.9487379E-09
   17.58000      4.6814170E-09
   17.64000      6.0972267E-09
   17.70000      7.1657187E-09
   17.76000      7.9055669E-09
   17.82000      8.3705292E-09
   17.88000      8.6282279E-09
   17.94000      8.7382395E-09
   18.00000      8.7359400E-09
   18.06000      8.6266692E-09
   18.12000      8.3915213E-09
   18.18000      8.0023321E-09
   18.24000      7.4403710E-09
   18.30000      6.7118764E-09
   18.36000      5.8544565E-09
   18.42000      4.9313917E-09
   18.48000      4.0150967E-09
   18.54000      3.1649465E-09
   18.60000      2.4069913E-09
   18.66000      1.7228095E-09
   18.72000      1.0519435E-09
   18.78000      3.0795880E-10
   18.84000     -5.9634003E-10
   18.90000     -1.7220840E-09
   18.96000     -3.0841147E-09
   19.02000     -4.6436619E-09
   19.08000     -6.3163852E-09
   19.14000     -7.9936893E-09
   19.20000     -9.5713641E-09
   19.26000     -1.0977470E-08
   19.32000     -1.2191655E-08
   19.38000     -1.3250517E-08
   19.44000     -1.4237640E-08
   19.50000     -1.5261159E-08
   19.56000     -1.6425142E-08
   19.62000     -1.7802540E-08
   19.68000     -1.9416742E-08
   19.74000     -2.1236074E-08
   19.80000     -2.3181832E-08
   19.86000     -2.5146928E-08
   19.92000     -2.7019585E-08
   19.98000     -2.8705889E-08
   20.04000     -3.0145788E-08
   20.10000     -3.1319384E-08
   20.16000     -3.2243062E-08
   20.22000     -3.2957487E-08
   20.28000     -3.3511402E-08
   20.34000     -3.3945732E-08
   20.40000     -3.4282166E-08
   20.46000     -3.4518894E-08
   20.52000     -3.4634095E-08
   20.58000     -3.4595669E-08
   20.64000     -3.4373993E-08
   20.70000     -3.3953739E-08
   20.76000     -3.3341202E-08
   20.82000     -3.2565001E-08
   20.88000     -3.1669895E-08
   20.94000     -3.0705550E-08
   21.00000     -2.9713481E-08
   21.06000     -2.8716071E-08
   21.12000     -2.7711001E-08
   21.18000     -2.6673128E-08
   21.24000     -2.5563693E-08
   21.30000     -2.4344617E-08
   21.36000     -2.2993879E-08
   21.42000     -2.1517272E-08
   21.48000     -1.9952518E-08
   21.54000     -1.8363766E-08
   21.60000     -1.6827371E-08
   21.66000     -1.5412814E-08
   21.72000     -1.4164429E-08
   21.78000     -1.3089879E-08
   21.84000     -1.2159521E-08
   21.90000     -1.1317548E-08
   21.96000     -1.0502068E-08
   22.02000     -9.6681712E-09
   22.08000     -8.8067260E-09
   22.14000     -7.9526012E-09
   22.20000     -7.1791004E-09
   22.26000     -6.5796124E-09
   22.32000     -6.2416712E-09
   22.38000     -6.2211587E-09
   22.44000     -6.5246226E-09
   22.50000     -7.1052675E-09
   22.56000     -7.8739983E-09
   22.62000     -8.7222549E-09
   22.68000     -9.5497930E-09
   22.74000     -1.0289171E-08
   22.80000     -1.0919857E-08
   22.86000     -1.1468146E-08
   22.92000     -1.1993331E-08
   22.98000     -1.2564620E-08
   23.04000     -1.3235865E-08
   23.10000     -1.4025765E-08
   23.16000     -1.4909482E-08
   23.22000     -1.5824209E-08
   23.28000     -1.6687043E-08
   23.34000     -1.7419589E-08
   23.40000     -1.7971551E-08
   23.46000     -1.8335644E-08
   23.52000     -1.8548860E-08
   23.58000     -1.8679446E-08
   23.64000     -1.8803721E-08
   23.70000     -1.8980204E-08
   23.76000     -1.9229514E-08
   23.82000     -1.9526624E-08
   23.88000     -1.9808022E-08
   23.94000     -1.9991536E-08
   24.00000     -2.0002638E-08
   24.06000     -1.9799076E-08
   24.12000     -1.9386233E-08
   24.18000     -1.8818499E-08
   24.24000     -1.8186162E-08
   24.30000     -1.7591608E-08
   24.36000     -1.7121922E-08
   24.42000     -1.6826016E-08
   24.48000     -1.6703165E-08
   24.54000     -1.6706247E-08
   24.60000     -1.6758532E-08
   24.66000     -1.6778531E-08
   24.72000     -1.6705027E-08
   24.78000     -1.6514482E-08
   24.84000     -1.6225702E-08
   24.90000     -1.5890899E-08
   24.96000     -1.5576669E-08
   25.02000     -1.5341536E-08
   25.08000     -1.5217408E-08
   25.14000     -1.5200701E-08
   25.20000     -1.5255543E-08
   25.26000     -1.5327437E-08
   25.32000     -1.5362563E-08
   25.38000     -1.5326346E-08
   25.44000     -1.5215381E-08
   25.50000     -1.5059252E-08
   25.56000     -1.4912048E-08
   25.62000     -1.4836739E-08
   25.68000     -1.4887462E-08
   25.74000     -1.5095249E-08
   25.80000     -1.5461195E-08
   25.86000     -1.5958570E-08
   25.92000     -1.6542726E-08
   25.98000     -1.7165521E-08
   26.04000     -1.7790066E-08
   26.10000     -1.8401867E-08
   26.16000     -1.9013537E-08
   26.22000     -1.9662080E-08
   26.28000     -2.0399495E-08
   26.34000     -2.1279197E-08
   26.40000     -2.2341812E-08
   26.46000     -2.3604068E-08
   26.52000     -2.5053719E-08
   26.58000     -2.6651627E-08
   26.64000     -2.8340034E-08
   26.70000     -3.0054359E-08
   26.76000     -3.1735009E-08
   26.82000     -3.3336175E-08
   26.88000     -3.4829863E-08
   26.94000     -3.6205122E-08
   27.00000     -3.7463533E-08
   27.06000     -3.8612729E-08
   27.12000     -3.9659636E-08
   27.18000     -4.0604771E-08
   27.24000     -4.1438689E-08
   27.30000     -4.2141366E-08
   27.36000     -4.2684917E-08
   27.42000     -4.3039424E-08
   27.48000     -4.3180780E-08
   27.54000     -4.3098673E-08
   27.60000     -4.2802387E-08
   27.66000     -4.2322476E-08
   27.72000     -4.1707469E-08
   27.78000     -4.1015991E-08
   27.84000     -4.0306034E-08
   27.90000     -3.9624013E-08
   27.96000     -3.8996191E-08
   28.02000     -3.8424787E-08
   28.08000     -3.7889958E-08
   28.14000     -3.7357459E-08
   28.20000     -3.6790404E-08
   28.26000     -3.6162234E-08
   28.32000     -3.5467433E-08
   28.38000     -3.4726746E-08
   28.44000     -3.3985017E-08
   28.50000     -3.3301802E-08
   28.56000     -3.2737002E-08
   28.62000     -3.2335528E-08
   28.68000     -3.2115278E-08
   28.74000     -3.2062086E-08
   28.80000     -3.2133229E-08
   28.86000     -3.2268797E-08
   28.92000     -3.2407868E-08
   28.98000     -3.2505039E-08
   29.04000     -3.2542712E-08
   29.10000     -3.2535571E-08
   29.16000     -3.2525936E-08
   29.22000     -3.2571396E-08
   29.28000     -3.2728515E-08
   29.34000     -3.3037548E-08
   29.40000     -3.3512968E-08
   29.46000     -3.4142449E-08
   29.52000     -3.4894363E-08
   29.58000     -3.5730942E-08
   29.64000     -3.6622453E-08
   29.70000     -3.7557641E-08
   29.76000     -3.8547022E-08
   29.82000     -3.9618005E-08
   29.88000     -4.0803588E-08
   29.94000     -4.2128256E-08
   30.00000     -4.3595644E-08
   30.06000     -4.5181960E-08
   30.12000     -4.6837560E-08
   30.18000     -4.8496659E-08
   30.24000     -5.0092737E-08
   30.30000     -5.1575402E-08
   30.36000     -5.2923763E-08
   30.42000     -5.4152213E-08
   30.48000     -5.5306536E-08
   30.54000     -5.6451004E-08
   30.60000     -5.7649896E-08
   30.66000     -5.8948277E-08
   30.72000     -6.0357465E-08
   30.78000     -6.1848816E-08
   30.84000     -6.3357568E-08
   30.90000     -6.4795451E-08
   30.96000     -6.6068765E-08
   31.02000     -6.7097510E-08
   31.08000     -6.7830825E-08
   31.14000     -6.8255474E-08
   31.20000     -6.8395728E-08
   31.26000     -6.8305127E-08
   31.32000     -6.8052493E-08
   31.38000     -6.7705919E-08
   31.44000     -6.7318609E-08
   31.50000     -6.6919888E-08
   31.56000     -6.6513117E-08
   31.62000     -6.6080297E-08
   31.68000     -6.5591415E-08
   31.74000     -6.5015385E-08
   31.80000     -6.4329413E-08
   31.86000     -6.3524496E-08
   31.92000     -6.2606162E-08
   31.98000     -6.1591166E-08
   32.04000     -6.0501812E-08
   32.10000     -5.9360005E-08
   32.16000     -5.8182444E-08
   32.22000     -5.6977949E-08
   32.28000     -5.5746838E-08
   32.34000     -5.4482008E-08
   32.40000     -5.3171203E-08
   32.46000     -5.1800015E-08
   32.52000     -5.0355382E-08
   32.58000     -4.8829101E-08
   32.64000     -4.7221047E-08
   32.70000     -4.5541398E-08
   32.76000     -4.3811426E-08
   32.82000     -4.2062425E-08
   32.88000     -4.0332811E-08
   32.94000     -3.8663764E-08
   33.00000     -3.7094040E-08
   33.06000     -3.5654939E-08
   33.12000     -3.4366373E-08
   33.18000     -3.3234944E-08
   33.24000     -3.2254427E-08
   33.30000     -3.1408547E-08
   33.36000     -3.0675334E-08
   33.42000     -3.0031945E-08
   33.48000     -2.9458883E-08
   33.54000     -2.8943036E-08
   33.60000     -2.8479404E-08
   33.66000     -2.8071746E-08
   33.72000     -2.7732330E-08
   33.78000     -2.7480558E-08
   33.84000     -2.7339958E-08
   33.90000     -2.7333208E-08
   33.96000     -2.7475631E-08
   34.02000     -2.7768591E-08
   34.08000     -2.8195100E-08
   34.14000     -2.8719672E-08
   34.20000     -2.9293483E-08
   34.26000     -2.9863994E-08
   34.32000     -3.0386580E-08
   34.38000     -3.0834826E-08
   34.44000     -3.1206572E-08
   34.50000     -3.1524127E-08
   34.56000     -3.1828698E-08
   34.62000     -3.2170568E-08
   34.68000     -3.2597381E-08
   34.74000     -3.3142978E-08
   34.80000     -3.3818971E-08
   34.86000     -3.4610775E-08
   34.92000     -3.5479065E-08
   34.98000     -3.6366728E-08
   35.04000     -3.7210128E-08
   35.10000     -3.7952233E-08
   35.16000     -3.8554376E-08
   35.22000     -3.9003417E-08
   35.28000     -3.9312333E-08
   35.34000     -3.9514063E-08
   35.40000     -3.9650804E-08
   35.46000     -3.9762099E-08
   35.52000     -3.9875520E-08
   35.58000     -4.0002504E-08
   35.64000     -4.0140005E-08
   35.70000     -4.0276650E-08
   35.76000     -4.0400664E-08
   35.82000     -4.0506691E-08
   35.88000     -4.0599115E-08
   35.94000     -4.0691141E-08
   36.00000     -4.0800046E-08
   36.06000     -4.0940325E-08
   36.12000     -4.1116845E-08
   36.18000     -4.1320185E-08
   36.24000     -4.1525684E-08
   36.30000     -4.1696957E-08
   36.36000     -4.1793307E-08
   36.42000     -4.1779490E-08
   36.48000     -4.1635207E-08
   36.54000     -4.1361378E-08
   36.60000     -4.0980943E-08
   36.66000     -4.0533298E-08
   36.72000     -4.0063551E-08
   36.78000     -3.9609716E-08
   36.84000     -3.9191843E-08
   36.90000     -3.8806675E-08
   36.96000     -3.8429683E-08
   37.02000     -3.8023813E-08
   37.08000     -3.7552059E-08
   37.14000     -3.6989771E-08
   37.20000     -3.6332949E-08
   37.26000     -3.5600166E-08
   37.32000     -3.4827963E-08
   37.38000     -3.4061408E-08
   37.44000     -3.3342779E-08
   37.50000     -3.2701518E-08
   37.56000     -3.2148094E-08
   37.62000     -3.1673153E-08
   37.68000     -3.1251865E-08
   37.74000     -3.0852039E-08
   37.80000     -3.0443491E-08
   37.86000     -3.0005896E-08
   37.92000     -2.9532881E-08
   37.98000     -2.9031474E-08
   38.04000     -2.8517519E-08
   38.10000     -2.8009067E-08
   38.16000     -2.7520194E-08
   38.22000     -2.7057220E-08
   38.28000     -2.6618160E-08
   38.34000     -2.6194876E-08
   38.40000     -2.5776670E-08
   38.46000     -2.5353888E-08
   38.52000     -2.4920551E-08
   38.58000     -2.4475771E-08
   38.64000     -2.4024079E-08
   38.70000     -2.3574923E-08
   38.76000     -2.3141466E-08
   38.82000     -2.2738719E-08
   38.88000     -2.2381167E-08
   38.94000     -2.2080343E-08
   39.00000     -2.1842979E-08
   39.06000     -2.1670413E-08
   39.12000     -2.1559474E-08
   39.18000     -2.1504647E-08
   39.24000     -2.1500783E-08
   39.30000     -2.1545587E-08
   39.36000     -2.1641069E-08
   39.42000     -2.1793619E-08
   39.48000     -2.2012561E-08
   39.54000     -2.2307411E-08
   39.60000     -2.2684389E-08
   39.66000     -2.3142862E-08
   39.72000     -2.3672746E-08
   39.78000     -2.4253866E-08
   39.84000     -2.4858069E-08
   39.90000     -2.5454202E-08
   39.96000     -2.6015311E-08
   40.02000     -2.6526513E-08
   40.08000     -2.6991460E-08
   40.14000     -2.7435306E-08
   40.20000     -2.7902724E-08
   40.26000     -2.8450719E-08
   40.32000     -2.9137372E-08
   40.38000     -3.0009108E-08
   40.44000     -3.1089822E-08
   40.50000     -3.2375116E-08
   40.56000     -3.3833835E-08
   40.62000     -3.5417017E-08
   40.68000     -3.7072184E-08
   40.74000     -3.8759051E-08
   40.80000     -4.0462094E-08
   40.86000     -4.2196035E-08
   40.92000     -4.4002455E-08
   40.98000     -4.5938066E-08
   41.04000     -4.8057789E-08
   41.10000     -5.0397222E-08
   41.16000     -5.2959322E-08
   41.22000     -5.5709066E-08
   41.28000     -5.8577793E-08
   41.34000     -6.1476115E-08
   41.40000     -6.4311955E-08
   41.46000     -6.7008500E-08
   41.52000     -6.9516958E-08
   41.58000     -7.1820203E-08
   41.64000     -7.3926586E-08
   41.70000     -7.5856128E-08
   41.76000     -7.7624044E-08
   41.82000     -7.9227213E-08
   41.88000     -8.0638259E-08
   41.94000     -8.1809297E-08
   42.00000     -8.2684238E-08
   42.06000     -8.3215994E-08
   42.12000     -8.3383490E-08
   42.18000     -8.3203581E-08
   42.24000     -8.2734303E-08
   42.30000     -8.2068020E-08
   42.36000     -8.1315690E-08
   42.42000     -8.0585494E-08
   42.48000     -7.9961090E-08
   42.54000     -7.9485211E-08
   42.60000     -7.9153203E-08
   42.66000     -7.8918930E-08
   42.72000     -7.8711729E-08
   42.78000     -7.8459699E-08
   42.84000     -7.8112691E-08
   42.90000     -7.7657887E-08
   42.96000     -7.7123580E-08
   43.02000     -7.6570061E-08
   43.08000     -7.6070840E-08
   43.14000     -7.5690103E-08
   43.20000     -7.5462971E-08
   43.26000     -7.5384008E-08
   43.32000     -7.5406589E-08
   43.38000     -7.5452391E-08
   43.44000     -7.5427813E-08
   43.50000     -7.5242674E-08
   43.56000     -7.4826538E-08
   43.62000     -7.4139102E-08
   43.68000     -7.3173020E-08
   43.74000     -7.1949422E-08
   43.80000     -7.0508229E-08
   43.86000     -6.8896213E-08
   43.92000     -6.7156385E-08
   43.98000     -6.5321188E-08
   44.04000     -6.3411044E-08
   44.10000     -6.1438016E-08
   44.16000     -5.9412660E-08
   44.22000     -5.7351397E-08
   44.28000     -5.5281440E-08
   44.34000     -5.3241425E-08
   44.40000     -5.1277208E-08
   44.46000     -4.9434227E-08
   44.52000     -4.7748760E-08
   44.58000     -4.6240896E-08
   44.64000     -4.4911413E-08
   44.70000     -4.3743501E-08
   44.76000     -4.2708788E-08
   44.82000     -4.1775952E-08
   44.88000     -4.0919435E-08
   44.94000     -4.0125983E-08
   45.00000     -3.9397133E-08
   45.06000     -3.8747206E-08
   45.12000     -3.8197346E-08
   45.18000     -3.7767453E-08
   45.24000     -3.7468471E-08
   45.30000     -3.7297372E-08
   45.36000     -3.7236411E-08
   45.42000     -3.7256918E-08
   45.48000     -3.7326430E-08
   45.54000     -3.7417063E-08
   45.60000     -3.7512617E-08
   45.66000     -3.7612590E-08
   45.72000     -3.7732228E-08
   45.78000     -3.7898953E-08
   45.84000     -3.8146499E-08
   45.90000     -3.8508396E-08
   45.96000     -3.9012548E-08
   46.02000     -3.9677968E-08
   46.08000     -4.0514269E-08
   46.14000     -4.1523592E-08
   46.20000     -4.2703974E-08
   46.26000     -4.4052655E-08
   46.32000     -4.5567688E-08
   46.38000     -4.7246616E-08
   46.44000     -4.9082175E-08
   46.50000     -5.1056261E-08
   46.56000     -5.3134741E-08
   46.62000     -5.5266085E-08
   46.68000     -5.7386025E-08
   46.74000     -5.9428466E-08
   46.80000     -6.1340252E-08
   46.86000     -6.3095619E-08
   46.92000     -6.4705105E-08
   46.98000     -6.6215733E-08
   47.04000     -6.7701677E-08
   47.10000     -6.9248372E-08
   47.16000     -7.0935428E-08
   47.22000     -7.2824115E-08
   47.28000     -7.4953732E-08
   47.34000     -7.7347934E-08
   47.40000     -8.0028983E-08
   47.46000     -8.3035545E-08
   47.52000     -8.6439002E-08
   47.58000     -9.0353986E-08
   47.64000     -9.4940944E-08
   47.70000     -1.0040061E-07
   47.76000     -1.0696291E-07
   47.82000     -1.1487433E-07
   47.88000     -1.2438859E-07
   47.94000     -1.3576550E-07
   48.00000     -1.4928003E-07
   48.06000     -1.6524109E-07
   48.12000     -1.8401654E-07
   48.18000     -2.0605846E-07
   48.24000     -2.3192393E-07
   48.30000     -2.6228818E-07
   48.36000     -2.9795075E-07
   48.42000     -3.3983775E-07
   48.48000     -3.8900490E-07
   48.54000     -4.4664435E-07
   48.60000     -5.1409779E-07
   48.66000     -5.9287515E-07
   48.72000     -6.8467870E-07
   48.78000     -7.9142973E-07
   48.84000     -9.1529716E-07
   48.90000     -1.0587258E-06
   48.96000     -1.2244624E-06
   49.02000     -1.4155796E-06
   49.08000     -1.6354981E-06
   49.14000     -1.8880078E-06
   49.20000     -2.1772953E-06
   49.26000     -2.5079746E-06
   49.32000     -2.8851268E-06
   49.38000     -3.3143415E-06
   49.44000     -3.8017611E-06
   49.50000     -4.3541222E-06
   49.56000     -4.9787932E-06
   49.62000     -5.6838066E-06
   49.68000     -6.4778851E-06
   49.74000     -7.3704655E-06
   49.80000     -8.3717141E-06
   49.86000     -9.4925508E-06
   49.92000     -1.0744658E-05
   49.98000     -1.2140495E-05
   50.04000     -1.3693318E-05
   50.10000     -1.5417187E-05
   50.16000     -1.7326975E-05
   50.22000     -1.9438341E-05
   50.28000     -2.1767723E-05
   50.34000     -2.4332285E-05
   50.40000     -2.7149872E-05
   50.46000     -3.0238949E-05
   50.52000     -3.3618540E-05
   50.58000     -3.7308146E-05
   50.64000     -4.1327676E-05
   50.70000     -4.5697321E-05
   50.76000     -5.0437462E-05
   50.82000     -5.5568529E-05
   50.88000     -6.1110841E-05
   50.94000     -6.7084453E-05
   51.00000     -7.3508993E-05
   51.06000     -8.0403464E-05
   51.12000     -8.7786029E-05
   51.18000     -9.5673851E-05
   51.24000     -1.0408285E-04
   51.30000     -1.1302752E-04
   51.36000     -1.2252072E-04
   51.42000     -1.3257349E-04
   51.48000     -1.4319477E-04
   51.54000     -1.5439127E-04
   51.60000     -1.6616718E-04
   51.66000     -1.7852400E-04
   51.72000     -1.9146032E-04
   51.78000     -2.0497161E-04
   51.84000     -2.1905017E-04
   51.90000     -2.3368490E-04
   51.96000     -2.4886127E-04
   52.02000     -2.6456124E-04
   52.08000     -2.8076328E-04
   52.14000     -2.9744220E-04
   52.20000     -3.1456928E-04
   52.26000     -3.3211239E-04
   52.32000     -3.5003602E-04
   52.38000     -3.6830132E-04
   52.44000     -3.8686639E-04
   52.50000     -4.0568638E-04
   52.56000     -4.2471386E-04
   52.62000     -4.4389899E-04
   52.68000     -4.6319011E-04
   52.74000     -4.8253380E-04
   52.80000     -5.0187553E-04
   52.86000     -5.2115996E-04
   52.92000     -5.4033124E-04
   52.98000     -5.5933383E-04
   53.04000     -5.7811273E-04
   53.10000     -5.9661397E-04
   53.16000     -6.1478518E-04
   53.22000     -6.3257600E-04
   53.28000     -6.4993848E-04
   53.34000     -6.6682789E-04
   53.40000     -6.8320282E-04
   53.46000     -6.9902558E-04
   53.52000     -7.1426289E-04
   53.58000     -7.2888576E-04
   53.64000     -7.4287027E-04
   53.70000     -7.5619738E-04
   53.76000     -7.6885341E-04
   53.82000     -7.8083004E-04
   53.88000     -7.9212419E-04
   53.94000     -8.0273853E-04
   54.00000     -8.1268075E-04
   54.06000     -8.2196388E-04
   54.12000     -8.3060586E-04
   54.18000     -8.3862920E-04
   54.24000     -8.4606098E-04
   54.30000     -8.5293240E-04
   54.36000     -8.5927820E-04
   54.42000     -8.6513621E-04
   54.48000     -8.7054708E-04
   54.54000     -8.7555300E-04
   54.60000     -8.8019785E-04
   54.66000     -8.8452594E-04
   54.72000     -8.8858203E-04
   54.78000     -8.9241046E-04
   54.84000     -8.9605455E-04
   54.90000     -8.9955603E-04
   54.96000     -9.0295449E-04
   55.02000     -9.0628670E-04
   55.08000     -9.0958597E-04
   55.14000     -9.1288198E-04
   55.20000     -9.1620034E-04
   55.26000     -9.1956212E-04
   55.32000     -9.2298398E-04
   55.38000     -9.2647789E-04
   55.44000     -9.3005056E-04
   55.50000     -9.3370379E-04
   55.56000     -9.3743403E-04