  -2.400000      0.0000000E+00
  -2.340000      0.0000000E+00
  -2.280000      0.0000000E+00
  -2.220000      0.0000000E+00
  -2.160000      0.0000000E+00
  -2.100000      0.0000000E+00
  -2.040000      0.0000000E+00
  -1.980000      0.0000000E+00
  -1.920000      0.0000000E+00
  -1.860000      0.0000000E+00
  -1.800000      0.0000000E+00
  -1.740000      0.0000000E+00
  -1.680000     -1.1866372E-33
  -1.620000     -2.4139016E-32
  -1.560000     -2.2334409E-31
  -1.500000     -1.2328543E-30
  -1.440000     -4.2907458E-30
  -1.380000     -7.9115321E-30
  -1.320000      6.8240648E-30
  -1.260000      1.0562770E-28
  -1.200000      4.0453706E-28
  -1.140000      9.0527056E-28
  -1.080000      9.5523477E-28
  -1.020000     -1.5772052E-27
 -0.9600000     -1.0255935E-26
 -0.9000000     -2.6459772E-26
 -0.8400000     -3.9648377E-26
 -0.7800000     -1.4846669E-26
 -0.7200000      1.0567191E-25
 -0.6600000      3.5626191E-25
 -0.6000000      6.3846664E-25
 -0.5400000      5.9482193E-25
 -0.4800000     -3.7227756E-25
 -0.4200000     -2.6987866E-24
 -0.3600000     -5.7776208E-24
 -0.3000000     -7.0067336E-24
 -0.2400000     -1.9106844E-24
 -0.1800000      1.3194172E-23
 -0.1200000      3.5598696E-23
 -5.9999999E-02  5.0314101E-23
  0.0000000E+00  3.0439716E-23
  5.9999999E-02 -4.8447252E-23
  0.1200000     -1.7820922E-22
  0.1800000     -2.8596728E-22
  0.2400000     -2.3171942E-22
  0.3000000      1.2710107E-22
  0.3600000      7.9435360E-22
  0.4200000      1.4738465E-21
  0.4800000      1.5238990E-21
  0.5400000      1.9173117E-22
  0.6000000     -2.8080888E-21
  0.6600000     -6.5612390E-21
  0.7200000     -8.5750534E-21
  0.7800000     -5.4135061E-21
  0.8400000      5.2863433E-21
  0.9000000      2.1906355E-20
  0.9600000      3.6695037E-20
   1.020000      3.6741951E-20
   1.080000      9.8006734E-21
   1.140000     -4.5855106E-20
   1.200000     -1.1213896E-19
   1.260000     -1.4993379E-19
   1.320000     -1.1260659E-19
   1.380000      2.5628949E-20
   1.440000      2.3740091E-19
   1.500000      4.2685572E-19
   1.560000      4.5317767E-19
   1.620000      2.0028797E-19
   1.680000     -3.2853078E-19
   1.740000     -9.4252630E-19
   1.800000     -1.2843807E-18
   1.860000     -9.7608729E-19
   1.920000      1.4017607E-19
   1.980000      1.7766990E-18
   2.040000      3.1486529E-18
   2.100000      3.2207838E-18
   2.160000      1.2443064E-18
   2.220000     -2.6158888E-18
   2.280000     -6.9184212E-18
   2.340000     -9.2041727E-18
   2.400000     -7.0141103E-18
   2.460000      6.0034598E-19
   2.520000      1.1763774E-17
   2.580000      2.1545737E-17
   2.640000      2.3454544E-17
   2.700000      1.2567784E-17
   2.760000     -1.0793653E-17
   2.820000     -3.8764771E-17
   2.880000     -5.7014072E-17
   2.940000     -5.0170254E-17
   3.000000     -1.0477859E-17
   3.060000      5.3885837E-17
   3.120000      1.1595154E-16
   3.180000      1.3696244E-16
   3.240000      8.3937584E-17
   3.300000     -4.7530238E-17
   3.360000     -2.1642430E-16
   3.420000     -3.3858411E-16
   3.480000     -3.1620852E-16
   3.540000     -9.0029345E-17
   3.600000      3.0650067E-16
   3.660000      7.2284627E-16
   3.720000      9.2555025E-16
   3.780000      6.9729192E-16
   3.840000     -2.9234995E-17
   3.900000     -1.0669688E-15
   3.960000     -1.9738843E-15
   4.020000     -2.1994276E-15
   4.080000     -1.3515727E-15
   4.140000      5.2329277E-16
   4.200000      2.8038012E-15
   4.260000      4.4304240E-15
   4.320000      4.3339804E-15
   4.380000      2.0131523E-15
   4.440000     -2.0136626E-15
   4.500000     -6.1733121E-15
   4.560000     -8.3660953E-15
   4.620000     -6.9325149E-15
   4.680000     -1.6544919E-15
   4.740000      5.7443204E-15
   4.800000      1.2003549E-14
   4.860000      1.3652134E-14
   4.920000      8.7751182E-15
   4.980000     -1.6149656E-15
   5.040000     -1.3425775E-14
   5.100000     -2.0916078E-14
   5.160000     -1.9315114E-14
   5.220000     -7.5183873E-15
   5.280000      1.0536458E-14
   5.340000      2.6819957E-14
   5.400000      3.2494698E-14
   5.460000      2.2329281E-14
   5.520000     -1.7985798E-15
   5.580000     -3.0309695E-14
   5.640000     -4.9168203E-14
   5.700000     -4.6126660E-14
   5.760000     -1.7435950E-14
   5.820000      2.8281825E-14
   5.880000      7.1565163E-14
   5.940000      8.9449302E-14
   6.000000      6.6193795E-14
   6.060000      2.7947018E-15
   6.120000     -7.9690500E-14
   6.180000     -1.4596026E-13
   6.240000     -1.6049240E-13
   6.300000     -1.0460896E-13
   6.360000      1.1128421E-14
   6.420000      1.4616058E-13
   6.480000      2.4344624E-13
   6.540000      2.5338753E-13
   6.600000      1.5844341E-13
   6.660000     -1.3454685E-14
   6.720000     -1.9522304E-13
   6.780000     -3.0697247E-13
   6.840000     -2.9274573E-13
   6.900000     -1.5111050E-13
   6.960000      5.6733898E-14
   7.020000      2.2917570E-13
   7.080000      2.7058886E-13
   7.140000      1.4242695E-13
   7.200000     -1.0624818E-13
   7.260000     -3.4803649E-13
   7.320000     -4.2872853E-13
   7.380000     -2.4272923E-13
   7.440000      2.0103122E-13
   7.500000      7.5694480E-13
   7.560000      1.1826680E-12
   7.620000      1.2323149E-12
   7.680000      7.6742838E-13
   7.740000     -1.6276412E-13
   7.800000     -1.3118034E-12
   7.860000     -2.3088896E-12
   7.920000     -2.7895392E-12
   7.980000     -2.5314831E-12
   8.040000     -1.5380371E-12
   8.100000     -3.2675167E-14
   8.160000      1.6317483E-12
   8.220000      3.1059023E-12
   8.280000      4.1553323E-12
   8.340000      4.6967690E-12
   8.400000      4.7436889E-12
   8.460000      4.2939636E-12
   8.520000      3.2283635E-12
   8.580000      1.2928531E-12
   8.640000     -1.7953111E-12
   8.700000     -6.1359247E-12
   8.760000     -1.1406064E-11
   8.820000     -1.6702948E-11
   8.880000     -2.0570178E-11
   8.940000     -2.1254540E-11
   9.000000     -1.7160750E-11
   9.060000     -7.3940186E-12
   9.120000      7.7663587E-12
   9.180000      2.6616875E-11
   9.240000      4.6105429E-11
   9.300000      6.2248491E-11
   9.360000      7.0813029E-11
   9.420000      6.8116748E-11
   9.480000      5.1776475E-11
   9.540000      2.1262124E-11
   9.600000     -2.1818316E-11
   9.660000     -7.3696937E-11
   9.720000     -1.2862159E-10
   9.780000     -1.7914971E-10
   9.840000     -2.1651950E-10
   9.900000     -2.3112746E-10
   9.960000     -2.1320318E-10
   10.02000     -1.5377928E-10
   10.08000     -4.5981892E-11
   10.14000      1.1347739E-10
   10.20000      3.2289102E-10
   10.26000      5.7462063E-10
   10.32000      8.5501806E-10
   10.38000      1.1454218E-09
   10.44000      1.4241667E-09
   10.50000      1.6692465E-09
   10.56000      1.8610500E-09
   10.62000      1.9845638E-09
   10.68000      2.0306061E-09
   10.74000      1.9959632E-09
   10.80000      1.8826416E-09
   10.86000      1.6966631E-09
   10.92000      1.4468510E-09
   10.98000      1.1438822E-09
   11.04000      7.9961393E-10
   11.10000      4.2646234E-10
   11.16000      3.6561806E-11
   11.22000     -3.5941874E-10
   11.28000     -7.5362999E-10
   11.34000     -1.1421077E-09
   11.40000     -1.5249743E-09
   11.46000     -1.9053525E-09
   11.52000     -2.2869702E-09
   11.58000     -2.6709399E-09
   11.64000     -3.0526150E-09
   11.70000     -3.4195540E-09
   11.76000     -3.7513934E-09
   11.82000     -4.0219104E-09
   11.88000     -4.2029016E-09
   11.94000     -4.2689767E-09
   12.00000     -4.2021200E-09
   12.06000     -3.9949959E-09
   12.12000     -3.6523886E-09
   12.18000     -3.1907077E-09
   12.24000     -2.6359470E-09
   12.30000     -2.0207260E-09
   12.36000     -1.3810211E-09
   12.42000     -7.5296985E-10
   12.48000     -1.6988125E-10
   12.54000      3.4059097E-10
   12.60000      7.5909778E-10
   12.66000      1.0768648E-09
   12.72000      1.2970798E-09
   12.78000      1.4347542E-09
   12.84000      1.5145002E-09
   12.90000      1.5660911E-09
   12.96000      1.6183367E-09
   13.02000      1.6924827E-09
   13.08000      1.7967768E-09
   13.14000      1.9237854E-09
   13.20000      2.0514317E-09
   13.26000      2.1476996E-09
   13.32000      2.1778259E-09
   13.38000      2.1120046E-09
   13.44000      1.9314790E-09
   13.50000      1.6314546E-09
   13.56000      1.2203866E-09
   13.62000      7.1641754E-10
   13.68000      1.4261378E-10
   13.74000     -4.7717763E-10
   13.80000     -1.1205813E-09
   13.86000     -1.7668118E-09
   13.92000     -2.3954416E-09
   13.98000     -2.9851759E-09
   14.04000     -3.5138754E-09
   14.10000     -3.9603374E-09
   14.16000     -4.3073696E-09
   14.22000     -4.5449506E-09
   14.28000     -4.6721098E-09
   14.34000     -4.6966759E-09
   14.40000     -4.6330282E-09
   14.46000     -4.4989075E-09
   14.52000     -4.3128066E-09
   14.58000     -4.0932018E-09
   14.64000     -3.8599519E-09
   14.70000     -3.6370118E-09
   14.76000     -3.4547232E-09
   14.82000     -3.3497993E-09
   14.88000     -3.3618557E-09
   14.94000     -3.5267385E-09
   15.00000     -3.8683829E-09
   15.06000     -4.3918811E-09
   15.12000     -5.0803863E-09
   15.18000     -5.8973768E-09
   15.24000     -6.7940147E-09
   15.30000     -7.7195335E-09
   15.36000     -8.6314911E-09
   15.42000     -9.5027541E-09
   15.48000     -1.0323217E-08
   15.54000     -1.1096124E-08
   15.60000     -1.1830687E-08
   15.66000     -1.2533846E-08
   15.72000     -1.3204159E-08
   15.78000     -1.3829785E-08
   15.84000     -1.4391023E-08
   15.90000     -1.4866129E-08
   15.96000     -1.5238058E-08
   16.02000     -1.5499552E-08
   16.08000     -1.5654647E-08
   16.14000     -1.5716109E-08
   16.20000     -1.5699793E-08
   16.26000     -1.5618120E-08
   16.32000     -1.5475187E-08
   16.38000     -1.5265455E-08
   16.44000     -1.4976591E-08
   16.50000     -1.4595390E-08
   16.56000     -1.4114531E-08
   16.62000     -1.3537498E-08
   16.68000     -1.2879774E-08
   16.74000     -1.2165891E-08
   16.80000     -1.1423596E-08
   16.86000     -1.0677518E-08
   16.92000     -9.9448050E-09
   16.98000     -9.2342969E-09
   17.04000     -8.5491649E-09
   17.10000     -7.8916580E-09
   17.16000     -7.2677473E-09
   17.22000     -6.6898238E-09
   17.28000     -6.1765197E-09
   17.34000     -5.7499743E-09
   17.40000     -5.4316764E-09
   17.46000     -5.2382578E-09
   17.52000     -5.1782512E-09
   17.58000     -5.2502611E-09
   17.64000     -5.4425575E-09
   17.70000     -5.7339702E-09
   17.76000     -6.0960583E-09
   17.82000     -6.4965620E-09
   17.88000     -6.9039330E-09
   17.94000     -7.2922934E-09
   18.00000     -7.6456983E-09
   18.06000     -7.9604456E-09
   18.12000     -8.2445526E-09
   18.18000     -8.5143590E-09
   18.24000     -8.7891570E-09
   18.30000     -9.0854222E-09
   18.36000     -9.4122683E-09
   18.42000     -9.7691997E-09
   18.48000     -1.0146390E-08
   18.54000     -1.0526899E-08
   18.60000     -1.0889775E-08
   18.66000     -1.1212986E-08
   18.72000     -1.1475493E-08
   18.78000     -1.1658190E-08
   18.84000     -1.1743902E-08
   18.90000     -1.1716969E-08
   18.96000     -1.1563120E-08
   19.02000     -1.1270479E-08
   19.08000     -1.0832285E-08
   19.14000     -1.0251425E-08
   19.20000     -9.5459312E-09
   19.26000     -8.7537044E-09
   19.32000     -7.9340925E-09
   19.38000     -7.1643043E-09
   19.44000     -6.5299228E-09
   19.50000     -6.1107954E-09
   19.56000     -5.9655667E-09
   19.62000     -6.1191439E-09
   19.68000     -6.5569048E-09
   19.74000     -7.2274906E-09
   19.80000     -8.0532878E-09
   19.86000     -8.9452596E-09
   19.92000     -9.8176116E-09
   19.98000     -1.0598246E-08
   20.04000     -1.1232808E-08
   20.10000     -1.1682503E-08
   20.16000     -1.1917854E-08
   20.22000     -1.1911498E-08
   20.28000     -1.1632938E-08
   20.34000     -1.1047118E-08
   20.40000     -1.0117290E-08
   20.46000     -8.8114458E-09
   20.52000     -7.1106228E-09
   20.58000     -5.0170308E-09
   20.64000     -2.5599314E-09
   20.70000      2.0228839E-10
   20.76000      3.1845078E-09
   20.82000      6.2812644E-09
   20.88000      9.3756869E-09
   20.94000      1.2349008E-08
   21.00000      1.5088963E-08
   21.06000      1.7496289E-08
   21.12000      1.9489613E-08
   21.18000      2.1009784E-08
   21.24000      2.2024489E-08
   21.30000      2.2533161E-08
   21.36000      2.2570896E-08
   21.42000      2.2209258E-08
   21.48000      2.1552095E-08
   21.54000      2.0725681E-08
   21.60000      1.9864434E-08
   21.66000      1.9095207E-08
   21.72000      1.8523810E-08
   21.78000      1.8226952E-08
   21.84000      1.8251063E-08
   21.90000      1.8617255E-08
   21.96000      1.9329953E-08
   22.02000      2.0385697E-08
   22.08000      2.1779149E-08
   22.14000      2.3504541E-08
   22.20000      2.5552737E-08
   22.26000      2.7905637E-08
   22.32000      3.0530643E-08
   22.38000      3.3377724E-08
   22.44000      3.6380580E-08
   22.50000      3.9461874E-08
   22.56000      4.2540911E-08
   22.62000      4.5541476E-08
   22.68000      4.8397514E-08
   22.74000      5.1055572E-08
   22.80000      5.3474231E-08
   22.86000      5.5622117E-08
   22.92000      5.7476431E-08
   22.98000      5.9023535E-08
   23.04000      6.0261783E-08
   23.10000      6.1205341E-08
   23.16000      6.1887057E-08
   23.22000      6.2358026E-08
   23.28000      6.2682808E-08
   23.34000      6.2930546E-08
   23.40000      6.3163888E-08
   23.46000      6.3428502E-08
   23.52000      6.3746178E-08
   23.58000      6.4113237E-08
   23.64000      6.4504896E-08
   23.70000      6.4884198E-08
   23.76000      6.5213030E-08
   23.82000      6.5462274E-08
   23.88000      6.5618373E-08
   23.94000      6.5684681E-08
   24.00000      6.5677526E-08
   24.06000      6.5618181E-08
   24.12000      6.5523224E-08
   24.18000      6.5395952E-08
   24.24000      6.5221663E-08
   24.30000      6.4968191E-08
   24.36000      6.4591937E-08
   24.42000      6.4047875E-08
   24.48000      6.3300511E-08
   24.54000      6.2332632E-08
   24.60000      6.1148668E-08
   24.66000      5.9771693E-08
   24.72000      5.8234612E-08
   24.78000      5.6568538E-08
   24.84000      5.4792185E-08
   24.90000      5.2905889E-08
   24.96000      5.0892243E-08
   25.02000      4.8723038E-08
   25.08000      4.6370097E-08
   25.14000      4.3816328E-08
   25.20000      4.1063377E-08
   25.26000      3.8133617E-08
   25.32000      3.5066151E-08
   25.38000      3.1908513E-08
   25.44000      2.8706920E-08
   25.50000      2.5498315E-08
   25.56000      2.2306487E-08
   25.62000      1.9143002E-08
   25.68000      1.6011956E-08
   25.74000      1.2916205E-08
   25.80000      9.8623412E-09
   25.86000      6.8624932E-09
   25.92000      3.9325481E-09
   25.98000      1.0881527E-09
   26.04000     -1.6590805E-09
   26.10000     -4.3028443E-09
   26.16000     -6.8398665E-09
   26.22000     -9.2650021E-09
   26.28000     -1.1566136E-08
   26.34000     -1.3721767E-08
   26.40000     -1.5703153E-08
   26.46000     -1.7480923E-08
   26.52000     -1.9034042E-08
   26.58000     -2.0357772E-08
   26.64000     -2.1467585E-08
   26.70000     -2.2397279E-08
   26.76000     -2.3191713E-08
   26.82000     -2.3896337E-08
   26.88000     -2.4546761E-08
   26.94000     -2.5161523E-08
   27.00000     -2.5740256E-08
   27.06000     -2.6267742E-08
   27.12000     -2.6722637E-08
   27.18000     -2.7088086E-08
   27.24000     -2.7360777E-08
   27.30000     -2.7555263E-08
   27.36000     -2.7701869E-08
   27.42000     -2.7838761E-08
   27.48000     -2.8000841E-08
   27.54000     -2.8209577E-08
   27.60000     -2.8467355E-08
   27.66000     -2.8758325E-08
   27.72000     -2.9054869E-08
   27.78000     -2.9326621E-08
   27.84000     -2.9548135E-08
   27.90000     -2.9702216E-08
   27.96000     -2.9778192E-08
   28.02000     -2.9766928E-08
   28.08000     -2.9655768E-08
   28.14000     -2.9426424E-08
   28.20000     -2.9057302E-08
   28.26000     -2.8529517E-08
   28.32000     -2.7834185E-08
   28.38000     -2.6978096E-08
   28.44000     -2.5985500E-08
   28.50000     -2.4895213E-08
   28.56000     -2.3753719E-08
   28.62000     -2.2606029E-08
   28.68000     -2.1486551E-08
   28.74000     -2.0412072E-08
   28.80000     -1.9378662E-08
   28.86000     -1.8363462E-08
   28.92000     -1.7331340E-08
   28.98000     -1.6245036E-08
   29.04000     -1.5076219E-08
   29.10000     -1.3814225E-08
   29.16000     -1.2469482E-08
   29.22000     -1.1070295E-08
   29.28000     -9.6538271E-09
   29.34000     -8.2543252E-09
   29.40000     -6.8928476E-09
   29.46000     -5.5723111E-09
   29.52000     -4.2797885E-09
   29.58000     -2.9952834E-09
   29.64000     -1.7038554E-09
   29.70000     -4.0673023E-10
   29.76000      8.7261653E-10
   29.82000      2.0897486E-09
   29.88000      3.1879199E-09
   29.94000      4.1118229E-09
   30.00000      4.8225397E-09
   30.06000      5.3092886E-09
   30.12000      5.5941483E-09
   30.18000      5.7276770E-09
   30.24000      5.7758904E-09
   30.30000      5.8018248E-09
   30.36000      5.8470784E-09
   30.42000      5.9193725E-09
   30.48000      5.9907364E-09
   30.54000      6.0076180E-09
   30.60000      5.9100200E-09
   30.66000      5.6532805E-09
   30.72000      5.2247739E-09
   30.78000      4.6494031E-09
   30.84000      3.9816652E-09
   30.90000      3.2869985E-09
   30.96000      2.6190294E-09
   31.02000      2.0008688E-09
   31.08000      1.4171407E-09
   31.14000      8.1962331E-10
   31.20000      1.4462977E-10
   31.26000     -6.6378170E-10
   31.32000     -1.6326623E-09
   31.38000     -2.7482847E-09
   31.44000     -3.9575698E-09
   31.50000     -5.1823421E-09
   31.56000     -6.3415118E-09
   31.62000     -7.3735094E-09
   31.68000     -8.2512948E-09
   31.74000     -8.9850136E-09
   31.80000     -9.6120152E-09
   31.86000     -1.0178624E-08
   31.92000     -1.0720941E-08
   31.98000     -1.1251927E-08
   32.04000     -1.1759174E-08
   32.10000     -1.2213316E-08
   32.16000     -1.2582953E-08
   32.22000     -1.2849777E-08
   32.28000     -1.3017997E-08
   32.34000     -1.3114810E-08
   32.40000     -1.3182142E-08
   32.46000     -1.3263006E-08
   32.52000     -1.3387367E-08
   32.58000     -1.3562286E-08
   32.64000     -1.3769355E-08
   32.70000     -1.3969943E-08
   32.76000     -1.4116282E-08
   32.82000     -1.4164614E-08
   32.88000     -1.4086269E-08
   32.94000     -1.3873462E-08
   33.00000     -1.3538756E-08
   33.06000     -1.3109478E-08
   33.12000     -1.2620019E-08
   33.18000     -1.2105155E-08
   33.24000     -1.1596281E-08
   33.30000     -1.1120424E-08
   33.36000     -1.0700316E-08
   33.42000     -1.0353504E-08
   33.48000     -1.0089575E-08
   33.54000     -9.9064819E-09
   33.60000     -9.7882529E-09
   33.66000     -9.7063939E-09
   33.72000     -9.6256771E-09
   33.78000     -9.5128252E-09
   33.84000     -9.3449000E-09
   33.90000     -9.1141397E-09
   33.96000     -8.8274108E-09
   34.02000     -8.5008685E-09
   34.08000     -8.1523241E-09
   34.14000     -7.7945739E-09
   34.20000     -7.4321349E-09
   34.26000     -7.0621859E-09
   34.32000     -6.6787145E-09
   34.38000     -6.2778476E-09
   34.44000     -5.8621805E-09
   34.50000     -5.4425366E-09
   34.56000     -5.0365978E-09
   34.62000     -4.6648663E-09
   34.68000     -4.3453157E-09
   34.74000     -4.0885881E-09
   34.80000     -3.8956567E-09
   34.86000     -3.7591987E-09
   34.92000     -3.6686600E-09
   34.98000     -3.6173951E-09
   35.04000     -3.6090584E-09
   35.10000     -3.6601675E-09
   35.16000     -3.7968602E-09
   35.22000     -4.0459929E-09
   35.28000     -4.4231445E-09
   35.34000     -4.9217257E-09
   35.40000     -5.5075566E-09
   35.46000     -6.1217325E-09
   35.52000     -6.6918924E-09
   35.58000     -7.1490334E-09
   35.64000     -7.4448883E-09
   35.70000     -7.5643216E-09
   35.76000     -7.5285529E-09
   35.82000     -7.3878303E-09
   35.88000     -7.2056809E-09
   35.94000     -7.0397621E-09
   36.00000     -6.9256338E-09
   36.06000     -6.8688495E-09
   36.12000     -6.8477934E-09
   36.18000     -6.8258443E-09
   36.24000     -6.7680581E-09
   36.30000     -6.6561143E-09
   36.36000     -6.4962427E-09
   36.42000     -6.3178356E-09
   36.48000     -6.1640986E-09
   36.54000     -6.0788778E-09
   36.60000     -6.0946643E-09
   36.66000     -6.2255707E-09
   36.72000     -6.4666152E-09
   36.78000     -6.7981301E-09
   36.84000     -7.1925532E-09
   36.90000     -7.6207876E-09
   36.96000     -8.0562552E-09
   37.02000     -8.4762721E-09
   37.08000     -8.8614867E-09
   37.14000     -9.1947054E-09
   37.20000     -9.4602974E-09
   37.26000     -9.6448503E-09
   37.32000     -9.7391473E-09
   37.38000     -9.7409449E-09
   37.44000     -9.6576134E-09
   37.50000     -9.5076107E-09
   37.56000     -9.3198667E-09
   37.62000     -9.1307220E-09
   37.68000     -8.9788097E-09
   37.74000     -8.8990575E-09
   37.80000     -8.9174375E-09
   37.86000     -9.0479109E-09
   37.92000     -9.2922550E-09
   37.98000     -9.6424264E-09
   38.04000     -1.0084157E-08
   38.10000     -1.0600231E-08
   38.16000     -1.1172298E-08
   38.22000     -1.1781005E-08
   38.28000     -1.2405258E-08
   38.34000     -1.3021886E-08
   38.40000     -1.3606822E-08
   38.46000     -1.4138078E-08
   38.52000     -1.4599721E-08
   38.58000     -1.4985400E-08
   38.64000     -1.5299850E-08
   38.70000     -1.5557470E-08
   38.76000     -1.5778101E-08
   38.82000     -1.5981216E-08
   38.88000     -1.6180252E-08
   38.94000     -1.6378721E-08
   39.00000     -1.6568965E-08
   39.06000     -1.6733564E-08
   39.12000     -1.6848526E-08
   39.18000     -1.6887117E-08
   39.24000     -1.6823412E-08
   39.30000     -1.6635179E-08
   39.36000     -1.6306210E-08
   39.42000     -1.5828437E-08
   39.48000     -1.5203831E-08
   39.54000     -1.4445733E-08
   39.60000     -1.3578849E-08
   39.66000     -1.2637257E-08
   39.72000     -1.1660325E-08
   39.78000     -1.0687274E-08
   39.84000     -9.7517798E-09
   39.90000     -8.8782315E-09
   39.96000     -8.0807592E-09
   40.02000     -7.3652648E-09
   40.08000     -6.7336119E-09
   40.14000     -6.1883680E-09
   40.20000     -5.7362968E-09
   40.26000     -5.3891722E-09
   40.32000     -5.1613878E-09
   40.38000     -5.0649360E-09
   40.44000     -5.1033378E-09
   40.50000     -5.2666409E-09
   40.56000     -5.5294866E-09
   40.62000     -5.8533396E-09
   40.68000     -6.1926468E-09
   40.74000     -6.5033166E-09
   40.80000     -6.7510926E-09
   40.86000     -6.9174999E-09
   40.92000     -7.0019501E-09
   40.98000     -7.0199104E-09
   41.04000     -6.9981638E-09
   41.10000     -6.9687021E-09
   41.16000     -6.9626718E-09
   41.22000     -7.0054065E-09
   41.28000     -7.1132047E-09
   41.34000     -7.2923410E-09
   41.40000     -7.5406188E-09
   41.46000     -7.8512858E-09
   41.52000     -8.2182670E-09
   41.58000     -8.6407939E-09
   41.64000     -9.1252161E-09
   41.70000     -9.6825303E-09
   41.76000     -1.0321907E-08
   41.82000     -1.1042509E-08
   41.88000     -1.1827116E-08
   41.94000     -1.2640847E-08
   42.00000     -1.3436479E-08
   42.06000     -1.4165313E-08
   42.12000     -1.4790278E-08
   42.18000     -1.5297045E-08
   42.24000     -1.5699442E-08
   42.30000     -1.6037347E-08
   42.36000     -1.6367549E-08
   42.42000     -1.6750153E-08
   42.48000     -1.7234395E-08
   42.54000     -1.7847903E-08
   42.60000     -1.8592376E-08
   42.66000     -1.9446757E-08
   42.72000     -2.0376477E-08
   42.78000     -2.1345343E-08
   42.84000     -2.2325700E-08
   42.90000     -2.3303382E-08
   42.96000     -2.4276153E-08
   43.02000     -2.5247196E-08
   43.08000     -2.6217224E-08
   43.14000     -2.7179183E-08
   43.20000     -2.8118016E-08
   43.26000     -2.9015391E-08
   43.32000     -2.9856913E-08
   43.38000     -3.0638272E-08
   43.44000     -3.1367335E-08
   43.50000     -3.2061035E-08
   43.56000     -3.2738193E-08
   43.62000     -3.3410998E-08
   43.68000     -3.4078305E-08
   43.74000     -3.4723318E-08
   43.80000     -3.5316642E-08
   43.86000     -3.5824002E-08
   43.92000     -3.6216353E-08
   43.98000     -3.6479445E-08
   44.04000     -3.6619788E-08
   44.10000     -3.6665085E-08
   44.16000     -3.6658683E-08
   44.22000     -3.6649467E-08
   44.28000     -3.6679978E-08
   44.34000     -3.6776306E-08
   44.40000     -3.6942804E-08
   44.46000     -3.7163375E-08
   44.52000     -3.7408906E-08
   44.58000     -3.7648526E-08
   44.64000     -3.7860868E-08
   44.70000     -3.8041321E-08
   44.76000     -3.8202721E-08
   44.82000     -3.8369237E-08
   44.88000     -3.8565862E-08
   44.94000     -3.8807787E-08
   45.00000     -3.9093887E-08
   45.06000     -3.9406864E-08
   45.12000     -3.9719634E-08
   45.18000     -4.0004945E-08
   45.24000     -4.0243972E-08
   45.30000     -4.0430390E-08
   45.36000     -4.0568654E-08
   45.42000     -4.0667864E-08
   45.48000     -4.0734474E-08
   45.54000     -4.0767393E-08
   45.60000     -4.0757801E-08
   45.66000     -4.0693894E-08
   45.72000     -4.0568544E-08
   45.78000     -4.0386546E-08
   45.84000     -4.0168182E-08
   45.90000     -3.9947032E-08
   45.96000     -3.9762241E-08
   46.02000     -3.9647702E-08
   46.08000     -3.9622037E-08
   46.14000     -3.9682902E-08
   46.20000     -3.9807642E-08
   46.26000     -3.9959488E-08
   46.32000     -4.0096438E-08
   46.38000     -4.0179103E-08
   46.44000     -4.0174601E-08
   46.50000     -4.0055404E-08
   46.56000     -3.9794056E-08
   46.62000     -3.9355523E-08
   46.68000     -3.8689439E-08
   46.74000     -3.7723851E-08
   46.80000     -3.6361751E-08
   46.86000     -3.4481236E-08
   46.92000     -3.1939130E-08
   46.98000     -2.8576869E-08
   47.04000     -2.4225709E-08
   47.10000     -1.8707643E-08
   47.16000     -1.1829166E-08
   47.22000     -3.3676169E-09
   47.28000      6.9471811E-09
   47.34000      1.9451230E-08
   47.40000      3.4560365E-08
   47.46000      5.2778471E-08
   47.52000      7.4701916E-08
   47.58000      1.0102470E-07
   47.64000      1.3254872E-07
   47.70000      1.7020118E-07
   47.76000      2.1505898E-07
   47.82000      2.6837779E-07
   47.88000      3.3162357E-07
   47.94000      4.0650599E-07
   48.00000      4.9501330E-07
   48.06000      5.9944961E-07
   48.12000      7.2247468E-07
   48.18000      8.6714630E-07
   48.24000      1.0369656E-06
   48.30000      1.2359288E-06
   48.36000      1.4685863E-06
   48.42000      1.7401109E-06
   48.48000      2.0563766E-06
   48.54000      2.4240446E-06
   48.60000      2.8506540E-06
   48.66000      3.3447118E-06
   48.72000      3.9157890E-06
   48.78000      4.5746156E-06
   48.84000      5.3331837E-06
   48.90000      6.2048534E-06
   48.96000      7.2044691E-06
   49.02000      8.3484774E-06
   49.08000      9.6550593E-06
   49.14000      1.1144258E-05
   49.20000      1.2838126E-05
   49.26000      1.4760873E-05
   49.32000      1.6939000E-05
   49.38000      1.9401446E-05
   49.44000      2.2179711E-05
   49.50000      2.5307945E-05
   49.56000      2.8823066E-05
   49.62000      3.2764849E-05
   49.68000      3.7175996E-05
   49.74000      4.2102238E-05
   49.80000      4.7592384E-05
   49.86000      5.3698361E-05
   49.92000      6.0475242E-05
   49.98000      6.7981215E-05
   50.04000      7.6277523E-05
   50.10000      8.5428415E-05
   50.16000      9.5500924E-05
   50.22000      1.0656477E-04
   50.28000      1.1869214E-04
   50.34000      1.3195742E-04
   50.40000      1.4643681E-04
   50.46000      1.6220810E-04
   50.52000      1.7935023E-04
   50.58000      1.9794282E-04
   50.64000      2.1806572E-04
   50.70000      2.3979836E-04
   50.76000      2.6321926E-04
   50.82000      2.8840522E-04
   50.88000      3.1543078E-04
   50.94000      3.4436738E-04
   51.00000      3.7528263E-04
   51.06000      4.0823960E-04
   51.12000      4.4329595E-04
   51.18000      4.8050316E-04
   51.24000      5.1990559E-04
   51.30000      5.6153972E-04
   51.36000      6.0543342E-04
   51.42000      6.5160485E-04
   51.48000      7.0006237E-04
   51.54000      7.5080310E-04
   51.60000      8.0381281E-04
   51.66000      8.5906521E-04
   51.72000      9.1652141E-04
   51.78000      9.7612949E-04
   51.84000      1.0378244E-03
   51.90000      1.1015277E-03
   51.96000      1.1671477E-03
   52.02000      1.2345792E-03
   52.08000      1.3037048E-03
   52.14000      1.3743935E-03
   52.20000      1.4465024E-03
   52.26000      1.5198775E-03
   52.32000      1.5943536E-03
   52.38000      1.6697567E-03
   52.44000      1.7459036E-03
   52.50000      1.8226043E-03
   52.56000      1.8996628E-03
   52.62000      1.9768781E-03
   52.68000      2.0540468E-03
   52.74000      2.1309641E-03
   52.80000      2.2074250E-03
   52.86000      2.2832274E-03
   52.92000      2.3581733E-03
   52.98000      2.4320697E-03
   53.04000      2.5047322E-03
   53.10000      2.5759840E-03
   53.16000      2.6456595E-03
   53.22000      2.7136055E-03
   53.28000      2.7796829E-03
   53.34000      2.8437672E-03
   53.40000      2.9057499E-03
   53.46000      2.9655406E-03
   53.52000      3.0230647E-03
   53.58000      3.0782672E-03
   53.64000      3.1311119E-03
   53.70000      3.1815805E-03
   53.76000      3.2296751E-03
   53.82000      3.2754149E-03
   53.88000      3.3188371E-03
   53.94000      3.3599967E-03
   54.00000      3.3989635E-03
   54.06000      3.4358229E-03
   54.12000      3.4706732E-03
   54.18000      3.5036253E-03
   54.24000      3.5347992E-03
   54.30000      3.5643242E-03
   54.36000      3.5923359E-03
   54.42000      3.6189742E-03
   54.48000      3.6443810E-03
   54.54000      3.6686978E-03
   54.60000      3.6920654E-03
   54.66000      3.7146194E-03
   54.72000      3.7364906E-03
   54.78000      3.7578009E-03
   54.84000      3.7786637E-03
   54.90000      3.7991807E-03
   54.96000      3.8194410E-03
   55.02000      3.8395198E-03
   55.08000      3.8594769E-03
   55.14000      3.8793569E-03
   55.20000      3.8991882E-03
   55.26000      3.9189821E-03
   55.32000      3.9387331E-03
   55.38000      3.9584199E-03
   55.44000      3.9780037E-03
   55.50000      3.9974316E-03
   55.56000      4.0166345E-03