  -2.400000      0.0000000E+00
  -2.340000      0.0000000E+00
  -2.280000      0.0000000E+00
  -2.220000      0.0000000E+00
  -2.160000      0.0000000E+00
  -2.100000      0.0000000E+00
  -2.040000      0.0000000E+00
  -1.980000      0.0000000E+00
  -1.920000      0.0000000E+00
  -1.860000      0.0000000E+00
  -1.800000     -4.9925145E-30
  -1.740000     -6.1671533E-29
  -1.680000     -3.5366458E-28
  -1.620000     -1.1587048E-27
  -1.560000     -1.8282897E-27
  -1.500000      2.3362840E-27
  -1.440000      2.3554704E-26
  -1.380000      7.4871497E-26
  -1.320000      1.3410808E-25
  -1.260000      7.4415684E-26
  -1.200000     -3.7360164E-25
  -1.140000     -1.4560249E-24
  -1.080000     -2.8384353E-24
  -1.020000     -2.7749922E-24
 -0.9600000      2.1443659E-24
 -0.9000000      1.5055548E-23
 -0.8400000      3.3418391E-23
 -0.7800000      4.1656239E-23
 -0.7200000      8.5771481E-24
 -0.6600000     -9.9104715E-23
 -0.6000000     -2.7845020E-22
 -0.5400000     -4.3503147E-22
 -0.4800000     -3.4887284E-22
 -0.4200000      2.7110420E-22
 -0.3600000      1.5803467E-21
 -0.3000000      3.2484655E-21
 -0.2400000      4.1284261E-21
 -0.1800000      2.2921738E-21
 -0.1200000     -4.1467000E-21
 -5.9999999E-02 -1.5241583E-20
  0.0000000E+00 -2.6963522E-20
  5.9999999E-02 -3.0020310E-20
  0.1200000     -1.2015862E-20
  0.1800000      3.5310605E-20
  0.2400000      1.0473729E-19
  0.3000000      1.6375980E-19
  0.3600000      1.5636023E-19
  0.4200000      2.6101232E-20
  0.4800000     -2.3885368E-19
  0.5400000     -5.5638712E-19
  0.6000000     -7.3370010E-19
  0.6600000     -5.2484992E-19
  0.7200000      2.2224717E-19
  0.7800000      1.3747288E-18
  0.8400000      2.3960190E-18
  0.9000000      2.4467016E-18
  0.9600000      7.8852372E-19
   1.020000     -2.5999180E-18
   1.080000     -6.5117159E-18
   1.140000     -8.5528201E-18
   1.200000     -6.0642774E-18
   1.260000      2.1845925E-18
   1.320000      1.4264649E-17
   1.380000      2.4506723E-17
   1.440000      2.5132267E-17
   1.500000      1.0211152E-17
   1.560000     -1.9458678E-17
   1.620000     -5.3299575E-17
   1.680000     -7.2648249E-17
   1.740000     -5.8435420E-17
   1.800000     -2.8253626E-18
   1.860000      8.0652353E-17
   1.920000      1.5544321E-16
   1.980000      1.7354149E-16
   2.040000      9.9015637E-17
   2.100000     -6.5518660E-17
   2.160000     -2.6389309E-16
   2.220000     -3.9629053E-16
   2.280000     -3.5833890E-16
   2.340000     -9.8603436E-17
   2.400000      3.3086028E-16
   2.460000      7.6190418E-16
   2.520000      9.5713167E-16
   2.580000      7.1284223E-16
   2.640000     -1.7271660E-17
   2.700000     -1.0372889E-15
   2.760000     -1.9232817E-15
   2.820000     -2.1648966E-15
   2.880000     -1.4038853E-15
   2.940000      3.2405495E-16
   3.000000      2.4726222E-15
   3.060000      4.0991346E-15
   3.120000      4.2268376E-15
   3.180000      2.3438395E-15
   3.240000     -1.1844575E-15
   3.300000     -5.0393056E-15
   3.360000     -7.3568352E-15
   3.420000     -6.5514831E-15
   3.480000     -2.2369401E-15
   3.540000      4.2246785E-15
   3.600000      9.9542600E-15
   3.660000      1.1672391E-14
   3.720000      7.3541095E-15
   3.780000     -2.3183544E-15
   3.840000     -1.3545403E-14
   3.900000     -2.0555240E-14
   3.960000     -1.8124562E-14
   4.020000     -4.5163217E-15
   4.080000      1.6592893E-14
   4.140000      3.6459300E-14
   4.200000      4.4296076E-14
   4.260000      3.2114709E-14
   4.320000     -5.8448503E-16
   4.380000     -4.4597806E-14
   4.440000     -8.2885786E-14
   4.500000     -9.6492143E-14
   4.560000     -7.2568362E-14
   4.620000     -1.1244190E-14
   4.680000      7.1908401E-14
   4.740000      1.4955954E-13
   4.800000      1.9168951E-13
   4.860000      1.7682085E-13
   4.920000      1.0093087E-13
   4.980000     -1.9806226E-14
   5.040000     -1.5387836E-13
   5.100000     -2.6508654E-13
   5.160000     -3.2455424E-13
   5.220000     -3.1895073E-13
   5.280000     -2.5148210E-13
   5.340000     -1.3570452E-13
   5.400000      1.4036732E-14
   5.460000      1.8961105E-13
   5.520000      3.8841719E-13
   5.580000      6.0364918E-13
   5.640000      8.0946887E-13
   5.700000      9.4946859E-13
   5.760000      9.3791240E-13
   5.820000      6.7975410E-13
   5.880000      1.0798561E-13
   5.940000     -7.7191384E-13
   6.000000     -1.8471453E-12
   6.060000     -2.8899782E-12
   6.120000     -3.5888605E-12
   6.180000     -3.6179185E-12
   6.240000     -2.7307347E-12
   6.300000     -8.5349696E-13
   6.360000      1.8509005E-12
   6.420000      4.9706485E-12
   6.480000      7.8943007E-12
   6.540000      9.9145735E-12
   6.600000      1.0365334E-11
   6.660000      8.7629574E-12
   6.720000      4.9244098E-12
   6.780000     -9.5723950E-13
   6.840000     -8.2882251E-12
   6.900000     -1.6099908E-11
   6.960000     -2.3121323E-11
   7.020000     -2.7897028E-11
   7.080000     -2.8952972E-11
   7.140000     -2.5013417E-11
   7.200000     -1.5263955E-11
   7.260000      3.6223311E-13
   7.320000      2.0921069E-11
   7.380000      4.4284323E-11
   7.440000      6.7131585E-11
   7.500000      8.5170329E-11
   7.560000      9.3612229E-11
   7.620000      8.7882354E-11
   7.680000      6.4481413E-11
   7.740000      2.1875019E-11
   7.800000     -3.8739501E-11
   7.860000     -1.1293130E-10
   7.920000     -1.9290643E-10
   7.980000     -2.6780236E-10
   8.040000     -3.2439715E-10
   8.100000     -3.4816827E-10
   8.160000     -3.2459829E-10
   8.220000     -2.4060345E-10
   8.280000     -8.5957221E-11
   8.340000      1.4541358E-10
   8.400000      4.5437612E-10
   8.460000      8.3589025E-10
   8.520000      1.2787567E-09
   8.580000      1.7658957E-09
   8.640000      2.2752049E-09
   8.700000      2.7809874E-09
   8.760000      3.2558691E-09
   8.820000      3.6730454E-09
   8.880000      4.0086263E-09
   8.940000      4.2437978E-09
   9.000000      4.3665400E-09
   9.060000      4.3726716E-09
   9.120000      4.2660959E-09
   9.180000      4.0582204E-09
   9.240000      3.7666230E-09
   9.300000      3.4131142E-09
   9.360000      3.0213807E-09
   9.420000      2.6144322E-09
   9.480000      2.2120776E-09
   9.540000      1.8286841E-09
   9.600000      1.4714882E-09
   9.660000      1.1397299E-09
   9.720000      8.2483070E-10
   9.780000      5.1172383E-10
   9.840000      1.8126858E-10
   9.900000     -1.8653545E-10
   9.960000     -6.0901101E-10
   10.02000     -1.0975350E-09
   10.08000     -1.6551223E-09
   10.14000     -2.2753022E-09
   10.20000     -2.9424720E-09
   10.26000     -3.6336294E-09
   10.32000     -4.3211195E-09
   10.38000     -4.9758810E-09
   10.44000     -5.5706502E-09
   10.50000     -6.0826735E-09
   10.56000     -6.4956631E-09
   10.62000     -6.8008941E-09
   10.68000     -6.9975061E-09
   10.74000     -7.0921198E-09
   10.80000     -7.0978809E-09
   10.86000     -7.0330124E-09
   10.92000     -6.9189210E-09
   10.98000     -6.7779258E-09
   11.04000     -6.6307568E-09
   11.10000     -6.4940764E-09
   11.16000     -6.3783663E-09
   11.22000     -6.2865562E-09
   11.28000     -6.2137016E-09
   11.34000     -6.1478396E-09
   11.40000     -6.0719354E-09
   11.46000     -5.9665664E-09
   11.52000     -5.8128693E-09
   11.58000     -5.5951825E-09
   11.64000     -5.3029474E-09
   11.70000     -4.9316204E-09
   11.76000     -4.4826161E-09
   11.82000     -3.9625077E-09
   11.88000     -3.3818441E-09
   11.94000     -2.7538913E-09
   12.00000     -2.0934783E-09
   12.06000     -1.4159295E-09
   12.12000     -7.3591422E-10
   12.18000     -6.6051241E-11
   12.24000      5.8476640E-10
   12.30000      1.2130932E-09
   12.36000      1.8222218E-09
   12.42000      2.4224451E-09
   12.48000      3.0298106E-09
   12.54000      3.6632468E-09
   12.60000      4.3404667E-09
   12.66000      5.0735696E-09
   12.72000      5.8655574E-09
   12.78000      6.7089223E-09
   12.84000      7.5870084E-09
   12.90000      8.4780591E-09
   12.96000      9.3610373E-09
   13.02000      1.0221620E-08
   13.08000      1.1056578E-08
   13.14000      1.1875113E-08
   13.20000      1.2696520E-08
   13.26000      1.3544682E-08
   13.32000      1.4440878E-08
   13.38000      1.5396949E-08
   13.44000      1.6410826E-08
   13.50000      1.7465736E-08
   13.56000      1.8533393E-08
   13.62000      1.9580293E-08
   13.68000      2.0575406E-08
   13.74000      2.1497284E-08
   13.80000      2.2338771E-08
   13.86000      2.3108155E-08
   13.92000      2.3826601E-08
   13.98000      2.4522469E-08
   14.04000      2.5223935E-08
   14.10000      2.5951618E-08
   14.16000      2.6713018E-08
   14.22000      2.7500121E-08
   14.28000      2.8290867E-08
   14.34000      2.9054213E-08
   14.40000      2.9757665E-08
   14.46000      3.0375340E-08
   14.52000      3.0894412E-08
   14.58000      3.1318180E-08
   14.64000      3.1664719E-08
   14.70000      3.1961456E-08
   14.76000      3.2236997E-08
   14.82000      3.2512517E-08
   14.88000      3.2795047E-08
   14.94000      3.3074752E-08
   15.00000      3.3327073E-08
   15.06000      3.3519434E-08
   15.12000      3.3620864E-08
   15.18000      3.3611979E-08
   15.24000      3.3492569E-08
   15.30000      3.3284522E-08
   15.36000      3.3028844E-08
   15.42000      3.2777379E-08
   15.48000      3.2581060E-08
   15.54000      3.2477804E-08
   15.60000      3.2483150E-08
   15.66000      3.2586186E-08
   15.72000      3.2751721E-08
   15.78000      3.2927908E-08
   15.84000      3.3057162E-08
   15.90000      3.3087339E-08
   15.96000      3.2980427E-08
   16.02000      3.2716908E-08
   16.08000      3.2295546E-08
   16.14000      3.1729609E-08
   16.20000      3.1041413E-08
   16.26000      3.0257237E-08
   16.32000      2.9403912E-08
   16.38000      2.8507356E-08
   16.44000      2.7592368E-08
   16.50000      2.6682329E-08
   16.56000      2.5797766E-08
   16.62000      2.4953376E-08
   16.68000      2.4154279E-08
   16.74000      2.3393010E-08
   16.80000      2.2649015E-08
   16.86000      2.1891687E-08
   16.92000      2.1086926E-08
   16.98000      2.0205738E-08
   17.04000      1.9232484E-08
   17.10000      1.8170246E-08
   17.16000      1.7041501E-08
   17.22000      1.5883600E-08
   17.28000      1.4740080E-08
   17.34000      1.3650044E-08
   17.40000      1.2638320E-08
   17.46000      1.1708915E-08
   17.52000      1.0843339E-08
   17.58000      1.0004135E-08
   17.64000      9.1426653E-09
   17.70000      8.2092049E-09
   17.76000      7.1629458E-09
   17.82000      5.9796061E-09
   17.88000      4.6550523E-09
   17.94000      3.2043752E-09
   18.00000      1.6569829E-09
   18.06000      4.9237496E-11
   18.12000     -1.5833556E-09
   18.18000     -3.2124221E-09
   18.24000     -4.8200417E-09
   18.30000     -6.3986199E-09
   18.36000     -7.9478326E-09
   18.42000     -9.4700470E-09
   18.48000     -1.0966041E-08
   18.54000     -1.2432753E-08
   18.60000     -1.3864063E-08
   18.66000     -1.5254518E-08
   18.72000     -1.6604670E-08
   18.78000     -1.7925897E-08
   18.84000     -1.9242369E-08
   18.90000     -2.0588530E-08
   18.96000     -2.2001933E-08
   19.02000     -2.3512861E-08
   19.08000     -2.5133627E-08
   19.14000     -2.6850927E-08
   19.20000     -2.8624038E-08
   19.26000     -3.0390190E-08
   19.32000     -3.2076255E-08
   19.38000     -3.3614107E-08
   19.44000     -3.4955672E-08
   19.50000     -3.6083605E-08
   19.56000     -3.7014637E-08
   19.62000     -3.7794475E-08
   19.68000     -3.8485446E-08
   19.74000     -3.9150141E-08
   19.80000     -3.9835413E-08
   19.86000     -4.0561090E-08
   19.92000     -4.1316429E-08
   19.98000     -4.2065125E-08
   20.04000     -4.2757289E-08
   20.10000     -4.3344798E-08
   20.16000     -4.3795438E-08
   20.22000     -4.4102062E-08
   20.28000     -4.4284288E-08
   20.34000     -4.4382809E-08
   20.40000     -4.4448370E-08
   20.46000     -4.4528733E-08
   20.52000     -4.4657273E-08
   20.58000     -4.4845805E-08
   20.64000     -4.5083006E-08
   20.70000     -4.5338027E-08
   20.76000     -4.5567734E-08
   20.82000     -4.5725539E-08
   20.88000     -4.5769600E-08
   20.94000     -4.5669061E-08
   21.00000     -4.5407365E-08
   21.06000     -4.4982681E-08
   21.12000     -4.4405819E-08
   21.18000     -4.3696502E-08
   21.24000     -4.2878941E-08
   21.30000     -4.1977760E-08
   21.36000     -4.1015234E-08
   21.42000     -4.0010406E-08
   21.48000     -3.8980435E-08
   21.54000     -3.7943558E-08
   21.60000     -3.6922678E-08
   21.66000     -3.5948069E-08
   21.72000     -3.5057745E-08
   21.78000     -3.4294786E-08
   21.84000     -3.3701731E-08
   21.90000     -3.3313182E-08
   21.96000     -3.3148524E-08
   22.02000     -3.3206657E-08
   22.08000     -3.3464087E-08
   22.14000     -3.3876837E-08
   22.20000     -3.4385817E-08
   22.26000     -3.4924216E-08
   22.32000     -3.5425579E-08
   22.38000     -3.5831022E-08
   22.44000     -3.6094537E-08
   22.50000     -3.6185799E-08
   22.56000     -3.6090505E-08
   22.62000     -3.5808547E-08
   22.68000     -3.5350823E-08
   22.74000     -3.4735319E-08
   22.80000     -3.3983198E-08
   22.86000     -3.3115160E-08
   22.92000     -3.2148325E-08
   22.98000     -3.1093766E-08
   23.04000     -2.9954961E-08
   23.10000     -2.8727632E-08
   23.16000     -2.7401452E-08
   23.22000     -2.5963852E-08
   23.28000     -2.4405441E-08
   23.34000     -2.2725937E-08
   23.40000     -2.0939019E-08
   23.46000     -1.9074612E-08
   23.52000     -1.7177687E-08
   23.58000     -1.5303858E-08
   23.64000     -1.3512829E-08
   23.70000     -1.1861479E-08
   23.76000     -1.0398166E-08
   23.82000     -9.1592964E-09
   23.88000     -8.1682350E-09
   23.94000     -7.4358937E-09
   24.00000     -6.9619279E-09
   24.06000     -6.7355779E-09
   24.12000     -6.7357568E-09
   24.18000     -6.9307320E-09
   24.24000     -7.2783086E-09
   24.30000     -7.7276470E-09
   24.36000     -8.2234761E-09
   24.42000     -8.7126315E-09
   24.48000     -9.1518366E-09
   24.54000     -9.5148565E-09
   24.60000     -9.7969215E-09
   24.66000     -1.0014911E-08
   24.72000     -1.0202911E-08
   24.78000     -1.0404180E-08
   24.84000     -1.0661606E-08
   24.90000     -1.1009142E-08
   24.96000     -1.1466250E-08
   25.02000     -1.2036314E-08
   25.08000     -1.2708716E-08
   25.14000     -1.3463183E-08
   25.20000     -1.4274546E-08
   25.26000     -1.5116141E-08
   25.32000     -1.5960865E-08
   25.38000     -1.6779856E-08
   25.44000     -1.7539833E-08
   25.50000     -1.8200836E-08
   25.56000     -1.8716223E-08
   25.62000     -1.9036234E-08
   25.68000     -1.9115213E-08
   25.74000     -1.8921142E-08
   25.80000     -1.8444958E-08
   25.86000     -1.7706576E-08
   25.92000     -1.6755246E-08
   25.98000     -1.5663277E-08
   26.04000     -1.4514188E-08
   26.10000     -1.3388105E-08
   26.16000     -1.2348095E-08
   26.22000     -1.1430920E-08
   26.28000     -1.0644342E-08
   26.34000     -9.9712256E-09
   26.40000     -9.3788133E-09
   26.46000     -8.8301944E-09
   26.52000     -8.2946929E-09
   26.58000     -7.7544460E-09
   26.64000     -7.2058501E-09
   26.70000     -6.6562640E-09
   26.76000     -6.1178422E-09
   26.82000     -5.6012377E-09
   26.88000     -5.1117768E-09
   26.94000     -4.6496185E-09
   27.00000     -4.2137605E-09
   27.06000     -3.8080965E-09
   27.12000     -3.4467758E-09
   27.18000     -3.1562144E-09
   27.24000     -2.9723148E-09
   27.30000     -2.9332505E-09
   27.36000     -3.0699339E-09
   27.42000     -3.3972807E-09
   27.48000     -3.9092454E-09
   27.54000     -4.5794364E-09
   27.60000     -5.3672817E-09
   27.66000     -6.2279715E-09
   27.72000     -7.1232216E-09
   27.78000     -8.0297271E-09
   27.84000     -8.9429690E-09
   27.90000     -9.8755155E-09
   27.96000     -1.0850587E-08
   28.02000     -1.1893003E-08
   28.08000     -1.3020247E-08
   28.14000     -1.4236145E-08
   28.20000     -1.5528698E-08
   28.26000     -1.6872340E-08
   28.32000     -1.8233481E-08
   28.38000     -1.9577469E-08
   28.44000     -2.0874772E-08
   28.50000     -2.2104707E-08
   28.56000     -2.3255923E-08
   28.62000     -2.4324041E-08
   28.68000     -2.5307747E-08
   28.74000     -2.6205178E-08
   28.80000     -2.7012218E-08
   28.86000     -2.7723573E-08
   28.92000     -2.8336386E-08
   28.98000     -2.8855078E-08
   29.04000     -2.9295462E-08
   29.10000     -2.9686323E-08
   29.16000     -3.0067426E-08
   29.22000     -3.0484106E-08
   29.28000     -3.0979695E-08
   29.34000     -3.1587732E-08
   29.40000     -3.2326042E-08
   29.46000     -3.3194063E-08
   29.52000     -3.4174157E-08
   29.58000     -3.5236436E-08
   29.64000     -3.6345977E-08
   29.70000     -3.7470517E-08
   29.76000     -3.8586766E-08
   29.82000     -3.9683606E-08
   29.88000     -4.0761321E-08
   29.94000     -4.1827182E-08
   30.00000     -4.2888828E-08
   30.06000     -4.3947800E-08
   30.12000     -4.4995435E-08
   30.18000     -4.6012659E-08
   30.24000     -4.6973774E-08
   30.30000     -4.7853003E-08
   30.36000     -4.8631648E-08
   30.42000     -4.9303651E-08
   30.48000     -4.9878139E-08
   30.54000     -5.0378311E-08
   30.60000     -5.0837325E-08
   30.66000     -5.1292272E-08
   30.72000     -5.1777743E-08
   30.78000     -5.2320487E-08
   30.84000     -5.2936198E-08
   30.90000     -5.3629108E-08
   30.96000     -5.4394196E-08
   31.02000     -5.5220987E-08
   31.08000     -5.6097509E-08
   31.14000     -5.7012663E-08
   31.20000     -5.7956232E-08
   31.26000     -5.8916534E-08
   31.32000     -5.9877109E-08
   31.38000     -6.0814230E-08
   31.44000     -6.1696838E-08
   31.50000     -6.2489477E-08
   31.56000     -6.3157650E-08
   31.62000     -6.3673816E-08
   31.68000     -6.4022238E-08
   31.74000     -6.4200897E-08
   31.80000     -6.4219982E-08
   31.86000     -6.4097271E-08
   31.92000     -6.3851594E-08
   31.98000     -6.3496330E-08
   32.04000     -6.3034925E-08
   32.10000     -6.2460067E-08
   32.16000     -6.1757213E-08
   32.22000     -6.0911901E-08
   32.28000     -5.9918683E-08
   32.34000     -5.8788871E-08
   32.40000     -5.7553969E-08
   32.46000     -5.6263147E-08
   32.52000     -5.4974848E-08
   32.58000     -5.3744866E-08
   32.64000     -5.2614549E-08
   32.70000     -5.1602953E-08
   32.76000     -5.0705495E-08
   32.82000     -4.9899690E-08
   32.88000     -4.9156000E-08
   32.94000     -4.8450378E-08
   33.00000     -4.7774197E-08
   33.06000     -4.7138276E-08
   33.12000     -4.6569234E-08
   33.18000     -4.6099196E-08
   33.24000     -4.5751886E-08
   33.30000     -4.5529870E-08
   33.36000     -4.5407436E-08
   33.42000     -4.5332239E-08
   33.48000     -4.5235911E-08
   33.54000     -4.5050964E-08
   33.60000     -4.4729116E-08
   33.66000     -4.4255387E-08
   33.72000     -4.3653539E-08
   33.78000     -4.2980979E-08
   33.84000     -4.2314294E-08
   33.90000     -4.1729407E-08
   33.96000     -4.1281837E-08
   34.02000     -4.0992539E-08
   34.08000     -4.0843400E-08
   34.14000     -4.0783668E-08
   34.20000     -4.0745707E-08
   34.26000     -4.0665697E-08
   34.32000     -4.0503220E-08
   34.38000     -4.0253919E-08
   34.44000     -3.9950933E-08
   34.50000     -3.9654378E-08
   34.56000     -3.9431676E-08
   34.62000     -3.9334630E-08
   34.68000     -3.9380641E-08
   34.74000     -3.9544126E-08
   34.80000     -3.9761449E-08
   34.86000     -3.9948016E-08
   34.92000     -4.0022439E-08
   34.98000     -3.9930175E-08
   35.04000     -3.9659156E-08
   35.10000     -3.9242508E-08
   35.16000     -3.8747494E-08
   35.22000     -3.8254313E-08
   35.28000     -3.7831413E-08
   35.34000     -3.7514987E-08
   35.40000     -3.7299067E-08
   35.46000     -3.7139017E-08
   35.52000     -3.6967215E-08
   35.58000     -3.6715910E-08
   35.64000     -3.6339920E-08
   35.70000     -3.5832027E-08
   35.76000     -3.5226243E-08
   35.82000     -3.4587881E-08
   35.88000     -3.3993754E-08
   35.94000     -3.3508922E-08
   36.00000     -3.3167517E-08
   36.06000     -3.2963566E-08
   36.12000     -3.2854441E-08
   36.18000     -3.2775127E-08
   36.24000     -3.2658217E-08
   36.30000     -3.2452895E-08
   36.36000     -3.2137187E-08
   36.42000     -3.1720397E-08
   36.48000     -3.1236130E-08
   36.54000     -3.0729186E-08
   36.60000     -3.0241079E-08
   36.66000     -2.9798723E-08
   36.72000     -2.9409252E-08
   36.78000     -2.9061837E-08
   36.84000     -2.8735125E-08
   36.90000     -2.8407426E-08
   36.96000     -2.8066170E-08
   37.02000     -2.7713520E-08
   37.08000     -2.7366404E-08
   37.14000     -2.7051069E-08
   37.20000     -2.6794140E-08
   37.26000     -2.6613389E-08
   37.32000     -2.6511533E-08
   37.38000     -2.6475220E-08
   37.44000     -2.6479539E-08
   37.50000     -2.6496323E-08
   37.56000     -2.6503306E-08
   37.62000     -2.6490886E-08
   37.68000     -2.6464296E-08
   37.74000     -2.6440510E-08
   37.80000     -2.6440960E-08
   37.86000     -2.6482416E-08
   37.92000     -2.6568870E-08
   37.98000     -2.6687085E-08
   38.04000     -2.6807468E-08
   38.10000     -2.6890604E-08
   38.16000     -2.6898091E-08
   38.22000     -2.6804981E-08
   38.28000     -2.6610216E-08
   38.34000     -2.6341558E-08
   38.40000     -2.6052792E-08
   38.46000     -2.5813081E-08
   38.52000     -2.5690875E-08
   38.58000     -2.5736744E-08
   38.64000     -2.5970225E-08
   38.70000     -2.6374904E-08
   38.76000     -2.6903463E-08
   38.82000     -2.7491343E-08
   38.88000     -2.8074803E-08
   38.94000     -2.8607717E-08
   39.00000     -2.9071867E-08
   39.06000     -2.9477739E-08
   39.12000     -2.9856086E-08
   39.18000     -3.0243687E-08
   39.24000     -3.0668538E-08
   39.30000     -3.1139727E-08
   39.36000     -3.1645364E-08
   39.42000     -3.2158979E-08
   39.48000     -3.2651695E-08
   39.54000     -3.3105540E-08
   39.60000     -3.3522909E-08
   39.66000     -3.3928568E-08
   39.72000     -3.4363246E-08
   39.78000     -3.4870737E-08
   39.84000     -3.5482760E-08
   39.90000     -3.6206607E-08
   39.96000     -3.7019799E-08
   40.02000     -3.7873594E-08
   40.08000     -3.8704428E-08
   40.14000     -3.9449606E-08
   40.20000     -4.0062396E-08
   40.26000     -4.0521932E-08
   40.32000     -4.0835083E-08
   40.38000     -4.1030265E-08
   40.44000     -4.1145551E-08
   40.50000     -4.1215188E-08
   40.56000     -4.1258875E-08
   40.62000     -4.1277094E-08
   40.68000     -4.1253582E-08
   40.74000     -4.1163908E-08
   40.80000     -4.0986823E-08
   40.86000     -4.0714170E-08
   40.92000     -4.0355641E-08
   40.98000     -3.9936168E-08
   41.04000     -3.9486640E-08
   41.10000     -3.9031033E-08
   41.16000     -3.8574871E-08
   41.22000     -3.8099664E-08
   41.28000     -3.7566100E-08
   41.34000     -3.6925613E-08
   41.40000     -3.6136786E-08
   41.46000     -3.5181145E-08
   41.52000     -3.4072929E-08
   41.58000     -3.2859237E-08
   41.64000     -3.1610263E-08
   41.70000     -3.0402411E-08
   41.76000     -2.9299414E-08
   41.82000     -2.8337146E-08
   41.88000     -2.7516673E-08
   41.94000     -2.6807582E-08
   42.00000     -2.6160421E-08
   42.06000     -2.5524310E-08
   42.12000     -2.4864059E-08
   42.18000     -2.4171410E-08
   42.24000     -2.3466807E-08
   42.30000     -2.2791388E-08
   42.36000     -2.2192181E-08
   42.42000     -2.1705654E-08
   42.48000     -2.1345256E-08
   42.54000     -2.1096852E-08
   42.60000     -2.0923212E-08
   42.66000     -2.0775513E-08
   42.72000     -2.0607745E-08
   42.78000     -2.0389287E-08
   42.84000     -2.0111933E-08
   42.90000     -1.9789693E-08
   42.96000     -1.9452033E-08
   43.02000     -1.9133221E-08
   43.08000     -1.8861416E-08
   43.14000     -1.8651045E-08
   43.20000     -1.8500852E-08
   43.26000     -1.8398064E-08
   43.32000     -1.8327029E-08
   43.38000     -1.8279087E-08
   43.44000     -1.8259922E-08
   43.50000     -1.8291388E-08
   43.56000     -1.8406766E-08
   43.62000     -1.8640650E-08
   43.68000     -1.9016692E-08
   43.74000     -1.9537339E-08
   43.80000     -2.0179112E-08
   43.86000     -2.0895460E-08
   43.92000     -2.1626715E-08
   43.98000     -2.2314529E-08
   44.04000     -2.2916510E-08
   44.10000     -2.3416689E-08
   44.16000     -2.3828397E-08
   44.22000     -2.4188472E-08
   44.28000     -2.4544505E-08
   44.34000     -2.4939112E-08
   44.40000     -2.5396270E-08
   44.46000     -2.5914149E-08
   44.52000     -2.6466576E-08
   44.58000     -2.7012335E-08
   44.64000     -2.7508884E-08
   44.70000     -2.7925795E-08
   44.76000     -2.8253497E-08
   44.82000     -2.8504846E-08
   44.88000     -2.8709357E-08
   44.94000     -2.8902411E-08
   45.00000     -2.9113133E-08
   45.06000     -2.9355043E-08
   45.12000     -2.9622619E-08
   45.18000     -2.9895080E-08
   45.24000     -3.0146158E-08
   45.30000     -3.0356475E-08
   45.36000     -3.0523964E-08
   45.42000     -3.0668055E-08
   45.48000     -3.0825625E-08
   45.54000     -3.1039768E-08
   45.60000     -3.1345234E-08
   45.66000     -3.1755850E-08
   45.72000     -3.2258406E-08
   45.78000     -3.2815098E-08
   45.84000     -3.3373471E-08
   45.90000     -3.3880326E-08
   45.96000     -3.4295283E-08
   46.02000     -3.4600024E-08
   46.08000     -3.4801147E-08
   46.14000     -3.4926423E-08
   46.20000     -3.5016043E-08
   46.26000     -3.5111704E-08
   46.32000     -3.5246718E-08
   46.38000     -3.5440085E-08
   46.44000     -3.5695994E-08
   46.50000     -3.6008281E-08
   46.56000     -3.6367620E-08
   46.62000     -3.6768142E-08
   46.68000     -3.7210807E-08
   46.74000     -3.7702637E-08
   46.80000     -3.8252860E-08
   46.86000     -3.8868482E-08
   46.92000     -3.9551672E-08
   46.98000     -4.0300190E-08
   47.04000     -4.1110628E-08
   47.10000     -4.1983213E-08
   47.16000     -4.2926899E-08
   47.22000     -4.3963670E-08
   47.28000     -4.5131461E-08
   47.34000     -4.6485074E-08
   47.40000     -4.8094517E-08
   47.46000     -5.0040807E-08
   47.52000     -5.2410257E-08
   47.58000     -5.5289636E-08
   47.64000     -5.8764776E-08
   47.70000     -6.2924506E-08
   47.76000     -6.7869628E-08
   47.82000     -7.3724692E-08
   47.88000     -8.0649357E-08
   47.94000     -8.8846477E-08
   48.00000     -9.8566112E-08
   48.06000     -1.1010622E-07
   48.12000     -1.2381224E-07
   48.18000     -1.4007792E-07
   48.24000     -1.5934938E-07
   48.30000     -1.8213363E-07
   48.36000     -2.0901166E-07
   48.42000     -2.4065560E-07
   48.48000     -2.7784708E-07
   48.54000     -3.2149447E-07
   48.60000     -3.7264499E-07
   48.66000     -4.3249136E-07
   48.72000     -5.0237463E-07
   48.78000     -5.8378794E-07
   48.84000     -6.7838624E-07
   48.90000     -7.8800599E-07
   48.96000     -9.1469497E-07
   49.02000     -1.0607488E-06
   49.08000     -1.2287488E-06
   49.14000     -1.4215968E-06
   49.20000     -1.6425441E-06
   49.26000     -1.8952138E-06
   49.32000     -2.1836188E-06
   49.38000     -2.5121767E-06
   49.44000     -2.8857251E-06
   49.50000     -3.3095382E-06
   49.56000     -3.7893519E-06
   49.62000     -4.3313958E-06
   49.68000     -4.9424316E-06
   49.74000     -5.6297945E-06
   49.80000     -6.4014312E-06
   49.86000     -7.2659236E-06
   49.92000     -8.2325005E-06
   49.98000     -9.3110393E-06
   50.04000     -1.0512059E-05
   50.10000     -1.1846717E-05
   50.16000     -1.3326806E-05
   50.22000     -1.4964754E-05
   50.28000     -1.6773627E-05
   50.34000     -1.8767108E-05
   50.40000     -2.0959487E-05
   50.46000     -2.3365616E-05
   50.52000     -2.6000864E-05
   50.58000     -2.8881064E-05
   50.64000     -3.2022428E-05
   50.70000     -3.5441459E-05
   50.76000     -3.9154871E-05
   50.82000     -4.3179476E-05
   50.88000     -4.7532081E-05
   50.94000     -5.2229392E-05
   51.00000     -5.7287882E-05
   51.06000     -6.2723673E-05
   51.12000     -6.8552356E-05
   51.18000     -7.4788892E-05
   51.24000     -8.1447368E-05
   51.30000     -8.8540881E-05
   51.36000     -9.6081327E-05
   51.42000     -1.0407925E-04
   51.48000     -1.1254368E-04
   51.54000     -1.2148192E-04
   51.60000     -1.3089945E-04
   51.66000     -1.4079975E-04
   51.72000     -1.5118410E-04
   51.78000     -1.6205147E-04
   51.84000     -1.7339842E-04
   51.90000     -1.8521889E-04
   51.96000     -1.9750414E-04
   52.02000     -2.1024264E-04
   52.08000     -2.2342004E-04
   52.14000     -2.3701908E-04
   52.20000     -2.5101972E-04
   52.26000     -2.6539911E-04
   52.32000     -2.8013159E-04
   52.38000     -2.9518892E-04
   52.44000     -3.1054023E-04
   52.50000     -3.2615222E-04
   52.56000     -3.4198933E-04
   52.62000     -3.5801393E-04
   52.68000     -3.7418646E-04
   52.74000     -3.9046581E-04
   52.80000     -4.0680950E-04
   52.86000     -4.2317412E-04
   52.92000     -4.3951557E-04
   52.98000     -4.5578941E-04
   53.04000     -4.7195138E-04
   53.10000     -4.8795753E-04
   53.16000     -5.0376478E-04
   53.22000     -5.1933108E-04
   53.28000     -5.3461612E-04
   53.34000     -5.4958125E-04
   53.40000     -5.6419021E-04
   53.46000     -5.7840918E-04
   53.52000     -5.9220713E-04
   53.58000     -6.0555636E-04
   53.64000     -6.1843247E-04
   53.70000     -6.3081481E-04
   53.76000     -6.4268656E-04
   53.82000     -6.5403484E-04
   53.88000     -6.6485081E-04
   53.94000     -6.7512970E-04
   54.00000     -6.8487081E-04
   54.06000     -6.9407729E-04
   54.12000     -7.0275634E-04
   54.18000     -7.1091892E-04
   54.24000     -7.1857969E-04
   54.30000     -7.2575663E-04
   54.36000     -7.3247089E-04
   54.42000     -7.3874631E-04
   54.48000     -7.4460928E-04
   54.54000     -7.5008819E-04
   54.60000     -7.5521320E-04
   54.66000     -7.6001557E-04
   54.72000     -7.6452759E-04
   54.78000     -7.6878176E-04
   54.84000     -7.7281060E-04
   54.90000     -7.7664625E-04
   54.96000     -7.8032032E-04
   55.02000     -7.8386295E-04
   55.08000     -7.8730297E-04
   55.14000     -7.9066696E-04
   55.20000     -7.9397945E-04
   55.26000     -7.9726218E-04
   55.32000     -8.0053438E-04
   55.38000     -8.0381241E-04
   55.44000     -8.0710964E-04
   55.50000     -8.1043621E-04
   55.56000     -8.1379904E-04