  -2.400000      0.0000000E+00
  -2.340000      0.0000000E+00
  -2.280000      0.0000000E+00
  -2.220000      0.0000000E+00
  -2.160000      0.0000000E+00
  -2.100000      0.0000000E+00
  -2.040000      0.0000000E+00
  -1.980000      0.0000000E+00
  -1.920000      0.0000000E+00
  -1.860000      0.0000000E+00
  -1.800000      0.0000000E+00
  -1.740000      0.0000000E+00
  -1.680000      9.6229687E-34
  -1.620000      1.0256858E-32
  -1.560000      3.1683998E-32
  -1.500000     -1.3609519E-31
  -1.440000     -1.7533204E-30
  -1.380000     -8.4277784E-30
  -1.320000     -2.2758788E-29
  -1.260000     -2.2714922E-29
  -1.200000      9.8023834E-29
  -1.140000      5.7925357E-28
  -1.080000      1.6064139E-27
  -1.020000      2.4630019E-27
 -0.9600000     -1.1332100E-28
 -0.9000000     -1.2915128E-26
 -0.8400000     -4.2133887E-26
 -0.7800000     -7.7979973E-26
 -0.7200000     -6.8370975E-26
 -0.6600000      9.6495266E-26
 -0.6000000      5.3562142E-25
 -0.5400000      1.2033944E-24
 -0.4800000      1.6018487E-24
 -0.4200000      5.8247177E-25
 -0.3600000     -3.3181596E-24
 -0.3000000     -1.0526946E-23
 -0.2400000     -1.8116068E-23
 -0.1800000     -1.7836727E-23
 -0.1200000      2.6665329E-24
 -5.9999999E-02  5.2315384E-23
  0.0000000E+00  1.2233823E-22
  5.9999999E-02  1.7149620E-22
  0.1200000      1.2506095E-22
  0.1800000     -9.5146716E-23
  0.2400000     -5.0270796E-22
  0.3000000     -9.6147619E-22
  0.3600000     -1.1415709E-21
  0.4200000     -5.9697495E-22
  0.4800000      9.8135619E-22
  0.5400000      3.3806518E-21
  0.6000000      5.5438376E-21
  0.6600000      5.6274612E-21
  0.7200000      1.7302863E-21
  0.7800000     -6.7044184E-21
  0.8400000     -1.7342964E-20
  0.9000000     -2.4355273E-20
  0.9600000     -1.9977670E-20
   1.020000      1.2379600E-21
   1.080000      3.6654800E-20
   1.140000      7.1505182E-20
   1.200000      8.0932753E-20
   1.260000      4.1034924E-20
   1.320000     -5.2974466E-20
   1.380000     -1.7014794E-19
   1.440000     -2.4227156E-19
   1.500000     -1.8877666E-19
   1.560000      3.2879098E-20
   1.620000      3.7204676E-19
   1.680000      6.6238912E-19
   1.740000      6.6873959E-19
   1.800000      2.1155699E-19
   1.860000     -6.7417950E-19
   1.920000     -1.6384645E-18
   1.980000     -2.0776740E-18
   2.040000     -1.4041545E-18
   2.100000      5.5000960E-19
   2.160000      3.1998566E-18
   2.220000      5.2053636E-18
   2.280000      4.9663597E-18
   2.340000      1.5305304E-18
   2.400000     -4.4796574E-18
   2.460000     -1.0508613E-17
   2.520000     -1.2767584E-17
   2.580000     -8.0348495E-18
   2.640000      4.0639739E-18
   2.700000      1.9475122E-17
   2.760000      3.0101195E-17
   2.820000      2.6799031E-17
   2.880000      4.3996806E-18
   2.940000     -3.3253349E-17
   3.000000     -7.1137632E-17
   3.060000     -8.6324198E-17
   3.120000     -5.7392259E-17
   3.180000      2.2398815E-17
   3.240000      1.3379697E-16
   3.300000      2.2942017E-16
   3.360000      2.4657343E-16
   3.420000      1.3520443E-16
   3.480000     -1.0741457E-16
   3.540000     -4.1186882E-16
   3.600000     -6.4089043E-16
   3.660000     -6.3455320E-16
   3.720000     -2.8984255E-16
   3.780000      3.5549597E-16
   3.840000      1.0817836E-15
   3.900000      1.5322497E-15
   3.960000      1.3555923E-15
   4.020000      4.0497685E-16
   4.080000     -1.0988994E-15
   4.140000     -2.5498860E-15
   4.200000     -3.1507445E-15
   4.260000     -2.2879690E-15
   4.320000      6.2507551E-17
   4.380000      3.1205268E-15
   4.440000      5.4664499E-15
   4.500000      5.6184581E-15
   4.560000      2.8288012E-15
   4.620000     -2.2814705E-15
   4.680000     -7.6548180E-15
   4.740000     -1.0501745E-14
   4.800000     -8.6072888E-15
   4.860000     -1.6848824E-15
   4.920000      7.9533302E-15
   4.980000      1.5954868E-14
   5.040000      1.7723534E-14
   5.100000      1.0791358E-14
   5.160000     -3.3672666E-15
   5.220000     -1.9176067E-14
   5.280000     -2.8913331E-14
   5.340000     -2.6225151E-14
   5.400000     -9.6965460E-15
   5.460000      1.5361845E-14
   5.520000      3.8202304E-14
   5.580000      4.6964104E-14
   5.640000      3.4427549E-14
   5.700000      2.5542999E-15
   5.760000     -3.6713745E-14
   5.820000     -6.5506824E-14
   5.880000     -6.7807271E-14
   5.940000     -3.7761027E-14
   6.000000      1.5523393E-14
   6.060000      6.9724445E-14
   6.120000      9.7951635E-14
   6.180000      8.1291087E-14
   6.240000      1.9792126E-14
   6.300000     -6.3804430E-14
   6.360000     -1.3080300E-13
   6.420000     -1.4246743E-13
   6.480000     -7.9149916E-14
   6.540000      4.5967929E-14
   6.600000      1.8611611E-13
   6.660000      2.7595875E-13
   6.720000      2.5826181E-13
   6.780000      1.1192556E-13
   6.840000     -1.3123048E-13
   6.900000     -3.9038084E-13
   6.960000     -5.6175838E-13
   7.020000     -5.5852518E-13
   7.080000     -3.4881223E-13
   7.140000      2.4790015E-14
   7.200000      4.5460334E-13
   7.260000      8.0460156E-13
   7.320000      9.6068379E-13
   7.380000      8.7345783E-13
   7.440000      5.7438819E-13
   7.500000      1.5716910E-13
   7.560000     -2.6792338E-13
   7.620000     -6.2523245E-13
   7.680000     -9.0431189E-13
   7.740000     -1.1514460E-12
   7.800000     -1.4216012E-12
   7.860000     -1.7112746E-12
   7.920000     -1.9069548E-12
   7.980000     -1.7836019E-12
   8.040000     -1.0704756E-12
   8.100000      4.2695995E-13
   8.160000      2.6892941E-12
   8.220000      5.3862986E-12
   8.280000      7.8726643E-12
   8.340000      9.3009012E-12
   8.400000      8.8352190E-12
   8.460000      5.9110182E-12
   8.520000      4.6254249E-13
   8.580000     -6.9541989E-12
   8.640000     -1.5185958E-11
   8.700000     -2.2652517E-11
   8.760000     -2.7619424E-11
   8.820000     -2.8506905E-11
   8.880000     -2.4171030E-11
   8.940000     -1.4117121E-11
   9.000000      1.3635407E-12
   9.060000      2.1120597E-11
   9.120000      4.3120733E-11
   9.180000      6.4478402E-11
   9.240000      8.1576156E-11
   9.300000      9.0329744E-11
   9.360000      8.6647425E-11
   9.420000      6.7093019E-11
   9.480000      2.9696207E-11
   9.540000     -2.5218098E-11
   9.600000     -9.4359374E-11
   9.660000     -1.7114329E-10
   9.720000     -2.4583979E-10
   9.780000     -3.0623859E-10
   9.840000     -3.3876288E-10
   9.900000     -3.2986675E-10
   9.960000     -2.6750449E-10
   10.02000     -1.4246909E-10
   10.08000      5.0543583E-11
   10.14000      3.1220787E-10
   10.20000      6.3817501E-10
   10.26000      1.0189833E-09
   10.32000      1.4402622E-09
   10.38000      1.8832644E-09
   10.44000      2.3258016E-09
   10.50000      2.7436393E-09
   10.56000      3.1123366E-09
   10.62000      3.4093712E-09
   10.68000      3.6162597E-09
   10.74000      3.7202783E-09
   10.80000      3.7154202E-09
   10.86000      3.6023544E-09
   10.92000      3.3873913E-09
   10.98000      3.0807270E-09
   11.04000      2.6944200E-09
   11.10000      2.2406168E-09
   11.16000      1.7304267E-09
   11.22000      1.1736068E-09
   11.28000      5.7894139E-10
   11.34000     -4.5017795E-11
   11.40000     -6.8925210E-10
   11.46000     -1.3439272E-09
   11.52000     -1.9984985E-09
   11.58000     -2.6421403E-09
   11.64000     -3.2642360E-09
   11.70000     -3.8546690E-09
   11.76000     -4.4038093E-09
   11.82000     -4.9023172E-09
   11.88000     -5.3410729E-09
   11.94000     -5.7115570E-09
   12.00000     -6.0068817E-09
   12.06000     -6.2233489E-09
   12.12000     -6.3621011E-09
   12.18000     -6.4302186E-09
   12.24000     -6.4406507E-09
   12.30000     -6.4106414E-09
   12.36000     -6.3587988E-09
   12.42000     -6.3014367E-09
   12.48000     -6.2491634E-09
   12.54000     -6.2047283E-09
   12.60000     -6.1628320E-09
   12.66000     -6.1120593E-09
   12.72000     -6.0384542E-09
   12.78000     -5.9297731E-09
   12.84000     -5.7792171E-09
   12.90000     -5.5876441E-09
   12.96000     -5.3636953E-09
   13.02000     -5.1219162E-09
   13.08000     -4.8795159E-09
   13.14000     -4.6527489E-09
   13.20000     -4.4539474E-09
   13.26000     -4.2899155E-09
   13.32000     -4.1619277E-09
   13.38000     -4.0670627E-09
   13.44000     -4.0002210E-09
   13.50000     -3.9560848E-09
   13.56000     -3.9303991E-09
   13.62000     -3.9202877E-09
   13.68000     -3.9236698E-09
   13.74000     -3.9381161E-09
   13.80000     -3.9595651E-09
   13.86000     -3.9813006E-09
   13.92000     -3.9934309E-09
   13.98000     -3.9830033E-09
   14.04000     -3.9348240E-09
   14.10000     -3.8329935E-09
   14.16000     -3.6631349E-09
   14.22000     -3.4150847E-09
   14.28000     -3.0855747E-09
   14.34000     -2.6801654E-09
   14.40000     -2.2135871E-09
   14.46000     -1.7078601E-09
   14.52000     -1.1881102E-09
   14.58000     -6.7675376E-10
   14.64000     -1.8745394E-10
   14.70000      2.7939648E-10
   14.76000      7.3809919E-10
   14.82000      1.2151916E-09
   14.88000      1.7434520E-09
   14.94000      2.3538522E-09
   15.00000      3.0676712E-09
   15.06000      3.8910302E-09
   15.12000      4.8134319E-09
   15.18000      5.8106759E-09
   15.24000      6.8511721E-09
   15.30000      7.9036244E-09
   15.36000      8.9436734E-09
   15.42000      9.9574997E-09
   15.48000      1.0941463E-08
   15.54000      1.1898240E-08
   15.60000      1.2831137E-08
   15.66000      1.3738854E-08
   15.72000      1.4612742E-08
   15.78000      1.5437628E-08
   15.84000      1.6195948E-08
   15.90000      1.6873610E-08
   15.96000      1.7465482E-08
   16.02000      1.7978387E-08
   16.08000      1.8430555E-08
   16.14000      1.8847642E-08
   16.20000      1.9256628E-08
   16.26000      1.9679584E-08
   16.32000      2.0129189E-08
   16.38000      2.0607210E-08
   16.44000      2.1106041E-08
   16.50000      2.1612419E-08
   16.56000      2.2111786E-08
   16.62000      2.2591699E-08
   16.68000      2.3043238E-08
   16.74000      2.3460307E-08
   16.80000      2.3837599E-08
   16.86000      2.4168651E-08
   16.92000      2.4445448E-08
   16.98000      2.4660308E-08
   17.04000      2.4809792E-08
   17.10000      2.4899183E-08
   17.16000      2.4945523E-08
   17.22000      2.4977298E-08
   17.28000      2.5029919E-08
   17.34000      2.5137588E-08
   17.40000      2.5323619E-08
   17.46000      2.5592001E-08
   17.52000      2.5922843E-08
   17.58000      2.6273312E-08
   17.64000      2.6584072E-08
   17.70000      2.6789793E-08
   17.76000      2.6831378E-08
   17.82000      2.6667252E-08
   17.88000      2.6281485E-08
   17.94000      2.5687294E-08
   18.00000      2.4925288E-08
   18.06000      2.4056721E-08
   18.12000      2.3152770E-08
   18.18000      2.2281595E-08
   18.24000      2.1495470E-08
   18.30000      2.0820643E-08
   18.36000      2.0252298E-08
   18.42000      1.9756140E-08
   18.48000      1.9276682E-08
   18.54000      1.8750587E-08
   18.60000      1.8121929E-08
   18.66000      1.7355525E-08
   18.72000      1.6444829E-08
   18.78000      1.5412335E-08
   18.84000      1.4302544E-08
   18.90000      1.3169727E-08
   18.96000      1.2064113E-08
   19.02000      1.1020580E-08
   19.08000      1.0052871E-08
   19.14000      9.1546539E-09
   19.20000      8.3064631E-09
   19.26000      7.4858875E-09
   19.32000      6.6774071E-09
   19.38000      5.8785630E-09
   19.44000      5.1003668E-09
   19.50000      4.3617461E-09
   19.56000      3.6798131E-09
   19.62000      3.0593046E-09
   19.68000      2.4851092E-09
   19.74000      1.9211481E-09
   19.80000      1.3169670E-09
   19.86000      6.2076344E-10
   19.92000     -2.0501245E-10
   19.98000     -1.1708488E-09
   20.04000     -2.2552189E-09
   20.10000     -3.4102747E-09
   20.16000     -4.5773909E-09
   20.22000     -5.7080967E-09
   20.28000     -6.7836270E-09
   20.34000     -7.8262934E-09
   20.40000     -8.8982706E-09
   20.46000     -1.0087309E-08
   20.52000     -1.1482986E-08
   20.58000     -1.3150014E-08
   20.64000     -1.5105886E-08
   20.70000     -1.7308912E-08
   20.76000     -1.9659765E-08
   20.82000     -2.2016312E-08
   20.88000     -2.4218242E-08
   20.94000     -2.6115902E-08
   21.00000     -2.7596844E-08
   21.06000     -2.8604218E-08
   21.12000     -2.9143148E-08
   21.18000     -2.9274142E-08
   21.24000     -2.9095919E-08
   21.30000     -2.8722681E-08
   21.36000     -2.8262134E-08
   21.42000     -2.7799890E-08
   21.48000     -2.7393506E-08
   21.54000     -2.7076032E-08
   21.60000     -2.6865861E-08
   21.66000     -2.6777780E-08
   21.72000     -2.6830358E-08
   21.78000     -2.7046621E-08
   21.84000     -2.7447982E-08
   21.90000     -2.8044159E-08
   21.96000     -2.8823498E-08
   22.02000     -2.9748064E-08
   22.08000     -3.0756226E-08
   22.14000     -3.1772750E-08
   22.20000     -3.2723754E-08
   22.26000     -3.3551977E-08
   22.32000     -3.4227650E-08
   22.38000     -3.4751483E-08
   22.44000     -3.5148823E-08
   22.50000     -3.5456868E-08
   22.56000     -3.5708950E-08
   22.62000     -3.5920898E-08
   22.68000     -3.6083723E-08
   22.74000     -3.6164927E-08
   22.80000     -3.6118102E-08
   22.86000     -3.5897902E-08
   22.92000     -3.5475928E-08
   22.98000     -3.4852640E-08
   23.04000     -3.4061760E-08
   23.10000     -3.3165652E-08
   23.16000     -3.2243147E-08
   23.22000     -3.1373386E-08
   23.28000     -3.0620456E-08
   23.34000     -3.0023148E-08
   23.40000     -2.9592387E-08
   23.46000     -2.9316176E-08
   23.52000     -2.9169646E-08
   23.58000     -2.9126378E-08
   23.64000     -2.9167216E-08
   23.70000     -2.9284116E-08
   23.76000     -2.9478384E-08
   23.82000     -2.9754549E-08
   23.88000     -3.0112194E-08
   23.94000     -3.0538466E-08
   24.00000     -3.1003584E-08
   24.06000     -3.1460782E-08
   24.12000     -3.1851023E-08
   24.18000     -3.2111434E-08
   24.24000     -3.2185664E-08
   24.30000     -3.2033505E-08
   24.36000     -3.1637441E-08
   24.42000     -3.1004610E-08
   24.48000     -3.0163868E-08
   24.54000     -2.9159171E-08
   24.60000     -2.8041153E-08
   24.66000     -2.6859025E-08
   24.72000     -2.5654384E-08
   24.78000     -2.4457744E-08
   24.84000     -2.3287912E-08
   24.90000     -2.2153861E-08
   24.96000     -2.1058412E-08
   25.02000     -2.0002803E-08
   25.08000     -1.8990855E-08
   25.14000     -1.8031432E-08
   25.20000     -1.7138198E-08
   25.26000     -1.6326664E-08
   25.32000     -1.5609576E-08
   25.38000     -1.4992580E-08
   25.44000     -1.4472191E-08
   25.50000     -1.4037142E-08
   25.56000     -1.3672796E-08
   25.62000     -1.3367000E-08
   25.68000     -1.3115171E-08
   25.74000     -1.2922864E-08
   25.80000     -1.2805073E-08
   25.86000     -1.2782677E-08
   25.92000     -1.2877226E-08
   25.98000     -1.3105355E-08
   26.04000     -1.3473998E-08
   26.10000     -1.3977219E-08
   26.16000     -1.4595335E-08
   26.22000     -1.5296813E-08
   26.28000     -1.6043066E-08
   26.34000     -1.6795589E-08
   26.40000     -1.7524091E-08
   26.46000     -1.8213532E-08
   26.52000     -1.8868036E-08
   26.58000     -1.9510145E-08
   26.64000     -2.0175314E-08
   26.70000     -2.0902933E-08
   26.76000     -2.1726366E-08
   26.82000     -2.2664848E-08
   26.88000     -2.3719549E-08
   26.94000     -2.4874820E-08
   27.00000     -2.6103912E-08
   27.06000     -2.7377011E-08
   27.12000     -2.8668707E-08
   27.18000     -2.9962333E-08
   27.24000     -3.1249879E-08
   27.30000     -3.2527961E-08
   27.36000     -3.3791782E-08
   27.42000     -3.5029949E-08
   27.48000     -3.6222360E-08
   27.54000     -3.7342335E-08
   27.60000     -3.8362401E-08
   27.66000     -3.9261749E-08
   27.72000     -4.0032791E-08
   27.78000     -4.0684462E-08
   27.84000     -4.1240803E-08
   27.90000     -4.1734815E-08
   27.96000     -4.2199019E-08
   28.02000     -4.2655209E-08
   28.08000     -4.3106599E-08
   28.14000     -4.3534996E-08
   28.20000     -4.3904517E-08
   28.26000     -4.4171383E-08
   28.32000     -4.4297273E-08
   28.38000     -4.4262368E-08
   28.44000     -4.4074017E-08
   28.50000     -4.3768210E-08
   28.56000     -4.3403126E-08
   28.62000     -4.3046501E-08
   28.68000     -4.2760231E-08
   28.74000     -4.2586450E-08
   28.80000     -4.2538691E-08
   28.86000     -4.2600202E-08
   28.92000     -4.2729628E-08
   28.98000     -4.2872198E-08
   29.04000     -4.2973163E-08
   29.10000     -4.2989747E-08
   29.16000     -4.2898222E-08
   29.22000     -4.2694481E-08
   29.28000     -4.2388407E-08
   29.34000     -4.1994515E-08
   29.40000     -4.1522554E-08
   29.46000     -4.0971749E-08
   29.52000     -4.0331020E-08
   29.58000     -3.9585395E-08
   29.64000     -3.8726448E-08
   29.70000     -3.7763190E-08
   29.76000     -3.6729336E-08
   29.82000     -3.5683932E-08
   29.88000     -3.4704321E-08
   29.94000     -3.3872766E-08
   30.00000     -3.3260378E-08
   30.06000     -3.2913054E-08
   30.12000     -3.2843783E-08
   30.18000     -3.3033835E-08
   30.24000     -3.3442308E-08
   30.30000     -3.4020637E-08
   30.36000     -3.4726828E-08
   30.42000     -3.5534377E-08
   30.48000     -3.6432965E-08
   30.54000     -3.7421266E-08
   30.60000     -3.8495223E-08
   30.66000     -3.9636774E-08
   30.72000     -4.0807780E-08
   30.78000     -4.1951530E-08
   30.84000     -4.3001574E-08
   30.90000     -4.3894925E-08
   30.96000     -4.4585363E-08
   31.02000     -4.5052694E-08
   31.08000     -4.5305338E-08
   31.14000     -4.5375753E-08
   31.20000     -4.5310507E-08
   31.26000     -4.5158366E-08
   31.32000     -4.4960217E-08
   31.38000     -4.4743807E-08
   31.44000     -4.4524416E-08
   31.50000     -4.4310411E-08
   31.56000     -4.4110784E-08
   31.62000     -4.3941306E-08
   31.68000     -4.3826418E-08
   31.74000     -4.3795851E-08
   31.80000     -4.3876884E-08
   31.86000     -4.4084747E-08
   31.92000     -4.4414193E-08
   31.98000     -4.4835154E-08
   32.04000     -4.5293877E-08
   32.10000     -4.5719968E-08
   32.16000     -4.6037936E-08
   32.22000     -4.6180897E-08
   32.28000     -4.6103334E-08
   32.34000     -4.5789818E-08
   32.40000     -4.5257316E-08
   32.46000     -4.4550216E-08
   32.52000     -4.3729024E-08
   32.58000     -4.2855653E-08
   32.64000     -4.1979231E-08
   32.70000     -4.1126555E-08
   32.76000     -4.0300034E-08
   32.82000     -3.9483744E-08
   32.88000     -3.8655529E-08
   32.94000     -3.7800955E-08
   33.00000     -3.6923939E-08
   33.06000     -3.6049912E-08
   33.12000     -3.5219834E-08
   33.18000     -3.4477001E-08
   33.24000     -3.3851503E-08
   33.30000     -3.3348570E-08
   33.36000     -3.2945763E-08
   33.42000     -3.2600717E-08
   33.48000     -3.2266950E-08
   33.54000     -3.1911963E-08
   33.60000     -3.1530927E-08
   33.66000     -3.1150876E-08
   33.72000     -3.0823916E-08
   33.78000     -3.0611986E-08
   33.84000     -3.0568419E-08
   33.90000     -3.0722333E-08
   33.96000     -3.1070542E-08
   34.02000     -3.1578946E-08
   34.08000     -3.2192254E-08
   34.14000     -3.2848689E-08
   34.20000     -3.3494899E-08
   34.26000     -3.4096800E-08
   34.32000     -3.4643477E-08
   34.38000     -3.5143707E-08
   34.44000     -3.5616910E-08
   34.50000     -3.6082305E-08
   34.56000     -3.6550080E-08
   34.62000     -3.7017511E-08
   34.68000     -3.7470716E-08
   34.74000     -3.7890530E-08
   34.80000     -3.8259547E-08
   34.86000     -3.8567386E-08
   34.92000     -3.8812338E-08
   34.98000     -3.8999424E-08
   35.04000     -3.9136342E-08
   35.10000     -3.9229555E-08
   35.16000     -3.9282295E-08
   35.22000     -3.9295333E-08
   35.28000     -3.9269992E-08
   35.34000     -3.9211901E-08
   35.40000     -3.9133532E-08
   35.46000     -3.9053958E-08
   35.52000     -3.8995278E-08
   35.58000     -3.8976506E-08
   35.64000     -3.9007020E-08
   35.70000     -3.9082298E-08
   35.76000     -3.9183998E-08
   35.82000     -3.9285077E-08
   35.88000     -3.9358536E-08
   35.94000     -3.9386812E-08
   36.00000     -3.9368508E-08
   36.06000     -3.9320128E-08
   36.12000     -3.9272496E-08
   36.18000     -3.9263444E-08
   36.24000     -3.9329539E-08
   36.30000     -3.9499444E-08
   36.36000     -3.9790311E-08
   36.42000     -4.0207361E-08
   36.48000     -4.0745668E-08
   36.54000     -4.1393108E-08
   36.60000     -4.2133447E-08
   36.66000     -4.2949203E-08
   36.72000     -4.3823874E-08
   36.78000     -4.4743416E-08
   36.84000     -4.5696620E-08
   36.90000     -4.6674465E-08
   36.96000     -4.7668880E-08
   37.02000     -4.8671659E-08
   37.08000     -4.9674203E-08
   37.14000     -5.0668397E-08
   37.20000     -5.1648172E-08
   37.26000     -5.2610819E-08
   37.32000     -5.3557287E-08
   37.38000     -5.4491171E-08
   37.44000     -5.5416770E-08
   37.50000     -5.6337203E-08
   37.56000     -5.7253224E-08
   37.62000     -5.8162904E-08
   37.68000     -5.9061573E-08
   37.74000     -5.9941158E-08
   37.80000     -6.0788388E-08
   37.86000     -6.1582334E-08
   37.92000     -6.2292486E-08
   37.98000     -6.2879124E-08
   38.04000     -6.3296994E-08
   38.10000     -6.3502171E-08
   38.16000     -6.3460313E-08
   38.22000     -6.3153678E-08
   38.28000     -6.2584256E-08
   38.34000     -6.1771352E-08
   38.40000     -6.0744277E-08
   38.46000     -5.9532372E-08
   38.52000     -5.8156107E-08
   38.58000     -5.6622536E-08
   38.64000     -5.4927074E-08
   38.70000     -5.3061125E-08
   38.76000     -5.1022788E-08
   38.82000     -4.8826497E-08
   38.88000     -4.6507601E-08
   38.94000     -4.4119421E-08
   39.00000     -4.1723116E-08
   39.06000     -3.9373251E-08
   39.12000     -3.7103757E-08
   39.18000     -3.4919132E-08
   39.24000     -3.2794350E-08
   39.30000     -3.0683953E-08
   39.36000     -2.8538171E-08
   39.42000     -2.6321187E-08
   39.48000     -2.4026109E-08
   39.54000     -2.1681824E-08
   39.60000     -1.9349553E-08
   39.66000     -1.7109880E-08
   39.72000     -1.5044156E-08
   39.78000     -1.3215800E-08
   39.84000     -1.1657098E-08
   39.90000     -1.0365203E-08
   39.96000     -9.3080841E-09
   40.02000     -8.4378806E-09
   40.08000     -7.7068387E-09
   40.14000     -7.0804820E-09
   40.20000     -6.5439973E-09
   40.26000     -6.1005654E-09
   40.32000     -5.7633840E-09
   40.38000     -5.5452762E-09
   40.44000     -5.4503353E-09
   40.50000     -5.4708131E-09
   40.56000     -5.5901301E-09
   40.62000     -5.7903202E-09
   40.68000     -6.0605192E-09
   40.74000     -6.4027521E-09
   40.80000     -6.8323365E-09
   40.86000     -7.3722575E-09
   40.92000     -8.0431137E-09
   40.98000     -8.8519565E-09
   41.04000     -9.7840624E-09
   41.10000     -1.0801033E-08
   41.16000     -1.1846863E-08
   41.22000     -1.2861053E-08
   41.28000     -1.3795302E-08
   41.34000     -1.4628618E-08
   41.40000     -1.5375500E-08
   41.46000     -1.6083590E-08
   41.52000     -1.6820481E-08
   41.58000     -1.7653049E-08
   41.64000     -1.8625668E-08
   41.70000     -1.9744512E-08
   41.76000     -2.0973426E-08
   41.82000     -2.2243077E-08
   41.88000     -2.3470591E-08
   41.94000     -2.4583242E-08
   42.00000     -2.5538471E-08
   42.06000     -2.6333987E-08
   42.12000     -2.7005241E-08
   42.18000     -2.7611780E-08
   42.24000     -2.8217563E-08
   42.30000     -2.8871710E-08
   42.36000     -2.9595501E-08
   42.42000     -3.0378999E-08
   42.48000     -3.1187408E-08
   42.54000     -3.1974455E-08
   42.60000     -3.2698086E-08
   42.66000     -3.3333492E-08
   42.72000     -3.3879545E-08
   42.78000     -3.4356866E-08
   42.84000     -3.4798664E-08
   42.90000     -3.5237765E-08
   42.96000     -3.5694814E-08
   43.02000     -3.6172054E-08
   43.08000     -3.6655063E-08
   43.14000     -3.7121787E-08
   43.20000     -3.7555104E-08
   43.26000     -3.7953669E-08
   43.32000     -3.8336385E-08
   43.38000     -3.8738296E-08
   43.44000     -3.9199122E-08
   43.50000     -3.9748667E-08
   43.56000     -4.0394507E-08
   43.62000     -4.1116593E-08
   43.68000     -4.1870685E-08
   43.74000     -4.2599485E-08
   43.80000     -4.3247496E-08
   43.86000     -4.3774733E-08
   43.92000     -4.4164942E-08
   43.98000     -4.4426230E-08
   44.04000     -4.4584681E-08
   44.10000     -4.4673719E-08
   44.16000     -4.4723233E-08
   44.22000     -4.4751925E-08
   44.28000     -4.4764750E-08
   44.34000     -4.4755428E-08
   44.40000     -4.4712134E-08
   44.46000     -4.4623864E-08
   44.52000     -4.4485208E-08
   44.58000     -4.4298236E-08
   44.64000     -4.4071314E-08
   44.70000     -4.3815628E-08
   44.76000     -4.3540691E-08
   44.82000     -4.3250264E-08
   44.88000     -4.2940130E-08
   44.94000     -4.2598689E-08
   45.00000     -4.2210580E-08
   45.06000     -4.1762394E-08
   45.12000     -4.1248434E-08
   45.18000     -4.0674106E-08
   45.24000     -4.0055138E-08
   45.30000     -3.9412392E-08
   45.36000     -3.8764270E-08
   45.42000     -3.8119893E-08
   45.48000     -3.7476319E-08
   45.54000     -3.6821383E-08
   45.60000     -3.6141255E-08
   45.66000     -3.5429569E-08
   45.72000     -3.4694203E-08
   45.78000     -3.3958496E-08
   45.84000     -3.3255969E-08
   45.90000     -3.2620211E-08
   45.96000     -3.2073505E-08
   46.02000     -3.1618420E-08
   46.08000     -3.1235746E-08
   46.14000     -3.0889932E-08
   46.20000     -3.0540779E-08
   46.26000     -3.0157807E-08
   46.32000     -2.9732679E-08
   46.38000     -2.9285459E-08
   46.44000     -2.8862383E-08
   46.50000     -2.8525466E-08
   46.56000     -2.8337013E-08
   46.62000     -2.8343637E-08
   46.68000     -2.8564683E-08
   46.74000     -2.8988666E-08
   46.80000     -2.9579068E-08
   46.86000     -3.0288316E-08
   46.92000     -3.1076471E-08
   46.98000     -3.1929588E-08
   47.04000     -3.2872578E-08
   47.10000     -3.3972491E-08
   47.16000     -3.5330913E-08
   47.22000     -3.7067537E-08
   47.28000     -3.9300243E-08
   47.34000     -4.2128544E-08
   47.40000     -4.5626418E-08
   47.46000     -4.9847593E-08
   47.52000     -5.4842076E-08
   47.58000     -6.0679206E-08
   47.64000     -6.7470793E-08
   47.70000     -7.5388606E-08
   47.76000     -8.4672614E-08
   47.82000     -9.5629758E-08
   47.88000     -1.0862524E-07
   47.94000     -1.2407040E-07
   48.00000     -1.4241209E-07
   48.06000     -1.6412869E-07
   48.12000     -1.8973590E-07
   48.18000     -2.1980453E-07
   48.24000     -2.5498778E-07
   48.30000     -2.9605309E-07
   48.36000     -3.4391184E-07
   48.42000     -3.9964056E-07
   48.48000     -4.6449065E-07
   48.54000     -5.3988896E-07
   48.60000     -6.2743419E-07
   48.66000     -7.2889753E-07
   48.72000     -8.4623304E-07
   48.78000     -9.8160069E-07
   48.84000     -1.1374013E-06
   48.90000     -1.3163169E-06
   48.96000     -1.5213536E-06
   49.02000     -1.7558779E-06
   49.08000     -2.0236459E-06
   49.14000     -2.3288244E-06
   49.20000     -2.6760040E-06
   49.26000     -3.0702111E-06
   49.32000     -3.5169242E-06
   49.38000     -4.0220975E-06
   49.44000     -4.5921938E-06
   49.50000     -5.2342248E-06
   49.56000     -5.9557892E-06
   49.62000     -6.7651117E-06
   49.68000     -7.6710621E-06
   49.74000     -8.6831660E-06
   49.80000     -9.8116061E-06
   49.86000     -1.1067208E-05
   49.92000     -1.2461440E-05
   49.98000     -1.4006383E-05
   50.04000     -1.5714739E-05
   50.10000     -1.7599807E-05
   50.16000     -1.9675490E-05
   50.22000     -2.1956266E-05
   50.28000     -2.4457164E-05
   50.34000     -2.7193713E-05
   50.40000     -3.0181882E-05
   50.46000     -3.3437984E-05
   50.52000     -3.6978578E-05
   50.58000     -4.0820360E-05
   50.64000     -4.4980046E-05
   50.70000     -4.9474256E-05
   50.76000     -5.4319407E-05
   50.82000     -5.9531572E-05
   50.88000     -6.5126354E-05
   50.94000     -7.1118760E-05
   51.00000     -7.7523029E-05
   51.06000     -8.4352447E-05
   51.12000     -9.1619200E-05
   51.18000     -9.9334182E-05
   51.24000     -1.0750677E-04
   51.30000     -1.1614469E-04
   51.36000     -1.2525376E-04
   51.42000     -1.3483781E-04
   51.48000     -1.4489847E-04
   51.54000     -1.5543502E-04
   51.60000     -1.6644433E-04
   51.66000     -1.7792068E-04
   51.72000     -1.8985572E-04
   51.78000     -2.0223824E-04
   51.84000     -2.1505421E-04
   51.90000     -2.2828669E-04
   51.96000     -2.4191575E-04
   52.02000     -2.5591857E-04
   52.08000     -2.7026929E-04
   52.14000     -2.8493933E-04
   52.20000     -2.9989734E-04
   52.26000     -3.1510938E-04
   52.32000     -3.3053916E-04
   52.38000     -3.4614812E-04
   52.44000     -3.6189580E-04
   52.50000     -3.7773987E-04
   52.56000     -3.9363670E-04
   52.62000     -4.0954136E-04
   52.68000     -4.2540819E-04
   52.74000     -4.4119090E-04
   52.80000     -4.5684315E-04
   52.86000     -4.7231867E-04
   52.92000     -4.8757196E-04
   52.98000     -5.0255848E-04
   53.04000     -5.1723531E-04
   53.10000     -5.3156121E-04
   53.16000     -5.4549717E-04
   53.22000     -5.5900682E-04
   53.28000     -5.7205645E-04
   53.34000     -5.8461574E-04
   53.40000     -5.9665763E-04
   53.46000     -6.0815905E-04
   53.52000     -6.1910087E-04
   53.58000     -6.2946806E-04
   53.64000     -6.3924975E-04
   53.70000     -6.4843940E-04
   53.76000     -6.5703504E-04
   53.82000     -6.6503912E-04
   53.88000     -6.7245844E-04
   53.94000     -6.7930407E-04
   54.00000     -6.8559102E-04
   54.06000     -6.9133809E-04
   54.12000     -6.9656770E-04
   54.18000     -7.0130557E-04
   54.24000     -7.0558040E-04
   54.30000     -7.0942391E-04
   54.36000     -7.1286981E-04
   54.42000     -7.1595405E-04
   54.48000     -7.1871385E-04
   54.54000     -7.2118762E-04
   54.60000     -7.2341412E-04
   54.66000     -7.2543253E-04
   54.72000     -7.2728127E-04
   54.78000     -7.2899810E-04
   54.84000     -7.3061959E-04
   54.90000     -7.3218066E-04
   54.96000     -7.3371449E-04
   55.02000     -7.3525176E-04
   55.08000     -7.3682057E-04
   55.14000     -7.3844648E-04
   55.20000     -7.4015197E-04
   55.26000     -7.4195612E-04
   55.32000     -7.4387505E-04
   55.38000     -7.4592099E-04
   55.44000     -7.4810279E-04
   55.50000     -7.5042580E-04
   55.56000     -7.5289194E-04