  -2.400000      0.0000000E+00
  -2.340000      0.0000000E+00
  -2.280000      0.0000000E+00
  -2.220000      0.0000000E+00
  -2.160000      0.0000000E+00
  -2.100000      0.0000000E+00
  -2.040000      0.0000000E+00
  -1.980000      0.0000000E+00
  -1.920000      0.0000000E+00
  -1.860000      0.0000000E+00
  -1.800000      0.0000000E+00
  -1.740000      0.0000000E+00
  -1.680000      3.1850019E-34
  -1.620000      3.5725852E-33
  -1.560000      1.2759176E-32
  -1.500000     -3.6402636E-32
  -1.440000     -6.2148203E-31
  -1.380000     -3.4779583E-30
  -1.320000     -1.1929868E-29
  -1.260000     -2.5491702E-29
  -1.200000     -1.7733847E-29
  -1.140000      1.0810752E-28
  -1.080000      5.4602507E-28
  -1.020000      1.4523070E-27
 -0.9600000      2.4052583E-27
 -0.9000000      1.3611407E-27
 -0.8400000     -6.2359751E-27
 -0.7800000     -2.6069776E-26
 -0.7200000     -5.7949716E-26
 -0.6600000     -8.1429785E-26
 -0.6000000     -3.9935282E-26
 -0.5400000      1.5664266E-25
 -0.4800000      5.7853402E-25
 -0.4200000      1.1482266E-24
 -0.3600000      1.4674449E-24
 -0.3000000      7.2872993E-25
 -0.2400000     -2.0588136E-24
 -0.1800000     -7.3136509E-24
 -0.1200000     -1.3640344E-23
 -5.9999999E-02 -1.6689817E-23
  0.0000000E+00 -9.3237017E-24
  5.9999999E-02  1.5536240E-23
  0.1200000      5.8867641E-23
  0.1800000      1.0799785E-22
  0.2400000      1.3208931E-22
  0.3000000      8.7027722E-23
  0.3600000     -6.5346593E-23
  0.4200000     -3.2480198E-22
  0.4800000     -6.1813222E-22
  0.5400000     -7.8365049E-22
  0.6000000     -6.0068549E-22
  0.6600000      1.1706428E-22
  0.7200000      1.3695279E-21
  0.7800000      2.8074348E-21
  0.8400000      3.6598929E-21
  0.9000000      2.8914448E-21
  0.9600000     -3.0057883E-22
   1.020000     -5.6911569E-21
   1.080000     -1.1271932E-20
   1.140000     -1.3197726E-20
   1.200000     -7.1799342E-21
   1.260000      8.4460092E-21
   1.320000      2.9019648E-20
   1.380000      4.1846902E-20
   1.440000      2.9826013E-20
   1.500000     -1.7910625E-20
   1.560000     -9.1355365E-20
   1.620000     -1.5014433E-19
   1.680000     -1.3167853E-19
   1.740000      1.5574202E-20
   1.800000      2.8125157E-19
   1.860000      5.5280971E-19
   1.920000      6.2591289E-19
   1.980000      2.9338240E-19
   2.040000     -5.0242015E-19
   2.100000     -1.5278425E-18
   2.160000     -2.2387213E-18
   2.220000     -1.9700878E-18
   2.280000     -3.1628455E-19
   2.340000      2.4640910E-18
   2.400000      5.2840823E-18
   2.460000      6.5267884E-18
   2.520000      4.8065613E-18
   2.580000     -1.2047080E-19
   2.640000     -6.8262782E-18
   2.700000     -1.2517068E-17
   2.760000     -1.4217850E-17
   2.820000     -1.0309341E-17
   2.880000     -1.5324625E-18
   2.940000      9.2479024E-18
   3.000000      1.8495909E-17
   3.060000      2.3765716E-17
   3.120000      2.4476779E-17
   3.180000      2.0987261E-17
   3.240000      1.2620341E-17
   3.300000     -3.4262433E-18
   3.360000     -3.0322205E-17
   3.420000     -6.6796376E-17
   3.480000     -1.0192394E-16
   3.540000     -1.1418469E-16
   3.600000     -7.8642496E-17
   3.660000      1.8209935E-17
   3.720000      1.6238777E-16
   3.780000      3.0552206E-16
   3.840000      3.7582910E-16
   3.900000      3.0747195E-16
   3.960000      7.7596424E-17
   4.020000     -2.6760135E-16
   4.080000     -6.1513708E-16
   4.140000     -8.2137489E-16
   4.200000     -7.7026122E-16
   4.260000     -4.2835038E-16
   4.320000      1.3012329E-16
   4.380000      7.4222527E-16
   4.440000      1.2128330E-15
   4.500000      1.3845327E-15
   4.560000      1.1913760E-15
   4.620000      6.7590016E-16
   4.680000     -3.3865099E-17
   4.740000     -7.7436064E-16
   4.800000     -1.4017448E-15
   4.860000     -1.8305949E-15
   4.920000     -2.0398127E-15
   4.980000     -2.0392790E-15
   5.040000     -1.8066677E-15
   5.100000     -1.2264637E-15
   5.160000     -8.4359016E-17
   5.220000      1.8300814E-15
   5.280000      4.5024129E-15
   5.340000      7.4301315E-15
   5.400000      9.4859804E-15
   5.460000      9.1054466E-15
   5.520000      4.8975386E-15
   5.580000     -3.4521427E-15
   5.640000     -1.4385708E-14
   5.700000     -2.4324047E-14
   5.760000     -2.8559854E-14
   5.820000     -2.3132311E-14
   5.880000     -7.0256635E-15
   5.940000      1.6382922E-14
   6.000000      3.9621968E-14
   6.060000      5.3492221E-14
   6.120000      5.0791423E-14
   6.180000      2.9814770E-14
   6.240000     -4.1291132E-15
   6.300000     -4.0195525E-14
   6.360000     -6.6074919E-14
   6.420000     -7.2894104E-14
   6.480000     -5.8639847E-14
   6.540000     -2.8468798E-14
   6.600000      8.1230993E-15
   6.660000      4.1613136E-14
   6.720000      6.5815537E-14
   6.780000      7.8529549E-14
   6.840000      7.9490017E-14
   6.900000      6.7498131E-14
   6.960000      3.9344870E-14
   7.020000     -7.8674445E-15
   7.080000     -7.1721702E-14
   7.140000     -1.3982778E-13
   7.200000     -1.8932340E-13
   7.260000     -1.9282808E-13
   7.320000     -1.2983438E-13
   7.380000      9.1635571E-16
   7.440000      1.7413759E-13
   7.500000      3.4049017E-13
   7.560000      4.3965336E-13
   7.620000      4.2009194E-13
   7.680000      2.5850754E-13
   7.740000     -2.8107838E-14
   7.800000     -3.8199430E-13
   7.860000     -7.1564326E-13
   7.920000     -9.3077022E-13
   7.980000     -9.4045334E-13
   8.040000     -6.9049047E-13
   8.100000     -1.7750363E-13
   8.160000      5.3825943E-13
   8.220000      1.3286897E-12
   8.280000      2.0071601E-12
   8.340000      2.3564568E-12
   8.400000      2.1766391E-12
   8.460000      1.3467872E-12
   8.520000     -1.1403358E-13
   8.580000     -2.0071327E-12
   8.640000     -3.9557658E-12
   8.700000     -5.4593084E-12
   8.760000     -5.9969360E-12
   8.820000     -5.1617577E-12
   8.880000     -2.7941488E-12
   8.940000      9.2143513E-13
   9.000000      5.4271418E-12
   9.060000      9.8480599E-12
   9.120000      1.3134238E-11
   9.180000      1.4268550E-11
   9.240000      1.2502903E-11
   9.300000      7.5734540E-12
   9.360000     -1.5670984E-13
   9.420000     -9.6694198E-12
   9.480000     -1.9398734E-11
   9.540000     -2.7465558E-11
   9.600000     -3.2001644E-11
   9.660000     -3.1502509E-11
   9.720000     -2.5140482E-11
   9.780000     -1.2977138E-11
   9.840000      3.9642213E-12
   9.900000      2.3777522E-11
   9.960000      4.3890110E-11
   10.02000      6.1384176E-11
   10.08000      7.3383258E-11
   10.14000      7.7462502E-11
   10.20000      7.2041886E-11
   10.26000      5.6719410E-11
   10.32000      3.2495673E-11
   10.38000      1.8354914E-12
   10.44000     -3.1486286E-11
   10.50000     -6.2790530E-11
   10.56000     -8.7150072E-11
   10.62000     -1.0024118E-10
   10.68000     -9.9274179E-11
   10.74000     -8.3837243E-11
   10.80000     -5.6467511E-11
   10.86000     -2.2786972E-11
   10.92000      8.8912940E-12
   10.98000      2.8478445E-11
   11.04000      2.5425557E-11
   11.10000     -9.7806086E-12
   11.16000     -8.4223940E-11
   11.22000     -2.0156299E-10
   11.28000     -3.6168876E-10
   11.34000     -5.6120680E-10
   11.40000     -7.9478990E-10
   11.46000     -1.0572940E-09
   11.52000     -1.3463699E-09
   11.58000     -1.6651454E-09
   11.64000     -2.0244459E-09
   11.70000     -2.4439912E-09
   11.76000     -2.9520841E-09
   11.82000     -3.5835070E-09
   11.88000     -4.3756310E-09
   11.94000     -5.3630949E-09
   12.00000     -6.5717258E-09
   12.06000     -8.0125986E-09
   12.12000     -9.6772084E-09
   12.18000     -1.1534648E-08
   12.24000     -1.3531425E-08
   12.30000     -1.5594194E-08
   12.36000     -1.7635260E-08
   12.42000     -1.9560277E-08
   12.48000     -2.1277241E-08
   12.54000     -2.2705628E-08
   12.60000     -2.3784484E-08
   12.66000     -2.4478480E-08
   12.72000     -2.4781118E-08
   12.78000     -2.4714851E-08
   12.84000     -2.4328195E-08
   12.90000     -2.3690321E-08
   12.96000     -2.2883871E-08
   13.02000     -2.1996696E-08
   13.08000     -2.1113340E-08
   13.14000     -2.0306899E-08
   13.20000     -1.9631925E-08
   13.26000     -1.9119049E-08
   13.32000     -1.8772067E-08
   13.38000     -1.8568084E-08
   13.44000     -1.8461186E-08
   13.50000     -1.8389535E-08
   13.56000     -1.8285247E-08
   13.62000     -1.8085672E-08
   13.68000     -1.7744354E-08
   13.74000     -1.7239680E-08
   13.80000     -1.6579628E-08
   13.86000     -1.5801632E-08
   13.92000     -1.4967549E-08
   13.98000     -1.4154602E-08
   14.04000     -1.3443936E-08
   14.10000     -1.2908816E-08
   14.16000     -1.2604464E-08
   14.22000     -1.2561054E-08
   14.28000     -1.2780771E-08
   14.34000     -1.3238978E-08
   14.40000     -1.3888834E-08
   14.46000     -1.4668275E-08
   14.52000     -1.5508055E-08
   14.58000     -1.6339666E-08
   14.64000     -1.7102270E-08
   14.70000     -1.7748146E-08
   14.76000     -1.8246395E-08
   14.82000     -1.8584881E-08
   14.88000     -1.8770315E-08
   14.94000     -1.8826434E-08
   15.00000     -1.8790212E-08
   15.06000     -1.8706201E-08
   15.12000     -1.8619433E-08
   15.18000     -1.8567681E-08
   15.24000     -1.8574287E-08
   15.30000     -1.8642925E-08
   15.36000     -1.8755586E-08
   15.42000     -1.8874598E-08
   15.48000     -1.8948764E-08
   15.54000     -1.8922737E-08
   15.60000     -1.8747903E-08
   15.66000     -1.8392447E-08
   15.72000     -1.7848215E-08
   15.78000     -1.7132571E-08
   15.84000     -1.6284526E-08
   15.90000     -1.5355839E-08
   15.96000     -1.4399225E-08
   16.02000     -1.3456639E-08
   16.08000     -1.2550811E-08
   16.14000     -1.1682371E-08
   16.20000     -1.0833422E-08
   16.26000     -9.9765254E-09
   16.32000     -9.0863619E-09
   16.38000     -8.1504066E-09
   16.44000     -7.1750756E-09
   16.50000     -6.1850813E-09
   16.56000     -5.2158486E-09
   16.62000     -4.3011248E-09
   16.68000     -3.4597103E-09
   16.74000     -2.6858482E-09
   16.80000     -1.9470103E-09
   16.86000     -1.1906972E-09
   16.92000     -3.5906531E-10
   16.98000      5.9248623E-10
   17.04000      1.6782837E-09
   17.10000      2.8724756E-09
   17.16000      4.1101078E-09
   17.22000      5.2999698E-09
   17.28000      6.3464385E-09
   17.34000      7.1745672E-09
   17.40000      7.7512228E-09
   17.46000      8.0957543E-09
   17.52000      8.2764151E-09
   17.58000      8.3928029E-09
   17.64000      8.5488230E-09
   17.70000      8.8237044E-09
   17.76000      9.2494528E-09
   17.82000      9.8014636E-09
   17.88000      1.0405229E-08
   17.94000      1.0957333E-08
   18.00000      1.1354670E-08
   18.06000      1.1523339E-08
   18.12000      1.1438797E-08
   18.18000      1.1131449E-08
   18.24000      1.0676210E-08
   18.30000      1.0169320E-08
   18.36000      9.6993853E-09
   18.42000      9.3212655E-09
   18.48000      9.0404049E-09
   18.54000      8.8120355E-09
   18.60000      8.5551735E-09
   18.66000      8.1769818E-09
   18.72000      7.6000806E-09
   18.78000      6.7847057E-09
   18.84000      5.7393170E-09
   18.90000      4.5168962E-09
   18.96000      3.1984850E-09
   19.02000      1.8693396E-09
   19.08000      5.9513217E-10
   19.14000     -5.9452943E-10
   19.20000     -1.7104366E-09
   19.26000     -2.7949896E-09
   19.32000     -3.9034633E-09
   19.38000     -5.0816289E-09
   19.44000     -6.3471379E-09
   19.50000     -7.6807680E-09
   19.56000     -9.0303063E-09
   19.62000     -1.0325600E-08
   19.68000     -1.1499568E-08
   19.74000     -1.2507973E-08
   19.80000     -1.3341271E-08
   19.86000     -1.4024627E-08
   19.92000     -1.4606197E-08
   19.98000     -1.5137744E-08
   20.04000     -1.5654095E-08
   20.10000     -1.6158250E-08
   20.16000     -1.6617012E-08
   20.22000     -1.6968597E-08
   20.28000     -1.7139977E-08
   20.34000     -1.7068688E-08
   20.40000     -1.6722648E-08
   20.46000     -1.6112102E-08
   20.52000     -1.5290272E-08
   20.58000     -1.4342588E-08
   20.64000     -1.3367710E-08
   20.70000     -1.2455813E-08
   20.76000     -1.1670214E-08
   20.82000     -1.1037135E-08
   20.88000     -1.0545774E-08
   20.94000     -1.0157724E-08
   21.00000     -9.8221786E-09
   21.06000     -9.4921333E-09
   21.12000     -9.1371124E-09
   21.18000     -8.7496259E-09
   21.24000     -8.3447418E-09
   21.30000     -7.9541556E-09
   21.36000     -7.6173023E-09
   21.42000     -7.3721904E-09
   21.48000     -7.2480386E-09
   21.54000     -7.2608382E-09
   21.60000     -7.4121012E-09
   21.66000     -7.6904447E-09
   21.72000     -8.0754239E-09
   21.78000     -8.5428224E-09
   21.84000     -9.0704271E-09
   21.90000     -9.6431148E-09
   21.96000     -1.0255962E-08
   22.02000     -1.0914368E-08
   22.08000     -1.1630890E-08
   22.14000     -1.2419556E-08
   22.20000     -1.3289462E-08
   22.26000     -1.4239940E-08
   22.32000     -1.5259314E-08
   22.38000     -1.6328046E-08
   22.44000     -1.7425439E-08
   22.50000     -1.8537555E-08
   22.56000     -1.9663359E-08
   22.62000     -2.0816378E-08
   22.68000     -2.2020755E-08
   22.74000     -2.3302405E-08
   22.80000     -2.4677879E-08
   22.86000     -2.6144550E-08
   22.92000     -2.7675537E-08
   22.98000     -2.9221450E-08
   23.04000     -3.0718990E-08
   23.10000     -3.2104147E-08
   23.16000     -3.3326163E-08
   23.22000     -3.4358013E-08
   23.28000     -3.5199989E-08
   23.34000     -3.5875221E-08
   23.40000     -3.6418331E-08
   23.46000     -3.6860730E-08
   23.52000     -3.7217198E-08
   23.58000     -3.7478038E-08
   23.64000     -3.7609613E-08
   23.70000     -3.7563463E-08
   23.76000     -3.7291883E-08
   23.82000     -3.6765673E-08
   23.88000     -3.5988908E-08
   23.94000     -3.5005947E-08
   24.00000     -3.3897759E-08
   24.06000     -3.2767360E-08
   24.12000     -3.1717509E-08
   24.18000     -3.0826506E-08
   24.24000     -3.0129090E-08
   24.30000     -2.9608508E-08
   24.36000     -2.9202655E-08
   24.42000     -2.8822884E-08
   24.48000     -2.8379956E-08
   24.54000     -2.7809218E-08
   24.60000     -2.7087323E-08
   24.66000     -2.6235584E-08
   24.72000     -2.5309374E-08
   24.78000     -2.4377313E-08
   24.84000     -2.3497099E-08
   24.90000     -2.2695650E-08
   24.96000     -2.1959682E-08
   25.02000     -2.1239600E-08
   25.08000     -2.0465363E-08
   25.14000     -1.9569230E-08
   25.20000     -1.8508056E-08
   25.26000     -1.7277801E-08
   25.32000     -1.5915450E-08
   25.38000     -1.4487739E-08
   25.44000     -1.3070646E-08
   25.50000     -1.1726917E-08
   25.56000     -1.0489601E-08
   25.62000     -9.3573744E-09
   25.68000     -8.3032790E-09
   25.74000     -7.2936617E-09
   25.80000     -6.3106023E-09
   25.86000     -5.3699081E-09
   25.92000     -4.5282622E-09
   25.98000     -3.8765737E-09
   26.04000     -3.5209455E-09
   26.10000     -3.5565544E-09
   26.16000     -4.0420263E-09
   26.22000     -4.9819664E-09
   26.28000     -6.3230581E-09
   26.34000     -7.9651858E-09
   26.40000     -9.7845225E-09
   26.46000     -1.1661871E-08
   26.52000     -1.3508098E-08
   26.58000     -1.5279607E-08
   26.64000     -1.6980312E-08
   26.70000     -1.8650827E-08
   26.76000     -2.0349358E-08
   26.82000     -2.2130694E-08
   26.88000     -2.4029362E-08
   26.94000     -2.6050959E-08
   27.00000     -2.8172861E-08
   27.06000     -3.0352766E-08
   27.12000     -3.2541671E-08
   27.18000     -3.4697059E-08
   27.24000     -3.6792468E-08
   27.30000     -3.8820911E-08
   27.36000     -4.0791772E-08
   27.42000     -4.2722846E-08
   27.48000     -4.4630870E-08
   27.54000     -4.6524054E-08
   27.60000     -4.8398991E-08
   27.66000     -5.0242345E-08
   27.72000     -5.2035464E-08
   27.78000     -5.3759436E-08
   27.84000     -5.5398218E-08
   27.90000     -5.6939154E-08
   27.96000     -5.8371636E-08
   28.02000     -5.9685462E-08
   28.08000     -6.0870022E-08
   28.14000     -6.1914527E-08
   28.20000     -6.2808382E-08
   28.26000     -6.3540938E-08
   28.32000     -6.4099922E-08
   28.38000     -6.4469475E-08
   28.44000     -6.4628836E-08
   28.50000     -6.4553056E-08
   28.56000     -6.4216209E-08
   28.62000     -6.3596893E-08
   28.68000     -6.2684698E-08
   28.74000     -6.1485963E-08
   28.80000     -6.0026956E-08
   28.86000     -5.8352978E-08
   28.92000     -5.6522349E-08
   28.98000     -5.4595969E-08
   29.04000     -5.2624365E-08
   29.10000     -5.0635997E-08
   29.16000     -4.8630856E-08
   29.22000     -4.6582720E-08
   29.28000     -4.4450630E-08
   29.34000     -4.2197097E-08
   29.40000     -3.9807681E-08
   29.46000     -3.7305426E-08
   29.52000     -3.4754883E-08
   29.58000     -3.2253570E-08
   29.64000     -2.9912588E-08
   29.70000     -2.7831792E-08
   29.76000     -2.6076693E-08
   29.82000     -2.4663983E-08
   29.88000     -2.3560361E-08
   29.94000     -2.2695360E-08
   30.00000     -2.1984778E-08
   30.06000     -2.1357863E-08
   30.12000     -2.0779890E-08
   30.18000     -2.0262879E-08
   30.24000     -1.9860764E-08
   30.30000     -1.9650358E-08
   30.36000     -1.9704339E-08
   30.42000     -2.0065237E-08
   30.48000     -2.0729173E-08
   30.54000     -2.1644745E-08
   30.60000     -2.2727230E-08
   30.66000     -2.3883201E-08
   30.72000     -2.5037371E-08
   30.78000     -2.6153145E-08
   30.84000     -2.7240686E-08
   30.90000     -2.8350533E-08
   30.96000     -2.9555132E-08
   31.02000     -3.0924145E-08
   31.08000     -3.2500871E-08
   31.14000     -3.4286497E-08
   31.20000     -3.6236582E-08
   31.26000     -3.8270375E-08
   31.32000     -4.0290118E-08
   31.38000     -4.2204412E-08
   31.44000     -4.3948866E-08
   31.50000     -4.5498133E-08
   31.56000     -4.6866326E-08
   31.62000     -4.8096350E-08
   31.68000     -4.9242040E-08
   31.74000     -5.0348753E-08
   31.80000     -5.1438104E-08
   31.86000     -5.2500788E-08
   31.92000     -5.3498866E-08
   31.98000     -5.4376155E-08
   32.04000     -5.5073375E-08
   32.10000     -5.5543691E-08
   32.16000     -5.5764513E-08
   32.22000     -5.5742451E-08
   32.28000     -5.5510348E-08
   32.34000     -5.5117244E-08
   32.40000     -5.4614198E-08
   32.46000     -5.4039987E-08
   32.52000     -5.3410702E-08
   32.58000     -5.2716022E-08
   32.64000     -5.1922925E-08
   32.70000     -5.0985378E-08
   32.76000     -4.9856958E-08
   32.82000     -4.8502947E-08
   32.88000     -4.6908813E-08
   32.94000     -4.5083627E-08
   33.00000     -4.3058261E-08
   33.06000     -4.0879748E-08
   33.12000     -3.8603616E-08
   33.18000     -3.6286334E-08
   33.24000     -3.3979390E-08
   33.30000     -3.1725975E-08
   33.36000     -2.9560319E-08
   33.42000     -2.7508982E-08
   33.48000     -2.5592959E-08
   33.54000     -2.3829182E-08
   33.60000     -2.2230413E-08
   33.66000     -2.0803247E-08
   33.72000     -1.9544892E-08
   33.78000     -1.8440291E-08
   33.84000     -1.7461431E-08
   33.90000     -1.6570308E-08
   33.96000     -1.5725838E-08
   34.02000     -1.4893450E-08
   34.08000     -1.4054763E-08
   34.14000     -1.3214168E-08
   34.20000     -1.2399757E-08
   34.26000     -1.1657576E-08
   34.32000     -1.1040295E-08
   34.38000     -1.0593183E-08
   34.44000     -1.0341311E-08
   34.50000     -1.0281707E-08
   34.56000     -1.0382998E-08
   34.62000     -1.0593110E-08
   34.68000     -1.0853503E-08
   34.74000     -1.1116410E-08
   34.80000     -1.1360452E-08
   34.86000     -1.1599841E-08
   34.92000     -1.1883800E-08
   34.98000     -1.2285406E-08
   35.04000     -1.2882379E-08
   35.10000     -1.3735210E-08
   35.16000     -1.4869309E-08
   35.22000     -1.6266927E-08
   35.28000     -1.7871509E-08
   35.34000     -1.9603050E-08
   35.40000     -2.1379403E-08
   35.46000     -2.3136669E-08
   35.52000     -2.4842494E-08
   35.58000     -2.6498562E-08
   35.64000     -2.8132360E-08
   35.70000     -2.9781434E-08
   35.76000     -3.1475558E-08
   35.82000     -3.3222523E-08
   35.88000     -3.5002028E-08
   35.94000     -3.6769570E-08
   36.00000     -3.8469146E-08
   36.06000     -4.0050775E-08
   36.12000     -4.1487262E-08
   36.18000     -4.2784563E-08
   36.24000     -4.3982165E-08
   36.30000     -4.5142837E-08
   36.36000     -4.6334648E-08
   36.42000     -4.7610470E-08
   36.48000     -4.8990991E-08
   36.54000     -5.0456290E-08
   36.60000     -5.1948447E-08
   36.66000     -5.3384699E-08
   36.72000     -5.4677599E-08
   36.78000     -5.5756896E-08
   36.84000     -5.6586970E-08
   36.90000     -5.7174915E-08
   36.96000     -5.7566762E-08
   37.02000     -5.7832704E-08
   37.08000     -5.8045597E-08
   37.14000     -5.8259051E-08
   37.20000     -5.8491498E-08
   37.26000     -5.8720783E-08
   37.32000     -5.8890663E-08
   37.38000     -5.8926794E-08
   37.44000     -5.8757752E-08
   37.50000     -5.8335132E-08
   37.56000     -5.7647803E-08
   37.62000     -5.6726783E-08
   37.68000     -5.5639827E-08
   37.74000     -5.4477244E-08
   37.80000     -5.3332865E-08
   37.86000     -5.2285369E-08
   37.92000     -5.1385140E-08
   37.98000     -5.0650257E-08
   38.04000     -5.0072060E-08
   38.10000     -4.9627705E-08
   38.16000     -4.9294727E-08
   38.22000     -4.9062418E-08
   38.28000     -4.8936489E-08
   38.34000     -4.8936307E-08
   38.40000     -4.9086566E-08
   38.46000     -4.9406783E-08
   38.52000     -4.9902091E-08
   38.58000     -5.0557802E-08
   38.64000     -5.1338940E-08
   38.70000     -5.2194750E-08
   38.76000     -5.3067083E-08
   38.82000     -5.3900678E-08
   38.88000     -5.4652620E-08
   38.94000     -5.5298155E-08
   39.00000     -5.5830835E-08
   39.06000     -5.6256837E-08
   39.12000     -5.6585407E-08
   39.18000     -5.6818948E-08
   39.24000     -5.6946522E-08
   39.30000     -5.6943009E-08
   39.36000     -5.6774105E-08
   39.42000     -5.6405032E-08
   39.48000     -5.5809938E-08
   39.54000     -5.4978951E-08
   39.60000     -5.3921063E-08
   39.66000     -5.2662390E-08
   39.72000     -5.1240622E-08
   39.78000     -4.9697352E-08
   39.84000     -4.8070504E-08
   39.90000     -4.6388923E-08
   39.96000     -4.4670745E-08
   40.02000     -4.2926018E-08
   40.08000     -4.1162625E-08
   40.14000     -3.9393466E-08
   40.20000     -3.7642259E-08
   40.26000     -3.5945959E-08
   40.32000     -3.4352901E-08
   40.38000     -3.2917377E-08
   40.44000     -3.1692338E-08
   40.50000     -3.0722237E-08
   40.56000     -3.0037750E-08
   40.62000     -2.9653341E-08
   40.68000     -2.9567870E-08
   40.74000     -2.9767648E-08
   40.80000     -3.0230879E-08
   40.86000     -3.0932227E-08
   40.92000     -3.1846433E-08
   40.98000     -3.2950556E-08
   41.04000     -3.4225081E-08
   41.10000     -3.5654615E-08
   41.16000     -3.7228688E-08
   41.22000     -3.8942527E-08
   41.28000     -4.0796742E-08
   41.34000     -4.2794770E-08
   41.40000     -4.4937643E-08
   41.46000     -4.7217178E-08
   41.52000     -4.9610005E-08
   41.58000     -5.2075301E-08
   41.64000     -5.4557919E-08
   41.70000     -5.6996740E-08
   41.76000     -5.9335793E-08
   41.82000     -6.1534770E-08
   41.88000     -6.3575719E-08
   41.94000     -6.5464164E-08
   42.00000     -6.7224448E-08
   42.06000     -6.8890508E-08
   42.12000     -7.0494131E-08
   42.18000     -7.2053226E-08
   42.24000     -7.3562795E-08
   42.30000     -7.4991391E-08
   42.36000     -7.6284714E-08
   42.42000     -7.7376406E-08
   42.48000     -7.8203605E-08
   42.54000     -7.8722763E-08
   42.60000     -7.8920749E-08
   42.66000     -7.8817436E-08
   42.72000     -7.8459010E-08
   42.78000     -7.7904353E-08
   42.84000     -7.7209179E-08
   42.90000     -7.6412888E-08
   42.96000     -7.5531894E-08
   43.02000     -7.4560703E-08
   43.08000     -7.3479846E-08
   43.14000     -7.2267916E-08
   43.20000     -7.0914126E-08
   43.26000     -6.9427891E-08
   43.32000     -6.7842393E-08
   43.38000     -6.6210909E-08
   43.44000     -6.4596392E-08
   43.50000     -6.3057477E-08
   43.56000     -6.1635241E-08
   43.62000     -6.0345329E-08
   43.68000     -5.9178252E-08
   43.74000     -5.8107549E-08
   43.80000     -5.7102628E-08
   43.86000     -5.6141477E-08
   43.92000     -5.5218504E-08
   43.98000     -5.4345158E-08
   44.04000     -5.3543680E-08
   44.10000     -5.2836835E-08
   44.16000     -5.2237695E-08
   44.22000     -5.1743047E-08
   44.28000     -5.1332719E-08
   44.34000     -5.0974908E-08
   44.40000     -5.0635926E-08
   44.46000     -5.0291273E-08
   44.52000     -4.9934613E-08
   44.58000     -4.9581590E-08
   44.64000     -4.9267065E-08
   44.70000     -4.9036419E-08
   44.76000     -4.8933526E-08
   44.82000     -4.8989246E-08
   44.88000     -4.9214101E-08
   44.94000     -4.9597155E-08
   45.00000     -5.0110998E-08
   45.06000     -5.0720622E-08
   45.12000     -5.1393009E-08
   45.18000     -5.2104397E-08
   45.24000     -5.2843419E-08
   45.30000     -5.3609753E-08
   45.36000     -5.4409224E-08
   45.42000     -5.5247039E-08
   45.48000     -5.6121188E-08
   45.54000     -5.7017992E-08
   45.60000     -5.7911382E-08
   45.66000     -5.8766588E-08
   45.72000     -5.9547698E-08
   45.78000     -6.0227052E-08
   45.84000     -6.0793425E-08
   45.90000     -6.1256017E-08
   45.96000     -6.1642496E-08
   46.02000     -6.1991621E-08
   46.08000     -6.2343041E-08
   46.14000     -6.2727750E-08
   46.20000     -6.3162446E-08
   46.26000     -6.3648663E-08
   46.32000     -6.4176177E-08
   46.38000     -6.4728077E-08
   46.44000     -6.5285711E-08
   46.50000     -6.5832083E-08
   46.56000     -6.6353813E-08
   46.62000     -6.6842318E-08
   46.68000     -6.7294671E-08
   46.74000     -6.7714183E-08
   46.80000     -6.8110495E-08
   46.86000     -6.8499581E-08
   46.92000     -6.8904264E-08
   46.98000     -6.9356616E-08
   47.04000     -6.9902278E-08
   47.10000     -7.0605829E-08
   47.16000     -7.1555178E-08
   47.22000     -7.2862697E-08
   47.28000     -7.4662452E-08
   47.34000     -7.7104524E-08
   47.40000     -8.0348926E-08
   47.46000     -8.4561655E-08
   47.52000     -8.9914273E-08
   47.58000     -9.6587243E-08
   47.64000     -1.0477621E-07
   47.70000     -1.1470101E-07
   47.76000     -1.2661728E-07
   47.82000     -1.4083095E-07
   47.88000     -1.5771435E-07
   47.94000     -1.7772190E-07
   48.00000     -2.0140216E-07
   48.06000     -2.2940462E-07
   48.12000     -2.6248185E-07
   48.18000     -3.0149013E-07
   48.24000     -3.4739287E-07
   48.30000     -4.0127028E-07
   48.36000     -4.6433593E-07
   48.42000     -5.3795969E-07
   48.48000     -6.2369509E-07
   48.54000     -7.2330869E-07
   48.60000     -8.3881145E-07
   48.66000     -9.7249074E-07
   48.72000     -1.1269411E-06
   48.78000     -1.3050918E-06
   48.84000     -1.5102297E-06
   48.90000     -1.7460173E-06
   48.96000     -2.0165119E-06
   49.02000     -2.3261869E-06
   49.08000     -2.6799632E-06
   49.14000     -3.0832455E-06
   49.20000     -3.5419641E-06
   49.26000     -4.0626169E-06
   49.32000     -4.6523069E-06
   49.38000     -5.3187823E-06
   49.44000     -6.0704692E-06
   49.50000     -6.9165094E-06
   49.56000     -7.8667908E-06
   49.62000     -8.9319774E-06
   49.68000     -1.0123529E-05
   49.74000     -1.1453715E-05
   49.80000     -1.2935619E-05
   49.86000     -1.4583153E-05
   49.92000     -1.6411050E-05
   49.98000     -1.8434865E-05
   50.04000     -2.0670965E-05
   50.10000     -2.3136479E-05
   50.16000     -2.5849273E-05
   50.22000     -2.8827882E-05
   50.28000     -3.2091448E-05
   50.34000     -3.5659643E-05
   50.40000     -3.9552608E-05
   50.46000     -4.3790835E-05
   50.52000     -4.8395068E-05
   50.58000     -5.3386168E-05
   50.64000     -5.8784961E-05
   50.70000     -6.4612090E-05
   50.76000     -7.0887858E-05
   50.82000     -7.7632016E-05
   50.88000     -8.4863641E-05
   50.94000     -9.2600880E-05
   51.00000     -1.0086075E-04
   51.06000     -1.0965890E-04
   51.12000     -1.1900937E-04
   51.18000     -1.2892445E-04
   51.24000     -1.3941438E-04
   51.30000     -1.5048710E-04
   51.36000     -1.6214818E-04
   51.42000     -1.7440040E-04
   51.48000     -1.8724366E-04
   51.54000     -2.0067480E-04
   51.60000     -2.1468734E-04
   51.66000     -2.2927148E-04
   51.72000     -2.4441379E-04
   51.78000     -2.6009741E-04
   51.84000     -2.7630164E-04
   51.90000     -2.9300214E-04
   51.96000     -3.1017084E-04
   52.02000     -3.2777590E-04
   52.08000     -3.4578188E-04
   52.14000     -3.6414998E-04
   52.20000     -3.8283787E-04
   52.26000     -4.0180021E-04
   52.32000     -4.2098883E-04
   52.38000     -4.4035292E-04
   52.44000     -4.5983930E-04
   52.50000     -4.7939300E-04
   52.56000     -4.9895729E-04
   52.62000     -5.1847455E-04
   52.68000     -5.3788617E-04
   52.74000     -5.5713370E-04
   52.80000     -5.7615887E-04
   52.86000     -5.9490430E-04
   52.92000     -6.1331398E-04
   52.98000     -6.3133350E-04
   53.04000     -6.4891082E-04
   53.10000     -6.6599669E-04
   53.16000     -6.8254536E-04
   53.22000     -6.9851469E-04
   53.28000     -7.1386708E-04
   53.34000     -7.2856923E-04
   53.40000     -7.4259291E-04
   53.46000     -7.5591524E-04
   53.52000     -7.6851842E-04
   53.58000     -7.8039058E-04
   53.64000     -7.9152524E-04
   53.70000     -8.0192211E-04
   53.76000     -8.1158656E-04
   53.82000     -8.2052959E-04
   53.88000     -8.2876795E-04
   53.94000     -8.3632360E-04
   54.00000     -8.4322318E-04
   54.06000     -8.4949855E-04
   54.12000     -8.5518550E-04
   54.18000     -8.6032384E-04
   54.24000     -8.6495653E-04
   54.30000     -8.6912938E-04
   54.36000     -8.7289029E-04
   54.42000     -8.7628898E-04
   54.48000     -8.7937596E-04
   54.54000     -8.8220212E-04
   54.60000     -8.8481791E-04
   54.66000     -8.8727270E-04
   54.72000     -8.8961422E-04
   54.78000     -8.9188787E-04
   54.84000     -8.9413667E-04
   54.90000     -8.9640002E-04
   54.96000     -8.9871371E-04
   55.02000     -9.0110931E-04
   55.08000     -9.0361357E-04
   55.14000     -9.0624829E-04
   55.20000     -9.0902991E-04
   55.26000     -9.1196987E-04
   55.32000     -9.1507402E-04
   55.38000     -9.1834296E-04
   55.44000     -9.2177204E-04
   55.50000     -9.2535146E-04
   55.56000     -9.2906645E-04