  -2.400000      0.0000000E+00
  -2.340000      0.0000000E+00
  -2.280000      0.0000000E+00
  -2.220000      0.0000000E+00
  -2.160000      0.0000000E+00
  -2.100000      0.0000000E+00
  -2.040000      0.0000000E+00
  -1.980000      0.0000000E+00
  -1.920000      0.0000000E+00
  -1.860000      0.0000000E+00
  -1.800000      9.8369533E-31
  -1.740000      3.0831346E-29
  -1.680000      3.3936643E-28
  -1.620000      2.1162270E-27
  -1.560000      8.6880888E-27
  -1.500000      2.4302233E-26
  -1.440000      4.1599643E-26
  -1.380000      7.3315454E-27
  -1.320000     -2.1979556E-25
  -1.260000     -8.3601152E-25
  -1.200000     -1.8236269E-24
  -1.140000     -2.3493575E-24
  -1.080000     -1.4468034E-25
  -1.020000      8.0650843E-24
 -0.9600000      2.3553525E-23
 -0.9000000      3.9614727E-23
 -0.8400000      3.6009377E-23
 -0.7800000     -1.7549659E-23
 -0.7200000     -1.3879885E-22
 -0.6600000     -2.9113181E-22
 -0.6000000     -3.4731736E-22
 -0.5400000     -1.1184109E-22
 -0.4800000      5.4340909E-22
 -0.4200000      1.4374250E-21
 -0.3600000      1.8729653E-21
 -0.3000000      7.4478067E-22
 -0.2400000     -2.7566192E-21
 -0.1800000     -7.8694894E-21
 -0.1200000     -1.1068415E-20
 -5.9999999E-02 -6.2802593E-21
  0.0000000E+00  1.2084235E-20
  5.9999999E-02  4.3076448E-20
  0.1200000      7.2566112E-20
  0.1800000      7.1480186E-20
  0.2400000      5.4563289E-21
  0.3000000     -1.4125435E-19
  0.3600000     -3.3431177E-19
  0.4200000     -4.6919421E-19
  0.4800000     -3.8857859E-19
  0.5400000      4.4752416E-20
  0.6000000      8.3010992E-19
  0.6600000      1.7192674E-18
  0.7200000      2.2014767E-18
  0.7800000      1.6622104E-18
  0.8400000     -2.7590922E-19
  0.9000000     -3.3450973E-18
  0.9600000     -6.3931338E-18
   1.020000     -7.5784617E-18
   1.080000     -5.1291203E-18
   1.140000      1.5082353E-18
   1.200000      1.0658419E-17
   1.260000      1.8271530E-17
   1.320000      1.9186219E-17
   1.380000      9.7228728E-18
   1.440000     -9.3571862E-18
   1.500000     -3.1188034E-17
   1.560000     -4.4072666E-17
   1.620000     -3.6282511E-17
   1.680000     -3.0821240E-18
   1.740000      4.7250016E-17
   1.800000      9.2443224E-17
   1.860000      1.0307455E-16
   1.920000      5.6572206E-17
   1.980000     -4.6719022E-17
   2.040000     -1.7378243E-16
   2.100000     -2.6360756E-16
   2.160000     -2.4946356E-16
   2.220000     -9.3305669E-17
   2.280000      1.8193925E-16
   2.340000      4.8059548E-16
   2.400000      6.5692254E-16
   2.460000      5.7267559E-16
   2.520000      1.7156834E-16
   2.580000     -4.6233472E-16
   2.640000     -1.0978525E-15
   2.700000     -1.4220636E-15
   2.760000     -1.1681619E-15
   2.820000     -2.6183652E-16
   2.880000      1.0800410E-15
   2.940000      2.3605580E-15
   3.000000      2.9505851E-15
   3.060000      2.3428023E-15
   3.120000      4.2381974E-16
   3.180000     -2.3551220E-15
   3.240000     -5.0135003E-15
   3.300000     -6.3228706E-15
   3.360000     -5.2768259E-15
   3.420000     -1.5961420E-15
   3.480000      3.9392199E-15
   3.540000      9.5215482E-15
   3.600000      1.2799124E-14
   3.660000      1.1734863E-14
   3.720000      5.5798147E-15
   3.780000     -4.4275623E-15
   3.840000     -1.5028894E-14
   3.900000     -2.1804954E-14
   3.960000     -2.0823924E-14
   4.020000     -1.0579817E-14
   4.080000      6.5839079E-15
   4.140000      2.4404400E-14
   4.200000      3.4463646E-14
   4.260000      2.9547721E-14
   4.320000      7.5075088E-15
   4.380000     -2.6080200E-14
   4.440000     -5.8122771E-14
   4.500000     -7.1897390E-14
   4.560000     -5.3879339E-14
   4.620000     -1.1324837E-15
   4.680000      7.4081949E-14
   4.740000      1.4542869E-13
   4.800000      1.8036786E-13
   4.860000      1.5285650E-13
   4.920000      5.6230875E-14
   4.980000     -8.9542624E-14
   5.040000     -2.4071053E-13
   5.100000     -3.4336976E-13
   5.160000     -3.5373240E-13
   5.220000     -2.5701565E-13
   5.280000     -7.6221412E-14
   5.340000      1.3459680E-13
   5.400000      3.1143911E-13
   5.460000      4.0755924E-13
   5.520000      4.1417089E-13
   5.580000      3.6328183E-13
   5.640000      3.0847127E-13
   5.700000      2.9017573E-13
   5.760000      3.0164830E-13
   5.820000      2.7512449E-13
   5.880000      1.0182291E-13
   5.940000     -3.1482916E-13
   6.000000     -9.9069375E-13
   6.060000     -1.8077010E-12
   6.120000     -2.5072115E-12
   6.180000     -2.7472902E-12
   6.240000     -2.2161069E-12
   6.300000     -7.6690168E-13
   6.360000      1.4765554E-12
   6.420000      4.0921719E-12
   6.480000      6.4335334E-12
   6.540000      7.7923744E-12
   6.600000      7.6001384E-12
   6.660000      5.6005673E-12
   6.720000      1.9337028E-12
   6.780000     -2.8943872E-12
   6.840000     -8.1362087E-12
   6.900000     -1.2964902E-11
   6.960000     -1.6606721E-11
   7.020000     -1.8400051E-11
   7.080000     -1.7784127E-11
   7.140000     -1.4269061E-11
   7.200000     -7.4624465E-12
   7.260000      2.7898673E-12
   7.320000      1.6148796E-11
   7.380000      3.1487691E-11
   7.440000      4.6691758E-11
   7.500000      5.8694050E-11
   7.560000      6.3838483E-11
   7.620000      5.8558623E-11
   7.680000      4.0245429E-11
   7.740000      8.0936542E-12
   7.800000     -3.6299585E-11
   7.860000     -8.8748585E-11
   7.920000     -1.4275110E-10
   7.980000     -1.9013323E-10
   8.040000     -2.2188808E-10
   8.100000     -2.2900812E-10
   8.160000     -2.0316762E-10
   8.220000     -1.3721792E-10
   8.280000     -2.5566081E-11
   8.340000      1.3543441E-10
   8.400000      3.4697328E-10
   8.460000      6.0714161E-10
   8.520000      9.1028068E-10
   8.580000      1.2465543E-09
   8.640000      1.6020117E-09
   8.700000      1.9593358E-09
   8.760000      2.2992994E-09
   8.820000      2.6027487E-09
   8.880000      2.8527474E-09
   8.940000      3.0364438E-09
   9.000000      3.1462783E-09
   9.060000      3.1803324E-09
   9.120000      3.1418461E-09
   9.180000      3.0381395E-09
   9.240000      2.8792733E-09
   9.300000      2.6767482E-09
   9.360000      2.4423976E-09
   9.420000      2.1874647E-09
   9.480000      1.9217254E-09
   9.540000      1.6525236E-09
   9.600000      1.3837006E-09
   9.660000      1.1145979E-09
   9.720000      8.3946561E-10
   9.780000      5.4767235E-10
   9.840000      2.2497915E-10
   9.900000     -1.4411801E-10
   9.960000     -5.7331245E-10
   10.02000     -1.0712865E-09
   10.08000     -1.6391087E-09
   10.14000     -2.2688407E-09
   10.20000     -2.9436620E-09
   10.26000     -3.6394259E-09
   10.32000     -4.3271933E-09
   10.38000     -4.9761257E-09
   10.44000     -5.5561311E-09
   10.50000     -6.0399326E-09
   10.56000     -6.4045258E-09
   10.62000     -6.6322832E-09
   10.68000     -6.7120096E-09
   10.74000     -6.6401249E-09
   10.80000     -6.4218129E-09
   10.86000     -6.0716649E-09
   10.92000     -5.6131868E-09
   10.98000     -5.0766928E-09
   11.04000     -4.4955222E-09
   11.10000     -3.9011021E-09
   11.16000     -3.3178909E-09
   11.22000     -2.7594451E-09
   11.28000     -2.2266653E-09
   11.34000     -1.7087212E-09
   11.40000     -1.1863975E-09
   11.46000     -6.3693895E-10
   11.52000     -3.9111665E-11
   11.58000      6.2272537E-10
   11.64000      1.3562984E-09
   11.70000      2.1609463E-09
   11.76000      3.0285174E-09
   11.82000      3.9448347E-09
   11.88000      4.8909929E-09
   11.94000      5.8441354E-09
   12.00000      6.7778632E-09
   12.06000      7.6628499E-09
   12.12000      8.4683025E-09
   12.18000      9.1646477E-09
   12.24000      9.7272190E-09
   12.30000      1.0140083E-08
   12.36000      1.0398759E-08
   12.42000      1.0510650E-08
   12.48000      1.0492587E-08
   12.54000      1.0365878E-08
   12.60000      1.0150200E-08
   12.66000      9.8582946E-09
   12.72000      9.4933155E-09
   12.78000      9.0499386E-09
   12.84000      8.5190237E-09
   12.90000      7.8943918E-09
   12.96000      7.1794304E-09
   13.02000      6.3912462E-09
   13.08000      5.5608895E-09
   13.14000      4.7295243E-09
   13.20000      3.9417798E-09
   13.26000      3.2384204E-09
   13.32000      2.6505333E-09
   13.38000      2.1967228E-09
   13.44000      1.8835793E-09
   13.50000      1.7084948E-09
   13.56000      1.6631635E-09
   13.62000      1.7361441E-09
   13.68000      1.9135571E-09
   13.74000      2.1780704E-09
   13.80000      2.5072446E-09
   13.86000      2.8727265E-09
   13.92000      3.2414600E-09
   13.98000      3.5792189E-09
   14.04000      3.8556873E-09
   14.10000      4.0495327E-09
   14.16000      4.1517230E-09
   14.22000      4.1658628E-09
   14.28000      4.1053259E-09
   14.34000      3.9880526E-09
   14.40000      3.8306185E-09
   14.46000      3.6433345E-09
   14.52000      3.4276397E-09
   14.58000      3.1761449E-09
   14.64000      2.8747598E-09
   14.70000      2.5057303E-09
   14.76000      2.0503386E-09
   14.82000      1.4905021E-09
   14.88000      8.0927615E-10
   14.94000     -8.9941995E-12
   15.00000     -9.7779873E-10
   15.06000     -2.1060540E-09
   15.12000     -3.3941614E-09
   15.18000     -4.8295705E-09
   15.24000     -6.3836842E-09
   15.30000     -8.0120302E-09
   15.36000     -9.6588115E-09
   15.42000     -1.1265427E-08
   15.48000     -1.2780841E-08
   15.54000     -1.4170563E-08
   15.60000     -1.5420971E-08
   15.66000     -1.6537072E-08
   15.72000     -1.7534038E-08
   15.78000     -1.8425233E-08
   15.84000     -1.9211011E-08
   15.90000     -1.9872587E-08
   15.96000     -2.0373653E-08
   16.02000     -2.0669704E-08
   16.08000     -2.0722190E-08
   16.14000     -2.0512795E-08
   16.20000     -2.0052838E-08
   16.26000     -1.9384562E-08
   16.32000     -1.8573839E-08
   16.38000     -1.7696861E-08
   16.44000     -1.6825394E-08
   16.50000     -1.6015491E-08
   16.56000     -1.5302913E-08
   16.62000     -1.4705776E-08
   16.68000     -1.4232034E-08
   16.74000     -1.3887702E-08
   16.80000     -1.3681727E-08
   16.86000     -1.3625207E-08
   16.92000     -1.3725382E-08
   16.98000     -1.3977282E-08
   17.04000     -1.4357002E-08
   17.10000     -1.4819922E-08
   17.16000     -1.5305124E-08
   17.22000     -1.5744662E-08
   17.28000     -1.6074509E-08
   17.34000     -1.6243563E-08
   17.40000     -1.6218204E-08
   17.46000     -1.5981897E-08
   17.52000     -1.5531310E-08
   17.58000     -1.4871545E-08
   17.64000     -1.4012719E-08
   17.70000     -1.2968994E-08
   17.76000     -1.1759410E-08
   17.82000     -1.0408836E-08
   17.88000     -8.9471257E-09
   17.94000     -7.4056188E-09
   18.00000     -5.8115335E-09
   18.06000     -4.1822359E-09
   18.12000     -2.5218210E-09
   18.18000     -8.2178142E-10
   18.24000      9.3399921E-10
   18.30000      2.7614886E-09
   18.36000      4.6687139E-09
   18.42000      6.6507018E-09
   18.48000      8.6887360E-09
   18.54000      1.0753672E-08
   18.60000      1.2811385E-08
   18.66000      1.4827743E-08
   18.72000      1.6771008E-08
   18.78000      1.8611185E-08
   18.84000      2.0317536E-08
   18.90000      2.1856568E-08
   18.96000      2.3192708E-08
   19.02000      2.4292582E-08
   19.08000      2.5131975E-08
   19.14000      2.5703049E-08
   19.20000      2.6018959E-08
   19.26000      2.6113641E-08
   19.32000      2.6036396E-08
   19.38000      2.5842674E-08
   19.44000      2.5583889E-08
   19.50000      2.5299396E-08
   19.56000      2.5012799E-08
   19.62000      2.4733250E-08
   19.68000      2.4460524E-08
   19.74000      2.4191463E-08
   19.80000      2.3925072E-08
   19.86000      2.3664324E-08
   19.92000      2.3414175E-08
   19.98000      2.3176920E-08
   20.04000      2.2947079E-08
   20.10000      2.2708287E-08
   20.16000      2.2433783E-08
   20.22000      2.2090779E-08
   20.28000      2.1647441E-08
   20.34000      2.1080316E-08
   20.40000      2.0379943E-08
   20.46000      1.9553186E-08
   20.52000      1.8622034E-08
   20.58000      1.7619811E-08
   20.64000      1.6586354E-08
   20.70000      1.5563641E-08
   20.76000      1.4592726E-08
   20.82000      1.3711922E-08
   20.88000      1.2955650E-08
   20.94000      1.2353107E-08
   21.00000      1.1926415E-08
   21.06000      1.1688464E-08
   21.12000      1.1641305E-08
   21.18000      1.1776092E-08
   21.24000      1.2075152E-08
   21.30000      1.2515938E-08
   21.36000      1.3075762E-08
   21.42000      1.3735598E-08
   21.48000      1.4481495E-08
   21.54000      1.5302945E-08
   21.60000      1.6188887E-08
   21.66000      1.7123089E-08
   21.72000      1.8081058E-08
   21.78000      1.9030050E-08
   21.84000      1.9932372E-08
   21.90000      2.0750665E-08
   21.96000      2.1452811E-08
   22.02000      2.2014255E-08
   22.08000      2.2416559E-08
   22.14000      2.2642906E-08
   22.20000      2.2672696E-08
   22.26000      2.2478030E-08
   22.32000      2.2024274E-08
   22.38000      2.1275216E-08
   22.44000      2.0201481E-08
   22.50000      1.8789569E-08
   22.56000      1.7048487E-08
   22.62000      1.5011906E-08
   22.68000      1.2735306E-08
   22.74000      1.0289214E-08
   22.80000      7.7508195E-09
   22.86000      5.1963411E-09
   22.92000      2.6959650E-09
   22.98000      3.1196154E-10
   23.04000     -1.9006159E-09
   23.10000     -3.8920138E-09
   23.16000     -5.6161524E-09
   23.22000     -7.0303421E-09
   23.28000     -8.0965608E-09
   23.34000     -8.7837737E-09
   23.40000     -9.0703809E-09
   23.46000     -8.9460261E-09
   23.52000     -8.4124538E-09
   23.58000     -7.4836963E-09
   23.64000     -6.1860210E-09
   23.70000     -4.5579025E-09
   23.76000     -2.6497338E-09
   23.82000     -5.2254767E-10
   23.88000      1.7550090E-09
   23.94000      4.1116128E-09
   24.00000      6.4793517E-09
   24.06000      8.7993666E-09
   24.12000      1.1025264E-08
   24.18000      1.3123183E-08
   24.24000      1.5068686E-08
   24.30000      1.6842064E-08
   24.36000      1.8424389E-08
   24.42000      1.9796390E-08
   24.48000      2.0940995E-08
   24.54000      2.1848640E-08
   24.60000      2.2522990E-08
   24.66000      2.2984196E-08
   24.72000      2.3267676E-08
   24.78000      2.3418044E-08
   24.84000      2.3479961E-08
   24.90000      2.3489083E-08
   24.96000      2.3466535E-08
   25.02000      2.3418941E-08
   25.08000      2.3343873E-08
   25.14000      2.3238202E-08
   25.20000      2.3105432E-08
   25.26000      2.2958494E-08
   25.32000      2.2816314E-08
   25.38000      2.2695247E-08
   25.44000      2.2598876E-08
   25.50000      2.2510537E-08
   25.56000      2.2392010E-08
   25.62000      2.2189427E-08
   25.68000      2.1844548E-08
   25.74000      2.1307660E-08
   25.80000      2.0547860E-08
   25.86000      1.9557739E-08
   25.92000      1.8351699E-08
   25.98000      1.6959362E-08
   26.04000      1.5416859E-08
   26.10000      1.3759048E-08
   26.16000      1.2014780E-08
   26.22000      1.0205947E-08
   26.28000      8.3496348E-09
   26.34000      6.4618106E-09
   26.40000      4.5607194E-09
   26.46000      2.6685281E-09
   26.52000      8.1060181E-10
   26.58000     -9.8729835E-10
   26.64000     -2.7028426E-09
   26.70000     -4.3206718E-09
   26.76000     -5.8345466E-09
   26.82000     -7.2476376E-09
   26.88000     -8.5711855E-09
   26.94000     -9.8222266E-09
   27.00000     -1.1021065E-08
   27.06000     -1.2188867E-08
   27.12000     -1.3345277E-08
   27.18000     -1.4505741E-08
   27.24000     -1.5678445E-08
   27.30000     -1.6861216E-08
   27.36000     -1.8039298E-08
   27.42000     -1.9184968E-08
   27.48000     -2.0259659E-08
   27.54000     -2.1218380E-08
   27.60000     -2.2015438E-08
   27.66000     -2.2609949E-08
   27.72000     -2.2969751E-08
   27.78000     -2.3073028E-08
   27.84000     -2.2907919E-08
   27.90000     -2.2471072E-08
   27.96000     -2.1766386E-08
   28.02000     -2.0804777E-08
   28.08000     -1.9604958E-08
   28.14000     -1.8194475E-08
   28.20000     -1.6609789E-08
   28.26000     -1.4894491E-08
   28.32000     -1.3095411E-08
   28.38000     -1.1257434E-08
   28.44000     -9.4183923E-09
   28.50000     -7.6055819E-09
   28.56000     -5.8348233E-09
   28.62000     -4.1120400E-09
   28.68000     -2.4363767E-09
   28.74000     -8.0341983E-10
   28.80000      7.9277496E-10
   28.86000      2.3594102E-09
   28.92000      3.9060364E-09
   28.98000      5.4458686E-09
   29.04000      6.9959620E-09
   29.10000      8.5753200E-09
   29.16000      1.0200924E-08
   29.22000      1.1882730E-08
   29.28000      1.3619450E-08
   29.34000      1.5396967E-08
   29.40000      1.7190553E-08
   29.46000      1.8970583E-08
   29.52000      2.0709995E-08
   29.58000      2.2390720E-08
   29.64000      2.4006352E-08
   29.70000      2.5559604E-08
   29.76000      2.7055142E-08
   29.82000      2.8490431E-08
   29.88000      2.9848312E-08
   29.94000      3.1094551E-08
   30.00000      3.2181799E-08
   30.06000      3.3058644E-08
   30.12000      3.3680561E-08
   30.18000      3.4018601E-08
   30.24000      3.4062918E-08
   30.30000      3.3820402E-08
   30.36000      3.3308147E-08
   30.42000      3.2546080E-08
   30.48000      3.1551938E-08
   30.54000      3.0340441E-08
   30.60000      2.8926193E-08
   30.66000      2.7328257E-08
   30.72000      2.5573632E-08
   30.78000      2.3697636E-08
   30.84000      2.1740641E-08
   30.90000      1.9742297E-08
   30.96000      1.7735273E-08
   31.02000      1.5740699E-08
   31.08000      1.3766720E-08
   31.14000      1.1810406E-08
   31.20000      9.8622861E-09
   31.26000      7.9120674E-09
   31.32000      5.9539285E-09
   31.38000      3.9900403E-09
   31.44000      2.0315327E-09
   31.50000      9.6863115E-11
   31.56000     -1.7917692E-09
   31.62000     -3.6127723E-09
   31.68000     -5.3489653E-09
   31.74000     -6.9898016E-09
   31.80000     -8.5316270E-09
   31.86000     -9.9763042E-09
   31.92000     -1.1329032E-08
   31.98000     -1.2596220E-08
   32.04000     -1.3783926E-08
   32.10000     -1.4896855E-08
   32.16000     -1.5937619E-08
   32.22000     -1.6905970E-08
   32.28000     -1.7798117E-08
   32.34000     -1.8606601E-08
   32.40000     -1.9321227E-08
   32.46000     -1.9931241E-08
   32.52000     -2.0428267E-08
   32.58000     -2.0809074E-08
   32.64000     -2.1077108E-08
   32.70000     -2.1242311E-08
   32.76000     -2.1319380E-08
   32.82000     -2.1325251E-08
   32.88000     -2.1276666E-08
   32.94000     -2.1188338E-08
   33.00000     -2.1071646E-08
   33.06000     -2.0933589E-08
   33.12000     -2.0775826E-08
   33.18000     -2.0594241E-08
   33.24000     -2.0379794E-08
   33.30000     -2.0121352E-08
   33.36000     -1.9810356E-08
   33.42000     -1.9446045E-08
   33.48000     -1.9039152E-08
   33.54000     -1.8612079E-08
   33.60000     -1.8194729E-08
   33.66000     -1.7817140E-08
   33.72000     -1.7501623E-08
   33.78000     -1.7257751E-08
   33.84000     -1.7082508E-08
   33.90000     -1.6965673E-08
   33.96000     -1.6898049E-08
   34.02000     -1.6878555E-08
   34.08000     -1.6916495E-08
   34.14000     -1.7027379E-08
   34.20000     -1.7223766E-08
   34.26000     -1.7505151E-08
   34.32000     -1.7851837E-08
   34.38000     -1.8226368E-08
   34.44000     -1.8582929E-08
   34.50000     -1.8881678E-08
   34.56000     -1.9102600E-08
   34.62000     -1.9253495E-08
   34.68000     -1.9368869E-08
   34.74000     -1.9500078E-08
   34.80000     -1.9700263E-08
   34.86000     -2.0009399E-08
   34.92000     -2.0444293E-08
   34.98000     -2.0996186E-08
   35.04000     -2.1635737E-08
   35.10000     -2.2322798E-08
   35.16000     -2.3017222E-08
   35.22000     -2.3687251E-08
   35.28000     -2.4313465E-08
   35.34000     -2.4888028E-08
   35.40000     -2.5410596E-08
   35.46000     -2.5883082E-08
   35.52000     -2.6305546E-08
   35.58000     -2.6674641E-08
   35.64000     -2.6984832E-08
   35.70000     -2.7231200E-08
   35.76000     -2.7411994E-08
   35.82000     -2.7529179E-08
   35.88000     -2.7586296E-08
   35.94000     -2.7584504E-08
   36.00000     -2.7518929E-08
   36.06000     -2.7377647E-08
   36.12000     -2.7144678E-08
   36.18000     -2.6806422E-08
   36.24000     -2.6359128E-08
   36.30000     -2.5814112E-08
   36.36000     -2.5198137E-08
   36.42000     -2.4548347E-08
   36.48000     -2.3903580E-08
   36.54000     -2.3295446E-08
   36.60000     -2.2742684E-08
   36.66000     -2.2250697E-08
   36.72000     -2.1815726E-08
   36.78000     -2.1431019E-08
   36.84000     -2.1091548E-08
   36.90000     -2.0794779E-08
   36.96000     -2.0537234E-08
   37.02000     -2.0308960E-08
   37.08000     -2.0089519E-08
   37.14000     -1.9848775E-08
   37.20000     -1.9553662E-08
   37.26000     -1.9179309E-08
   37.32000     -1.8720279E-08
   37.38000     -1.8196818E-08
   37.44000     -1.7652333E-08
   37.50000     -1.7141495E-08
   37.56000     -1.6712146E-08
   37.62000     -1.6387103E-08
   37.68000     -1.6152605E-08
   37.74000     -1.5958063E-08
   37.80000     -1.5727839E-08
   37.86000     -1.5381259E-08
   37.92000     -1.4854133E-08
   37.98000     -1.4114498E-08
   38.04000     -1.3167716E-08
   38.10000     -1.2050076E-08
   38.16000     -1.0814231E-08
   38.22000     -9.5123944E-09
   38.28000     -8.1833713E-09
   38.34000     -6.8474049E-09
   38.40000     -5.5094609E-09
   38.46000     -4.1683577E-09
   38.52000     -2.8272908E-09
   38.58000     -1.5012623E-09
   38.64000     -2.1855447E-10
   38.70000      9.8409425E-10
   38.76000      2.0705282E-09
   38.82000      3.0148601E-09
   38.88000      3.8081618E-09
   38.94000      4.4598076E-09
   39.00000      4.9932116E-09
   39.06000      5.4378035E-09
   39.12000      5.8203584E-09
   39.18000      6.1587988E-09
   39.24000      6.4603398E-09
   39.30000      6.7239672E-09
   39.36000      6.9455472E-09
   39.42000      7.1230208E-09
   39.48000      7.2594846E-09
   39.54000      7.3631066E-09
   39.60000      7.4442634E-09
   39.66000      7.5113213E-09
   39.72000      7.5667899E-09
   39.78000      7.6052133E-09
   39.84000      7.6134139E-09
   39.90000      7.5729112E-09
   39.96000      7.4638216E-09
   40.02000      7.2691830E-09
   40.08000      6.9785968E-09
   40.14000      6.5901684E-09
   40.20000      6.1100764E-09
   40.26000      5.5497167E-09
   40.32000      4.9211302E-09
   40.38000      4.2321275E-09
   40.44000      3.4828167E-09
   40.50000      2.6648637E-09
   40.56000      1.7638596E-09
   40.62000      7.6391860E-10
   40.68000     -3.4731182E-10
   40.74000     -1.5752498E-09
   40.80000     -2.9178759E-09
   40.86000     -4.3680495E-09
   40.92000     -5.9171725E-09
   40.98000     -7.5580235E-09
   41.04000     -9.2849097E-09
   41.10000     -1.1090607E-08
   41.16000     -1.2961233E-08
   41.22000     -1.4871396E-08
   41.28000     -1.6782099E-08
   41.34000     -1.8642881E-08
   41.40000     -2.0397922E-08
   41.46000     -2.1994273E-08
   41.52000     -2.3389754E-08
   41.58000     -2.4558332E-08
   41.64000     -2.5492039E-08
   41.70000     -2.6199652E-08
   41.76000     -2.6703090E-08
   41.82000     -2.7032449E-08
   41.88000     -2.7220386E-08
   41.94000     -2.7296315E-08
   42.00000     -2.7281198E-08
   42.06000     -2.7184125E-08
   42.12000     -2.7002075E-08
   42.18000     -2.6723580E-08
   42.24000     -2.6335721E-08
   42.30000     -2.5832259E-08
   42.36000     -2.5219871E-08
   42.42000     -2.4519919E-08
   42.48000     -2.3764908E-08
   42.54000     -2.2991010E-08
   42.60000     -2.2229720E-08
   42.66000     -2.1502045E-08
   42.72000     -2.0817279E-08
   42.78000     -2.0176403E-08
   42.84000     -1.9578090E-08
   42.90000     -1.9024410E-08
   42.96000     -1.8523860E-08
   43.02000     -1.8090798E-08
   43.08000     -1.7742188E-08
   43.14000     -1.7493619E-08
   43.20000     -1.7356589E-08
   43.26000     -1.7337982E-08
   43.32000     -1.7441220E-08
   43.38000     -1.7667521E-08
   43.44000     -1.8015607E-08
   43.50000     -1.8479211E-08
   43.56000     -1.9043254E-08
   43.62000     -1.9680821E-08
   43.68000     -2.0353133E-08
   43.74000     -2.1013564E-08
   43.80000     -2.1614865E-08
   43.86000     -2.2117089E-08
   43.92000     -2.2493362E-08
   43.98000     -2.2731674E-08
   44.04000     -2.2832948E-08
   44.10000     -2.2807251E-08
   44.16000     -2.2670617E-08
   44.22000     -2.2443857E-08
   44.28000     -2.2152930E-08
   44.34000     -2.1829152E-08
   44.40000     -2.1507297E-08
   44.46000     -2.1221091E-08
   44.52000     -2.0997243E-08
   44.58000     -2.0850424E-08
   44.64000     -2.0781240E-08
   44.70000     -2.0777849E-08
   44.76000     -2.0820123E-08
   44.82000     -2.0884384E-08
   44.88000     -2.0947104E-08
   44.94000     -2.0987258E-08
   45.00000     -2.0988107E-08
   45.06000     -2.0939448E-08
   45.12000     -2.0840465E-08
   45.18000     -2.0702171E-08
   45.24000     -2.0547667E-08
   45.30000     -2.0409068E-08
   45.36000     -2.0321373E-08
   45.42000     -2.0315150E-08
   45.48000     -2.0410658E-08
   45.54000     -2.0615342E-08
   45.60000     -2.0925132E-08
   45.66000     -2.1328214E-08
   45.72000     -2.1809218E-08
   45.78000     -2.2352038E-08
   45.84000     -2.2940823E-08
   45.90000     -2.3559785E-08
   45.96000     -2.4193158E-08
   46.02000     -2.4826193E-08
   46.08000     -2.5447211E-08
   46.14000     -2.6049872E-08
   46.20000     -2.6634451E-08
   46.26000     -2.7207356E-08
   46.32000     -2.7778807E-08
   46.38000     -2.8359318E-08
   46.44000     -2.8955856E-08
   46.50000     -2.9568508E-08
   46.56000     -3.0188112E-08
   46.62000     -3.0795089E-08
   46.68000     -3.1359459E-08
   46.74000     -3.1841754E-08
   46.80000     -3.2194468E-08
   46.86000     -3.2363126E-08
   46.92000     -3.2286042E-08
   46.98000     -3.1892036E-08
   47.04000     -3.1095880E-08
   47.10000     -2.9792261E-08
   47.16000     -2.7849525E-08
   47.22000     -2.5104587E-08
   47.28000     -2.1359886E-08
   47.34000     -1.6382288E-08
   47.40000     -9.9027728E-09
   47.46000     -1.6153816E-09
   47.52000      8.8264622E-09
   47.58000      2.1817664E-08
   47.64000      3.7814061E-08
   47.70000      5.7349741E-08
   47.76000      8.1058147E-08
   47.82000      1.0969472E-07
   47.88000      1.4415885E-07
   47.94000      1.8551316E-07
   48.00000      2.3500023E-07
   48.06000      2.9405857E-07
   48.12000      3.6434193E-07
   48.18000      4.4774583E-07
   48.24000      5.4644352E-07
   48.30000      6.6293171E-07
   48.36000      8.0008272E-07
   48.42000      9.6120050E-07
   48.48000      1.1500777E-06
   48.54000      1.3710526E-06
   48.60000      1.6290696E-06
   48.66000      1.9297424E-06
   48.72000      2.2794231E-06
   48.78000      2.6852792E-06
   48.84000      3.1553764E-06
   48.90000      3.6987735E-06
   48.96000      4.3256232E-06
   49.02000      5.0472854E-06
   49.08000      5.8764481E-06
   49.14000      6.8272470E-06
   49.20000      7.9153924E-06
   49.26000      9.1582851E-06
   49.32000      1.0575140E-05
   49.38000      1.2187101E-05
   49.44000      1.4017379E-05
   49.50000      1.6091370E-05
   49.56000      1.8436807E-05
   49.62000      2.1083877E-05
   49.68000      2.4065346E-05
   49.74000      2.7416672E-05
   49.80000      3.1176114E-05
   49.86000      3.5384805E-05
   49.92000      4.0086856E-05
   49.98000      4.5329380E-05
   50.04000      5.1162580E-05
   50.10000      5.7639729E-05
   50.16000      6.4817177E-05
   50.22000      7.2754323E-05
   50.28000      8.1513514E-05
   50.34000      9.1159949E-05
   50.40000      1.0176157E-04
   50.46000      1.1338880E-04
   50.52000      1.2611433E-04
   50.58000      1.4001290E-04
   50.64000      1.5516084E-04
   50.70000      1.7163587E-04
   50.76000      1.8951652E-04
   50.82000      2.0888183E-04
   50.88000      2.2981068E-04
   50.94000      2.5238129E-04
   51.00000      2.7667062E-04
   51.06000      3.0275361E-04
   51.12000      3.3070272E-04
   51.18000      3.6058686E-04
   51.24000      3.9247095E-04
   51.30000      4.2641492E-04
   51.36000      4.6247308E-04
   51.42000      5.0069310E-04
   51.48000      5.4111541E-04
   51.54000      5.8377243E-04
   51.60000      6.2868767E-04
   51.66000      6.7587505E-04
   51.72000      7.2533841E-04
   51.78000      7.7707029E-04
   51.84000      8.3105214E-04
   51.90000      8.8725321E-04
   51.96000      9.4563037E-04
   52.02000      1.0061278E-03
   52.08000      1.0686768E-03
   52.14000      1.1331952E-03
   52.20000      1.1995884E-03
   52.26000      1.2677489E-03
   52.32000      1.3375569E-03
   52.38000      1.4088800E-03
   52.44000      1.4815747E-03
   52.50000      1.5554868E-03
   52.56000      1.6304521E-03
   52.62000      1.7062974E-03
   52.68000      1.7828420E-03
   52.74000      1.8598987E-03
   52.80000      1.9372749E-03
   52.86000      2.0147744E-03
   52.92000      2.0921987E-03
   52.98000      2.1693490E-03
   53.04000      2.2460276E-03
   53.10000      2.3220389E-03
   53.16000      2.3971926E-03
   53.22000      2.4713038E-03
   53.28000      2.5441954E-03
   53.34000      2.6157000E-03
   53.40000      2.6856607E-03
   53.46000      2.7539330E-03
   53.52000      2.8203856E-03
   53.58000      2.8849023E-03
   53.64000      2.9473817E-03
   53.70000      3.0077395E-03
   53.76000      3.0659083E-03
   53.82000      3.1218377E-03
   53.88000      3.1754952E-03
   53.94000      3.2268662E-03
   54.00000      3.2759530E-03
   54.06000      3.3227748E-03
   54.12000      3.3673679E-03
   54.18000      3.4097836E-03
   54.24000      3.4500866E-03
   54.30000      3.4883560E-03
   54.36000      3.5246823E-03
   54.42000      3.5591659E-03
   54.48000      3.5919163E-03
   54.54000      3.6230492E-03
   54.60000      3.6526849E-03
   54.66000      3.6809465E-03
   54.72000      3.7079577E-03
   54.78000      3.7338410E-03
   54.84000      3.7587166E-03
   54.90000      3.7826996E-03
   54.96000      3.8058984E-03
   55.02000      3.8284133E-03
   55.08000      3.8503339E-03
   55.14000      3.8717389E-03
   55.20000      3.8926946E-03
   55.26000      3.9132531E-03
   55.32000      3.9334530E-03
   55.38000      3.9533172E-03
   55.44000      3.9728559E-03
   55.50000      3.9920616E-03
   55.56000      4.0109130E-03