  -2.400000      0.0000000E+00
  -2.340000      0.0000000E+00
  -2.280000      0.0000000E+00
  -2.220000      0.0000000E+00
  -2.160000      0.0000000E+00
  -2.100000      0.0000000E+00
  -2.040000      0.0000000E+00
  -1.980000     -1.3564304E-23
  -1.920000     -1.2964471E-22
  -1.860000     -5.7357099E-22
  -1.800000     -1.3907369E-21
  -1.740000     -1.1092650E-21
  -1.680000      5.3328257E-21
  -1.620000      2.6007483E-20
  -1.560000      6.2143882E-20
  -1.500000      8.5950709E-20
  -1.440000      2.0421949E-20
  -1.380000     -2.3943089E-19
  -1.320000     -7.2096571E-19
  -1.260000     -1.1983979E-18
  -1.200000     -1.0828024E-18
  -1.140000      3.8703292E-19
  -1.080000      3.4968998E-18
  -1.020000      7.1614849E-18
 -0.9600000      8.5071158E-18
 -0.9000000      3.8840721E-18
 -0.8400000     -8.3388971E-18
 -0.7800000     -2.4362767E-17
 -0.7200000     -3.3730394E-17
 -0.6600000     -2.3277984E-17
 -0.6000000      1.3288031E-17
 -0.5400000      6.4608305E-17
 -0.4800000      9.8374585E-17
 -0.4200000      7.3627889E-17
 -0.3600000     -3.1251681E-17
 -0.3000000     -1.8780838E-16
 -0.2400000     -3.0702194E-16
 -0.1800000     -2.6928207E-16
 -0.1200000      5.0313778E-18
 -5.9999999E-02  4.7455185E-16
  0.0000000E+00  9.3818661E-16
  5.9999999E-02  1.0859562E-15
  0.1200000      6.4590789E-16
  0.1800000     -4.2789616E-16
  0.2400000     -1.8290940E-15
  0.3000000     -2.9350085E-15
  0.3600000     -3.0392491E-15
  0.4200000     -1.7084885E-15
  0.4800000      9.0153295E-16
  0.5400000      3.9554944E-15
  0.6000000      6.1782354E-15
  0.6600000      6.3757042E-15
  0.7200000      4.0313424E-15
  0.7800000     -3.0564080E-16
  0.8400000     -5.0724064E-15
  0.9000000     -8.2458818E-15
  0.9600000     -8.2315602E-15
   1.020000     -4.7332464E-15
   1.080000      8.1642859E-16
   1.140000      5.5810099E-15
   1.200000      6.4500305E-15
   1.260000      1.6587624E-15
   1.320000     -7.7554515E-15
   1.380000     -1.7464515E-14
   1.440000     -2.0946293E-14
   1.500000     -1.2206550E-14
   1.560000      1.0674163E-14
   1.620000      4.2732307E-14
   1.680000      7.1845375E-14
   1.740000      8.2123503E-14
   1.800000      6.0565614E-14
   1.860000      4.6776835E-15
   1.920000     -7.2583263E-14
   1.980000     -1.4400520E-13
   2.040000     -1.7683840E-13
   2.100000     -1.4694139E-13
   2.160000     -5.2848330E-14
   2.220000      7.7271272E-14
   2.280000      1.9111604E-13
   2.340000      2.3076487E-13
   2.400000      1.5852001E-13
   2.460000     -2.0394907E-14
   2.520000     -2.4943952E-13
   2.580000     -4.3327912E-13
   2.640000     -4.6941395E-13
   2.700000     -2.8832061E-13
   2.760000      1.1341397E-13
   2.820000      6.6072869E-13
   2.880000      1.2140719E-12
   2.940000      1.6043268E-12
   3.000000      1.6749535E-12
   3.060000      1.3165109E-12
   3.120000      4.8568929E-13
   3.180000     -7.8782293E-13
   3.240000     -2.3949777E-12
   3.300000     -4.1309621E-12
   3.360000     -5.6706181E-12
   3.420000     -6.5559849E-12
   3.480000     -6.2297160E-12
   3.540000     -4.1449040E-12
   3.600000      4.3504161E-14
   3.660000      6.2423951E-12
   3.720000      1.3717584E-11
   3.780000      2.1022602E-11
   3.840000      2.6139492E-11
   3.900000      2.6854786E-11
   3.960000      2.1313919E-11
   4.020000      8.6243157E-12
   4.080000     -1.0658785E-11
   4.140000     -3.4312487E-11
   4.200000     -5.8575672E-11
   4.260000     -7.8622484E-11
   4.320000     -8.9296417E-11
   4.380000     -8.5979251E-11
   4.440000     -6.5468034E-11
   4.500000     -2.6758604E-11
   4.560000      2.8341846E-11
   4.620000      9.4846749E-11
   4.680000      1.6455835E-10
   4.740000      2.2648160E-10
   4.800000      2.6777727E-10
   4.860000      2.7527411E-10
   4.920000      2.3743016E-10
   4.980000      1.4648006E-10
   5.040000      3.8566210E-13
   5.100000     -1.9582685E-10
   5.160000     -4.2968085E-10
   5.220000     -6.8197242E-10
   5.280000     -9.2853275E-10
   5.340000     -1.1427514E-09
   5.400000     -1.2984518E-09
   5.460000     -1.3726908E-09
   5.520000     -1.3481347E-09
   5.580000     -1.2147959E-09
   5.640000     -9.7106612E-10
   5.700000     -6.2407735E-10
   5.760000     -1.8946929E-10
   5.820000      3.0938127E-10
   5.880000      8.4266166E-10
   5.940000      1.3759939E-09
   6.000000      1.8729143E-09
   6.060000      2.2979343E-09
   6.120000      2.6200198E-09
   6.180000      2.8161473E-09
   6.240000      2.8744509E-09
   6.300000      2.7963940E-09
   6.360000      2.5974773E-09
   6.420000      2.3062081E-09
   6.480000      1.9613784E-09
   6.540000      1.6080285E-09
   6.600000      1.2927108E-09
   6.660000      1.0587378E-09
   6.720000      9.4198693E-10
   6.780000      9.6762753E-10
   6.840000      1.1479145E-09
   6.900000      1.4810749E-09
   6.960000      1.9513307E-09
   7.020000      2.5301676E-09
   7.080000      3.1790004E-09
   7.140000      3.8532519E-09
   7.200000      4.5075610E-09
   7.260000      5.1014140E-09
   7.320000      5.6041585E-09
   7.380000      5.9983001E-09
   7.440000      6.2802656E-09
   7.500000      6.4584738E-09
   7.560000      6.5492691E-09
   7.620000      6.5718990E-09
   7.680000      6.5438854E-09
   7.740000      6.4779107E-09
   7.800000      6.3806751E-09
   7.860000      6.2535062E-09
   7.920000      6.0939556E-09
   7.980000      5.8975047E-09
   8.040000      5.6587774E-09
   8.100000      5.3721605E-09
   8.160000      5.0322222E-09
   8.220000      4.6345030E-09
   8.280000      4.1771226E-09
   8.340000      3.6631529E-09
   8.400000      3.1031939E-09
   8.460000      2.5171951E-09
   8.520000      1.9345519E-09
   8.580000      1.3918908E-09
   8.640000      9.2863151E-10
   8.700000      5.8115629E-10
   8.760000      3.7696543E-10
   8.820000      3.3033201E-10
   8.880000      4.4060613E-10
   8.940000      6.9355655E-10
   9.000000      1.0651926E-09
   9.060000      1.5267529E-09
   9.120000      2.0492708E-09
   9.180000      2.6064704E-09
   9.240000      3.1756227E-09
   9.300000      3.7369747E-09
   9.360000      4.2730393E-09
   9.420000      4.7689919E-09
   9.480000      5.2146487E-09
   9.540000      5.6073302E-09
   9.600000      5.9539640E-09
   9.660000      6.2706271E-09
   9.720000      6.5785555E-09
   9.780000      6.8972192E-09
   9.840000      7.2366388E-09
   9.900000      7.5919111E-09
   9.960000      7.9424876E-09
   10.02000      8.2571132E-09
   10.08000      8.5032035E-09
   10.14000      8.6576302E-09
   10.20000      8.7152499E-09
   10.26000      8.6922078E-09
   10.32000      8.6229397E-09
   10.38000      8.5519769E-09
   10.44000      8.5234655E-09
   10.50000      8.5719343E-09
   10.56000      8.7172110E-09
   10.62000      8.9646619E-09
   10.68000      9.3098649E-09
   10.74000      9.7451451E-09
   10.80000      1.0264793E-08
   10.86000      1.0866577E-08
   10.92000      1.1548955E-08
   10.98000      1.2305525E-08
   11.04000      1.3119706E-08
   11.10000      1.3962704E-08
   11.16000      1.4796362E-08
   11.22000      1.5580135E-08
   11.28000      1.6279271E-08
   11.34000      1.6870516E-08
   11.40000      1.7342590E-08
   11.46000      1.7691208E-08
   11.52000      1.7911040E-08
   11.58000      1.7988716E-08
   11.64000      1.7900691E-08
   11.70000      1.7617623E-08
   11.76000      1.7113990E-08
   11.82000      1.6379156E-08
   11.88000      1.5425304E-08
   11.94000      1.4288855E-08
   12.00000      1.3024615E-08
   12.06000      1.1694650E-08
   12.12000      1.0355851E-08
   12.18000      9.0503036E-09
   12.24000      7.8012539E-09
   12.30000      6.6152634E-09
   12.36000      5.4889009E-09
   12.42000      4.4170787E-09
   12.48000      3.3999532E-09
   12.54000      2.4462847E-09
   12.60000      1.5726442E-09
   12.66000      7.9934886E-10
   12.72000      1.4497732E-10
   12.78000     -3.7847425E-10
   12.84000     -7.6826467E-10
   12.90000     -1.0308526E-09
   12.96000     -1.1796010E-09
   13.02000     -1.2314388E-09
   13.08000     -1.2038427E-09
   13.14000     -1.1130528E-09
   13.20000     -9.7367236E-10
   13.26000     -7.9902701E-10
   13.32000     -6.0131056E-10
   13.38000     -3.9079692E-10
   13.44000     -1.7415235E-10
   13.50000      4.7244098E-11
   13.56000      2.7757496E-10
   13.62000      5.2437066E-10
   13.68000      7.9380480E-10
   13.74000      1.0849418E-09
   13.80000      1.3854375E-09
   13.86000      1.6711983E-09
   13.92000      1.9112207E-09
   13.98000      2.0766737E-09
   14.04000      2.1512001E-09
   14.10000      2.1384219E-09
   14.16000      2.0633637E-09
   14.22000      1.9667445E-09
   14.28000      1.8939175E-09
   14.34000      1.8823776E-09
   14.40000      1.9522746E-09
   14.46000      2.1030615E-09
   14.52000      2.3169302E-09
   14.58000      2.5671876E-09
   14.64000      2.8282092E-09
   14.70000      3.0835676E-09
   14.76000      3.3300855E-09
   14.82000      3.5772567E-09
   14.88000      3.8429366E-09
   14.94000      4.1470622E-09
   15.00000      4.5053450E-09
   15.06000      4.9245932E-09
   15.12000      5.4007727E-09
   15.18000      5.9201826E-09
   15.24000      6.4633139E-09
   15.30000      7.0101915E-09
   15.36000      7.5455890E-09
   15.42000      8.0626394E-09
   15.48000      8.5641192E-09
   15.54000      9.0616474E-09
   15.60000      9.5737782E-09
   15.66000      1.0123983E-08
   15.72000      1.0738932E-08
   15.78000      1.1446621E-08
   15.84000      1.2273569E-08
   15.90000      1.3240673E-08
   15.96000      1.4358418E-08
   16.02000      1.5623058E-08
   16.08000      1.7015674E-08
   16.14000      1.8505093E-08
   16.20000      2.0054063E-08
   16.26000      2.1626679E-08
   16.32000      2.3194337E-08
   16.38000      2.4738325E-08
   16.44000      2.6248479E-08
   16.50000      2.7718958E-08
   16.56000      2.9143029E-08
   16.62000      3.0508733E-08
   16.68000      3.1796642E-08
   16.74000      3.2980058E-08
   16.80000      3.4027504E-08
   16.86000      3.4906819E-08
   16.92000      3.5590215E-08
   16.98000      3.6059184E-08
   17.04000      3.6308109E-08
   17.10000      3.6345416E-08
   17.16000      3.6191715E-08
   17.22000      3.5875221E-08
   17.28000      3.5425693E-08
   17.34000      3.4868613E-08
   17.40000      3.4221301E-08
   17.46000      3.3491723E-08
   17.52000      3.2680060E-08
   17.58000      3.1782275E-08
   17.64000      3.0794617E-08
   17.70000      2.9717956E-08
   17.76000      2.8560862E-08
   17.82000      2.7340596E-08
   17.88000      2.6081400E-08
   17.94000      2.4810115E-08
   18.00000      2.3550042E-08
   18.06000      2.2314820E-08
   18.12000      2.1104501E-08
   18.18000      1.9905558E-08
   18.24000      1.8695346E-08
   18.30000      1.7449876E-08
   18.36000      1.6152491E-08
   18.42000      1.4800549E-08
   18.48000      1.3407871E-08
   18.54000      1.2002111E-08
   18.60000      1.0617956E-08
   18.66000      9.2883630E-09
   18.72000      8.0367046E-09
   18.78000      6.8723200E-09
   18.84000      5.7907790E-09
   18.90000      4.7785265E-09
   18.96000      3.8199124E-09
   19.02000      2.9036724E-09
   19.08000      2.0261099E-09
   19.14000      1.1896446E-09
   19.20000      3.9752748E-10
   19.26000     -3.5256881E-10
   19.32000     -1.0726705E-09
   19.38000     -1.7839044E-09
   19.44000     -2.5110487E-09
   19.50000     -3.2746066E-09
   19.56000     -4.0841259E-09
   19.62000     -4.9359845E-09
   19.68000     -5.8166427E-09
   19.74000     -6.7096502E-09
   19.80000     -7.6028384E-09
   19.86000     -8.4921172E-09
   19.92000     -9.3800487E-09
   19.98000     -1.0269911E-08
   20.04000     -1.1158038E-08
   20.10000     -1.2027843E-08
   20.16000     -1.2848087E-08
   20.22000     -1.3576134E-08
   20.28000     -1.4165157E-08
   20.34000     -1.4573103E-08
   20.40000     -1.4771015E-08
   20.46000     -1.4748736E-08
   20.52000     -1.4516917E-08
   20.58000     -1.4105199E-08
   20.64000     -1.3557426E-08
   20.70000     -1.2925367E-08
   20.76000     -1.2262720E-08
   20.82000     -1.1620767E-08
   20.88000     -1.1046121E-08
   20.94000     -1.0579897E-08
   21.00000     -1.0256955E-08
   21.06000     -1.0104007E-08
   21.12000     -1.0136339E-08
   21.18000     -1.0354184E-08
   21.24000     -1.0740592E-08
   21.30000     -1.1262451E-08
   21.36000     -1.1875128E-08
   21.42000     -1.2529639E-08
   21.48000     -1.3180090E-08
   21.54000     -1.3789040E-08
   21.60000     -1.4329381E-08
   21.66000     -1.4782861E-08
   21.72000     -1.5136687E-08
   21.78000     -1.5380120E-08
   21.84000     -1.5502630E-08
   21.90000     -1.5494100E-08
   21.96000     -1.5346462E-08
   22.02000     -1.5055598E-08
   22.08000     -1.4622318E-08
   22.14000     -1.4052010E-08
   22.20000     -1.3353487E-08
   22.26000     -1.2538125E-08
   22.32000     -1.1620429E-08
   22.38000     -1.0620237E-08
   22.44000     -9.5655972E-09
   22.50000     -8.4943315E-09
   22.56000     -7.4523294E-09
   22.62000     -6.4877583E-09
   22.68000     -5.6422911E-09
   22.74000     -4.9422053E-09
   22.80000     -4.3926645E-09
   22.86000     -3.9773962E-09
   22.92000     -3.6636507E-09
   22.98000     -3.4101133E-09
   23.04000     -3.1744611E-09
   23.10000     -2.9181151E-09
   23.16000     -2.6078475E-09
   23.22000     -2.2159401E-09
   23.28000     -1.7212828E-09
   23.34000     -1.1126858E-09
   23.40000     -3.9351533E-10
   23.46000      4.1508746E-10
   23.52000      1.2753282E-09
   23.58000      2.1394502E-09
   23.64000      2.9604275E-09
   23.70000      3.7028405E-09
   23.76000      4.3495896E-09
   23.82000      4.9017297E-09
   23.88000      5.3716360E-09
   23.94000      5.7724860E-09
   24.00000      6.1084222E-09
   24.06000      6.3692132E-09
   24.12000      6.5311867E-09
   24.18000      6.5637384E-09
   24.24000      6.4388042E-09
   24.30000      6.1399956E-09
   24.36000      5.6686353E-09
   24.42000      5.0452393E-09
   24.48000      4.3065751E-09
   24.54000      3.4996785E-09
   24.60000      2.6748728E-09
   24.66000      1.8797706E-09
   24.72000      1.1555713E-09
   24.78000      5.3594518E-10
   24.84000      4.7806367E-11
   24.90000     -2.8731206E-10
   24.96000     -4.5258239E-10
   25.02000     -4.3664011E-10
   25.08000     -2.3570246E-10
   25.14000      1.4375046E-10
   25.20000      6.8284528E-10
   25.26000      1.3497116E-09
   25.32000      2.1009363E-09
   25.38000      2.8850653E-09
   25.44000      3.6477505E-09
   25.50000      4.3378514E-09
   25.56000      4.9136357E-09
   25.62000      5.3480944E-09
   25.68000      5.6323453E-09
   25.74000      5.7762950E-09
   25.80000      5.8062484E-09
   25.86000      5.7598881E-09
   25.92000      5.6798215E-09
   25.98000      5.6072325E-09
   26.04000      5.5770144E-09
   26.10000      5.6150506E-09
   26.16000      5.7374536E-09
   26.22000      5.9509744E-09
   26.28000      6.2537406E-09
   26.34000      6.6358798E-09
   26.40000      7.0801733E-09
   26.46000      7.5632141E-09
   26.52000      8.0574862E-09
   26.58000      8.5343679E-09
   26.64000      8.9676542E-09
   26.70000      9.3370023E-09
   26.76000      9.6307433E-09
   26.82000      9.8477084E-09
   26.88000      9.9977608E-09
   26.94000      1.0100666E-08
   27.00000      1.0182993E-08
   27.06000      1.0273077E-08
   27.12000      1.0394902E-08
   27.18000      1.0562614E-08
   27.24000      1.0777861E-08
   27.30000      1.1031505E-08
   27.36000      1.1309689E-08
   27.42000      1.1602156E-08
   27.48000      1.1909264E-08
   27.54000      1.2244127E-08
   27.60000      1.2628154E-08
   27.66000      1.3081199E-08
   27.72000      1.3610300E-08
   27.78000      1.4202228E-08
   27.84000      1.4823823E-08
   27.90000      1.5430956E-08
   27.96000      1.5982970E-08
   28.02000      1.6456688E-08
   28.08000      1.6853820E-08
   28.14000      1.7198115E-08
   28.20000      1.7523105E-08
   28.26000      1.7855443E-08
   28.32000      1.8200961E-08
   28.38000      1.8539447E-08
   28.44000      1.8830287E-08
   28.50000      1.9026265E-08
   28.56000      1.9089484E-08
   28.62000      1.9002734E-08
   28.68000      1.8772289E-08
   28.74000      1.8422172E-08
   28.80000      1.7983620E-08
   28.86000      1.7484806E-08
   28.92000      1.6944716E-08
   28.98000      1.6372251E-08
   29.04000      1.5768986E-08
   29.10000      1.5132889E-08
   29.16000      1.4461049E-08
   29.22000      1.3751090E-08
   29.28000      1.3002287E-08
   29.34000      1.2217434E-08
   29.40000      1.1405399E-08
   29.46000      1.0582959E-08
   29.52000      9.7739985E-09
   29.58000      9.0050989E-09
   29.64000      8.2984233E-09
   29.70000      7.6646050E-09
   29.76000      7.0989392E-09
   29.82000      6.5830283E-09
   29.88000      6.0917107E-09
   29.94000      5.6027276E-09
   30.00000      5.1053068E-09
   30.06000      4.6043418E-09
   30.12000      4.1188000E-09
   30.18000      3.6754471E-09
   30.24000      3.3007901E-09
   30.30000      3.0145362E-09
   30.36000      2.8268430E-09
   30.42000      2.7398102E-09
   30.48000      2.7519564E-09
   30.54000      2.8635221E-09
   30.60000      3.0805103E-09
   30.66000      3.4161201E-09
   30.72000      3.8891357E-09
   30.78000      4.5196034E-09
   30.84000      5.3227258E-09
   30.90000      6.3024475E-09
   30.96000      7.4466988E-09
   31.02000      8.7263778E-09
   31.08000      1.0099397E-08
   31.14000      1.1519370E-08
   31.20000      1.2946274E-08
   31.26000      1.4354781E-08
   31.32000      1.5736211E-08
   31.38000      1.7092530E-08
   31.44000      1.8424723E-08
   31.50000      1.9721158E-08
   31.56000      2.0952358E-08
   31.62000      2.2076003E-08
   31.68000      2.3051038E-08
   31.74000      2.3854927E-08
   31.80000      2.4496044E-08
   31.86000      2.5015053E-08
   31.92000      2.5474113E-08
   31.98000      2.5938277E-08
   32.04000      2.6456712E-08
   32.10000      2.7050890E-08
   32.16000      2.7713259E-08
   32.22000      2.8415332E-08
   32.28000      2.9120748E-08
   32.34000      2.9798237E-08
   32.40000      3.0430943E-08
   32.46000      3.1020924E-08
   32.52000      3.1589291E-08
   32.58000      3.2172739E-08
   32.64000      3.2816960E-08
   32.70000      3.3567169E-08
   32.76000      3.4456868E-08
   32.82000      3.5497141E-08
   32.88000      3.6669885E-08
   32.94000      3.7927695E-08
   33.00000      3.9201144E-08
   33.06000      4.0411123E-08
   33.12000      4.1481993E-08
   33.18000      4.2350866E-08
   33.24000      4.2970541E-08
   33.30000      4.3306667E-08
   33.36000      4.3332395E-08
   33.42000      4.3024730E-08
   33.48000      4.2365034E-08
   33.54000      4.1343657E-08
   33.60000      3.9965958E-08
   33.66000      3.8256271E-08
   33.72000      3.6257454E-08
   33.78000      3.4025959E-08
   33.84000      3.1624328E-08
   33.90000      2.9113632E-08
   33.96000      2.6547355E-08
   34.02000      2.3966850E-08
   34.08000      2.1397653E-08
   34.14000      1.8846491E-08
   34.20000      1.6300385E-08
   34.26000      1.3730054E-08
   34.32000      1.1099075E-08
   34.38000      8.3775920E-09
   34.44000      5.5562652E-09
   34.50000      2.6545728E-09
   34.56000     -2.8087296E-10
   34.62000     -3.1879432E-09
   34.68000     -6.0055236E-09
   34.74000     -8.6871754E-09
   34.80000     -1.1205573E-08
   34.86000     -1.3546524E-08
   34.92000     -1.5697470E-08
   34.98000     -1.7638785E-08
   35.04000     -1.9344728E-08
   35.10000     -2.0794950E-08
   35.16000     -2.1990484E-08
   35.22000     -2.2964263E-08
   35.28000     -2.3778084E-08
   35.34000     -2.4504867E-08
   35.40000     -2.5203482E-08
   35.46000     -2.5898172E-08
   35.52000     -2.6573165E-08
   35.58000     -2.7185404E-08
   35.64000     -2.7689097E-08
   35.70000     -2.8059553E-08
   35.76000     -2.8304425E-08
   35.82000     -2.8457505E-08
   35.88000     -2.8559461E-08
   35.94000     -2.8636567E-08
   36.00000     -2.8688696E-08
   36.06000     -2.8691989E-08
   36.12000     -2.8613435E-08
   36.18000     -2.8428605E-08
   36.24000     -2.8133339E-08
   36.30000     -2.7744790E-08
   36.36000     -2.7293654E-08
   36.42000     -2.6813757E-08
   36.48000     -2.6335021E-08
   36.54000     -2.5882116E-08
   36.60000     -2.5476664E-08
   36.66000     -2.5138700E-08
   36.72000     -2.4884496E-08
   36.78000     -2.4721389E-08
   36.84000     -2.4643260E-08
   36.90000     -2.4630623E-08
   36.96000     -2.4656634E-08
   37.02000     -2.4696700E-08
   37.08000     -2.4736998E-08
   37.14000     -2.4777881E-08
   37.20000     -2.4830973E-08
   37.26000     -2.4912206E-08
   37.32000     -2.5034648E-08
   37.38000     -2.5204255E-08
   37.44000     -2.5419233E-08
   37.50000     -2.5671646E-08
   37.56000     -2.5949186E-08
   37.62000     -2.6236297E-08
   37.68000     -2.6515439E-08
   37.74000     -2.6769875E-08
   37.80000     -2.6988269E-08
   37.86000     -2.7169213E-08
   37.92000     -2.7322296E-08
   37.98000     -2.7462992E-08
   38.04000     -2.7601633E-08
   38.10000     -2.7730676E-08
   38.16000     -2.7817036E-08
   38.22000     -2.7805205E-08
   38.28000     -2.7632517E-08
   38.34000     -2.7251650E-08
   38.40000     -2.6650943E-08
   38.46000     -2.5862803E-08
   38.52000     -2.4955236E-08
   38.58000     -2.4009298E-08
   38.64000     -2.3092223E-08
   38.70000     -2.2238472E-08
   38.76000     -2.1447315E-08
   38.82000     -2.0697632E-08
   38.88000     -1.9972072E-08
   38.94000     -1.9278135E-08
   39.00000     -1.8655358E-08
   39.06000     -1.8164723E-08
   39.12000     -1.7865190E-08
   39.18000     -1.7788253E-08
   39.24000     -1.7922130E-08
   39.30000     -1.8212232E-08
   39.36000     -1.8577099E-08
   39.42000     -1.8932456E-08
   39.48000     -1.9213527E-08
   39.54000     -1.9387690E-08
   39.60000     -1.9454488E-08
   39.66000     -1.9435305E-08
   39.72000     -1.9358311E-08
   39.78000     -1.9244883E-08
   39.84000     -1.9101938E-08
   39.90000     -1.8921773E-08
   39.96000     -1.8688251E-08
   40.02000     -1.8386340E-08
   40.08000     -1.8011198E-08
   40.14000     -1.7573349E-08
   40.20000     -1.7097834E-08
   40.26000     -1.6617381E-08
   40.32000     -1.6161954E-08
   40.38000     -1.5748775E-08
   40.44000     -1.5377095E-08
   40.50000     -1.5030331E-08
   40.56000     -1.4685100E-08
   40.62000     -1.4323481E-08
   40.68000     -1.3943161E-08
   40.74000     -1.3560791E-08
   40.80000     -1.3206919E-08
   40.86000     -1.2914747E-08
   40.92000     -1.2707932E-08
   40.98000     -1.2593051E-08
   41.04000     -1.2560055E-08
   41.10000     -1.2590049E-08
   41.16000     -1.2666240E-08
   41.22000     -1.2782508E-08
   41.28000     -1.2945556E-08
   41.34000     -1.3170075E-08
   41.40000     -1.3469974E-08
   41.46000     -1.3850526E-08
   41.52000     -1.4305479E-08
   41.58000     -1.4820333E-08
   41.64000     -1.5379573E-08
   41.70000     -1.5973749E-08
   41.76000     -1.6602595E-08
   41.82000     -1.7272614E-08
   41.88000     -1.7990507E-08
   41.94000     -1.8755827E-08
   42.00000     -1.9556401E-08
   42.06000     -2.0368626E-08
   42.12000     -2.1162469E-08
   42.18000     -2.1909184E-08
   42.24000     -2.2589019E-08
   42.30000     -2.3196552E-08
   42.36000     -2.3742379E-08
   42.42000     -2.4250868E-08
   42.48000     -2.4754543E-08
   42.54000     -2.5286152E-08
   42.60000     -2.5869928E-08
   42.66000     -2.6514044E-08
   42.72000     -2.7206504E-08
   42.78000     -2.7916414E-08
   42.84000     -2.8601406E-08
   42.90000     -2.9219954E-08
   42.96000     -2.9745202E-08
   43.02000     -3.0175556E-08
   43.08000     -3.0537556E-08
   43.14000     -3.0878798E-08
   43.20000     -3.1252338E-08
   43.26000     -3.1697695E-08
   43.32000     -3.2225554E-08
   43.38000     -3.2812498E-08
   43.44000     -3.3408369E-08
   43.50000     -3.3953768E-08
   43.56000     -3.4400770E-08
   43.62000     -3.4728522E-08
   43.68000     -3.4947579E-08
   43.74000     -3.5091904E-08
   43.80000     -3.5202767E-08
   43.86000     -3.5311903E-08
   43.92000     -3.5430872E-08
   43.98000     -3.5549931E-08
   44.04000     -3.5645062E-08
   44.10000     -3.5688892E-08
   44.16000     -3.5660623E-08
   44.22000     -3.5552265E-08
   44.28000     -3.5371102E-08
   44.34000     -3.5139589E-08
   44.40000     -3.4893411E-08
   44.46000     -3.4677054E-08
   44.52000     -3.4535308E-08
   44.58000     -3.4500545E-08
   44.64000     -3.4578473E-08
   44.70000     -3.4737823E-08
   44.76000     -3.4909910E-08
   44.82000     -3.5001044E-08
   44.88000     -3.4915562E-08
   44.94000     -3.4582037E-08
   45.00000     -3.3973087E-08
   45.06000     -3.3111391E-08
   45.12000     -3.2059877E-08
   45.18000     -3.0900324E-08
   45.24000     -2.9708778E-08
   45.30000     -2.8536411E-08
   45.36000     -2.7401436E-08
   45.42000     -2.6292911E-08
   45.48000     -2.5183160E-08
   45.54000     -2.4043381E-08
   45.60000     -2.2857190E-08
   45.66000     -2.1628356E-08
   45.72000     -2.0381167E-08
   45.78000     -1.9153839E-08
   45.84000     -1.7987128E-08
   45.90000     -1.6911624E-08
   45.96000     -1.5937946E-08
   46.02000     -1.5053759E-08
   46.08000     -1.4229793E-08
   46.14000     -1.3434063E-08
   46.20000     -1.2650098E-08
   46.26000     -1.1892547E-08
   46.32000     -1.1213239E-08
   46.38000     -1.0693427E-08
   46.44000     -1.0422706E-08
   46.50000     -1.0470609E-08
   46.56000     -1.0860745E-08
   46.62000     -1.1557821E-08
   46.68000     -1.2473985E-08
   46.74000     -1.3493879E-08
   46.80000     -1.4510073E-08
   46.86000     -1.5455489E-08
   46.92000     -1.6319806E-08
   46.98000     -1.7142966E-08
   47.04000     -1.7988626E-08
   47.10000     -1.8909400E-08
   47.16000     -1.9919572E-08
   47.22000     -2.0987557E-08
   47.28000     -2.2050852E-08
   47.34000     -2.3045382E-08
   47.40000     -2.3934193E-08
   47.46000     -2.4721313E-08
   47.52000     -2.5444628E-08
   47.58000     -2.6152767E-08
   47.64000     -2.6879071E-08
   47.70000     -2.7626589E-08
   47.76000     -2.8371323E-08
   47.82000     -2.9080526E-08
   47.88000     -2.9734688E-08
   47.94000     -3.0340416E-08
   48.00000     -3.0927001E-08
   48.06000     -3.1528938E-08
   48.12000     -3.2163971E-08
   48.18000     -3.2818040E-08
   48.24000     -3.3443506E-08
   48.30000     -3.3969457E-08
   48.36000     -3.4316734E-08
   48.42000     -3.4409204E-08
   48.48000     -3.4176548E-08
   48.54000     -3.3549792E-08
   48.60000     -3.2454579E-08
   48.66000     -3.0807353E-08
   48.72000     -2.8516101E-08
   48.78000     -2.5483235E-08
   48.84000     -2.1606095E-08
   48.90000     -1.6771603E-08
   48.96000     -1.0844825E-08
   49.02000     -3.6540957E-09
   49.08000      5.0235118E-09
   49.14000      1.5473802E-08
   49.20000      2.8053739E-08
   49.26000      4.3197613E-08
   49.32000      6.1422710E-08
   49.38000      8.3335543E-08
   49.44000      1.0963951E-07
   49.50000      1.4114478E-07
   49.56000      1.7878233E-07
   49.62000      2.2362390E-07
   49.68000      2.7690891E-07
   49.74000      3.4007786E-07
   49.80000      4.1481010E-07
   49.86000      5.0306357E-07
   49.92000      6.0711483E-07
   49.98000      7.2959932E-07
   50.04000      8.7355380E-07
   50.10000      1.0424626E-06
   50.16000      1.2403079E-06
   50.22000      1.4716265E-06
   50.28000      1.7415723E-06
   50.34000      2.0559833E-06
   50.40000      2.4214560E-06
   50.46000      2.8454251E-06
   50.52000      3.3362489E-06
   50.58000      3.9033025E-06
   50.64000      4.5570764E-06
   50.70000      5.3092840E-06
   50.76000      6.1729766E-06
   50.82000      7.1626673E-06
   50.88000      8.2944580E-06
   50.94000      9.5861651E-06
   51.00000      1.1057452E-05
   51.06000      1.2729949E-05
   51.12000      1.4627391E-05
   51.18000      1.6775755E-05
   51.24000      1.9203406E-05
   51.30000      2.1941250E-05
   51.36000      2.5022877E-05
   51.42000      2.8484679E-05
   51.48000      3.2365973E-05
   51.54000      3.6709080E-05
   51.60000      4.1559397E-05
   51.66000      4.6965477E-05
   51.72000      5.2979103E-05
   51.78000      5.9655311E-05
   51.84000      6.7052431E-05
   51.90000      7.5232056E-05
   51.96000      8.4259053E-05
   52.02000      9.4201445E-05
   52.08000      1.0513033E-04
   52.14000      1.1711975E-04
   52.20000      1.3024648E-04
   52.26000      1.4458984E-04
   52.32000      1.6023128E-04
   52.38000      1.7725420E-04
   52.44000      1.9574352E-04
   52.50000      2.1578520E-04
   52.56000      2.3746597E-04
   52.62000      2.6087265E-04
   52.68000      2.8609170E-04
   52.74000      3.1320855E-04
   52.80000      3.4230691E-04
   52.86000      3.7346806E-04
   52.92000      4.0677030E-04
   52.98000      4.4228786E-04
   53.04000      4.8009047E-04
   53.10000      5.2024244E-04
   53.16000      5.6280172E-04
   53.22000      6.0781941E-04
   53.28000      6.5533863E-04
   53.34000      7.0539373E-04
   53.40000      7.5800990E-04
   53.46000      8.1320218E-04
   53.52000      8.7097462E-04
   53.58000      9.3131996E-04
   53.64000      9.9421875E-04
   53.70000      1.0596388E-03
   53.76000      1.1275350E-03
   53.82000      1.1978489E-03
   53.88000      1.2705089E-03
   53.94000      1.3454295E-03
   54.00000      1.4225115E-03
   54.06000      1.5016425E-03
   54.12000      1.5826959E-03
   54.18000      1.6655326E-03
   54.24000      1.7500013E-03
   54.30000      1.8359385E-03
   54.36000      1.9231699E-03
   54.42000      2.0115108E-03
   54.48000      2.1007669E-03
   54.54000      2.1907361E-03
   54.60000      2.2812090E-03
   54.66000      2.3719706E-03
   54.72000      2.4628015E-03
   54.78000      2.5534795E-03
   54.84000      2.6437805E-03
   54.90000      2.7334813E-03
   54.96000      2.8223589E-03
   55.02000      2.9101942E-03
   55.08000      2.9967725E-03
   55.14000      3.0818849E-03
   55.20000      3.1653293E-03
   55.26000      3.2469139E-03
   55.32000      3.3264551E-03
   55.38000      3.4037817E-03
   55.44000      3.4787341E-03
   55.50000      3.5511660E-03
   55.56000      3.6209452E-03