  -2.400000      0.0000000E+00
  -2.340000      0.0000000E+00
  -2.280000      0.0000000E+00
  -2.220000      0.0000000E+00
  -2.160000      0.0000000E+00
  -2.100000      0.0000000E+00
  -2.040000      0.0000000E+00
  -1.980000      4.6957813E-24
  -1.920000      4.0658440E-23
  -1.860000      1.5131046E-22
  -1.800000      2.2601067E-22
  -1.740000     -4.6717474E-22
  -1.680000     -3.6155588E-21
  -1.620000     -1.0485038E-20
  -1.560000     -1.6937512E-20
  -1.500000     -6.2631466E-21
  -1.440000      5.0813521E-20
  -1.380000      1.7308859E-19
  -1.320000      3.1582278E-19
  -1.260000      3.1568671E-19
  -1.200000     -9.1026515E-20
  -1.140000     -1.0920915E-18
  -1.080000     -2.4688103E-18
  -1.020000     -3.3056865E-18
 -0.9600000     -2.1098879E-18
 -0.9000000      2.3462767E-18
 -0.8400000      9.5917564E-18
 -0.7800000      1.6273018E-17
 -0.7200000      1.6534388E-17
 -0.6600000      4.8706111E-18
 -0.6000000     -1.9174510E-17
 -0.5400000     -4.7107665E-17
 -0.4800000     -6.2043833E-17
 -0.4200000     -4.5936582E-17
 -0.3600000      8.3350805E-18
 -0.3000000      8.6460279E-17
 -0.2400000      1.5200844E-16
 -0.1800000      1.6016905E-16
 -0.1200000      8.2116092E-17
 -5.9999999E-02 -7.2395304E-17
  0.0000000E+00 -2.4907589E-16
  5.9999999E-02 -3.6747442E-16
  0.1200000     -3.5720269E-16
  0.1800000     -1.9305292E-16
  0.2400000      9.1408692E-17
  0.3000000      4.1956970E-16
  0.3600000      7.0501353E-16
  0.4200000      8.7781164E-16
  0.4800000      8.8499691E-16
  0.5400000      6.6934529E-16
  0.6000000      1.5579275E-16
  0.6600000     -7.1872328E-16
  0.7200000     -1.9203762E-15
  0.7800000     -3.2129885E-15
  0.8400000     -4.1067791E-15
  0.9000000     -3.9389395E-15
  0.9600000     -2.1143211E-15
   1.020000      1.5518538E-15
   1.080000      6.5296482E-15
   1.140000      1.1479914E-14
   1.200000      1.4492725E-14
   1.260000      1.3660892E-14
   1.320000      7.8394974E-15
   1.380000     -2.6770457E-15
   1.440000     -1.5858210E-14
   1.500000     -2.8226782E-14
   1.560000     -3.5741348E-14
   1.620000     -3.5036237E-14
   1.680000     -2.4598264E-14
   1.740000     -5.4318198E-15
   1.800000      1.9060598E-14
   1.860000      4.3928802E-14
   1.920000      6.3878116E-14
   1.980000      7.4312579E-14
   2.040000      7.1872446E-14
   2.100000      5.4525266E-14
   2.160000      2.1664621E-14
   2.220000     -2.5253774E-14
   2.280000     -8.1417098E-14
   2.340000     -1.3732429E-13
   2.400000     -1.7866855E-13
   2.460000     -1.8866232E-13
   2.520000     -1.5310854E-13
   2.580000     -6.6972652E-14
   2.640000      6.0188386E-14
   2.700000      2.0292879E-13
   2.760000      3.2455326E-13
   2.820000      3.8710628E-13
   2.880000      3.6359606E-13
   2.940000      2.4796259E-13
   3.000000      5.8876142E-14
   3.060000     -1.6420611E-13
   3.120000     -3.7130303E-13
   3.180000     -5.1483774E-13
   3.240000     -5.6106378E-13
   3.300000     -4.9701031E-13
   3.360000     -3.3199132E-13
   3.420000     -9.4488267E-14
   3.480000      1.7396550E-13
   3.540000      4.2630461E-13
   3.600000      6.1762520E-13
   3.660000      7.1203221E-13
   3.720000      6.8770011E-13
   3.780000      5.3953218E-13
   3.840000      2.7959742E-13
   3.900000     -6.3540021E-14
   3.960000     -4.4527587E-13
   4.020000     -8.0507405E-13
   4.080000     -1.0683361E-12
   4.140000     -1.1539467E-12
   4.200000     -9.9073505E-13
   4.260000     -5.4208228E-13
   4.320000      1.6819616E-13
   4.380000      1.0403710E-12
   4.440000      1.9052069E-12
   4.500000      2.5567905E-12
   4.560000      2.8048228E-12
   4.620000      2.5287454E-12
   4.680000      1.7124853E-12
   4.740000      4.4518873E-13
   4.800000     -1.1118360E-12
   4.860000     -2.7756597E-12
   4.920000     -4.3843991E-12
   4.980000     -5.8100491E-12
   5.040000     -6.9345198E-12
   5.100000     -7.6012616E-12
   5.160000     -7.5691692E-12
   5.220000     -6.4968833E-12
   5.280000     -3.9732996E-12
   5.340000      4.1080770E-13
   5.400000      6.9746127E-12
   5.460000      1.5876710E-11
   5.520000      2.7090701E-11
   5.580000      4.0436515E-11
   5.640000      5.5652573E-11
   5.700000      7.2472923E-11
   5.760000      9.0665170E-11
   5.820000      1.0999532E-10
   5.880000      1.3011317E-10
   5.940000      1.5039069E-10
   6.000000      1.6978127E-10
   6.060000      1.8678450E-10
   6.120000      1.9958586E-10
   6.180000      2.0638927E-10
   6.240000      2.0588417E-10
   6.300000      1.9771559E-10
   6.360000      1.8278534E-10
   6.420000      1.6323509E-10
   6.480000      1.4204843E-10
   6.540000      1.2233863E-10
   6.600000      1.0651192E-10
   6.660000      9.5561253E-11
   6.720000      8.8717332E-11
   6.780000      8.3567112E-11
   6.840000      7.6586321E-11
   6.900000      6.3893980E-11
   6.960000      4.1985117E-11
   7.020000      8.2562472E-12
   7.080000     -3.8720874E-11
   7.140000     -9.9078544E-11
   7.200000     -1.7152338E-10
   7.260000     -2.5310129E-10
   7.320000     -3.3893122E-10
   7.380000     -4.2216461E-10
   7.440000     -4.9450044E-10
   7.500000     -5.4746452E-10
   7.560000     -5.7435834E-10
   7.620000     -5.7241650E-10
   7.680000     -5.4446270E-10
   7.740000     -4.9937804E-10
   7.800000     -4.5102971E-10
   7.860000     -4.1583642E-10
   7.920000     -4.0964540E-10
   7.980000     -4.4482859E-10
   8.040000     -5.2836202E-10
   8.100000     -6.6119393E-10
   8.160000     -8.3865914E-10
   8.220000     -1.0513338E-09
   8.280000     -1.2857201E-09
   8.340000     -1.5244987E-09
   8.400000     -1.7466011E-09
   8.460000     -1.9277420E-09
   8.520000     -2.0421060E-09
   8.580000     -2.0655258E-09
   8.640000     -1.9798743E-09
   8.700000     -1.7777719E-09
   8.760000     -1.4663581E-09
   8.820000     -1.0689383E-09
   8.880000     -6.2377031E-10
   8.940000     -1.7994292E-10
   9.000000      2.0902248E-10
   9.060000      4.9273036E-10
   9.120000      6.3130773E-10
   9.180000      6.0138805E-10
   9.240000      3.9968936E-10
   9.300000      4.3573024E-11
   9.360000     -4.3159076E-10
   9.420000     -9.7793007E-10
   9.480000     -1.5426292E-09
   9.540000     -2.0762843E-09
   9.600000     -2.5405773E-09
   9.660000     -2.9138858E-09
   9.720000     -3.1938876E-09
   9.780000     -3.3968897E-09
   9.840000     -3.5543029E-09
   9.900000     -3.7071297E-09
   9.960000     -3.8994661E-09
   10.02000     -4.1718580E-09
   10.08000     -4.5551385E-09
   10.14000     -5.0652740E-09
   10.20000     -5.6998606E-09
   10.26000     -6.4370429E-09
   10.32000     -7.2375803E-09
   10.38000     -8.0503346E-09
   10.44000     -8.8206331E-09
   10.50000     -9.5000559E-09
   10.56000     -1.0055615E-08
   10.62000     -1.0476327E-08
   10.68000     -1.0775835E-08
   10.74000     -1.0990795E-08
   10.80000     -1.1175693E-08
   10.86000     -1.1395337E-08
   10.92000     -1.1716346E-08
   10.98000     -1.2198666E-08
   11.04000     -1.2887896E-08
   11.10000     -1.3809045E-08
   11.16000     -1.4962465E-08
   11.22000     -1.6322804E-08
   11.28000     -1.7841632E-08
   11.34000     -1.9453894E-08
   11.40000     -2.1087372E-08
   11.46000     -2.2673440E-08
   11.52000     -2.4156728E-08
   11.58000     -2.5501283E-08
   11.64000     -2.6691531E-08
   11.70000     -2.7727710E-08
   11.76000     -2.8617032E-08
   11.82000     -2.9363191E-08
   11.88000     -2.9957523E-08
   11.94000     -3.0374764E-08
   12.00000     -3.0575119E-08
   12.06000     -3.0512187E-08
   12.12000     -3.0144498E-08
   12.18000     -2.9446996E-08
   12.24000     -2.8418727E-08
   12.30000     -2.7084358E-08
   12.36000     -2.5489149E-08
   12.42000     -2.3689402E-08
   12.48000     -2.1741803E-08
   12.54000     -1.9695248E-08
   12.60000     -1.7587558E-08
   12.66000     -1.5447355E-08
   12.72000     -1.3299393E-08
   12.78000     -1.1170383E-08
   12.84000     -9.0924903E-09
   12.90000     -7.1028352E-09
   12.96000     -5.2391758E-09
   13.02000     -3.5335617E-09
   13.08000     -2.0065114E-09
   13.14000     -6.6395389E-10
   13.20000      5.0201332E-10
   13.26000      1.5090903E-09
   13.32000      2.3792901E-09
   13.38000      3.1343343E-09
   13.44000      3.7937720E-09
   13.50000      4.3764041E-09
   13.56000      4.9040492E-09
   13.62000      5.4055338E-09
   13.68000      5.9185132E-09
   13.74000      6.4875074E-09
   13.80000      7.1580804E-09
   13.86000      7.9687590E-09
   13.92000      8.9433891E-09
   13.98000      1.0086663E-08
   14.04000      1.1384498E-08
   14.10000      1.2809208E-08
   14.16000      1.4327750E-08
   14.22000      1.5910295E-08
   14.28000      1.7536415E-08
   14.34000      1.9197055E-08
   14.40000      2.0891994E-08
   14.46000      2.2623832E-08
   14.52000      2.4390571E-08
   14.58000      2.6179144E-08
   14.64000      2.7961855E-08
   14.70000      2.9696867E-08
   14.76000      3.1332732E-08
   14.82000      3.2815898E-08
   14.88000      3.4099369E-08
   14.94000      3.5150254E-08
   15.00000      3.5954354E-08
   15.06000      3.6516390E-08
   15.12000      3.6855759E-08
   15.18000      3.6998706E-08
   15.24000      3.6968743E-08
   15.30000      3.6777831E-08
   15.36000      3.6420818E-08
   15.42000      3.5874979E-08
   15.48000      3.5105284E-08
   15.54000      3.4074418E-08
   15.60000      3.2754905E-08
   15.66000      3.1139770E-08
   15.72000      2.9248163E-08
   15.78000      2.7123743E-08
   15.84000      2.4825757E-08
   15.90000      2.2415319E-08
   15.96000      1.9941035E-08
   16.02000      1.7428663E-08
   16.08000      1.4878246E-08
   16.14000      1.2269951E-08
   16.20000      9.5769916E-09
   16.26000      6.7818320E-09
   16.32000      3.8906776E-09
   16.38000      9.4158192E-10
   16.44000     -1.9968309E-09
   16.50000     -4.8364326E-09
   16.56000     -7.4879818E-09
   16.62000     -9.8820676E-09
   16.68000     -1.1986773E-08
   16.74000     -1.3816927E-08
   16.80000     -1.5432125E-08
   16.86000     -1.6923963E-08
   16.92000     -1.8396022E-08
   16.98000     -1.9942069E-08
   17.04000     -2.1627907E-08
   17.10000     -2.3480798E-08
   17.16000     -2.5487880E-08
   17.22000     -2.7602741E-08
   17.28000     -2.9757761E-08
   17.34000     -3.1879313E-08
   17.40000     -3.3902836E-08
   17.46000     -3.5785035E-08
   17.52000     -3.7510798E-08
   17.58000     -3.9093187E-08
   17.64000     -4.0566345E-08
   17.70000     -4.1973117E-08
   17.76000     -4.3351093E-08
   17.82000     -4.4721478E-08
   17.88000     -4.6084459E-08
   17.94000     -4.7422198E-08
   18.00000     -4.8707751E-08
   18.06000     -4.9916185E-08
   18.12000     -5.1033538E-08
   18.18000     -5.2060638E-08
   18.24000     -5.3010801E-08
   18.30000     -5.3902586E-08
   18.36000     -5.4750046E-08
   18.42000     -5.5553414E-08
   18.48000     -5.6292926E-08
   18.54000     -5.6928165E-08
   18.60000     -5.7404030E-08
   18.66000     -5.7663051E-08
   18.72000     -5.7661495E-08
   18.78000     -5.7384621E-08
   18.84000     -5.6855974E-08
   18.90000     -5.6136482E-08
   18.96000     -5.5312679E-08
   19.02000     -5.4477056E-08
   19.08000     -5.3706650E-08
   19.14000     -5.3046442E-08
   19.20000     -5.2502354E-08
   19.26000     -5.2044896E-08
   19.32000     -5.1621129E-08
   19.38000     -5.1170520E-08
   19.44000     -5.0639954E-08
   19.50000     -4.9994295E-08
   19.56000     -4.9220805E-08
   19.62000     -4.8327198E-08
   19.68000     -4.7334698E-08
   19.74000     -4.6268383E-08
   19.80000     -4.5147885E-08
   19.86000     -4.3981427E-08
   19.92000     -4.2765148E-08
   19.98000     -4.1487823E-08
   20.04000     -4.0139042E-08
   20.10000     -3.8717587E-08
   20.16000     -3.7236806E-08
   20.22000     -3.5725279E-08
   20.28000     -3.4222893E-08
   20.34000     -3.2774004E-08
   20.40000     -3.1419866E-08
   20.46000     -3.0191956E-08
   20.52000     -2.9107216E-08
   20.58000     -2.8165557E-08
   20.64000     -2.7350001E-08
   20.70000     -2.6629682E-08
   20.76000     -2.5965560E-08
   20.82000     -2.5317906E-08
   20.88000     -2.4653788E-08
   20.94000     -2.3952618E-08
   21.00000     -2.3208433E-08
   21.06000     -2.2428958E-08
   21.12000     -2.1632561E-08
   21.18000     -2.0844670E-08
   21.24000     -2.0094717E-08
   21.30000     -1.9413678E-08
   21.36000     -1.8831539E-08
   21.42000     -1.8374012E-08
   21.48000     -1.8058456E-08
   21.54000     -1.7889871E-08
   21.60000     -1.7858351E-08
   21.66000     -1.7939362E-08
   21.72000     -1.8097573E-08
   21.78000     -1.8294076E-08
   21.84000     -1.8495877E-08
   21.90000     -1.8685768E-08
   21.96000     -1.8870105E-08
   22.02000     -1.9082014E-08
   22.08000     -1.9378211E-08
   22.14000     -1.9829230E-08
   22.20000     -2.0504833E-08
   22.26000     -2.1458236E-08
   22.32000     -2.2713504E-08
   22.38000     -2.4259670E-08
   22.44000     -2.6052945E-08
   22.50000     -2.8025946E-08
   22.56000     -3.0100779E-08
   22.62000     -3.2202287E-08
   22.68000     -3.4268435E-08
   22.74000     -3.6256157E-08
   22.80000     -3.8142730E-08
   22.86000     -3.9923428E-08
   22.92000     -4.1606935E-08
   22.98000     -4.3209749E-08
   23.04000     -4.4750827E-08
   23.10000     -4.6247202E-08
   23.16000     -4.7711104E-08
   23.22000     -4.9148479E-08
   23.28000     -5.0558505E-08
   23.34000     -5.1933558E-08
   23.40000     -5.3259409E-08
   23.46000     -5.4515763E-08
   23.52000     -5.5677802E-08
   23.58000     -5.6719070E-08
   23.64000     -5.7615676E-08
   23.70000     -5.8350931E-08
   23.76000     -5.8919134E-08
   23.82000     -5.9327171E-08
   23.88000     -5.9593283E-08
   23.94000     -5.9743194E-08
   24.00000     -5.9804485E-08
   24.06000     -5.9800797E-08
   24.12000     -5.9747073E-08
   24.18000     -5.9647128E-08
   24.24000     -5.9493718E-08
   24.30000     -5.9271269E-08
   24.36000     -5.8960211E-08
   24.42000     -5.8541904E-08
   24.48000     -5.8002740E-08
   24.54000     -5.7336504E-08
   24.60000     -5.6544568E-08
   24.66000     -5.5634189E-08
   24.72000     -5.4615793E-08
   24.78000     -5.3500266E-08
   24.84000     -5.2297057E-08
   24.90000     -5.1013426E-08
   24.96000     -4.9654709E-08
   25.02000     -4.8225019E-08
   25.08000     -4.6727866E-08
   25.14000     -4.5166210E-08
   25.20000     -4.3542087E-08
   25.26000     -4.1856271E-08
   25.32000     -4.0108830E-08
   25.38000     -3.8301170E-08
   25.44000     -3.6439463E-08
   25.50000     -3.4538385E-08
   25.56000     -3.2623191E-08
   25.62000     -3.0728188E-08
   25.68000     -2.8890652E-08
   25.74000     -2.7141182E-08
   25.80000     -2.5493467E-08
   25.86000     -2.3937426E-08
   25.92000     -2.2439190E-08
   25.98000     -2.0949265E-08
   26.04000     -1.9417191E-08
   26.10000     -1.7808480E-08
   26.16000     -1.6118333E-08
   26.22000     -1.4377385E-08
   26.28000     -1.2647031E-08
   26.34000     -1.1005143E-08
   26.40000     -9.5260351E-09
   26.46000     -8.2606206E-09
   26.52000     -7.2229986E-09
   26.58000     -6.3881154E-09
   26.64000     -5.7019238E-09
   26.70000     -5.1014077E-09
   26.76000     -4.5382658E-09
   26.82000     -3.9982835E-09
   26.88000     -3.5093712E-09
   26.94000     -3.1348337E-09
   27.00000     -2.9535800E-09
   27.06000     -3.0337404E-09
   27.12000     -3.4087395E-09
   27.18000     -4.0642032E-09
   27.24000     -4.9403694E-09
   27.30000     -5.9493472E-09
   27.36000     -7.0014874E-09
   27.42000     -8.0321128E-09
   27.48000     -9.0197378E-09
   27.54000     -9.9897273E-09
   27.60000     -1.1002117E-08
   27.66000     -1.2127535E-08
   27.72000     -1.3419285E-08
   27.78000     -1.4891240E-08
   27.84000     -1.6509578E-08
   27.90000     -1.8201900E-08
   27.96000     -1.9881130E-08
   28.02000     -2.1476009E-08
   28.08000     -2.2957115E-08
   28.14000     -2.4348310E-08
   28.20000     -2.5718553E-08
   28.26000     -2.7155984E-08
   28.32000     -2.8732927E-08
   28.38000     -3.0474023E-08
   28.44000     -3.2339074E-08
   28.50000     -3.4227327E-08
   28.56000     -3.6002604E-08
   28.62000     -3.7531727E-08
   28.68000     -3.8723908E-08
   28.74000     -3.9558266E-08
   28.80000     -4.0090221E-08
   28.86000     -4.0434230E-08
   28.92000     -4.0727969E-08
   28.98000     -4.1089304E-08
   29.04000     -4.1580062E-08
   29.10000     -4.2188297E-08
   29.16000     -4.2834980E-08
   29.22000     -4.3402473E-08
   29.28000     -4.3775032E-08
   29.34000     -4.3877577E-08
   29.40000     -4.3700041E-08
   29.46000     -4.3299782E-08
   29.52000     -4.2782265E-08
   29.58000     -4.2267231E-08
   29.64000     -4.1852015E-08
   29.70000     -4.1583931E-08
   29.76000     -4.1450217E-08
   29.82000     -4.1388226E-08
   29.88000     -4.1312045E-08
   29.94000     -4.1146475E-08
   30.00000     -4.0856925E-08
   30.06000     -4.0464929E-08
   30.12000     -4.0043624E-08
   30.18000     -3.9694349E-08
   30.24000     -3.9512397E-08
   30.30000     -3.9554052E-08
   30.36000     -3.9816872E-08
   30.42000     -4.0240295E-08
   30.48000     -4.0726167E-08
   30.54000     -4.1171226E-08
   30.60000     -4.1499675E-08
   30.66000     -4.1684395E-08
   30.72000     -4.1750351E-08
   30.78000     -4.1760316E-08
   30.84000     -4.1789175E-08
   30.90000     -4.1896044E-08
   30.96000     -4.2103196E-08
   31.02000     -4.2387818E-08
   31.08000     -4.2688509E-08
   31.14000     -4.2924039E-08
   31.20000     -4.3018741E-08
   31.26000     -4.2926935E-08
   31.32000     -4.2648939E-08
   31.38000     -4.2233296E-08
   31.44000     -4.1764014E-08
   31.50000     -4.1336477E-08
   31.56000     -4.1029786E-08
   31.62000     -4.0884842E-08
   31.68000     -4.0895689E-08
   31.74000     -4.1016811E-08
   31.80000     -4.1183444E-08
   31.86000     -4.1337181E-08
   31.92000     -4.1447930E-08
   31.98000     -4.1524885E-08
   32.04000     -4.1613834E-08
   32.10000     -4.1782695E-08
   32.16000     -4.2101096E-08
   32.22000     -4.2620695E-08
   32.28000     -4.3361965E-08
   32.34000     -4.4310202E-08
   32.40000     -4.5420304E-08
   32.46000     -4.6627616E-08
   32.52000     -4.7860880E-08
   32.58000     -4.9053824E-08
   32.64000     -5.0153229E-08
   32.70000     -5.1122807E-08
   32.76000     -5.1943541E-08
   32.82000     -5.2611526E-08
   32.88000     -5.3134396E-08
   32.94000     -5.3527092E-08
   33.00000     -5.3807454E-08
   33.06000     -5.3992000E-08
   33.12000     -5.4092279E-08
   33.18000     -5.4112185E-08
   33.24000     -5.4046506E-08
   33.30000     -5.3881141E-08
   33.36000     -5.3595347E-08
   33.42000     -5.3166556E-08
   33.48000     -5.2577754E-08
   33.54000     -5.1826618E-08
   33.60000     -5.0934094E-08
   33.66000     -4.9949303E-08
   33.72000     -4.8947587E-08
   33.78000     -4.8020500E-08
   33.84000     -4.7259270E-08
   33.90000     -4.6736339E-08
   33.96000     -4.6490893E-08
   34.02000     -4.6523500E-08
   34.08000     -4.6801649E-08
   34.14000     -4.7274376E-08
   34.20000     -4.7890701E-08
   34.26000     -4.8615700E-08
   34.32000     -4.9439141E-08
   34.38000     -5.0374279E-08
   34.44000     -5.1447689E-08
   34.50000     -5.2683763E-08
   34.56000     -5.4088932E-08
   34.62000     -5.5640932E-08
   34.68000     -5.7287060E-08
   34.74000     -5.8952839E-08
   34.80000     -6.0559231E-08
   34.86000     -6.2043377E-08
   34.92000     -6.3376078E-08
   34.98000     -6.4569818E-08
   35.04000     -6.5673980E-08
   35.10000     -6.6758027E-08
   35.16000     -6.7888060E-08
   35.22000     -6.9103997E-08
   35.28000     -7.0404759E-08
   35.34000     -7.1745859E-08
   35.40000     -7.3049833E-08
   35.46000     -7.4225980E-08
   35.52000     -7.5193377E-08
   35.58000     -7.5900509E-08
   35.64000     -7.6336221E-08
   35.70000     -7.6529176E-08
   35.76000     -7.6536679E-08
   35.82000     -7.6426680E-08
   35.88000     -7.6258530E-08
   35.94000     -7.6068524E-08
   36.00000     -7.5864044E-08
   36.06000     -7.5627177E-08
   36.12000     -7.5325325E-08
   36.18000     -7.4924195E-08
   36.24000     -7.4398159E-08
   36.30000     -7.3734846E-08
   36.36000     -7.2933247E-08
   36.42000     -7.1997384E-08
   36.48000     -7.0928841E-08
   36.54000     -6.9721729E-08
   36.60000     -6.8362240E-08
   36.66000     -6.6833294E-08
   36.72000     -6.5122386E-08
   36.78000     -6.3229869E-08
   36.84000     -6.1174212E-08
   36.90000     -5.8991745E-08
   36.96000     -5.6730354E-08
   37.02000     -5.4438893E-08
   37.08000     -5.2156061E-08
   37.14000     -4.9902908E-08
   37.20000     -4.7681997E-08
   37.26000     -4.5483635E-08
   37.32000     -4.3296613E-08
   37.38000     -4.1119218E-08
   37.44000     -3.8965918E-08
   37.50000     -3.6867167E-08
   37.56000     -3.4862239E-08
   37.62000     -3.2987916E-08
   37.68000     -3.1267096E-08
   37.74000     -2.9701573E-08
   37.80000     -2.8271664E-08
   37.86000     -2.6943248E-08
   37.92000     -2.5680333E-08
   37.98000     -2.4459348E-08
   38.04000     -2.3280439E-08
   38.10000     -2.2171548E-08
   38.16000     -2.1183066E-08
   38.22000     -2.0373882E-08
   38.28000     -1.9792816E-08
   38.34000     -1.9461464E-08
   38.40000     -1.9364444E-08
   38.46000     -1.9450663E-08
   38.52000     -1.9645512E-08
   38.58000     -1.9870136E-08
   38.64000     -2.0061529E-08
   38.70000     -2.0187288E-08
   38.76000     -2.0250852E-08
   38.82000     -2.0286334E-08
   38.88000     -2.0345281E-08
   38.94000     -2.0479717E-08
   39.00000     -2.0726617E-08
   39.06000     -2.1098039E-08
   39.12000     -2.1579448E-08
   39.18000     -2.2136231E-08
   39.24000     -2.2726196E-08
   39.30000     -2.3313966E-08
   39.36000     -2.3882652E-08
   39.42000     -2.4439027E-08
   39.48000     -2.5010586E-08
   39.54000     -2.5635657E-08
   39.60000     -2.6350042E-08
   39.66000     -2.7174829E-08
   39.72000     -2.8109355E-08
   39.78000     -2.9131334E-08
   39.84000     -3.0203616E-08
   39.90000     -3.1284785E-08
   39.96000     -3.2339852E-08
   40.02000     -3.3347430E-08
   40.08000     -3.4301383E-08
   40.14000     -3.5206963E-08
   40.20000     -3.6073402E-08
   40.26000     -3.6906275E-08
   40.32000     -3.7702755E-08
   40.38000     -3.8451802E-08
   40.44000     -3.9139003E-08
   40.50000     -3.9753747E-08
   40.56000     -4.0295319E-08
   40.62000     -4.0774843E-08
   40.68000     -4.1211845E-08
   40.74000     -4.1626752E-08
   40.80000     -4.2032266E-08
   40.86000     -4.2427217E-08
   40.92000     -4.2795083E-08
   40.98000     -4.3107541E-08
   41.04000     -4.3331447E-08
   41.10000     -4.3436778E-08
   41.16000     -4.3403197E-08
   41.22000     -4.3224013E-08
   41.28000     -4.2907192E-08
   41.34000     -4.2473786E-08
   41.40000     -4.1954255E-08
   41.46000     -4.1383263E-08
   41.52000     -4.0793637E-08
   41.58000     -4.0210541E-08
   41.64000     -3.9647102E-08
   41.70000     -3.9102609E-08
   41.76000     -3.8563876E-08
   41.82000     -3.8009297E-08
   41.88000     -3.7414576E-08
   41.94000     -3.6758724E-08
   42.00000     -3.6029014E-08
   42.06000     -3.5224335E-08
   42.12000     -3.4356521E-08
   42.18000     -3.3449719E-08
   42.24000     -3.2537699E-08
   42.30000     -3.1659077E-08
   42.36000     -3.0850796E-08
   42.42000     -3.0140722E-08
   42.48000     -2.9541026E-08
   42.54000     -2.9044523E-08
   42.60000     -2.8625710E-08
   42.66000     -2.8247285E-08
   42.72000     -2.7870955E-08
   42.78000     -2.7469500E-08
   42.84000     -2.7036046E-08
   42.90000     -2.6586893E-08
   42.96000     -2.6156330E-08
   43.02000     -2.5784983E-08
   43.08000     -2.5505827E-08
   43.14000     -2.5333296E-08
   43.20000     -2.5259718E-08
   43.26000     -2.5260315E-08
   43.32000     -2.5304516E-08
   43.38000     -2.5368747E-08
   43.44000     -2.5445548E-08
   43.50000     -2.5545701E-08
   43.56000     -2.5693046E-08
   43.62000     -2.5914400E-08
   43.68000     -2.6228408E-08
   43.74000     -2.6636966E-08
   43.80000     -2.7121688E-08
   43.86000     -2.7646326E-08
   43.92000     -2.8164711E-08
   43.98000     -2.8632588E-08
   44.04000     -2.9020605E-08
   44.10000     -2.9324760E-08
   44.16000     -2.9570423E-08
   44.22000     -2.9807325E-08
   44.28000     -3.0095677E-08
   44.34000     -3.0487239E-08
   44.40000     -3.1007897E-08
   44.46000     -3.1648707E-08
   44.52000     -3.2369631E-08
   44.58000     -3.3115391E-08
   44.64000     -3.3837740E-08
   44.70000     -3.4515789E-08
   44.76000     -3.5166568E-08
   44.82000     -3.5841865E-08
   44.88000     -3.6612480E-08
   44.94000     -3.7545551E-08
   45.00000     -3.8682327E-08
   45.06000     -4.0023167E-08
   45.12000     -4.1523602E-08
   45.18000     -4.3102006E-08
   45.24000     -4.4656414E-08
   45.30000     -4.6086161E-08
   45.36000     -4.7313016E-08
   45.42000     -4.8296595E-08
   45.48000     -4.9039926E-08
   45.54000     -4.9582994E-08
   45.60000     -4.9985509E-08
   45.66000     -5.0303441E-08
   45.72000     -5.0566776E-08
   45.78000     -5.0766321E-08
   45.84000     -5.0855157E-08
   45.90000     -5.0765408E-08
   45.96000     -5.0435233E-08
   46.02000     -4.9836537E-08
   46.08000     -4.8993034E-08
   46.14000     -4.7981484E-08
   46.20000     -4.6915169E-08
   46.26000     -4.5915552E-08
   46.32000     -4.5082544E-08
   46.38000     -4.4473918E-08
   46.44000     -4.4100581E-08
   46.50000     -4.3937948E-08
   46.56000     -4.3947662E-08
   46.62000     -4.4100940E-08
   46.68000     -4.4395247E-08
   46.74000     -4.4859547E-08
   46.80000     -4.5547704E-08
   46.86000     -4.6523226E-08
   46.92000     -4.7840256E-08
   46.98000     -4.9525980E-08
   47.04000     -5.1568698E-08
   47.10000     -5.3914519E-08
   47.16000     -5.6473940E-08
   47.22000     -5.9137182E-08
   47.28000     -6.1794516E-08
   47.34000     -6.4355838E-08
   47.40000     -6.6763320E-08
   47.46000     -6.8992861E-08
   47.52000     -7.1044518E-08
   47.58000     -7.2925914E-08
   47.64000     -7.4635665E-08
   47.70000     -7.6153228E-08
   47.76000     -7.7438550E-08
   47.82000     -7.8440493E-08
   47.88000     -7.9109697E-08
   47.94000     -7.9410682E-08
   48.00000     -7.9329510E-08
   48.06000     -7.8875708E-08
   48.12000     -7.8079687E-08
   48.18000     -7.6987384E-08
   48.24000     -7.5653560E-08
   48.30000     -7.4134732E-08
   48.36000     -7.2482486E-08
   48.42000     -7.0738317E-08
   48.48000     -6.8931868E-08
   48.54000     -6.7083619E-08
   48.60000     -6.5212014E-08
   48.66000     -6.3342704E-08
   48.72000     -6.1516772E-08
   48.78000     -5.9795113E-08
   48.84000     -5.8257942E-08
   48.90000     -5.7000907E-08
   48.96000     -5.6130336E-08
   49.02000     -5.5759770E-08
   49.08000     -5.6008254E-08
   49.14000     -5.6999156E-08
   49.20000     -5.8858241E-08
   49.26000     -6.1711297E-08
   49.32000     -6.5683913E-08
   49.38000     -7.0906978E-08
   49.44000     -7.7529982E-08
   49.50000     -8.5740432E-08
   49.56000     -9.5783840E-08
   49.62000     -1.0797741E-07
   49.68000     -1.2271316E-07
   49.74000     -1.4045139E-07
   49.80000     -1.6171144E-07
   49.86000     -1.8706818E-07
   49.92000     -2.1716055E-07
   49.98000     -2.5271277E-07
   50.04000     -2.9456240E-07
   50.10000     -3.4368796E-07
   50.16000     -4.0122964E-07
   50.22000     -4.6850278E-07
   50.28000     -5.4700649E-07
   50.34000     -6.3843407E-07
   50.40000     -7.4468716E-07
   50.46000     -8.6789612E-07
   50.52000     -1.0104445E-06
   50.58000     -1.1749977E-06
   50.64000     -1.3645355E-06
   50.70000     -1.5823894E-06
   50.76000     -1.8322820E-06
   50.82000     -2.1183698E-06
   50.88000     -2.4452806E-06
   50.94000     -2.8181491E-06
   51.00000     -3.2426506E-06
   51.06000     -3.7250315E-06
   51.12000     -4.2721476E-06
   51.18000     -4.8915049E-06
   51.24000     -5.5912992E-06
   51.30000     -6.3804609E-06
   51.36000     -7.2686903E-06
   51.42000     -8.2664901E-06
   51.48000     -9.3851959E-06
   51.54000     -1.0637001E-05
   51.60000     -1.2034980E-05
   51.66000     -1.3593097E-05
   51.72000     -1.5326215E-05
   51.78000     -1.7250093E-05
   51.84000     -1.9381398E-05
   51.90000     -2.1737702E-05
   51.96000     -2.4337500E-05
   52.02000     -2.7200196E-05
   52.08000     -3.0346064E-05
   52.14000     -3.3796186E-05
   52.20000     -3.7572350E-05
   52.26000     -4.1696974E-05
   52.32000     -4.6192985E-05
   52.38000     -5.1083734E-05
   52.44000     -5.6392884E-05
   52.50000     -6.2144311E-05
   52.56000     -6.8361951E-05
   52.62000     -7.5069664E-05
   52.68000     -8.2291059E-05
   52.74000     -9.0049311E-05
   52.80000     -9.8366982E-05
   52.86000     -1.0726578E-04
   52.92000     -1.1676635E-04
   52.98000     -1.2688800E-04
   53.04000     -1.3764847E-04
   53.10000     -1.4906364E-04
   53.16000     -1.6114731E-04
   53.22000     -1.7391102E-04
   53.28000     -1.8736374E-04
   53.34000     -2.0151172E-04
   53.40000     -2.1635830E-04
   53.46000     -2.3190348E-04
   53.52000     -2.4814394E-04
   53.58000     -2.6507265E-04
   53.64000     -2.8267878E-04
   53.70000     -3.0094763E-04
   53.76000     -3.1986053E-04
   53.82000     -3.3939455E-04
   53.88000     -3.5952276E-04
   53.94000     -3.8021401E-04
   54.00000     -4.0143295E-04
   54.06000     -4.2314024E-04
   54.12000     -4.4529254E-04
   54.18000     -4.6784259E-04
   54.24000     -4.9073977E-04
   54.30000     -5.1392976E-04
   54.36000     -5.3735514E-04
   54.42000     -5.6095567E-04
   54.48000     -5.8466842E-04
   54.54000     -6.0842856E-04
   54.60000     -6.3216948E-04
   54.66000     -6.5582321E-04
   54.72000     -6.7932106E-04
   54.78000     -7.0259412E-04
   54.84000     -7.2557363E-04
   54.90000     -7.4819155E-04
   54.96000     -7.7038095E-04
   55.02000     -7.9207664E-04
   55.08000     -8.1321591E-04
   55.14000     -8.3373860E-04
   55.20000     -8.5358793E-04
   55.26000     -8.7271078E-04
   55.32000     -8.9105812E-04
   55.38000     -9.0858532E-04
   55.44000     -9.2525274E-04
   55.50000     -9.4102597E-04
   55.56000     -9.5587614E-04