  -2.400000      0.0000000E+00
  -2.340000      0.0000000E+00
  -2.280000      0.0000000E+00
  -2.220000      0.0000000E+00
  -2.160000      0.0000000E+00
  -2.100000      0.0000000E+00
  -2.040000      0.0000000E+00
  -1.980000      3.1157139E-25
  -1.920000     -1.1253573E-23
  -1.860000     -1.3726115E-22
  -1.800000     -7.2657411E-22
  -1.740000     -2.2791502E-21
  -1.680000     -4.2317005E-21
  -1.620000     -2.1467385E-21
  -1.560000      1.4198914E-20
  -1.500000      5.4519080E-20
  -1.440000      1.0608580E-19
  -1.380000      1.0325247E-19
  -1.320000     -7.4668696E-20
  -1.260000     -5.1996594E-19
  -1.200000     -1.1070999E-18
  -1.140000     -1.2998691E-18
  -1.080000     -2.1158665E-19
  -1.020000      2.8070010E-18
 -0.9600000      7.0809638E-18
 -0.9000000      9.6755457E-18
 -0.8400000      5.8165864E-18
 -0.7800000     -8.3227025E-18
 -0.7200000     -3.0902396E-17
 -0.6600000     -5.0516913E-17
 -0.6000000     -4.7494434E-17
 -0.5400000     -3.5895449E-18
 -0.4800000      8.1736271E-17
 -0.4200000      1.7726642E-16
 -0.3600000      2.2126130E-16
 -0.3000000      1.4708118E-16
 -0.2400000     -7.1428938E-17
 -0.1800000     -3.7739254E-16
 -0.1200000     -6.2404522E-16
 -5.9999999E-02 -6.2709565E-16
  0.0000000E+00 -2.6856440E-16
  5.9999999E-02  3.9567193E-16
  0.1200000      1.0959453E-15
  0.1800000      1.4314284E-15
  0.2400000      1.0701062E-15
  0.3000000     -1.8034087E-17
  0.3600000     -1.4301427E-15
  0.4200000     -2.4192311E-15
  0.4800000     -2.2224599E-15
  0.5400000     -5.1097374E-16
  0.6000000      2.2627293E-15
  0.6600000      4.8480185E-15
  0.7200000      5.6154867E-15
  0.7800000      3.3106154E-15
  0.8400000     -2.1577122E-15
  0.9000000     -9.2787530E-15
  0.9600000     -1.5151192E-14
   1.020000     -1.6404760E-14
   1.080000     -1.0587257E-14
   1.140000      2.4780118E-15
   1.200000      1.9945478E-14
   1.260000      3.6259644E-14
   1.320000      4.4641503E-14
   1.380000      3.9421445E-14
   1.440000      1.8485649E-14
   1.500000     -1.5099187E-14
   1.560000     -5.3087644E-14
   1.620000     -8.3998428E-14
   1.680000     -9.6584958E-14
   1.740000     -8.3720594E-14
   1.800000     -4.5238217E-14
   1.860000      1.1496974E-14
   1.920000      7.3674126E-14
   1.980000      1.2704962E-13
   2.040000      1.6022534E-13
   2.100000      1.6729269E-13
   2.160000      1.4762433E-13
   2.220000      1.0301125E-13
   2.280000      3.3910425E-14
   2.340000     -6.2474399E-14
   2.400000     -1.8982845E-13
   2.460000     -3.4531587E-13
   2.520000     -5.0906870E-13
   2.580000     -6.3531792E-13
   2.640000     -6.5157813E-13
   2.700000     -4.7168243E-13
   2.760000     -2.4917983E-14
   2.820000      7.0269940E-13
   2.880000      1.6263932E-12
   2.940000      2.5372653E-12
   3.000000      3.1125475E-12
   3.060000      2.9747866E-12
   3.120000      1.7998429E-12
   3.180000     -5.4527807E-13
   3.240000     -3.8723933E-12
   3.300000     -7.5984462E-12
   3.360000     -1.0773095E-11
   3.420000     -1.2231599E-11
   3.480000     -1.0862256E-11
   3.540000     -5.9385604E-12
   3.600000      2.5639629E-12
   3.660000      1.3756294E-11
   3.720000      2.5804244E-11
   3.780000      3.6113633E-11
   3.840000      4.1721473E-11
   3.900000      3.9838206E-11
   3.960000      2.8456603E-11
   4.020000      6.9315101E-12
   4.080000     -2.3563174E-11
   4.140000     -5.9786349E-11
   4.200000     -9.6468118E-11
   4.260000     -1.2670102E-10
   4.320000     -1.4272492E-10
   4.380000     -1.3709527E-10
   4.440000     -1.0414317E-10
   4.500000     -4.1535820E-11
   4.560000      4.8345414E-11
   4.620000      1.5753716E-10
   4.680000      2.7243294E-10
   4.740000      3.7470604E-10
   4.800000      4.4320739E-10
   4.860000      4.5661522E-10
   4.920000      3.9643977E-10
   4.980000      2.4988989E-10
   5.040000      1.2127112E-11
   5.100000     -3.1244840E-10
   5.160000     -7.1005690E-10
   5.220000     -1.1585249E-09
   5.280000     -1.6292258E-09
   5.340000     -2.0897086E-09
   5.400000     -2.5067246E-09
   5.460000     -2.8493632E-09
   5.520000     -3.0920488E-09
   5.580000     -3.2171621E-09
   5.640000     -3.2170568E-09
   5.700000     -3.0952632E-09
   5.760000     -2.8666984E-09
   5.820000     -2.5567912E-09
   5.880000     -2.1995341E-09
   5.940000     -1.8346232E-09
   6.000000     -1.5039608E-09
   6.060000     -1.2478659E-09
   6.120000     -1.1013510E-09
   6.180000     -1.0907784E-09
   6.240000     -1.2311390E-09
   6.300000     -1.5241427E-09
   6.360000     -1.9572852E-09
   6.420000     -2.5040625E-09
   6.480000     -3.1255039E-09
   6.540000     -3.7731520E-09
   6.600000     -4.3934762E-09
   6.660000     -4.9334874E-09
   6.720000     -5.3470073E-09
   6.780000     -5.6007887E-09
   6.840000     -5.6794631E-09
   6.900000     -5.5883094E-09
   6.960000     -5.3530811E-09
   7.020000     -5.0165836E-09
   7.080000     -4.6323394E-09
   7.140000     -4.2563300E-09
   7.200000     -3.9382959E-09
   7.260000     -3.7142855E-09
   7.320000     -3.6019243E-09
   7.380000     -3.5993155E-09
   7.440000     -3.6876517E-09
   7.500000     -3.8367740E-09
   7.560000     -4.0122945E-09
   7.620000     -4.1826604E-09
   7.680000     -4.3247241E-09
   7.740000     -4.4269322E-09
   7.800000     -4.4899147E-09
   7.860000     -4.5248472E-09
   7.920000     -4.5503348E-09
   7.980000     -4.5886268E-09
   8.040000     -4.6618296E-09
   8.100000     -4.7885691E-09
   8.160000     -4.9813433E-09
   8.220000     -5.2447109E-09
   8.280000     -5.5744405E-09
   8.340000     -5.9576917E-09
   8.400000     -6.3742362E-09
   8.460000     -6.7985257E-09
   8.520000     -7.2022557E-09
   8.580000     -7.5569417E-09
   8.640000     -7.8360820E-09
   8.700000     -8.0166496E-09
   8.760000     -8.0799394E-09
   8.820000     -8.0120159E-09
   8.880000     -7.8040916E-09
   8.940000     -7.4530409E-09
   9.000000     -6.9620323E-09
   9.060000     -6.3409944E-09
   9.120000     -5.6064642E-09
   9.180000     -4.7803956E-09
   9.240000     -3.8877155E-09
   9.300000     -2.9527851E-09
   9.360000     -1.9952937E-09
   9.420000     -1.0264575E-09
   9.480000     -4.6505660E-11
   9.540000      9.5569497E-10
   9.600000      2.0004451E-09
   9.660000      3.1126746E-09
   9.720000      4.3159778E-09
   9.780000      5.6266813E-09
   9.840000      7.0495316E-09
   9.900000      8.5762188E-09
   9.960000      1.0187164E-08
   10.02000      1.1856002E-08
   10.08000      1.3555403E-08
   10.14000      1.5262497E-08
   10.20000      1.6962421E-08
   10.26000      1.8649221E-08
   10.32000      2.0324205E-08
   10.38000      2.1992671E-08
   10.44000      2.3660178E-08
   10.50000      2.5329504E-08
   10.56000      2.6998899E-08
   10.62000      2.8661670E-08
   10.68000      3.0306690E-08
   10.74000      3.1919200E-08
   10.80000      3.3481520E-08
   10.86000      3.4973478E-08
   10.92000      3.6372690E-08
   10.98000      3.7655120E-08
   11.04000      3.8796060E-08
   11.10000      3.9771738E-08
   11.16000      4.0561297E-08
   11.22000      4.1148866E-08
   11.28000      4.1525421E-08
   11.34000      4.1690100E-08
   11.40000      4.1650690E-08
   11.46000      4.1423075E-08
   11.52000      4.1029420E-08
   11.58000      4.0495056E-08
   11.64000      3.9844455E-08
   11.70000      3.9097191E-08
   11.76000      3.8265160E-08
   11.82000      3.7352276E-08
   11.88000      3.6357243E-08
   11.94000      3.5278848E-08
   12.00000      3.4122074E-08
   12.06000      3.2902662E-08
   12.12000      3.1648124E-08
   12.18000      3.0394286E-08
   12.24000      2.9178246E-08
   12.30000      2.8029902E-08
   12.36000      2.6964990E-08
   12.42000      2.5981771E-08
   12.48000      2.5062333E-08
   12.54000      2.4177826E-08
   12.60000      2.3295838E-08
   12.66000      2.2387839E-08
   12.72000      2.1434953E-08
   12.78000      2.0431211E-08
   12.84000      1.9384036E-08
   12.90000      1.8312212E-08
   12.96000      1.7241685E-08
   13.02000      1.6199774E-08
   13.08000      1.5208675E-08
   13.14000      1.4279593E-08
   13.20000      1.3409150E-08
   13.26000      1.2579542E-08
   13.32000      1.1763026E-08
   13.38000      1.0929990E-08
   13.44000      1.0058392E-08
   13.50000      9.1416208E-09
   13.56000      8.1919627E-09
   13.62000      7.2381825E-09
   13.68000      6.3175785E-09
   13.74000      5.4648215E-09
   13.80000      4.7010231E-09
   13.86000      4.0264925E-09
   13.92000      3.4195300E-09
   13.98000      2.8416791E-09
   14.04000      2.2478273E-09
   14.10000      1.5980477E-09
   14.16000      8.6758362E-10
   14.22000      5.2025505E-11
   14.28000     -8.3366974E-10
   14.34000     -1.7616864E-09
   14.40000     -2.7010179E-09
   14.46000     -3.6270213E-09
   14.52000     -4.5277990E-09
   14.58000     -5.4055787E-09
   14.64000     -6.2730519E-09
   14.70000     -7.1463560E-09
   14.76000     -8.0374445E-09
   14.82000     -8.9486747E-09
   14.88000     -9.8715320E-09
   14.94000     -1.0789944E-08
   15.00000     -1.1686982E-08
   15.06000     -1.2552591E-08
   15.12000     -1.3389543E-08
   15.18000     -1.4215362E-08
   15.24000     -1.5059218E-08
   15.30000     -1.5954509E-08
   15.36000     -1.6929331E-08
   15.42000     -1.7997918E-08
   15.48000     -1.9155912E-08
   15.54000     -2.0381142E-08
   15.60000     -2.1639787E-08
   15.66000     -2.2896007E-08
   15.72000     -2.4121960E-08
   15.78000     -2.5305035E-08
   15.84000     -2.6450124E-08
   15.90000     -2.7576352E-08
   15.96000     -2.8709456E-08
   16.02000     -2.9872353E-08
   16.08000     -3.1076876E-08
   16.14000     -3.2319271E-08
   16.20000     -3.3580722E-08
   16.26000     -3.4832709E-08
   16.32000     -3.6045311E-08
   16.38000     -3.7195754E-08
   16.44000     -3.8274536E-08
   16.50000     -3.9287222E-08
   16.56000     -4.0251791E-08
   16.62000     -4.1192667E-08
   16.68000     -4.2133632E-08
   16.74000     -4.3091770E-08
   16.80000     -4.4073811E-08
   16.86000     -4.5075176E-08
   16.92000     -4.6081190E-08
   16.98000     -4.7069655E-08
   17.04000     -4.8013931E-08
   17.10000     -4.8886065E-08
   17.16000     -4.9659498E-08
   17.22000     -5.0310902E-08
   17.28000     -5.0820688E-08
   17.34000     -5.1172186E-08
   17.40000     -5.1350000E-08
   17.46000     -5.1338702E-08
   17.52000     -5.1123081E-08
   17.58000     -5.0690474E-08
   17.64000     -5.0034568E-08
   17.70000     -4.9159045E-08
   17.76000     -4.8079123E-08
   17.82000     -4.6819952E-08
   17.88000     -4.5412101E-08
   17.94000     -4.3885876E-08
   18.00000     -4.2266688E-08
   18.06000     -4.0573237E-08
   18.12000     -3.8818936E-08
   18.18000     -3.7015706E-08
   18.24000     -3.5178282E-08
   18.30000     -3.3327272E-08
   18.36000     -3.1489684E-08
   18.42000     -2.9696738E-08
   18.48000     -2.7979549E-08
   18.54000     -2.6364054E-08
   18.60000     -2.4866619E-08
   18.66000     -2.3491715E-08
   18.72000     -2.2232305E-08
   18.78000     -2.1072681E-08
   18.84000     -1.9992646E-08
   18.90000     -1.8971397E-08
   18.96000     -1.7989874E-08
   19.02000     -1.7031212E-08
   19.08000     -1.6080087E-08
   19.14000     -1.5122369E-08
   19.20000     -1.4146218E-08
   19.26000     -1.3144723E-08
   19.32000     -1.2118978E-08
   19.38000     -1.1079857E-08
   19.44000     -1.0047163E-08
   19.50000     -9.0459382E-09
   19.56000     -8.1010159E-09
   19.62000     -7.2315967E-09
   19.68000     -6.4474617E-09
   19.74000     -5.7476721E-09
   19.80000     -5.1217439E-09
   19.86000     -4.5527471E-09
   19.92000     -4.0216235E-09
   19.98000     -3.5119865E-09
   20.04000     -3.0144776E-09
   20.10000     -2.5295144E-09
   20.16000     -2.0672379E-09
   20.22000     -1.6440725E-09
   20.28000     -1.2765148E-09
   20.34000     -9.7408070E-10
   20.40000     -7.3403950E-10
   20.46000     -5.4011706E-10
   20.52000     -3.6587161E-10
   20.58000     -1.8158150E-10
   20.64000      3.7823928E-11
   20.70000      3.0644778E-10
   20.76000      6.2450600E-10
   20.82000      9.7921782E-10
   20.88000      1.3487726E-09
   20.94000      1.7080743E-09
   21.00000      2.0349142E-09
   21.06000      2.3153264E-09
   21.12000      2.5469462E-09
   21.18000      2.7392866E-09
   21.24000      2.9103395E-09
   21.30000      3.0799434E-09
   21.36000      3.2617298E-09
   21.42000      3.4564682E-09
   21.48000      3.6496142E-09
   21.54000      3.8145003E-09
   21.60000      3.9204271E-09
   21.66000      3.9428407E-09
   21.72000      3.8718531E-09
   21.78000      3.7160177E-09
   21.84000      3.5001495E-09
   21.90000      3.2581744E-09
   21.96000      3.0235530E-09
   22.02000      2.8202407E-09
   22.08000      2.6565332E-09
   22.14000      2.5230495E-09
   22.20000      2.3950122E-09
   22.26000      2.2381830E-09
   22.32000      2.0172293E-09
   22.38000      1.7048453E-09
   22.44000      1.2896106E-09
   22.50000      7.8058932E-10
   22.56000      2.0722794E-10
   22.62000     -3.8577541E-10
   22.68000     -9.4758490E-10
   22.74000     -1.4321262E-09
   22.80000     -1.8080492E-09
   22.86000     -2.0652720E-09
   22.92000     -2.2164985E-09
   22.98000     -2.2933133E-09
   23.04000     -2.3377464E-09
   23.10000     -2.3913269E-09
   23.16000     -2.4843814E-09
   23.22000     -2.6284337E-09
   23.28000     -2.8138119E-09
   23.34000     -3.0130327E-09
   23.40000     -3.1886920E-09
   23.46000     -3.3031431E-09
   23.52000     -3.3269170E-09
   23.58000     -3.2437062E-09
   23.64000     -3.0514085E-09
   23.70000     -2.7602105E-09
   23.76000     -2.3893159E-09
   23.82000     -1.9635056E-09
   23.88000     -1.5098065E-09
   23.94000     -1.0539536E-09
   24.00000     -6.1652156E-10
   24.06000     -2.0935195E-10
   24.12000      1.6647253E-10
   24.18000      5.2002569E-10
   24.24000      8.6724677E-10
   24.30000      1.2261564E-09
   24.36000      1.6124038E-09
   24.42000      2.0365045E-09
   24.48000      2.5028863E-09
   24.54000      3.0096889E-09
   24.60000      3.5479901E-09
   24.66000      4.0999142E-09
   24.72000      4.6363553E-09
   24.78000      5.1158766E-09
   24.84000      5.4861578E-09
   24.90000      5.6883307E-09
   24.96000      5.6633152E-09
   25.02000      5.3586975E-09
   25.08000      4.7349338E-09
   25.14000      3.7704107E-09
   25.20000      2.4654259E-09
   25.26000      8.4509777E-10
   25.32000     -1.0393272E-09
   25.38000     -3.1117786E-09
   25.44000     -5.2761813E-09
   25.50000     -7.4249238E-09
   25.56000     -9.4500630E-09
   25.62000     -1.1255521E-08
   25.68000     -1.2768321E-08
   25.74000     -1.3947150E-08
   25.80000     -1.4787127E-08
   25.86000     -1.5320069E-08
   25.92000     -1.5610063E-08
   25.98000     -1.5744639E-08
   26.04000     -1.5822557E-08
   26.10000     -1.5939971E-08
   26.16000     -1.6177228E-08
   26.22000     -1.6588524E-08
   26.28000     -1.7196117E-08
   26.34000     -1.7989921E-08
   26.40000     -1.8932447E-08
   26.46000     -1.9968271E-08
   26.52000     -2.1036438E-08
   26.58000     -2.2083558E-08
   26.64000     -2.3074820E-08
   26.70000     -2.4000270E-08
   26.76000     -2.4874707E-08
   26.82000     -2.5731310E-08
   26.88000     -2.6611254E-08
   26.94000     -2.7552664E-08
   27.00000     -2.8582374E-08
   27.06000     -2.9712281E-08
   27.12000     -3.0940111E-08
   27.18000     -3.2252728E-08
   27.24000     -3.3629689E-08
   27.30000     -3.5045616E-08
   27.36000     -3.6471334E-08
   27.42000     -3.7874742E-08
   27.48000     -3.9222602E-08
   27.54000     -4.0483613E-08
   27.60000     -4.1632223E-08
   27.66000     -4.2652001E-08
   27.72000     -4.3537327E-08
   27.78000     -4.4293039E-08
   27.84000     -4.4932122E-08
   27.90000     -4.5472380E-08
   27.96000     -4.5932801E-08
   28.02000     -4.6330342E-08
   28.08000     -4.6677311E-08
   28.14000     -4.6979540E-08
   28.20000     -4.7235485E-08
   28.26000     -4.7436522E-08
   28.32000     -4.7568939E-08
   28.38000     -4.7617647E-08
   28.44000     -4.7571334E-08
   28.50000     -4.7427793E-08
   28.56000     -4.7197535E-08
   28.62000     -4.6903953E-08
   28.68000     -4.6578919E-08
   28.74000     -4.6254634E-08
   28.80000     -4.5954003E-08
   28.86000     -4.5683095E-08
   28.92000     -4.5428738E-08
   28.98000     -4.5162686E-08
   29.04000     -4.4851106E-08
   29.10000     -4.4466269E-08
   29.16000     -4.3996188E-08
   29.22000     -4.3449003E-08
   29.28000     -4.2850619E-08
   29.34000     -4.2236717E-08
   29.40000     -4.1641773E-08
   29.46000     -4.1088647E-08
   29.52000     -4.0581732E-08
   29.58000     -4.0105544E-08
   29.64000     -3.9629111E-08
   29.70000     -3.9114799E-08
   29.76000     -3.8529258E-08
   29.82000     -3.7853368E-08
   29.88000     -3.7088569E-08
   29.94000     -3.6257813E-08
   30.00000     -3.5401165E-08
   30.06000     -3.4567467E-08
   30.12000     -3.3804625E-08
   30.18000     -3.3151256E-08
   30.24000     -3.2631785E-08
   30.30000     -3.2255937E-08
   30.36000     -3.2022239E-08
   30.42000     -3.1923975E-08
   30.48000     -3.1955310E-08
   30.54000     -3.2115135E-08
   30.60000     -3.2407076E-08
   30.66000     -3.2835313E-08
   30.72000     -3.3397914E-08
   30.78000     -3.4080511E-08
   30.84000     -3.4853549E-08
   30.90000     -3.5675093E-08
   30.96000     -3.6498925E-08
   31.02000     -3.7285439E-08
   31.08000     -3.8011731E-08
   31.14000     -3.8677527E-08
   31.20000     -3.9305242E-08
   31.26000     -3.9934481E-08
   31.32000     -4.0612484E-08
   31.38000     -4.1382698E-08
   31.44000     -4.2273339E-08
   31.50000     -4.3287937E-08
   31.56000     -4.4400007E-08
   31.62000     -4.5554042E-08
   31.68000     -4.6674401E-08
   31.74000     -4.7681400E-08
   31.80000     -4.8511289E-08
   31.86000     -4.9134137E-08
   31.92000     -4.9563507E-08
   31.98000     -4.9854034E-08
   32.04000     -5.0087188E-08
   32.10000     -5.0349982E-08
   32.16000     -5.0713719E-08
   32.22000     -5.1219363E-08
   32.28000     -5.1873073E-08
   32.34000     -5.2651455E-08
   32.40000     -5.3512920E-08
   32.46000     -5.4410776E-08
   32.52000     -5.5304316E-08
   32.58000     -5.6166026E-08
   32.64000     -5.6984465E-08
   32.70000     -5.7763035E-08
   32.76000     -5.8514971E-08
   32.82000     -5.9255321E-08
   32.88000     -5.9991436E-08
   32.94000     -6.0714697E-08
   33.00000     -6.1396740E-08
   33.06000     -6.1992701E-08
   33.12000     -6.2451377E-08
   33.18000     -6.2729271E-08
   33.24000     -6.2803416E-08
   33.30000     -6.2677394E-08
   33.36000     -6.2377985E-08
   33.42000     -6.1943418E-08
   33.48000     -6.1408308E-08
   33.54000     -6.0791550E-08
   33.60000     -6.0092141E-08
   33.66000     -5.9293917E-08
   33.72000     -5.8376383E-08
   33.78000     -5.7326183E-08
   33.84000     -5.6144266E-08
   33.90000     -5.4846510E-08
   33.96000     -5.3458869E-08
   34.02000     -5.2010268E-08
   34.08000     -5.0526623E-08
   34.14000     -4.9027626E-08
   34.20000     -4.7526143E-08
   34.26000     -4.6028994E-08
   34.32000     -4.4538325E-08
   34.38000     -4.3053856E-08
   34.44000     -4.1576612E-08
   34.50000     -4.0114148E-08
   34.56000     -3.8685435E-08
   34.62000     -3.7322376E-08
   34.68000     -3.6065458E-08
   34.74000     -3.4953512E-08
   34.80000     -3.4010867E-08
   34.86000     -3.3237555E-08
   34.92000     -3.2607545E-08
   34.98000     -3.2076709E-08
   35.04000     -3.1597583E-08
   35.10000     -3.1134590E-08
   35.16000     -3.0673181E-08
   35.22000     -3.0219539E-08
   35.28000     -2.9792245E-08
   35.34000     -2.9411158E-08
   35.40000     -2.9089373E-08
   35.46000     -2.8831737E-08
   35.52000     -2.8639002E-08
   35.58000     -2.8513437E-08
   35.64000     -2.8461185E-08
   35.70000     -2.8489170E-08
   35.76000     -2.8598141E-08
   35.82000     -2.8776396E-08
   35.88000     -2.8998638E-08
   35.94000     -2.9231590E-08
   36.00000     -2.9444104E-08
   36.06000     -2.9616743E-08
   36.12000     -2.9746127E-08
   36.18000     -2.9842290E-08
   36.24000     -2.9921281E-08
   36.30000     -2.9997555E-08
   36.36000     -3.0080255E-08
   36.42000     -3.0174345E-08
   36.48000     -3.0283932E-08
   36.54000     -3.0413592E-08
   36.60000     -3.0564753E-08
   36.66000     -3.0728209E-08
   36.72000     -3.0876972E-08
   36.78000     -3.0964941E-08
   36.84000     -3.0934139E-08
   36.90000     -3.0728696E-08
   36.96000     -3.0310005E-08
   37.02000     -2.9666555E-08
   37.08000     -2.8815068E-08
   37.14000     -2.7794005E-08
   37.20000     -2.6654138E-08
   37.26000     -2.5450989E-08
   37.32000     -2.4240986E-08
   37.38000     -2.3079373E-08
   37.44000     -2.2016104E-08
   37.50000     -2.1087590E-08
   37.56000     -2.0306308E-08
   37.62000     -1.9653811E-08
   37.68000     -1.9083043E-08
   37.74000     -1.8531953E-08
   37.80000     -1.7944538E-08
   37.86000     -1.7290780E-08
   37.92000     -1.6576701E-08
   37.98000     -1.5840186E-08
   38.04000     -1.5135024E-08
   38.10000     -1.4511020E-08
   38.16000     -1.3999236E-08
   38.22000     -1.3607920E-08
   38.28000     -1.3328835E-08
   38.34000     -1.3148676E-08
   38.40000     -1.3058818E-08
   38.46000     -1.3058842E-08
   38.52000     -1.3153564E-08
   38.58000     -1.3346975E-08
   38.64000     -1.3637619E-08
   38.70000     -1.4018337E-08
   38.76000     -1.4480291E-08
   38.82000     -1.5018625E-08
   38.88000     -1.5636369E-08
   38.94000     -1.6344494E-08
   39.00000     -1.7158191E-08
   39.06000     -1.8091299E-08
   39.12000     -1.9151322E-08
   39.18000     -2.0336495E-08
   39.24000     -2.1634914E-08
   39.30000     -2.3024540E-08
   39.36000     -2.4473120E-08
   39.42000     -2.5938087E-08
   39.48000     -2.7367850E-08
   39.54000     -2.8706278E-08
   39.60000     -2.9900978E-08
   39.66000     -3.0913807E-08
   39.72000     -3.1730011E-08
   39.78000     -3.2361928E-08
   39.84000     -3.2845033E-08
   39.90000     -3.3227405E-08
   39.96000     -3.3556873E-08
   40.02000     -3.3870972E-08
   40.08000     -3.4193231E-08
   40.14000     -3.4535645E-08
   40.20000     -3.4903778E-08
   40.26000     -3.5299934E-08
   40.32000     -3.5721790E-08
   40.38000     -3.6157498E-08
   40.44000     -3.6581405E-08
   40.50000     -3.6955058E-08
   40.56000     -3.7235456E-08
   40.62000     -3.7388297E-08
   40.68000     -3.7400593E-08
   40.74000     -3.7286505E-08
   40.80000     -3.7083208E-08
   40.86000     -3.6838060E-08
   40.92000     -3.6592496E-08
   40.98000     -3.6369254E-08
   41.04000     -3.6167908E-08
   41.10000     -3.5969730E-08
   41.16000     -3.5749089E-08
   41.22000     -3.5486213E-08
   41.28000     -3.5176310E-08
   41.34000     -3.4832134E-08
   41.40000     -3.4479982E-08
   41.46000     -3.4151430E-08
   41.52000     -3.3874404E-08
   41.58000     -3.3666549E-08
   41.64000     -3.3532562E-08
   41.70000     -3.3465504E-08
   41.76000     -3.3450721E-08
   41.82000     -3.3471000E-08
   41.88000     -3.3511540E-08
   41.94000     -3.3564017E-08
   42.00000     -3.3629043E-08
   42.06000     -3.3716024E-08
   42.12000     -3.3839552E-08
   42.18000     -3.4012068E-08
   42.24000     -3.4234475E-08
   42.30000     -3.4488391E-08
   42.36000     -3.4734668E-08
   42.42000     -3.4921317E-08
   42.48000     -3.5000202E-08
   42.54000     -3.4947238E-08
   42.60000     -3.4777695E-08
   42.66000     -3.4549036E-08
   42.72000     -3.4348123E-08
   42.78000     -3.4266289E-08
   42.84000     -3.4370871E-08
   42.90000     -3.4683431E-08
   42.96000     -3.5171787E-08
   43.02000     -3.5757420E-08
   43.08000     -3.6334381E-08
   43.14000     -3.6793072E-08
   43.20000     -3.7042589E-08
   43.26000     -3.7027579E-08
   43.32000     -3.6737877E-08
   43.38000     -3.6210256E-08
   43.44000     -3.5521960E-08
   43.50000     -3.4775940E-08
   43.56000     -3.4079534E-08
   43.62000     -3.3520710E-08
   43.68000     -3.3148169E-08
   43.74000     -3.2961626E-08
   43.80000     -3.2915860E-08
   43.86000     -3.2937372E-08
   43.92000     -3.2948030E-08
   43.98000     -3.2887552E-08
   44.04000     -3.2727506E-08
   44.10000     -3.2472951E-08
   44.16000     -3.2152691E-08
   44.22000     -3.1802845E-08
   44.28000     -3.1450355E-08
   44.34000     -3.1102395E-08
   44.40000     -3.0744911E-08
   44.46000     -3.0350133E-08
   44.52000     -2.9889698E-08
   44.58000     -2.9348403E-08
   44.64000     -2.8733629E-08
   44.70000     -2.8077274E-08
   44.76000     -2.7429589E-08
   44.82000     -2.6846882E-08
   44.88000     -2.6376677E-08
   44.94000     -2.6044383E-08
   45.00000     -2.5845051E-08
   45.06000     -2.5742695E-08
   45.12000     -2.5678181E-08
   45.18000     -2.5584733E-08
   45.24000     -2.5407873E-08
   45.30000     -2.5124438E-08
   45.36000     -2.4754332E-08
   45.42000     -2.4359817E-08
   45.48000     -2.4030783E-08
   45.54000     -2.3859561E-08
   45.60000     -2.3913213E-08
   45.66000     -2.4212774E-08
   45.72000     -2.4726610E-08
   45.78000     -2.5379693E-08
   45.84000     -2.6074696E-08
   45.90000     -2.6717096E-08
   45.96000     -2.7236153E-08
   46.02000     -2.7596666E-08
   46.08000     -2.7800358E-08
   46.14000     -2.7879064E-08
   46.20000     -2.7883074E-08
   46.26000     -2.7867623E-08
   46.32000     -2.7879757E-08
   46.38000     -2.7947419E-08
   46.44000     -2.8072897E-08
   46.50000     -2.8232765E-08
   46.56000     -2.8385234E-08
   46.62000     -2.8483459E-08
   46.68000     -2.8490724E-08
   46.74000     -2.8391931E-08
   46.80000     -2.8196828E-08
   46.86000     -2.7933609E-08
   46.92000     -2.7635533E-08
   46.98000     -2.7326333E-08
   47.04000     -2.7010637E-08
   47.10000     -2.6673321E-08
   47.16000     -2.6287736E-08
   47.22000     -2.5828843E-08
   47.28000     -2.5285326E-08
   47.34000     -2.4665347E-08
   47.40000     -2.3993566E-08
   47.46000     -2.3300771E-08
   47.52000     -2.2610527E-08
   47.58000     -2.1928305E-08
   47.64000     -2.1237442E-08
   47.70000     -2.0503471E-08
   47.76000     -1.9685270E-08
   47.82000     -1.8749224E-08
   47.88000     -1.7681931E-08
   47.94000     -1.6497957E-08
   48.00000     -1.5240980E-08
   48.06000     -1.3978500E-08
   48.12000     -1.2791687E-08
   48.18000     -1.1762406E-08
   48.24000     -1.0959776E-08
   48.30000     -1.0428693E-08
   48.36000     -1.0182887E-08
   48.42000     -1.0204715E-08
   48.48000     -1.0452622E-08
   48.54000     -1.0874972E-08
   48.60000     -1.1426570E-08
   48.66000     -1.2082727E-08
   48.72000     -1.2846429E-08
   48.78000     -1.3746908E-08
   48.84000     -1.4831602E-08
   48.90000     -1.6156161E-08
   48.96000     -1.7777365E-08
   49.02000     -1.9751351E-08
   49.08000     -2.2136120E-08
   49.14000     -2.4994876E-08
   49.20000     -2.8397126E-08
   49.26000     -3.2417176E-08
   49.32000     -3.7132779E-08
   49.38000     -4.2628017E-08
   49.44000     -4.9002761E-08
   49.50000     -5.6387218E-08
   49.56000     -6.4956723E-08
   49.62000     -7.4941283E-08
   49.68000     -8.6627310E-08
   49.74000     -1.0035335E-07
   49.80000     -1.1650537E-07
   49.86000     -1.3551706E-07
   49.92000     -1.5787830E-07
   49.98000     -1.8415021E-07
   50.04000     -2.1498256E-07
   50.10000     -2.5113007E-07
   50.16000     -2.9346529E-07
   50.22000     -3.4298975E-07
   50.28000     -4.0084501E-07
   50.34000     -4.6832562E-07
   50.40000     -5.4689332E-07
   50.46000     -6.3819192E-07
   50.52000     -7.4406273E-07
   50.58000     -8.6656274E-07
   50.64000     -1.0079881E-06
   50.70000     -1.1709051E-06
   50.76000     -1.3581864E-06
   50.82000     -1.5730500E-06
   50.88000     -1.8190946E-06
   50.94000     -2.1003298E-06
   51.00000     -2.4212009E-06
   51.06000     -2.7866095E-06
   51.12000     -3.2019373E-06
   51.18000     -3.6730714E-06
   51.24000     -4.2064348E-06
   51.30000     -4.8090192E-06
   51.36000     -5.4884199E-06
   51.42000     -6.2528716E-06
   51.48000     -7.1112872E-06
   51.54000     -8.0732898E-06
   51.60000     -9.1492429E-06
   51.66000     -1.0350280E-05
   51.72000     -1.1688312E-05
   51.78000     -1.3176051E-05
   51.84000     -1.4827000E-05
   51.90000     -1.6655471E-05
   51.96000     -1.8676565E-05
   52.02000     -2.0906165E-05
   52.08000     -2.3360910E-05
   52.14000     -2.6058166E-05
   52.20000     -2.9015988E-05
   52.26000     -3.2253087E-05
   52.32000     -3.5788773E-05
   52.38000     -3.9642910E-05
   52.44000     -4.3835822E-05
   52.50000     -4.8388221E-05
   52.56000     -5.3321066E-05
   52.62000     -5.8655438E-05
   52.68000     -6.4412430E-05
   52.74000     -7.0613009E-05
   52.80000     -7.7277888E-05
   52.86000     -8.4427360E-05
   52.92000     -9.2081144E-05
   52.98000     -1.0025818E-04
   53.04000     -1.0897640E-04
   53.10000     -1.1825257E-04
   53.16000     -1.2810211E-04
   53.22000     -1.3853888E-04
   53.28000     -1.4957500E-04
   53.34000     -1.6122060E-04
   53.40000     -1.7348361E-04
   53.46000     -1.8636959E-04
   53.52000     -1.9988148E-04
   53.58000     -2.1401956E-04
   53.64000     -2.2878121E-04
   53.70000     -2.4416085E-04
   53.76000     -2.6014977E-04
   53.82000     -2.7673595E-04
   53.88000     -2.9390396E-04
   53.94000     -3.1163506E-04
   54.00000     -3.2990685E-04
   54.06000     -3.4869360E-04
   54.12000     -3.6796601E-04
   54.18000     -3.8769140E-04
   54.24000     -4.0783381E-04
   54.30000     -4.2835405E-04
   54.36000     -4.4920979E-04
   54.42000     -4.7035594E-04
   54.48000     -4.9174466E-04
   54.54000     -5.1332579E-04
   54.60000     -5.3504715E-04
   54.66000     -5.5685447E-04
   54.72000     -5.7869207E-04
   54.78000     -6.0050329E-04
   54.84000     -6.2223052E-04
   54.90000     -6.4381590E-04
   54.96000     -6.6520175E-04
   55.02000     -6.8633078E-04
   55.08000     -7.0714642E-04
   55.14000     -7.2759332E-04
   55.20000     -7.4761786E-04
   55.26000     -7.6716853E-04
   55.32000     -7.8619638E-04
   55.38000     -8.0465554E-04
   55.44000     -8.2250347E-04
   55.50000     -8.3970063E-04
   55.56000     -8.5621164E-04