  -2.400000      0.0000000E+00
  -2.340000      0.0000000E+00
  -2.280000      0.0000000E+00
  -2.220000      0.0000000E+00
  -2.160000      0.0000000E+00
  -2.100000     -9.8198312E-19
  -2.040000     -7.2508891E-18
  -1.980000     -2.6344273E-17
  -1.920000     -5.9797039E-17
  -1.860000     -8.5178335E-17
  -1.800000     -4.7074951E-17
  -1.740000      1.1585387E-16
  -1.680000      4.0383373E-16
  -1.620000      7.0110558E-16
  -1.560000      8.2590509E-16
  -1.500000      7.2811439E-16
  -1.440000      7.1257213E-16
  -1.380000      1.3889069E-15
  -1.320000      3.0731641E-15
  -1.260000      4.7562700E-15
  -1.200000      3.3952274E-15
  -1.140000     -5.3098327E-15
  -1.080000     -2.3936719E-14
  -1.020000     -4.8971603E-14
 -0.9600000     -6.7812794E-14
 -0.9000000     -6.0808929E-14
 -0.8400000     -1.0367184E-14
 -0.7800000      8.5144219E-14
 -0.7200000      2.0000221E-13
 -0.6600000      2.8173641E-13
 -0.6000000      2.6953055E-13
 -0.5400000      1.2665063E-13
 -0.4800000     -1.2792819E-13
 -0.4200000     -4.0895968E-13
 -0.3600000     -5.8971507E-13
 -0.3000000     -5.5910284E-13
 -0.2400000     -2.8716653E-13
 -0.1800000      1.3723008E-13
 -0.1200000      5.2617394E-13
 -5.9999999E-02  6.7347446E-13
  0.0000000E+00  4.6543889E-13
  5.9999999E-02 -3.3750302E-14
  0.1200000     -5.7553197E-13
  0.1800000     -8.2068982E-13
  0.2400000     -5.0491848E-13
  0.3000000      3.9546201E-13
  0.3600000      1.5825708E-12
  0.4200000      2.4983010E-12
  0.4800000      2.5262995E-12
  0.5400000      1.2673245E-12
  0.6000000     -1.2215309E-12
  0.6600000     -4.3314245E-12
  0.7200000     -7.0099768E-12
  0.7800000     -8.0568070E-12
  0.8400000     -6.5159987E-12
  0.9000000     -2.0332416E-12
  0.9600000      4.9460527E-12
   1.020000      1.3204157E-11
   1.080000      2.0986799E-11
   1.140000      2.6355187E-11
   1.200000      2.7530487E-11
   1.260000      2.3136725E-11
   1.320000      1.2329140E-11
   1.380000     -5.1114022E-12
   1.440000     -2.8585722E-11
   1.500000     -5.6288953E-11
   1.560000     -8.4664650E-11
   1.620000     -1.0792523E-10
   1.680000     -1.1802564E-10
   1.740000     -1.0551748E-10
   1.800000     -6.1567612E-11
   1.860000      1.8897798E-11
   1.920000      1.3338129E-10
   1.980000      2.6816849E-10
   2.040000      3.9587372E-10
   2.100000      4.7511528E-10
   2.160000      4.5288770E-10
   2.220000      2.6963984E-10
   2.280000     -1.3353402E-10
   2.340000     -8.0665941E-10
   2.400000     -1.7829141E-09
   2.460000     -3.0722065E-09
   2.520000     -4.6573065E-09
   2.580000     -6.4931411E-09
   2.640000     -8.5094030E-09
   2.700000     -1.0616240E-08
   2.760000     -1.2712425E-08
   2.820000     -1.4695162E-08
   2.880000     -1.6470466E-08
   2.940000     -1.7962886E-08
   3.000000     -1.9123354E-08
   3.060000     -1.9933966E-08
   3.120000     -2.0408955E-08
   3.180000     -2.0591562E-08
   3.240000     -2.0547322E-08
   3.300000     -2.0354900E-08
   3.360000     -2.0096200E-08
   3.420000     -1.9847551E-08
   3.480000     -1.9673374E-08
   3.540000     -1.9623064E-08
   3.600000     -1.9730736E-08
   3.660000     -2.0016763E-08
   3.720000     -2.0489605E-08
   3.780000     -2.1146647E-08
   3.840000     -2.1973603E-08
   3.900000     -2.2942951E-08
   3.960000     -2.4012794E-08
   4.020000     -2.5127795E-08
   4.080000     -2.6223391E-08
   4.140000     -2.7233437E-08
   4.200000     -2.8100198E-08
   4.260000     -2.8784504E-08
   4.320000     -2.9273462E-08
   4.380000     -2.9583592E-08
   4.440000     -2.9758187E-08
   4.500000     -2.9859233E-08
   4.560000     -2.9955487E-08
   4.620000     -3.0109177E-08
   4.680000     -3.0364021E-08
   4.740000     -3.0736878E-08
   4.800000     -3.1214494E-08
   4.860000     -3.1755672E-08
   4.920000     -3.2298296E-08
   4.980000     -3.2769794E-08
   5.040000     -3.3099109E-08
   5.100000     -3.3228204E-08
   5.160000     -3.3121225E-08
   5.220000     -3.2769922E-08
   5.280000     -3.2194507E-08
   5.340000     -3.1439935E-08
   5.400000     -3.0568195E-08
   5.460000     -2.9648080E-08
   5.520000     -2.8744077E-08
   5.580000     -2.7906314E-08
   5.640000     -2.7163196E-08
   5.700000     -2.6517920E-08
   5.760000     -2.5949362E-08
   5.820000     -2.5417172E-08
   5.880000     -2.4870319E-08
   5.940000     -2.4257620E-08
   6.000000     -2.3538478E-08
   6.060000     -2.2691665E-08
   6.120000     -2.1720078E-08
   6.180000     -2.0650058E-08
   6.240000     -1.9524972E-08
   6.300000     -1.8394390E-08
   6.360000     -1.7301602E-08
   6.420000     -1.6273013E-08
   6.480000     -1.5312523E-08
   6.540000     -1.4402496E-08
   6.600000     -1.3510706E-08
   6.660000     -1.2600610E-08
   6.720000     -1.1641327E-08
   6.780000     -1.0614081E-08
   6.840000     -9.5134771E-09
   6.900000     -8.3439833E-09
   6.960000     -7.1136586E-09
   7.020000     -5.8277623E-09
   7.080000     -4.4844097E-09
   7.140000     -3.0733347E-09
   7.200000     -1.5775792E-09
   7.260000      2.2829081E-11
   7.320000      1.7463747E-09
   7.380000      3.6056989E-09
   7.440000      5.6040390E-09
   7.500000      7.7328819E-09
   7.560000      9.9711626E-09
   7.620000      1.2286283E-08
   7.680000      1.4637086E-08
   7.740000      1.6978614E-08
   7.800000      1.9268079E-08
   7.860000      2.1471037E-08
   7.920000      2.3566459E-08
   7.980000      2.5549395E-08
   8.040000      2.7430245E-08
   8.100000      2.9230367E-08
   8.160000      3.0974746E-08
   8.220000      3.2683406E-08
   8.280000      3.4363794E-08
   8.340000      3.6006401E-08
   8.400000      3.7584975E-08
   8.460000      3.9061515E-08
   8.520000      4.0394706E-08
   8.580000      4.1549601E-08
   8.640000      4.2505913E-08
   8.700000      4.3262947E-08
   8.760000      4.3839961E-08
   8.820000      4.4272163E-08
   8.880000      4.4603446E-08
   8.940000      4.4877805E-08
   9.000000      4.5131483E-08
   9.060000      4.5387658E-08
   9.120000      4.5654694E-08
   9.180000      4.5927845E-08
   9.240000      4.6193502E-08
   9.300000      4.6434405E-08
   9.360000      4.6634323E-08
   9.420000      4.6781302E-08
   9.480000      4.6869307E-08
   9.540000      4.6898563E-08
   9.600000      4.6875016E-08
   9.660000      4.6809109E-08
   9.720000      4.6713787E-08
   9.780000      4.6601834E-08
   9.840000      4.6482867E-08
   9.900000      4.6360970E-08
   9.960000      4.6233893E-08
   10.02000      4.6094346E-08
   10.08000      4.5933078E-08
   10.14000      4.5742535E-08
   10.20000      4.5519723E-08
   10.26000      4.5267285E-08
   10.32000      4.4992603E-08
   10.38000      4.4705629E-08
   10.44000      4.4416335E-08
   10.50000      4.4132467E-08
   10.56000      4.3857909E-08
   10.62000      4.3591541E-08
   10.68000      4.3326697E-08
   10.74000      4.3051521E-08
   10.80000      4.2750614E-08
   10.86000      4.2408054E-08
   10.92000      4.2011067E-08
   10.98000      4.1553147E-08
   11.04000      4.1035289E-08
   11.10000      4.0464812E-08
   11.16000      3.9852267E-08
   11.22000      3.9207901E-08
   11.28000      3.8539085E-08
   11.34000      3.7849517E-08
   11.40000      3.7139774E-08
   11.46000      3.6408103E-08
   11.52000      3.5650395E-08
   11.58000      3.4859326E-08
   11.64000      3.4023628E-08
   11.70000      3.3128941E-08
   11.76000      3.2161235E-08
   11.82000      3.1112194E-08
   11.88000      2.9984527E-08
   11.94000      2.8794599E-08
   12.00000      2.7570341E-08
   12.06000      2.6344402E-08
   12.12000      2.5144525E-08
   12.18000      2.3984603E-08
   12.24000      2.2859833E-08
   12.30000      2.1747887E-08
   12.36000      2.0615827E-08
   12.42000      1.9430319E-08
   12.48000      1.8167627E-08
   12.54000      1.6820048E-08
   12.60000      1.5396850E-08
   12.66000      1.3919752E-08
   12.72000      1.2414866E-08
   12.78000      1.0904091E-08
   12.84000      9.3989616E-09
   12.90000      7.8989855E-09
   12.96000      6.3946635E-09
   13.02000      4.8737103E-09
   13.08000      3.3277376E-09
   13.14000      1.7565888E-09
   13.20000      1.6851162E-10
   13.26000     -1.4238908E-09
   13.32000     -3.0102532E-09
   13.38000     -4.5888342E-09
   13.44000     -6.1700161E-09
   13.50000     -7.7753430E-09
   13.56000     -9.4321981E-09
   13.62000     -1.1165789E-08
   13.68000     -1.2991026E-08
   13.74000     -1.4906838E-08
   13.80000     -1.6894683E-08
   13.86000     -1.8921666E-08
   13.92000     -2.0947388E-08
   13.98000     -2.2932634E-08
   14.04000     -2.4847663E-08
   14.10000     -2.6678036E-08
   14.16000     -2.8426619E-08
   14.22000     -3.0111391E-08
   14.28000     -3.1759534E-08
   14.34000     -3.3399111E-08
   14.40000     -3.5050128E-08
   14.46000     -3.6717097E-08
   14.52000     -3.8385171E-08
   14.58000     -4.0021337E-08
   14.64000     -4.1581082E-08
   14.70000     -4.3019082E-08
   14.76000     -4.4301029E-08
   14.82000     -4.5412605E-08
   14.88000     -4.6362260E-08
   14.94000     -4.7176634E-08
   15.00000     -4.7890261E-08
   15.06000     -4.8533582E-08
   15.12000     -4.9123987E-08
   15.18000     -4.9662923E-08
   15.24000     -5.0139299E-08
   15.30000     -5.0536464E-08
   15.36000     -5.0838953E-08
   15.42000     -5.1036107E-08
   15.48000     -5.1122104E-08
   15.54000     -5.1093988E-08
   15.60000     -5.0950334E-08
   15.66000     -5.0691952E-08
   15.72000     -5.0324250E-08
   15.78000     -4.9859288E-08
   15.84000     -4.9315606E-08
   15.90000     -4.8715314E-08
   15.96000     -4.8079798E-08
   16.02000     -4.7426322E-08
   16.08000     -4.6767237E-08
   16.14000     -4.6111541E-08
   16.20000     -4.5466987E-08
   16.26000     -4.4840281E-08
   16.32000     -4.4234429E-08
   16.38000     -4.3644352E-08
   16.44000     -4.3054033E-08
   16.50000     -4.2438309E-08
   16.56000     -4.1770470E-08
   16.62000     -4.1033477E-08
   16.68000     -4.0229985E-08
   16.74000     -3.9385828E-08
   16.80000     -3.8544130E-08
   16.86000     -3.7751349E-08
   16.92000     -3.7040703E-08
   16.98000     -3.6420012E-08
   17.04000     -3.5869373E-08
   17.10000     -3.5349579E-08
   17.16000     -3.4817237E-08
   17.22000     -3.4239584E-08
   17.28000     -3.3602781E-08
   17.34000     -3.2910961E-08
   17.40000     -3.2178392E-08
   17.46000     -3.1419976E-08
   17.52000     -3.0645310E-08
   17.58000     -2.9858256E-08
   17.64000     -2.9060121E-08
   17.70000     -2.8252410E-08
   17.76000     -2.7435989E-08
   17.82000     -2.6606850E-08
   17.88000     -2.5752072E-08
   17.94000     -2.4850371E-08
   18.00000     -2.3879267E-08
   18.06000     -2.2826548E-08
   18.12000     -2.1700075E-08
   18.18000     -2.0529797E-08
   18.24000     -1.9359380E-08
   18.30000     -1.8230393E-08
   18.36000     -1.7166270E-08
   18.42000     -1.6163764E-08
   18.48000     -1.5195933E-08
   18.54000     -1.4224841E-08
   18.60000     -1.3217440E-08
   18.66000     -1.2157058E-08
   18.72000     -1.1045867E-08
   18.78000     -9.8988808E-09
   18.84000     -8.7342418E-09
   18.90000     -7.5657800E-09
   18.96000     -6.4014509E-09
   19.02000     -5.2471507E-09
   19.08000     -4.1120600E-09
   19.14000     -3.0109355E-09
   19.20000     -1.9610196E-09
   19.26000     -9.7484376E-10
   19.32000     -5.3009815E-11
   19.38000      8.1863827E-10
   19.44000      1.6653082E-09
   19.50000      2.5143978E-09
   19.56000      3.3855769E-09
   19.62000      4.2843435E-09
   19.68000      5.2015583E-09
   19.74000      6.1182659E-09
   19.80000      7.0125625E-09
   19.86000      7.8648430E-09
   19.92000      8.6594651E-09
   19.98000      9.3835926E-09
   20.04000      1.0025883E-08
   20.10000      1.0577584E-08
   20.16000      1.1036545E-08
   20.22000      1.1412021E-08
   20.28000      1.1726664E-08
   20.34000      1.2012983E-08
   20.40000      1.2304331E-08
   20.46000      1.2623762E-08
   20.52000      1.2975703E-08
   20.58000      1.3344470E-08
   20.64000      1.3700447E-08
   20.70000      1.4011153E-08
   20.76000      1.4252213E-08
   20.82000      1.4413766E-08
   20.88000      1.4500467E-08
   20.94000      1.4526440E-08
   21.00000      1.4508603E-08
   21.06000      1.4461727E-08
   21.12000      1.4396782E-08
   21.18000      1.4322013E-08
   21.24000      1.4244864E-08
   21.30000      1.4173096E-08
   21.36000      1.4114562E-08
   21.42000      1.4076246E-08
   21.48000      1.4063516E-08
   21.54000      1.4080030E-08
   21.60000      1.4127924E-08
   21.66000      1.4207589E-08
   21.72000      1.4316769E-08
   21.78000      1.4449554E-08
   21.84000      1.4596408E-08
   21.90000      1.4746067E-08
   21.96000      1.4889089E-08
   22.02000      1.5021635E-08
   22.08000      1.5147473E-08
   22.14000      1.5276745E-08
   22.20000      1.5421463E-08
   22.26000      1.5589212E-08
   22.32000      1.5777474E-08
   22.38000      1.5970777E-08
   22.44000      1.6141815E-08
   22.50000      1.6256280E-08
   22.56000      1.6280019E-08
   22.62000      1.6186629E-08
   22.68000      1.5963669E-08
   22.74000      1.5616056E-08
   22.80000      1.5165787E-08
   22.86000      1.4647824E-08
   22.92000      1.4102842E-08
   22.98000      1.3568424E-08
   23.04000      1.3071022E-08
   23.10000      1.2621055E-08
   23.16000      1.2212705E-08
   23.22000      1.1828512E-08
   23.28000      1.1447174E-08
   23.34000      1.1051833E-08
   23.40000      1.0636111E-08
   23.46000      1.0206116E-08
   23.52000      9.7782573E-09
   23.58000      9.3741104E-09
   23.64000      9.0143066E-09
   23.70000      8.7132985E-09
   23.76000      8.4761380E-09
   23.82000      8.2976443E-09
   23.88000      8.1637443E-09
   23.94000      8.0545473E-09
   24.00000      7.9485627E-09
   24.06000      7.8272810E-09
   24.12000      7.6791009E-09
   24.18000      7.5014688E-09
   24.24000      7.3003772E-09
   24.30000      7.0871713E-09
   24.36000      6.8736044E-09
   24.42000      6.6669452E-09
   24.48000      6.4670767E-09
   24.54000      6.2668648E-09
   24.60000      6.0557506E-09
   24.66000      5.8251333E-09
   24.72000      5.5732357E-09
   24.78000      5.3072275E-09
   24.84000      5.0413944E-09
   24.90000      4.7916804E-09
   24.96000      4.5683826E-09
   25.02000      4.3695501E-09
   25.08000      4.1773949E-09
   25.14000      3.9589554E-09
   25.20000      3.6707546E-09
   25.26000      3.2658920E-09
   25.32000      2.7014342E-09
   25.38000      1.9441855E-09
   25.44000      9.7377095E-10
   25.50000     -2.1706813E-10
   25.56000     -1.6243870E-09
   25.62000     -3.2364054E-09
   25.68000     -5.0377182E-09
   25.74000     -7.0138837E-09
   25.80000     -9.1557864E-09
   25.86000     -1.1462798E-08
   25.92000     -1.3943439E-08
   25.98000     -1.6612475E-08
   26.04000     -1.9484245E-08
   26.10000     -2.2563507E-08
   26.16000     -2.5836282E-08
   26.22000     -2.9263790E-08
   26.28000     -3.2781841E-08
   26.34000     -3.6306453E-08
   26.40000     -3.9744471E-08
   26.46000     -4.3006487E-08
   26.52000     -4.6018844E-08
   26.58000     -4.8732105E-08
   26.64000     -5.1124694E-08
   26.70000     -5.3201617E-08
   26.76000     -5.4989425E-08
   26.82000     -5.6528986E-08
   26.88000     -5.7867926E-08
   26.94000     -5.9054532E-08
   27.00000     -6.0134447E-08
   27.06000     -6.1150708E-08
   27.12000     -6.2146469E-08
   27.18000     -6.3168478E-08
   27.24000     -6.4268590E-08
   27.30000     -6.5501148E-08
   27.36000     -6.6915092E-08
   27.42000     -6.8542377E-08
   27.48000     -7.0386008E-08
   27.54000     -7.2411922E-08
   27.60000     -7.4548375E-08
   27.66000     -7.6694178E-08
   27.72000     -7.8734772E-08
   27.78000     -8.0562344E-08
   27.84000     -8.2095497E-08
   27.90000     -8.3293379E-08
   27.96000     -8.4160810E-08
   28.02000     -8.4742531E-08
   28.08000     -8.5107381E-08
   28.14000     -8.5325794E-08
   28.20000     -8.5446125E-08
   28.26000     -8.5476415E-08
   28.32000     -8.5377096E-08
   28.38000     -8.5067519E-08
   28.44000     -8.4444856E-08
   28.50000     -8.3410114E-08
   28.56000     -8.1893489E-08
   28.62000     -7.9872109E-08
   28.68000     -7.7375397E-08
   28.74000     -7.4478102E-08
   28.80000     -7.1284198E-08
   28.86000     -6.7907358E-08
   28.92000     -6.4453211E-08
   28.98000     -6.1007157E-08
   29.04000     -5.7628860E-08
   29.10000     -5.4352814E-08
   29.16000     -5.1193101E-08
   29.22000     -4.8150479E-08
   29.28000     -4.5220027E-08
   29.34000     -4.2398106E-08
   29.40000     -3.9687439E-08
   29.46000     -3.7099436E-08
   29.52000     -3.4653258E-08
   29.58000     -3.2372029E-08
   29.64000     -3.0277576E-08
   29.70000     -2.8385781E-08
   29.76000     -2.6704866E-08
   29.82000     -2.5237551E-08
   29.88000     -2.3986455E-08
   29.94000     -2.2960158E-08
   30.00000     -2.2176559E-08
   30.06000     -2.1661114E-08
   30.12000     -2.1439755E-08
   30.18000     -2.1528997E-08
   30.24000     -2.1927294E-08
   30.30000     -2.2611344E-08
   30.36000     -2.3538764E-08
   30.42000     -2.4655666E-08
   30.48000     -2.5905770E-08
   30.54000     -2.7237617E-08
   30.60000     -2.8608250E-08
   30.66000     -2.9984008E-08
   30.72000     -3.1340299E-08
   30.78000     -3.2662047E-08
   30.84000     -3.3944680E-08
   30.90000     -3.5194290E-08
   30.96000     -3.6425032E-08
   31.02000     -3.7653418E-08
   31.08000     -3.8890896E-08
   31.14000     -4.0137827E-08
   31.20000     -4.1381497E-08
   31.26000     -4.2599147E-08
   31.32000     -4.3764626E-08
   31.38000     -4.4855444E-08
   31.44000     -4.5857242E-08
   31.50000     -4.6763869E-08
   31.56000     -4.7573611E-08
   31.62000     -4.8283638E-08
   31.68000     -4.8885227E-08
   31.74000     -4.9361557E-08
   31.80000     -4.9688612E-08
   31.86000     -4.9838494E-08
   31.92000     -4.9783978E-08
   31.98000     -4.9503349E-08
   32.04000     -4.8985136E-08
   32.10000     -4.8232682E-08
   32.16000     -4.7268216E-08
   32.22000     -4.6135369E-08
   32.28000     -4.4898247E-08
   32.34000     -4.3635179E-08
   32.40000     -4.2426635E-08
   32.46000     -4.1339163E-08
   32.52000     -4.0409766E-08
   32.58000     -3.9636177E-08
   32.64000     -3.8977223E-08
   32.70000     -3.8364014E-08
   32.76000     -3.7718330E-08
   32.82000     -3.6971702E-08
   32.88000     -3.6078976E-08
   32.94000     -3.5022993E-08
   33.00000     -3.3811428E-08
   33.06000     -3.2470016E-08
   33.12000     -3.1036414E-08
   33.18000     -2.9556922E-08
   33.24000     -2.8084727E-08
   33.30000     -2.6676833E-08
   33.36000     -2.5387495E-08
   33.42000     -2.4258874E-08
   33.48000     -2.3312305E-08
   33.54000     -2.2544109E-08
   33.60000     -2.1928008E-08
   33.66000     -2.1422808E-08
   33.72000     -2.0981560E-08
   33.78000     -2.0558410E-08
   33.84000     -2.0111615E-08
   33.90000     -1.9604201E-08
   33.96000     -1.9005332E-08
   34.02000     -1.8294644E-08
   34.08000     -1.7468899E-08
   34.14000     -1.6547787E-08
   34.20000     -1.5574718E-08
   34.26000     -1.4610232E-08
   34.32000     -1.3718953E-08
   34.38000     -1.2954179E-08
   34.44000     -1.2345346E-08
   34.50000     -1.1892473E-08
   34.56000     -1.1568826E-08
   34.62000     -1.1330053E-08
   34.68000     -1.1126231E-08
   34.74000     -1.0913053E-08
   34.80000     -1.0659666E-08
   34.86000     -1.0352239E-08
   34.92000     -9.9937605E-09
   34.98000     -9.6011652E-09
   35.04000     -9.2008730E-09
   35.10000     -8.8234815E-09
   35.16000     -8.4981746E-09
   35.22000     -8.2474880E-09
   35.28000     -8.0833562E-09
   35.34000     -8.0055189E-09
   35.40000     -8.0030329E-09
   35.46000     -8.0586906E-09
   35.52000     -8.1550393E-09
   35.58000     -8.2798515E-09
   35.64000     -8.4291063E-09
   35.70000     -8.6067100E-09
   35.76000     -8.8218384E-09
   35.82000     -9.0859604E-09
   35.88000     -9.4114236E-09
   35.94000     -9.8121156E-09
   36.00000     -1.0304863E-08
   36.06000     -1.0909251E-08
   36.12000     -1.1644245E-08
   36.18000     -1.2521950E-08
   36.24000     -1.3541042E-08
   36.30000     -1.4683148E-08
   36.36000     -1.5914377E-08
   36.42000     -1.7191748E-08
   36.48000     -1.8471988E-08
   36.54000     -1.9719511E-08
   36.60000     -2.0911397E-08
   36.66000     -2.2039213E-08
   36.72000     -2.3108855E-08
   36.78000     -2.4139519E-08
   36.84000     -2.5161713E-08
   36.90000     -2.6213200E-08
   36.96000     -2.7332041E-08
   37.02000     -2.8547529E-08
   37.08000     -2.9871895E-08
   37.14000     -3.1296189E-08
   37.20000     -3.2792428E-08
   37.26000     -3.4321086E-08
   37.32000     -3.5840454E-08
   37.38000     -3.7313818E-08
   37.44000     -3.8712201E-08
   37.50000     -4.0013525E-08
   37.56000     -4.1201140E-08
   37.62000     -4.2264563E-08
   37.68000     -4.3202800E-08
   37.74000     -4.4027775E-08
   37.80000     -4.4764072E-08
   37.86000     -4.5442526E-08
   37.92000     -4.6088701E-08
   37.98000     -4.6710564E-08
   38.04000     -4.7290957E-08
   38.10000     -4.7788660E-08
   38.16000     -4.8148234E-08
   38.22000     -4.8314970E-08
   38.28000     -4.8249536E-08
   38.34000     -4.7937444E-08
   38.40000     -4.7391215E-08
   38.46000     -4.6645749E-08
   38.52000     -4.5749420E-08
   38.58000     -4.4753751E-08
   38.64000     -4.3703874E-08
   38.70000     -4.2631200E-08
   38.76000     -4.1549153E-08
   38.82000     -4.0452647E-08
   38.88000     -3.9321915E-08
   38.94000     -3.8130405E-08
   39.00000     -3.6855401E-08
   39.06000     -3.5488462E-08
   39.12000     -3.4042198E-08
   39.18000     -3.2550329E-08
   39.24000     -3.1060065E-08
   39.30000     -2.9618635E-08
   39.36000     -2.8258457E-08
   39.42000     -2.6986511E-08
   39.48000     -2.5782297E-08
   39.54000     -2.4605436E-08
   39.60000     -2.3410111E-08
   39.66000     -2.2160634E-08
   39.72000     -2.0842206E-08
   39.78000     -1.9463387E-08
   39.84000     -1.8050709E-08
   39.90000     -1.6639177E-08
   39.96000     -1.5263314E-08
   40.02000     -1.3951858E-08
   40.08000     -1.2726329E-08
   40.14000     -1.1601449E-08
   40.20000     -1.0585258E-08
   40.26000     -9.6784740E-09
   40.32000     -8.8746441E-09
   40.38000     -8.1631573E-09
   40.44000     -7.5355420E-09
   40.50000     -6.9926194E-09
   40.56000     -6.5482397E-09
   40.62000     -6.2260459E-09
   40.68000     -6.0491723E-09
   40.74000     -6.0270189E-09
   40.80000     -6.1457075E-09
   40.86000     -6.3676917E-09
   40.92000     -6.6417201E-09
   40.98000     -6.9191484E-09
   41.04000     -7.1694206E-09
   41.10000     -7.3880551E-09
   41.16000     -7.5943225E-09
   41.22000     -7.8207165E-09
   41.28000     -8.0996889E-09
   41.34000     -8.4534735E-09
   41.40000     -8.8903782E-09
   41.46000     -9.4074464E-09
   41.52000     -9.9967590E-09
   41.58000     -1.0651902E-08
   41.64000     -1.1372075E-08
   41.70000     -1.2162859E-08
   41.76000     -1.3033936E-08
   41.82000     -1.3994468E-08
   41.88000     -1.5047013E-08
   41.94000     -1.6181049E-08
   42.00000     -1.7367944E-08
   42.06000     -1.8559703E-08
   42.12000     -1.9693932E-08
   42.18000     -2.0705775E-08
   42.24000     -2.1545041E-08
   42.30000     -2.2193687E-08
   42.36000     -2.2677147E-08
   42.42000     -2.3063677E-08
   42.48000     -2.3449447E-08
   42.54000     -2.3932381E-08
   42.60000     -2.4582706E-08
   42.66000     -2.5420553E-08
   42.72000     -2.6409282E-08
   42.78000     -2.7467747E-08
   42.84000     -2.8497562E-08
   42.90000     -2.9415473E-08
   42.96000     -3.0178931E-08
   43.02000     -3.0795668E-08
   43.08000     -3.1314610E-08
   43.14000     -3.1802646E-08
   43.20000     -3.2316976E-08
   43.26000     -3.2883491E-08
   43.32000     -3.3488512E-08
   43.38000     -3.4085552E-08
   43.44000     -3.4613151E-08
   43.50000     -3.5016644E-08
   43.56000     -3.5266243E-08
   43.62000     -3.5366106E-08
   43.68000     -3.5352404E-08
   43.74000     -3.5281857E-08
   43.80000     -3.5214743E-08
   43.86000     -3.5197544E-08
   43.92000     -3.5250402E-08
   43.98000     -3.5362966E-08
   44.04000     -3.5500076E-08
   44.10000     -3.5615333E-08
   44.16000     -3.5668243E-08
   44.22000     -3.5638831E-08
   44.28000     -3.5534278E-08
   44.34000     -3.5384794E-08
   44.40000     -3.5229903E-08
   44.46000     -3.5100221E-08
   44.52000     -3.5002095E-08
   44.58000     -3.4911583E-08
   44.64000     -3.4781010E-08
   44.70000     -3.4556102E-08
   44.76000     -3.4197335E-08
   44.82000     -3.3696899E-08
   44.88000     -3.3084270E-08
   44.94000     -3.2417681E-08
   45.00000     -3.1764486E-08
   45.06000     -3.1177898E-08
   45.12000     -3.0678901E-08
   45.18000     -3.0250010E-08
   45.24000     -2.9842791E-08
   45.30000     -2.9395942E-08
   45.36000     -2.8857212E-08
   45.42000     -2.8201770E-08
   45.48000     -2.7441416E-08
   45.54000     -2.6622535E-08
   45.60000     -2.5813923E-08
   45.66000     -2.5088172E-08
   45.72000     -2.4501396E-08
   45.78000     -2.4076281E-08
   45.84000     -2.3792792E-08
   45.90000     -2.3589545E-08
   45.96000     -2.3376501E-08
   46.02000     -2.3056771E-08
   46.08000     -2.2552070E-08
   46.14000     -2.1824466E-08
   46.20000     -2.0887194E-08
   46.26000     -1.9800247E-08
   46.32000     -1.8651400E-08
   46.38000     -1.7528507E-08
   46.44000     -1.6492267E-08
   46.50000     -1.5558710E-08
   46.56000     -1.4697143E-08
   46.62000     -1.3843816E-08
   46.68000     -1.2925963E-08
   46.74000     -1.1887638E-08
   46.80000     -1.0708655E-08
   46.86000     -9.4109254E-09
   46.92000     -8.0509572E-09
   46.98000     -6.7017312E-09
   47.04000     -5.4300902E-09
   47.10000     -4.2766888E-09
   47.16000     -3.2444973E-09
   47.22000     -2.2993285E-09
   47.28000     -1.3824293E-09
   47.34000     -4.3154924E-10
   47.40000      5.9606775E-10
   47.46000      1.7065696E-09
   47.52000      2.8647411E-09
   47.58000      4.0041144E-09
   47.64000      5.0489404E-09
   47.70000      5.9400880E-09
   47.76000      6.6548567E-09
   47.82000      7.2127100E-09
   47.88000      7.6645170E-09
   47.94000      8.0696152E-09
   48.00000      8.4700096E-09
   48.06000      8.8719929E-09
   48.12000      9.2421892E-09
   48.18000      9.5190495E-09
   48.24000      9.6348707E-09
   48.30000      9.5398267E-09
   48.36000      9.2193160E-09
   48.42000      8.6987377E-09
   48.48000      8.0342071E-09
   48.54000      7.2921158E-09
   48.60000      6.5237162E-09
   48.66000      5.7423764E-09
   48.72000      4.9106332E-09
   48.78000      3.9416439E-09
   48.84000      2.7155642E-09
   48.90000      1.1066869E-09
   48.96000     -9.8676778E-10
   49.02000     -3.6199708E-09
   49.08000     -6.7941239E-09
   49.14000     -1.0468050E-08
   49.20000     -1.4586123E-08
   49.26000     -1.9114228E-08
   49.32000     -2.4072481E-08
   49.38000     -2.9554423E-08
   49.44000     -3.5727201E-08
   49.50000     -4.2814115E-08
   49.56000     -5.1067317E-08
   49.62000     -6.0741918E-08
   49.68000     -7.2081747E-08
   49.74000     -8.5322320E-08
   49.80000     -1.0071002E-07
   49.86000     -1.1853094E-07
   49.92000     -1.3914081E-07
   49.98000     -1.6298883E-07
   50.04000     -1.9063229E-07
   50.10000     -2.2274249E-07
   50.16000     -2.6010463E-07
   50.22000     -3.0361409E-07
   50.28000     -3.5427135E-07
   50.34000     -4.1317736E-07
   50.40000     -4.8153390E-07
   50.46000     -5.6065380E-07
   50.52000     -6.5198719E-07
   50.58000     -7.5716247E-07
   50.64000     -8.7803789E-07
   50.70000     -1.0167496E-06
   50.76000     -1.1757442E-06
   50.82000     -1.3577900E-06
   50.88000     -1.5659680E-06
   50.94000     -1.8036591E-06
   51.00000     -2.0745395E-06
   51.06000     -2.3826008E-06
   51.12000     -2.7321903E-06
   51.18000     -3.1280676E-06
   51.24000     -3.5754572E-06
   51.30000     -4.0800928E-06
   51.36000     -4.6482405E-06
   51.42000     -5.2867135E-06
   51.48000     -6.0028833E-06
   51.54000     -6.8046907E-06
   51.60000     -7.7006616E-06
   51.66000     -8.6999271E-06
   51.72000     -9.8122428E-06
   51.78000     -1.1048000E-05
   51.84000     -1.2418247E-05
   51.90000     -1.3934694E-05
   51.96000     -1.5609719E-05
   52.02000     -1.7456368E-05
   52.08000     -1.9488323E-05
   52.14000     -2.1719876E-05
   52.20000     -2.4165880E-05
   52.26000     -2.6841712E-05
   52.32000     -2.9763214E-05
   52.38000     -3.2946678E-05
   52.44000     -3.6408794E-05
   52.50000     -4.0166600E-05
   52.56000     -4.4237451E-05
   52.62000     -4.8638933E-05
   52.68000     -5.3388761E-05
   52.74000     -5.8504687E-05
   52.80000     -6.4004329E-05
   52.86000     -6.9905072E-05
   52.92000     -7.6223907E-05
   52.98000     -8.2977276E-05
   53.04000     -9.0180998E-05
   53.10000     -9.7850112E-05
   53.16000     -1.0599879E-04
   53.22000     -1.1464018E-04
   53.28000     -1.2378633E-04
   53.34000     -1.3344797E-04
   53.40000     -1.4363446E-04
   53.46000     -1.5435349E-04
   53.52000     -1.6561111E-04
   53.58000     -1.7741157E-04
   53.64000     -1.8975709E-04
   53.70000     -2.0264791E-04
   53.76000     -2.1608201E-04
   53.82000     -2.3005527E-04
   53.88000     -2.4456123E-04
   53.94000     -2.5959112E-04
   54.00000     -2.7513408E-04
   54.06000     -2.9117684E-04
   54.12000     -3.0770389E-04
   54.18000     -3.2469741E-04
   54.24000     -3.4213735E-04
   54.30000     -3.6000132E-04
   54.36000     -3.7826499E-04
   54.42000     -3.9690203E-04
   54.48000     -4.1588457E-04
   54.54000     -4.3518303E-04
   54.60000     -4.5476641E-04
   54.66000     -4.7460245E-04
   54.72000     -4.9465778E-04
   54.78000     -5.1489804E-04
   54.84000     -5.3528842E-04
   54.90000     -5.5579352E-04
   54.96000     -5.7637785E-04
   55.02000     -5.9700606E-04
   55.08000     -6.1764283E-04
   55.14000     -6.3825346E-04
   55.20000     -6.5880414E-04
   55.26000     -6.7926181E-04
   55.32000     -6.9959485E-04
   55.38000     -7.1977277E-04
   55.44000     -7.3976663E-04
   55.50000     -7.5954892E-04
   55.56000     -7.7909406E-04