  -2.400000      0.0000000E+00
  -2.340000      0.0000000E+00
  -2.280000      0.0000000E+00
  -2.220000      0.0000000E+00
  -2.160000      0.0000000E+00
  -2.100000     -2.9585337E-19
  -2.040000     -2.5248776E-18
  -1.980000     -1.0852332E-17
  -1.920000     -3.0196787E-17
  -1.860000     -5.7459499E-17
  -1.800000     -6.7488607E-17
  -1.740000     -8.0554876E-18
  -1.680000      1.7460564E-16
  -1.620000      4.7457710E-16
  -1.560000      7.6726145E-16
  -1.500000      8.2794352E-16
  -1.440000      4.8039045E-16
  -1.380000     -1.8003028E-16
  -1.320000     -6.7856969E-16
  -1.260000     -3.8529917E-16
  -1.200000      9.0150669E-16
  -1.140000      2.3413054E-15
  -1.080000      2.0044865E-15
  -1.020000     -2.1425101E-15
 -0.9600000     -1.0402442E-14
 -0.9000000     -1.9705551E-14
 -0.8400000     -2.3643957E-14
 -0.7800000     -1.5118600E-14
 -0.7200000      9.0018003E-15
 -0.6600000      4.3567235E-14
 -0.6000000      7.4298850E-14
 -0.5400000      8.2408466E-14
 -0.4800000      5.3849716E-14
 -0.4200000     -1.0818922E-14
 -0.3600000     -9.1582998E-14
 -0.3000000     -1.5342546E-13
 -0.2400000     -1.6026260E-13
 -0.1800000     -9.3420294E-14
 -0.1200000      3.3834948E-14
 -5.9999999E-02  1.7407767E-13
  0.0000000E+00  2.5991560E-13
  5.9999999E-02  2.3166644E-13
  0.1200000      6.8584617E-14
  0.1800000     -1.9021118E-13
  0.2400000     -4.4750924E-13
  0.3000000     -5.7751438E-13
  0.3600000     -4.7660953E-13
  0.4200000     -1.1721525E-13
  0.4800000      4.1981528E-13
  0.5400000      9.5519415E-13
  0.6000000      1.2694310E-12
  0.6600000      1.1927117E-12
  0.7200000      6.8965553E-13
  0.7800000     -1.0417032E-13
  0.8400000     -9.2207307E-13
  0.9000000     -1.4764555E-12
  0.9600000     -1.5944543E-12
   1.020000     -1.3108112E-12
   1.080000     -8.5954188E-13
   1.140000     -5.5095175E-13
   1.200000     -5.8299155E-13
   1.260000     -8.8379445E-13
   1.320000     -1.0848236E-12
   1.380000     -6.7044065E-13
   1.440000      7.4084629E-13
   1.500000      3.1114863E-12
   1.560000      5.8523008E-12
   1.620000      7.9456962E-12
   1.680000      8.3112154E-12
   1.740000      6.2726040E-12
   1.800000      1.9148474E-12
   1.860000     -3.8503454E-12
   1.920000     -9.5667484E-12
   1.980000     -1.3756044E-11
   2.040000     -1.5452429E-11
   2.100000     -1.4508384E-11
   2.160000     -1.1535222E-11
   2.220000     -7.5152497E-12
   2.280000     -3.2767467E-12
   2.340000      9.1714028E-13
   2.400000      5.4788184E-12
   2.460000      1.1271062E-11
   2.520000      1.9173850E-11
   2.580000      2.9663313E-11
   2.640000      4.2605360E-11
   2.700000      5.7354319E-11
   2.760000      7.3098132E-11
   2.820000      8.9278751E-11
   2.880000      1.0588585E-10
   2.940000      1.2348389E-10
   3.000000      1.4294876E-10
   3.060000      1.6501822E-10
   3.120000      1.8984146E-10
   3.180000      2.1672504E-10
   3.240000      2.4420352E-10
   3.300000      2.7044242E-10
   3.360000      2.9384645E-10
   3.420000      3.1365296E-10
   3.480000      3.3027345E-10
   3.540000      3.4522682E-10
   3.600000      3.6065850E-10
   3.660000      3.7860223E-10
   3.720000      4.0024870E-10
   3.780000      4.2548742E-10
   3.840000      4.5287873E-10
   3.900000      4.8004034E-10
   3.960000      5.0427290E-10
   4.020000      5.2317273E-10
   4.080000      5.3501525E-10
   4.140000      5.3882043E-10
   4.200000      5.3416710E-10
   4.260000      5.2093380E-10
   4.320000      4.9915760E-10
   4.380000      4.6911386E-10
   4.440000      4.3158274E-10
   4.500000      3.8814441E-10
   4.560000      3.4130709E-10
   4.620000      2.9433361E-10
   4.680000      2.5077374E-10
   4.740000      2.1385567E-10
   4.800000      1.8596452E-10
   4.860000      1.6840217E-10
   4.920000      1.6149915E-10
   4.980000      1.6498575E-10
   5.040000      1.7841592E-10
   5.100000      2.0141509E-10
   5.160000      2.3358865E-10
   5.220000      2.7404118E-10
   5.280000      3.2058256E-10
   5.340000      3.6879474E-10
   5.400000      4.1120260E-10
   5.460000      4.3680873E-10
   5.520000      4.3118648E-10
   5.580000      3.7716297E-10
   5.640000      2.5589653E-10
   5.700000      4.7946713E-11
   5.760000     -2.6609950E-10
   5.820000     -7.0566397E-10
   5.880000     -1.2906922E-09
   5.940000     -2.0420727E-09
   6.000000     -2.9812666E-09
   6.060000     -4.1287613E-09
   6.120000     -5.5015534E-09
   6.180000     -7.1104544E-09
   6.240000     -8.9582013E-09
   6.300000     -1.1039033E-08
   6.360000     -1.3339670E-08
   6.420000     -1.5840984E-08
   6.480000     -1.8519392E-08
   6.540000     -2.1347363E-08
   6.600000     -2.4293030E-08
   6.660000     -2.7319482E-08
   6.720000     -3.0384420E-08
   6.780000     -3.3440489E-08
   6.840000     -3.6436195E-08
   6.900000     -3.9316895E-08
   6.960000     -4.2025587E-08
   7.020000     -4.4503508E-08
   7.080000     -4.6690953E-08
   7.140000     -4.8528765E-08
   7.200000     -4.9960637E-08
   7.260000     -5.0936151E-08
   7.320000     -5.1414052E-08
   7.380000     -5.1365323E-08
   7.440000     -5.0775693E-08
   7.500000     -4.9647394E-08
   7.560000     -4.7999784E-08
   7.620000     -4.5868717E-08
   7.680000     -4.3304514E-08
   7.740000     -4.0368889E-08
   7.800000     -3.7131510E-08
   7.860000     -3.3666854E-08
   7.920000     -3.0051844E-08
   7.980000     -2.6364168E-08
   8.040000     -2.2680732E-08
   8.100000     -1.9075829E-08
   8.160000     -1.5618891E-08
   8.220000     -1.2372249E-08
   8.280000     -9.3894279E-09
   8.340000     -6.7141306E-09
   8.400000     -4.3795421E-09
   8.460000     -2.4072524E-09
   8.520000     -8.0541657E-10
   8.580000      4.3345233E-10
   8.640000      1.3339752E-09
   8.700000      1.9374948E-09
   8.760000      2.2992581E-09
   8.820000      2.4837463E-09
   8.880000      2.5594475E-09
   8.940000      2.5942859E-09
   9.000000      2.6521694E-09
   9.060000      2.7902241E-09
   9.120000      3.0559566E-09
   9.180000      3.4840457E-09
   9.240000      4.0933372E-09
   9.300000      4.8851834E-09
   9.360000      5.8440652E-09
   9.420000      6.9405108E-09
   9.480000      8.1353670E-09
   9.540000      9.3840935E-09
   9.600000      1.0640242E-08
   9.660000      1.1858217E-08
   9.720000      1.2996024E-08
   9.780000      1.4018648E-08
   9.840000      1.4901845E-08
   9.900000      1.5635329E-08
   9.960000      1.6224091E-08
   10.02000      1.6687229E-08
   10.08000      1.7054765E-08
   10.14000      1.7363684E-08
   10.20000      1.7654454E-08
   10.26000      1.7968530E-08
   10.32000      1.8346457E-08
   10.38000      1.8825837E-08
   10.44000      1.9438790E-08
   10.50000      2.0209299E-08
   10.56000      2.1151333E-08
   10.62000      2.2268438E-08
   10.68000      2.3554712E-08
   10.74000      2.4996261E-08
   10.80000      2.6572085E-08
   10.86000      2.8253959E-08
   10.92000      3.0005861E-08
   10.98000      3.1784129E-08
   11.04000      3.3539365E-08
   11.10000      3.5220026E-08
   11.16000      3.6776701E-08
   11.22000      3.8165435E-08
   11.28000      3.9349160E-08
   11.34000      4.0297294E-08
   11.40000      4.0984634E-08
   11.46000      4.1390930E-08
   11.52000      4.1501892E-08
   11.58000      4.1311285E-08
   11.64000      4.0823064E-08
   11.70000      4.0052345E-08
   11.76000      3.9024894E-08
   11.82000      3.7775326E-08
   11.88000      3.6344971E-08
   11.94000      3.4779784E-08
   12.00000      3.3128384E-08
   12.06000      3.1439747E-08
   12.12000      2.9760081E-08
   12.18000      2.8129120E-08
   12.24000      2.6576449E-08
   12.30000      2.5118876E-08
   12.36000      2.3759586E-08
   12.42000      2.2489363E-08
   12.48000      2.1289582E-08
   12.54000      2.0136484E-08
   12.60000      1.9006096E-08
   12.66000      1.7878918E-08
   12.72000      1.6743391E-08
   12.78000      1.5596930E-08
   12.84000      1.4443719E-08
   12.90000      1.3289394E-08
   12.96000      1.2134080E-08
   13.02000      1.0966242E-08
   13.08000      9.7598569E-09
   13.14000      8.4762908E-09
   13.20000      7.0704433E-09
   13.26000      5.4990159E-09
   13.32000      3.7280490E-09
   13.38000      1.7374836E-09
   13.44000     -4.7809312E-10
   13.50000     -2.9118001E-09
   13.56000     -5.5483156E-09
   13.62000     -8.3675982E-09
   13.68000     -1.1347476E-08
   13.74000     -1.4464933E-08
   13.80000     -1.7696548E-08
   13.86000     -2.1018888E-08
   13.92000     -2.4409646E-08
   13.98000     -2.7850053E-08
   14.04000     -3.1328508E-08
   14.10000     -3.4844557E-08
   14.16000     -3.8411557E-08
   14.22000     -4.2055998E-08
   14.28000     -4.5812072E-08
   14.34000     -4.9711346E-08
   14.40000     -5.3769568E-08
   14.46000     -5.7973903E-08
   14.52000     -6.2274552E-08
   14.58000     -6.6583624E-08
   14.64000     -7.0782406E-08
   14.70000     -7.4735567E-08
   14.76000     -7.8309661E-08
   14.82000     -8.1391924E-08
   14.88000     -8.3905796E-08
   14.94000     -8.5820062E-08
   15.00000     -8.7150113E-08
   15.06000     -8.7950944E-08
   15.12000     -8.8303679E-08
   15.18000     -8.8298648E-08
   15.24000     -8.8018851E-08
   15.30000     -8.7527610E-08
   15.36000     -8.6862585E-08
   15.42000     -8.6036550E-08
   15.48000     -8.5043496E-08
   15.54000     -8.3867612E-08
   15.60000     -8.2492484E-08
   15.66000     -8.0908485E-08
   15.72000     -7.9117193E-08
   15.78000     -7.7132150E-08
   15.84000     -7.4976313E-08
   15.90000     -7.2676684E-08
   15.96000     -7.0258025E-08
   16.02000     -6.7737695E-08
   16.08000     -6.5123928E-08
   16.14000     -6.2418707E-08
   16.20000     -5.9624583E-08
   16.26000     -5.6753127E-08
   16.32000     -5.3831407E-08
   16.38000     -5.0903626E-08
   16.44000     -4.8026536E-08
   16.50000     -4.5259718E-08
   16.56000     -4.2653532E-08
   16.62000     -4.0238376E-08
   16.68000     -3.8018371E-08
   16.74000     -3.5971432E-08
   16.80000     -3.4055855E-08
   16.86000     -3.2222186E-08
   16.92000     -3.0427636E-08
   16.98000     -2.8649403E-08
   17.04000     -2.6892964E-08
   17.10000     -2.5192378E-08
   17.16000     -2.3601716E-08
   17.22000     -2.2179888E-08
   17.28000     -2.0973781E-08
   17.34000     -2.0005718E-08
   17.40000     -1.9269841E-08
   17.46000     -1.8738403E-08
   17.52000     -1.8374761E-08
   17.58000     -1.8146922E-08
   17.64000     -1.8035527E-08
   17.70000     -1.8033040E-08
   17.76000     -1.8135275E-08
   17.82000     -1.8330127E-08
   17.88000     -1.8589505E-08
   17.94000     -1.8868679E-08
   18.00000     -1.9113566E-08
   18.06000     -1.9272882E-08
   18.12000     -1.9310216E-08
   18.18000     -1.9211710E-08
   18.24000     -1.8987189E-08
   18.30000     -1.8665279E-08
   18.36000     -1.8284650E-08
   18.42000     -1.7883988E-08
   18.48000     -1.7492789E-08
   18.54000     -1.7124446E-08
   18.60000     -1.6772690E-08
   18.66000     -1.6412329E-08
   18.72000     -1.6004604E-08
   18.78000     -1.5506341E-08
   18.84000     -1.4880519E-08
   18.90000     -1.4104857E-08
   18.96000     -1.3175212E-08
   19.02000     -1.2102523E-08
   19.08000     -1.0904778E-08
   19.14000     -9.5979455E-09
   19.20000     -8.1904687E-09
   19.26000     -6.6844619E-09
   19.32000     -5.0835651E-09
   19.38000     -3.4041363E-09
   19.44000     -1.6846249E-09
   19.50000      1.1550477E-11
   19.56000      1.6017199E-09
   19.62000      2.9969482E-09
   19.68000      4.1182271E-09
   19.74000      4.9108788E-09
   19.80000      5.3531894E-09
   19.86000      5.4575442E-09
   19.92000      5.2646603E-09
   19.98000      4.8330659E-09
   20.04000      4.2264450E-09
   20.10000      3.5012495E-09
   20.16000      2.6966100E-09
   20.22000      1.8283280E-09
   20.28000      8.8843516E-10
   20.34000     -1.4898820E-10
   20.40000     -1.3166193E-09
   20.46000     -2.6401867E-09
   20.52000     -4.1265746E-09
   20.58000     -5.7580278E-09
   20.64000     -7.4947772E-09
   20.70000     -9.2850998E-09
   20.76000     -1.1078725E-08
   20.82000     -1.2838038E-08
   20.88000     -1.4542678E-08
   20.94000     -1.6186243E-08
   21.00000     -1.7767524E-08
   21.06000     -1.9281046E-08
   21.12000     -2.0711768E-08
   21.18000     -2.2036525E-08
   21.24000     -2.3231559E-08
   21.30000     -2.4282642E-08
   21.36000     -2.5193152E-08
   21.42000     -2.5986305E-08
   21.48000     -2.6699995E-08
   21.54000     -2.7375613E-08
   21.60000     -2.8044493E-08
   21.66000     -2.8716642E-08
   21.72000     -2.9375919E-08
   21.78000     -2.9983568E-08
   21.84000     -3.0489115E-08
   21.90000     -3.0844927E-08
   21.96000     -3.1019329E-08
   22.02000     -3.1003815E-08
   22.08000     -3.0812366E-08
   22.14000     -3.0473917E-08
   22.20000     -3.0021596E-08
   22.26000     -2.9482949E-08
   22.32000     -2.8874595E-08
   22.38000     -2.8202482E-08
   22.44000     -2.7467140E-08
   22.50000     -2.6671760E-08
   22.56000     -2.5830541E-08
   22.62000     -2.4974447E-08
   22.68000     -2.4151793E-08
   22.74000     -2.3421789E-08
   22.80000     -2.2840970E-08
   22.86000     -2.2445125E-08
   22.92000     -2.2232147E-08
   22.98000     -2.2152493E-08
   23.04000     -2.2112577E-08
   23.10000     -2.1992292E-08
   23.16000     -2.1672591E-08
   23.22000     -2.1064837E-08
   23.28000     -2.0132688E-08
   23.34000     -1.8899790E-08
   23.40000     -1.7441394E-08
   23.46000     -1.5863085E-08
   23.52000     -1.4273162E-08
   23.58000     -1.2756151E-08
   23.64000     -1.1353935E-08
   23.70000     -1.0058844E-08
   23.76000     -8.8203427E-09
   23.82000     -7.5639370E-09
   23.88000     -6.2178391E-09
   23.94000     -4.7401416E-09
   24.00000     -3.1382956E-09
   24.06000     -1.4741975E-09
   24.12000      1.4752163E-10
   24.18000      1.6047469E-09
   24.24000      2.7885545E-09
   24.30000      3.6292482E-09
   24.36000      4.1094812E-09
   24.42000      4.2609596E-09
   24.48000      4.1469561E-09
   24.54000      3.8374024E-09
   24.60000      3.3852430E-09
   24.66000      2.8116554E-09
   24.72000      2.1043820E-09
   24.78000      1.2289189E-09
   24.84000      1.4802831E-10
   24.90000     -1.1577534E-09
   24.96000     -2.6763358E-09
   25.02000     -4.3624131E-09
   25.08000     -6.1488943E-09
   25.14000     -7.9674187E-09
   25.20000     -9.7703623E-09
   25.26000     -1.1546094E-08
   25.32000     -1.3321793E-08
   25.38000     -1.5152859E-08
   25.44000     -1.7102854E-08
   25.50000     -1.9221060E-08
   25.56000     -2.1525281E-08
   25.62000     -2.3995502E-08
   25.68000     -2.6580494E-08
   25.74000     -2.9215450E-08
   25.80000     -3.1845335E-08
   25.86000     -3.4446622E-08
   25.92000     -3.7039818E-08
   25.98000     -3.9687500E-08
   26.04000     -4.2476728E-08
   26.10000     -4.5490186E-08
   26.16000     -4.8774847E-08
   26.22000     -5.2318786E-08
   26.28000     -5.6044492E-08
   26.34000     -5.9821879E-08
   26.40000     -6.3497311E-08
   26.46000     -6.6929857E-08
   26.52000     -7.0024036E-08
   26.58000     -7.2749891E-08
   26.64000     -7.5145444E-08
   26.70000     -7.7301785E-08
   26.76000     -7.9335351E-08
   26.82000     -8.1354898E-08
   26.88000     -8.3431857E-08
   26.94000     -8.5582151E-08
   27.00000     -8.7764590E-08
   27.06000     -8.9896822E-08
   27.12000     -9.1884033E-08
   27.18000     -9.3651252E-08
   27.24000     -9.5168161E-08
   27.30000     -9.6457626E-08
   27.36000     -9.7584980E-08
   27.42000     -9.8631979E-08
   27.48000     -9.9665094E-08
   27.54000     -1.0070948E-07
   27.60000     -1.0173723E-07
   27.66000     -1.0267295E-07
   27.72000     -1.0341373E-07
   27.78000     -1.0385626E-07
   27.84000     -1.0392247E-07
   27.90000     -1.0357679E-07
   27.96000     -1.0283091E-07
   28.02000     -1.0173603E-07
   28.08000     -1.0036526E-07
   28.14000     -9.8791588E-08
   28.20000     -9.7067449E-08
   28.26000     -9.5211618E-08
   28.32000     -9.3206921E-08
   28.38000     -9.1009042E-08
   28.44000     -8.8563183E-08
   28.50000     -8.5822805E-08
   28.56000     -8.2764387E-08
   28.62000     -7.9393509E-08
   28.68000     -7.5741035E-08
   28.74000     -7.1851510E-08
   28.80000     -6.7768234E-08
   28.86000     -6.3520602E-08
   28.92000     -5.9117742E-08
   28.98000     -5.4550480E-08
   29.04000     -4.9800626E-08
   29.10000     -4.4854289E-08
   29.16000     -3.9714550E-08
   29.22000     -3.4409084E-08
   29.28000     -2.8990172E-08
   29.34000     -2.3527246E-08
   29.40000     -1.8094857E-08
   29.46000     -1.2760704E-08
   29.52000     -7.5780040E-09
   29.58000     -2.5846141E-09
   29.64000      2.1916575E-09
   29.70000      6.7245294E-09
   29.76000      1.0981378E-08
   29.82000      1.4919101E-08
   29.88000      1.8484855E-08
   29.94000      2.1620895E-08
   30.00000      2.4271705E-08
   30.06000      2.6391426E-08
   30.12000      2.7950120E-08
   30.18000      2.8937592E-08
   30.24000      2.9363790E-08
   30.30000      2.9254982E-08
   30.36000      2.8645914E-08
   30.42000      2.7569655E-08
   30.48000      2.6048451E-08
   30.54000      2.4089413E-08
   30.60000      2.1687505E-08
   30.66000      1.8835516E-08
   30.72000      1.5537495E-08
   30.78000      1.1820334E-08
   30.84000      7.7387536E-09
   30.90000      3.3714804E-09
   30.96000     -1.1900013E-09
   31.02000     -5.8562177E-09
   31.08000     -1.0553273E-08
   31.14000     -1.5231576E-08
   31.20000     -1.9868073E-08
   31.26000     -2.4462267E-08
   31.32000     -2.9027612E-08
   31.38000     -3.3580573E-08
   31.44000     -3.8130068E-08
   31.50000     -4.2669971E-08
   31.56000     -4.7176933E-08
   31.62000     -5.1614236E-08
   31.68000     -5.5940376E-08
   31.74000     -6.0119000E-08
   31.80000     -6.4126191E-08
   31.86000     -6.7952072E-08
   31.92000     -7.1596489E-08
   31.98000     -7.5061280E-08
   32.04000     -7.8342929E-08
   32.10000     -8.1429171E-08
   32.16000     -8.4300503E-08
   32.22000     -8.6935074E-08
   32.28000     -8.9313986E-08
   32.34000     -9.1424134E-08
   32.40000     -9.3257825E-08
   32.46000     -9.4810048E-08
   32.52000     -9.6075716E-08
   32.58000     -9.7048769E-08
   32.64000     -9.7723834E-08
   32.70000     -9.8099704E-08
   32.76000     -9.8182817E-08
   32.82000     -9.7988902E-08
   32.88000     -9.7541829E-08
   32.94000     -9.6869471E-08
   33.00000     -9.5997727E-08
   33.06000     -9.4944376E-08
   33.12000     -9.3714888E-08
   33.18000     -9.2302066E-08
   33.24000     -9.0690342E-08
   33.30000     -8.8864397E-08
   33.36000     -8.6820094E-08
   33.42000     -8.4574424E-08
   33.48000     -8.2170786E-08
   33.54000     -7.9676830E-08
   33.60000     -7.7174001E-08
   33.66000     -7.4740797E-08
   33.72000     -7.2434119E-08
   33.78000     -7.0274545E-08
   33.84000     -6.8240702E-08
   33.90000     -6.6275398E-08
   33.96000     -6.4302313E-08
   34.02000     -6.2248624E-08
   34.08000     -6.0066270E-08
   34.14000     -5.7745499E-08
   34.20000     -5.5316494E-08
   34.26000     -5.2839148E-08
   34.32000     -5.0384607E-08
   34.38000     -4.8014439E-08
   34.44000     -4.5763386E-08
   34.50000     -4.3630109E-08
   34.56000     -4.1577806E-08
   34.62000     -3.9544261E-08
   34.68000     -3.7458562E-08
   34.74000     -3.5260349E-08
   34.80000     -3.2916351E-08
   34.86000     -3.0429526E-08
   34.92000     -2.7837661E-08
   34.98000     -2.5201475E-08
   35.04000     -2.2586011E-08
   35.10000     -2.0041659E-08
   35.16000     -1.7591749E-08
   35.22000     -1.5231302E-08
   35.28000     -1.2937421E-08
   35.34000     -1.0687250E-08
   35.40000     -8.4767811E-09
   35.46000     -6.3334213E-09
   35.52000     -4.3176720E-09
   35.58000     -2.5130031E-09
   35.64000     -1.0068660E-09
   35.70000      1.3143960E-10
   35.76000      8.6929114E-10
   35.82000      1.2197783E-09
   35.88000      1.2379814E-09
   35.94000      1.0050165E-09
   36.00000      6.0433047E-10
   36.06000      9.7582789E-11
   36.12000     -4.9204935E-10
   36.18000     -1.1835954E-09
   36.24000     -2.0279582E-09
   36.30000     -3.0873881E-09
   36.36000     -4.4121125E-09
   36.42000     -6.0221135E-09
   36.48000     -7.8997680E-09
   36.54000     -9.9949524E-09
   36.60000     -1.2239975E-08
   36.66000     -1.4568799E-08
   36.72000     -1.6934214E-08
   36.78000     -1.9317769E-08
   36.84000     -2.1729788E-08
   36.90000     -2.4199942E-08
   36.96000     -2.6761684E-08
   37.02000     -2.9435819E-08
   37.08000     -3.2218697E-08
   37.14000     -3.5079044E-08
   37.20000     -3.7964259E-08
   37.26000     -4.0813617E-08
   37.32000     -4.3573333E-08
   37.38000     -4.6208022E-08
   37.44000     -4.8704990E-08
   37.50000     -5.1070757E-08
   37.56000     -5.3322342E-08
   37.62000     -5.5477159E-08
   37.68000     -5.7545133E-08
   37.74000     -5.9524965E-08
   37.80000     -6.1404720E-08
   37.86000     -6.3165672E-08
   37.92000     -6.4787919E-08
   37.98000     -6.6256398E-08
   38.04000     -6.7566106E-08
   38.10000     -6.8725001E-08
   38.16000     -6.9753497E-08
   38.22000     -7.0679697E-08
   38.28000     -7.1531197E-08
   38.34000     -7.2325449E-08
   38.40000     -7.3062012E-08
   38.46000     -7.3719576E-08
   38.52000     -7.4259333E-08
   38.58000     -7.4633952E-08
   38.64000     -7.4799622E-08
   38.70000     -7.4727495E-08
   38.76000     -7.4411389E-08
   38.82000     -7.3869899E-08
   38.88000     -7.3142616E-08
   38.94000     -7.2281814E-08
   39.00000     -7.1341475E-08
   39.06000     -7.0366035E-08
   39.12000     -6.9381294E-08
   39.18000     -6.8389440E-08
   39.24000     -6.7369754E-08
   39.30000     -6.6285303E-08
   39.36000     -6.5094319E-08
   39.42000     -6.3763530E-08
   39.48000     -6.2279462E-08
   39.54000     -6.0654301E-08
   39.60000     -5.8924172E-08
   39.66000     -5.7140415E-08
   39.72000     -5.5356793E-08
   39.78000     -5.3617033E-08
   39.84000     -5.1946888E-08
   39.90000     -5.0352824E-08
   39.96000     -4.8826983E-08
   40.02000     -4.7355439E-08
   40.08000     -4.5926004E-08
   40.14000     -4.4532261E-08
   40.20000     -4.3172719E-08
   40.26000     -4.1846278E-08
   40.32000     -4.0546922E-08
   40.38000     -3.9260851E-08
   40.44000     -3.7968167E-08
   40.50000     -3.6649084E-08
   40.56000     -3.5292715E-08
   40.62000     -3.3905096E-08
   40.68000     -3.2513217E-08
   40.74000     -3.1162987E-08
   40.80000     -2.9911039E-08
   40.86000     -2.8812346E-08
   40.92000     -2.7907056E-08
   40.98000     -2.7210511E-08
   41.04000     -2.6709580E-08
   41.10000     -2.6366624E-08
   41.16000     -2.6130012E-08
   41.22000     -2.5947863E-08
   41.28000     -2.5780476E-08
   41.34000     -2.5607399E-08
   41.40000     -2.5427019E-08
   41.46000     -2.5249612E-08
   41.52000     -2.5087319E-08
   41.58000     -2.4945670E-08
   41.64000     -2.4820361E-08
   41.70000     -2.4700430E-08
   41.76000     -2.4575941E-08
   41.82000     -2.4446360E-08
   41.88000     -2.4325631E-08
   41.94000     -2.4241638E-08
   42.00000     -2.4230275E-08
   42.06000     -2.4326402E-08
   42.12000     -2.4554870E-08
   42.18000     -2.4924313E-08
   42.24000     -2.5425235E-08
   42.30000     -2.6032689E-08
   42.36000     -2.6712886E-08
   42.42000     -2.7432518E-08
   42.48000     -2.8168822E-08
   42.54000     -2.8917780E-08
   42.60000     -2.9697571E-08
   42.66000     -3.0545038E-08
   42.72000     -3.1504932E-08
   42.78000     -3.2614455E-08
   42.84000     -3.3888046E-08
   42.90000     -3.5308101E-08
   42.96000     -3.6825782E-08
   43.02000     -3.8372491E-08
   43.08000     -3.9878504E-08
   43.14000     -4.1292452E-08
   43.20000     -4.2594763E-08
   43.26000     -4.3800604E-08
   43.32000     -4.4951587E-08
   43.38000     -4.6099444E-08
   43.44000     -4.7287550E-08
   43.50000     -4.8536251E-08
   43.56000     -4.9836359E-08
   43.62000     -5.1151929E-08
   43.68000     -5.2430476E-08
   43.74000     -5.3616688E-08
   43.80000     -5.4665151E-08
   43.86000     -5.5548753E-08
   43.92000     -5.6261204E-08
   43.98000     -5.6814368E-08
   44.04000     -5.7232388E-08
   44.10000     -5.7544987E-08
   44.16000     -5.7781783E-08
   44.22000     -5.7968510E-08
   44.28000     -5.8125057E-08
   44.34000     -5.8264785E-08
   44.40000     -5.8394551E-08
   44.46000     -5.8514988E-08
   44.52000     -5.8620827E-08
   44.58000     -5.8701275E-08
   44.64000     -5.8740508E-08
   44.70000     -5.8718602E-08
   44.76000     -5.8613384E-08
   44.82000     -5.8403636E-08
   44.88000     -5.8073571E-08
   44.94000     -5.7617800E-08
   45.00000     -5.7045114E-08
   45.06000     -5.6379303E-08
   45.12000     -5.5655800E-08
   45.18000     -5.4914274E-08
   45.24000     -5.4188973E-08
   45.30000     -5.3499651E-08
   45.36000     -5.2845838E-08
   45.42000     -5.2206271E-08
   45.48000     -5.1543633E-08
   45.54000     -5.0813050E-08
   45.60000     -4.9972073E-08
   45.66000     -4.8989580E-08
   45.72000     -4.7851675E-08
   45.78000     -4.6563670E-08
   45.84000     -4.5148095E-08
   45.90000     -4.3639663E-08
   45.96000     -4.2078756E-08
   46.02000     -4.0505167E-08
   46.08000     -3.8953512E-08
   46.14000     -3.7450931E-08
   46.20000     -3.6016569E-08
   46.26000     -3.4661578E-08
   46.32000     -3.3388577E-08
   46.38000     -3.2190247E-08
   46.44000     -3.1048209E-08
   46.50000     -2.9934085E-08
   46.56000     -2.8814217E-08
   46.62000     -2.7658045E-08
   46.68000     -2.6447934E-08
   46.74000     -2.5186884E-08
   46.80000     -2.3900816E-08
   46.86000     -2.2633962E-08
   46.92000     -2.1438662E-08
   46.98000     -2.0363000E-08
   47.04000     -1.9440380E-08
   47.10000     -1.8683989E-08
   47.16000     -1.8086974E-08
   47.22000     -1.7627167E-08
   47.28000     -1.7274083E-08
   47.34000     -1.6996061E-08
   47.40000     -1.6766220E-08
   47.46000     -1.6566647E-08
   47.52000     -1.6390715E-08
   47.58000     -1.6243332E-08
   47.64000     -1.6138817E-08
   47.70000     -1.6096369E-08
   47.76000     -1.6133871E-08
   47.82000     -1.6261733E-08
   47.88000     -1.6479257E-08
   47.94000     -1.6775681E-08
   48.00000     -1.7136513E-08
   48.06000     -1.7553246E-08
   48.12000     -1.8032251E-08
   48.18000     -1.8597916E-08
   48.24000     -1.9286949E-08
   48.30000     -2.0134941E-08
   48.36000     -2.1160663E-08
   48.42000     -2.2356007E-08
   48.48000     -2.3687779E-08
   48.54000     -2.5112138E-08
   48.60000     -2.6596044E-08
   48.66000     -2.8136018E-08
   48.72000     -2.9765562E-08
   48.78000     -3.1548190E-08
   48.84000     -3.3560223E-08
   48.90000     -3.5872191E-08
   48.96000     -3.8537486E-08
   49.02000     -4.1592362E-08
   49.08000     -4.5065772E-08
   49.14000     -4.8993950E-08
   49.20000     -5.3434633E-08
   49.26000     -5.8478129E-08
   49.32000     -6.4254650E-08
   49.38000     -7.0938029E-08
   49.44000     -7.8745160E-08
   49.50000     -8.7930609E-08
   49.56000     -9.8777861E-08
   49.62000     -1.1159135E-07
   49.68000     -1.2669580E-07
   49.74000     -1.4444741E-07
   49.80000     -1.6525738E-07
   49.86000     -1.8962196E-07
   49.92000     -2.1815127E-07
   49.98000     -2.5158943E-07
   50.04000     -2.9082349E-07
   50.10000     -3.3688380E-07
   50.16000     -3.9094024E-07
   50.22000     -4.5429920E-07
   50.28000     -5.2840545E-07
   50.34000     -6.1485008E-07
   50.40000     -7.1538830E-07
   50.46000     -8.3196829E-07
   50.52000     -9.6677013E-07
   50.58000     -1.1222502E-06
   50.64000     -1.3011835E-06
   50.70000     -1.5066967E-06
   50.76000     -1.7422898E-06
   50.82000     -2.0118509E-06
   50.88000     -2.3196721E-06
   50.94000     -2.6704731E-06
   51.00000     -3.0694332E-06
   51.06000     -3.5222331E-06
   51.12000     -4.0350942E-06
   51.18000     -4.6148216E-06
   51.24000     -5.2688429E-06
   51.30000     -6.0052494E-06
   51.36000     -6.8328368E-06
   51.42000     -7.7611394E-06
   51.48000     -8.8004508E-06
   51.54000     -9.9618337E-06
   51.60000     -1.1257114E-05
   51.66000     -1.2698883E-05
   51.72000     -1.4300506E-05
   51.78000     -1.6076136E-05
   51.84000     -1.8040737E-05
   51.90000     -2.0210089E-05
   51.96000     -2.2600780E-05
   52.02000     -2.5230160E-05
   52.08000     -2.8116312E-05
   52.14000     -3.1277985E-05
   52.20000     -3.4734545E-05
   52.26000     -3.8505914E-05
   52.32000     -4.2612493E-05
   52.38000     -4.7075067E-05
   52.44000     -5.1914700E-05
   52.50000     -5.7152585E-05
   52.56000     -6.2809908E-05
   52.62000     -6.8907721E-05
   52.68000     -7.5466800E-05
   52.74000     -8.2507504E-05
   52.80000     -9.0049580E-05
   52.86000     -9.8112003E-05
   52.92000     -1.0671275E-04
   52.98000     -1.1586865E-04
   53.04000     -1.2559514E-04
   53.10000     -1.3590608E-04
   53.16000     -1.4681359E-04
   53.22000     -1.5832773E-04
   53.28000     -1.7045643E-04
   53.34000     -1.8320515E-04
   53.40000     -1.9657683E-04
   53.46000     -2.1057160E-04
   53.52000     -2.2518676E-04
   53.58000     -2.4041651E-04
   53.64000     -2.5625192E-04
   53.70000     -2.7268069E-04
   53.76000     -2.8968710E-04
   53.82000     -3.0725208E-04
   53.88000     -3.2535291E-04
   53.94000     -3.4396353E-04
   54.00000     -3.6305445E-04
   54.06000     -3.8259281E-04
   54.12000     -4.0254230E-04
   54.18000     -4.2286352E-04
   54.24000     -4.4351417E-04
   54.30000     -4.6444914E-04
   54.36000     -4.8562081E-04
   54.42000     -5.0697936E-04
   54.48000     -5.2847282E-04
   54.54000     -5.5004761E-04
   54.60000     -5.7164882E-04
   54.66000     -5.9322058E-04
   54.72000     -6.1470643E-04
   54.78000     -6.3604966E-04
   54.84000     -6.5719383E-04
   54.90000     -6.7808316E-04
   54.96000     -6.9866300E-04
   55.02000     -7.1888021E-04
   55.08000     -7.3868351E-04
   55.14000     -7.5802417E-04
   55.20000     -7.7685568E-04
   55.26000     -7.9513487E-04
   55.32000     -8.1282167E-04
   55.38000     -8.2988001E-04
   55.44000     -8.4627763E-04
   55.50000     -8.6198660E-04
   55.56000     -8.7698322E-04