  -2.400000      0.0000000E+00
  -2.340000      0.0000000E+00
  -2.280000      0.0000000E+00
  -2.220000      0.0000000E+00
  -2.160000      0.0000000E+00
  -2.100000      9.9036143E-19
  -2.040000      8.0058196E-18
  -1.980000      3.2991510E-17
  -1.920000      8.9361341E-17
  -1.860000      1.6790731E-16
  -1.800000      1.9481019E-16
  -1.740000      1.8912682E-18
  -1.680000     -6.2697262E-16
  -1.620000     -1.7718915E-15
  -1.560000     -3.0805233E-15
  -1.500000     -3.5526830E-15
  -1.440000     -1.7414647E-15
  -1.380000      3.3751800E-15
  -1.320000      1.1041891E-14
  -1.260000      1.7751325E-14
  -1.200000      1.7900893E-14
  -1.140000      6.8231015E-15
  -1.080000     -1.4691720E-14
  -1.020000     -3.7267478E-14
 -0.9600000     -4.4888331E-14
 -0.9000000     -2.3661167E-14
 -0.8400000      2.5527588E-14
 -0.7800000      7.8393983E-14
 -0.7200000      9.1983313E-14
 -0.6600000      2.6734489E-14
 -0.6000000     -1.2128897E-13
 -0.5400000     -2.9638146E-13
 -0.4800000     -3.8866542E-13
 -0.4200000     -2.7930116E-13
 -0.3600000      8.6921396E-14
 -0.3000000      6.3687418E-13
 -0.2400000      1.1555356E-12
 -0.1800000      1.3501273E-12
 -0.1200000      9.8052783E-13
 -5.9999999E-02  3.1459799E-15
  0.0000000E+00 -1.3456065E-12
  5.9999999E-02 -2.5845144E-12
  0.1200000     -3.1498335E-12
  0.1800000     -2.6309109E-12
  0.2400000     -9.8215121E-13
  0.3000000      1.3865611E-12
  0.3600000      3.6946240E-12
  0.4200000      5.0346359E-12
  0.4800000      4.6956965E-12
  0.5400000      2.4549553E-12
  0.6000000     -1.2635102E-12
  0.6600000     -5.4212507E-12
  0.7200000     -8.5934419E-12
  0.7800000     -9.3460543E-12
  0.8400000     -6.6778774E-12
  0.9000000     -4.1824148E-13
  0.9600000      8.5384174E-12
   1.020000      1.8265516E-11
   1.080000      2.6158147E-11
   1.140000      2.9569892E-11
   1.200000      2.6582101E-11
   1.260000      1.6665025E-11
   1.320000      9.7718838E-13
   1.380000     -1.7851075E-11
   1.440000     -3.6405774E-11
   1.500000     -5.1382759E-11
   1.560000     -6.0287338E-11
   1.620000     -6.1597540E-11
   1.680000     -5.4317013E-11
   1.740000     -3.7232998E-11
   1.800000     -8.5131806E-12
   1.860000      3.3685398E-11
   1.920000      8.9276864E-11
   1.980000      1.5333200E-10
   2.040000      2.1326338E-10
   2.100000      2.4757349E-10
   2.160000      2.2739262E-10
   2.220000      1.2113295E-10
   2.280000     -9.8676123E-11
   2.340000     -4.4838744E-10
   2.400000     -9.2843433E-10
   2.460000     -1.5224410E-09
   2.520000     -2.2004951E-09
   2.580000     -2.9251801E-09
   2.640000     -3.6578778E-09
   2.700000     -4.3628932E-09
   2.760000     -5.0081459E-09
   2.820000     -5.5629741E-09
   2.880000     -5.9951328E-09
   2.940000     -6.2695689E-09
   3.000000     -6.3507173E-09
   3.060000     -6.2082846E-09
   3.120000     -5.8245884E-09
   3.180000     -5.2004889E-09
   3.240000     -4.3572972E-09
   3.300000     -3.3336196E-09
   3.360000     -2.1782414E-09
   3.420000     -9.4176700E-10
   3.480000      3.2983577E-10
   3.540000      1.5976723E-09
   3.600000      2.8281926E-09
   3.660000      3.9891614E-09
   3.720000      5.0463389E-09
   3.780000      5.9636247E-09
   3.840000      6.7078880E-09
   3.900000      7.2575017E-09
   3.960000      7.6117024E-09
   4.020000      7.7970501E-09
   4.080000      7.8678877E-09
   4.140000      7.8995432E-09
   4.200000      7.9755091E-09
   4.260000      8.1719298E-09
   4.320000      8.5438101E-09
   4.380000      9.1169117E-09
   4.440000      9.8874935E-09
   4.500000      1.0829496E-08
   4.560000      1.1906367E-08
   4.620000      1.3083318E-08
   4.680000      1.4335932E-08
   4.740000      1.5652638E-08
   4.800000      1.7031125E-08
   4.860000      1.8471114E-08
   4.920000      1.9967358E-08
   4.980000      2.1506370E-08
   5.040000      2.3068591E-08
   5.100000      2.4634952E-08
   5.160000      2.6194593E-08
   5.220000      2.7749637E-08
   5.280000      2.9314066E-08
   5.340000      3.0906563E-08
   5.400000      3.2540154E-08
   5.460000      3.4213588E-08
   5.520000      3.5908954E-08
   5.580000      3.7597584E-08
   5.640000      3.9252360E-08
   5.700000      4.0861259E-08
   5.760000      4.2435726E-08
   5.820000      4.4009383E-08
   5.880000      4.5626606E-08
   5.940000      4.7325031E-08
   6.000000      4.9119006E-08
   6.060000      5.0990842E-08
   6.120000      5.2893462E-08
   6.180000      5.4763277E-08
   6.240000      5.6537765E-08
   6.300000      5.8170588E-08
   6.360000      5.9638374E-08
   6.420000      6.0937325E-08
   6.480000      6.2072068E-08
   6.540000      6.3042535E-08
   6.600000      6.3834534E-08
   6.660000      6.4418046E-08
   6.720000      6.4753266E-08
   6.780000      6.4801128E-08
   6.840000      6.4533722E-08
   6.900000      6.3940242E-08
   6.960000      6.3026953E-08
   7.020000      6.1812237E-08
   7.080000      6.0319913E-08
   7.140000      5.8574187E-08
   7.200000      5.6598424E-08
   7.260000      5.4417420E-08
   7.320000      5.2061193E-08
   7.380000      4.9567564E-08
   7.440000      4.6981707E-08
   7.500000      4.4352561E-08
   7.560000      4.1727638E-08
   7.620000      3.9148368E-08
   7.680000      3.6647588E-08
   7.740000      3.4249478E-08
   7.800000      3.1970952E-08
   7.860000      2.9823198E-08
   7.920000      2.7812360E-08
   7.980000      2.5939464E-08
   8.040000      2.4200240E-08
   8.100000      2.2585503E-08
   8.160000      2.1082256E-08
   8.220000      1.9675074E-08
   8.280000      1.8347125E-08
   8.340000      1.7080675E-08
   8.400000      1.5857498E-08
   8.460000      1.4659987E-08
   8.520000      1.3473314E-08
   8.580000      1.2288249E-08
   8.640000      1.1103482E-08
   8.700000      9.9262261E-09
   8.760000      8.7705470E-09
   8.820000      7.6539131E-09
   8.880000      6.5932646E-09
   8.940000      5.6019704E-09
   9.000000      4.6884496E-09
   9.060000      3.8563703E-09
   9.120000      3.1057390E-09
   9.180000      2.4340967E-09
   9.240000      1.8373459E-09
   9.300000      1.3100789E-09
   9.360000      8.4547808E-10
   9.420000      4.3486084E-10
   9.480000      6.6945151E-11
   9.540000     -2.7294142E-10
   9.600000     -6.0329924E-10
   9.660000     -9.4606734E-10
   9.720000     -1.3251765E-09
   9.780000     -1.7642434E-09
   9.840000     -2.2839530E-09
   9.900000     -2.8996838E-09
   9.960000     -3.6196295E-09
   10.02000     -4.4433563E-09
   10.08000     -5.3607705E-09
   10.14000     -6.3518462E-09
   10.20000     -7.3878805E-09
   10.26000     -8.4348946E-09
   10.32000     -9.4589359E-09
   10.38000     -1.0431766E-08
   10.44000     -1.1334647E-08
   10.50000     -1.2158440E-08
   10.56000     -1.2899938E-08
   10.62000     -1.3556556E-08
   10.68000     -1.4122620E-08
   10.74000     -1.4589797E-08
   10.80000     -1.4951809E-08
   10.86000     -1.5210768E-08
   10.92000     -1.5381170E-08
   10.98000     -1.5488656E-08
   11.04000     -1.5563566E-08
   11.10000     -1.5632466E-08
   11.16000     -1.5712123E-08
   11.22000     -1.5809031E-08
   11.28000     -1.5924295E-08
   11.34000     -1.6060563E-08
   11.40000     -1.6226545E-08
   11.46000     -1.6436449E-08
   11.52000     -1.6704883E-08
   11.58000     -1.7040817E-08
   11.64000     -1.7444604E-08
   11.70000     -1.7910105E-08
   11.76000     -1.8430473E-08
   11.82000     -1.9003636E-08
   11.88000     -1.9633490E-08
   11.94000     -2.0325334E-08
   12.00000     -2.1077653E-08
   12.06000     -2.1874737E-08
   12.12000     -2.2684532E-08
   12.18000     -2.3463404E-08
   12.24000     -2.4165901E-08
   12.30000     -2.4755135E-08
   12.36000     -2.5209287E-08
   12.42000     -2.5522082E-08
   12.48000     -2.5698188E-08
   12.54000     -2.5746974E-08
   12.60000     -2.5678318E-08
   12.66000     -2.5502443E-08
   12.72000     -2.5233007E-08
   12.78000     -2.4890502E-08
   12.84000     -2.4502635E-08
   12.90000     -2.4099778E-08
   12.96000     -2.3706354E-08
   13.02000     -2.3331459E-08
   13.08000     -2.2963137E-08
   13.14000     -2.2569559E-08
   13.20000     -2.2107763E-08
   13.26000     -2.1537208E-08
   13.32000     -2.0833181E-08
   13.38000     -1.9994852E-08
   13.44000     -1.9044926E-08
   13.50000     -1.8021229E-08
   13.56000     -1.6963895E-08
   13.62000     -1.5903344E-08
   13.68000     -1.4853441E-08
   13.74000     -1.3811605E-08
   13.80000     -1.2764495E-08
   13.86000     -1.1695879E-08
   13.92000     -1.0593155E-08
   13.98000     -9.4504777E-09
   14.04000     -8.2685947E-09
   14.10000     -7.0529222E-09
   14.16000     -5.8117098E-09
   14.22000     -4.5553223E-09
   14.28000     -3.2965481E-09
   14.34000     -2.0511852E-09
   14.40000     -8.3813151E-10
   14.46000      3.2138930E-10
   14.52000      1.4054592E-09
   14.58000      2.3938325E-09
   14.64000      3.2708667E-09
   14.70000      4.0286081E-09
   14.76000      4.6690527E-09
   14.82000      5.2041012E-09
   14.88000      5.6518750E-09
   14.94000      6.0292784E-09
   15.00000      6.3426500E-09
   15.06000      6.5801204E-09
   15.12000      6.7096924E-09
   15.18000      6.6854389E-09
   15.24000      6.4610020E-09
   15.30000      6.0061964E-09
   15.36000      5.3206564E-09
   15.42000      4.4392023E-09
   15.48000      3.4267702E-09
   15.54000      2.3648539E-09
   15.60000      1.3346467E-09
   15.66000      4.0289377E-10
   15.72000     -3.8532302E-10
   15.78000     -1.0059845E-09
   15.84000     -1.4501155E-09
   15.90000     -1.7164219E-09
   15.96000     -1.8062333E-09
   16.02000     -1.7224308E-09
   16.08000     -1.4717325E-09
   16.14000     -1.0682233E-09
   16.20000     -5.3587235E-10
   16.26000      9.1291176E-11
   16.32000      7.7138818E-10
   16.38000      1.4584406E-09
   16.44000      2.1065931E-09
   16.50000      2.6740099E-09
   16.56000      3.1260177E-09
   16.62000      3.4372487E-09
   16.68000      3.5925587E-09
   16.74000      3.5865981E-09
   16.80000      3.4222365E-09
   16.86000      3.1085070E-09
   16.92000      2.6590030E-09
   16.98000      2.0914230E-09
   17.04000      1.4282230E-09
   17.10000      6.9752681E-10
   17.16000     -6.6901602E-11
   17.22000     -8.2736362E-10
   17.28000     -1.5453029E-09
   17.34000     -2.1844726E-09
   17.40000     -2.7127207E-09
   17.46000     -3.1017580E-09
   17.52000     -3.3257186E-09
   17.58000     -3.3604435E-09
   17.64000     -3.1853662E-09
   17.70000     -2.7885148E-09
   17.76000     -2.1730964E-09
   17.82000     -1.3625611E-09
   17.88000     -4.0097844E-10
   17.94000      6.5282768E-10
   18.00000      1.7363176E-09
   18.06000      2.7960163E-09
   18.12000      3.7976267E-09
   18.18000      4.7299489E-09
   18.24000      5.6013723E-09
   18.30000      6.4304500E-09
   18.36000      7.2341626E-09
   18.42000      8.0181586E-09
   18.48000      8.7724503E-09
   18.54000      9.4740082E-09
   18.60000      1.0095223E-08
   18.66000      1.0615037E-08
   18.72000      1.1028476E-08
   18.78000      1.1350793E-08
   18.84000      1.1614349E-08
   18.90000      1.1859242E-08
   18.96000      1.2121198E-08
   19.02000      1.2421519E-08
   19.08000      1.2762953E-08
   19.14000      1.3132834E-08
   19.20000      1.3511525E-08
   19.26000      1.3881957E-08
   19.32000      1.4235827E-08
   19.38000      1.4574004E-08
   19.44000      1.4901888E-08
   19.50000      1.5223142E-08
   19.56000      1.5535973E-08
   19.62000      1.5834525E-08
   19.68000      1.6114900E-08
   19.74000      1.6382353E-08
   19.80000      1.6655175E-08
   19.86000      1.6962119E-08
   19.92000      1.7333541E-08
   19.98000      1.7789880E-08
   20.04000      1.8332901E-08
   20.10000      1.8944258E-08
   20.16000      1.9592690E-08
   20.22000      2.0247066E-08
   20.28000      2.0889686E-08
   20.34000      2.1524151E-08
   20.40000      2.2174614E-08
   20.46000      2.2877421E-08
   20.52000      2.3669342E-08
   20.58000      2.4577776E-08
   20.64000      2.5616435E-08
   20.70000      2.6786708E-08
   20.76000      2.8081807E-08
   20.82000      2.9489835E-08
   20.88000      3.0993345E-08
   20.94000      3.2565943E-08
   21.00000      3.4168945E-08
   21.06000      3.5751633E-08
   21.12000      3.7256733E-08
   21.18000      3.8629540E-08
   21.24000      3.9826766E-08
   21.30000      4.0820673E-08
   21.36000      4.1596472E-08
   21.42000      4.2144269E-08
   21.48000      4.2449919E-08
   21.54000      4.2489624E-08
   21.60000      4.2231417E-08
   21.66000      4.1643219E-08
   21.72000      4.0703995E-08
   21.78000      3.9413234E-08
   21.84000      3.7794951E-08
   21.90000      3.5894868E-08
   21.96000      3.3772121E-08
   22.02000      3.1488678E-08
   22.08000      2.9099523E-08
   22.14000      2.6645942E-08
   22.20000      2.4152730E-08
   22.26000      2.1629237E-08
   22.32000      1.9073777E-08
   22.38000      1.6480595E-08
   22.44000      1.3848226E-08
   22.50000      1.1187316E-08
   22.56000      8.5253946E-09
   22.62000      5.9064136E-09
   22.68000      3.3842904E-09
   22.74000      1.0120198E-09
   22.80000     -1.1699032E-09
   22.86000     -3.1411795E-09
   22.92000     -4.9021702E-09
   22.98000     -6.4667525E-09
   23.04000     -7.8506881E-09
   23.10000     -9.0609511E-09
   23.16000     -1.0091399E-08
   23.22000     -1.0927541E-08
   23.28000     -1.1558995E-08
   23.34000     -1.1994379E-08
   23.40000     -1.2271591E-08
   23.46000     -1.2457710E-08
   23.52000     -1.2636675E-08
   23.58000     -1.2888006E-08
   23.64000     -1.3263886E-08
   23.70000     -1.3773189E-08
   23.76000     -1.4378723E-08
   23.82000     -1.5008805E-08
   23.88000     -1.5578561E-08
   23.94000     -1.6012462E-08
   24.00000     -1.6259451E-08
   24.06000     -1.6295726E-08
   24.12000     -1.6116092E-08
   24.18000     -1.5719884E-08
   24.24000     -1.5099431E-08
   24.30000     -1.4236806E-08
   24.36000     -1.3109877E-08
   24.42000     -1.1703691E-08
   24.48000     -1.0021046E-08
   24.54000     -8.0873717E-09
   24.60000     -5.9487952E-09
   24.66000     -3.6658840E-09
   24.72000     -1.3068749E-09
   24.78000      1.0572798E-09
   24.84000      3.3566481E-09
   24.90000      5.5273732E-09
   24.96000      7.5199411E-09
   25.02000      9.3095736E-09
   25.08000      1.0904378E-08
   25.14000      1.2345825E-08
   25.20000      1.3698481E-08
   25.26000      1.5030828E-08
   25.32000      1.6393772E-08
   25.38000      1.7805236E-08
   25.44000      1.9246951E-08
   25.50000      2.0674078E-08
   25.56000      2.2032646E-08
   25.62000      2.3276653E-08
   25.68000      2.4377705E-08
   25.74000      2.5324296E-08
   25.80000      2.6112955E-08
   25.86000      2.6736908E-08
   25.92000      2.7178082E-08
   25.98000      2.7405823E-08
   26.04000      2.7381892E-08
   26.10000      2.7068703E-08
   26.16000      2.6437208E-08
   26.22000      2.5472307E-08
   26.28000      2.4175831E-08
   26.34000      2.2568488E-08
   26.40000      2.0691727E-08
   26.46000      1.8608789E-08
   26.52000      1.6402469E-08
   26.58000      1.4167056E-08
   26.64000      1.1994029E-08
   26.70000      9.9547615E-09
   26.76000      8.0865128E-09
   26.82000      6.3883929E-09
   26.88000      4.8307047E-09
   26.94000      3.3752467E-09
   27.00000      1.9985729E-09
   27.06000      7.0798351E-10
   27.12000     -4.5728191E-10
   27.18000     -1.4404671E-09
   27.24000     -2.1907396E-09
   27.30000     -2.6847919E-09
   27.36000     -2.9369083E-09
   27.42000     -2.9937759E-09
   27.48000     -2.9178631E-09
   27.54000     -2.7682074E-09
   27.60000     -2.5874953E-09
   27.66000     -2.3996694E-09
   27.72000     -2.2160385E-09
   27.78000     -2.0436539E-09
   27.84000     -1.8898392E-09
   27.90000     -1.7606826E-09
   27.96000     -1.6562047E-09
   28.02000     -1.5675868E-09
   28.08000     -1.4804928E-09
   28.14000     -1.3840861E-09
   28.20000     -1.2807825E-09
   28.26000     -1.1900445E-09
   28.32000     -1.1419667E-09
   28.38000     -1.1618502E-09
   28.44000     -1.2523405E-09
   28.50000     -1.3819275E-09
   28.56000     -1.4862583E-09
   28.62000     -1.4829447E-09
   28.68000     -1.2942696E-09
   28.74000     -8.6858681E-10
   28.80000     -1.9200863E-10
   28.86000      7.1336859E-10
   28.92000      1.8023972E-09
   28.98000      3.0241529E-09
   29.04000      4.3357402E-09
   29.10000      5.7074416E-09
   29.16000      7.1185919E-09
   29.22000      8.5476923E-09
   29.28000      9.9621449E-09
   29.34000      1.1312126E-08
   29.40000      1.2530537E-08
   29.46000      1.3538239E-08
   29.52000      1.4252378E-08
   29.58000      1.4595653E-08
   29.64000      1.4505392E-08
   29.70000      1.3941963E-08
   29.76000      1.2895836E-08
   29.82000      1.1391585E-08
   29.88000      9.4864419E-09
   29.94000      7.2615940E-09
   30.00000      4.8066524E-09
   30.06000      2.2008957E-09
   30.12000     -5.0271315E-10
   30.18000     -3.2846266E-09
   30.24000     -6.1535932E-09
   30.30000     -9.1307104E-09
   30.36000     -1.2228623E-08
   30.42000     -1.5434063E-08
   30.48000     -1.8700524E-08
   30.54000     -2.1953506E-08
   30.60000     -2.5105253E-08
   30.66000     -2.8072341E-08
   30.72000     -3.0788932E-08
   30.78000     -3.3211712E-08
   30.84000     -3.5316997E-08
   30.90000     -3.7094274E-08
   30.96000     -3.8541021E-08
   31.02000     -3.9661472E-08
   31.08000     -4.0468169E-08
   31.14000     -4.0982385E-08
   31.20000     -4.1229836E-08
   31.26000     -4.1231207E-08
   31.32000     -4.0991385E-08
   31.38000     -4.0493738E-08
   31.44000     -3.9704638E-08
   31.50000     -3.8588666E-08
   31.56000     -3.7128828E-08
   31.62000     -3.5342403E-08
   31.68000     -3.3283982E-08
   31.74000     -3.1032904E-08
   31.80000     -2.8670007E-08
   31.86000     -2.6254195E-08
   31.92000     -2.3809807E-08
   31.98000     -2.1330207E-08
   32.04000     -1.8794900E-08
   32.10000     -1.6190523E-08
   32.16000     -1.3524443E-08
   32.22000     -1.0824109E-08
   32.28000     -8.1234068E-09
   32.34000     -5.4443543E-09
   32.40000     -2.7848381E-09
   32.46000     -1.1939971E-10
   32.52000      2.5873830E-09
   32.58000      5.3622826E-09
   32.64000      8.2094394E-09
   32.70000      1.1107690E-08
   32.76000      1.4019095E-08
   32.82000      1.6902227E-08
   32.88000      1.9721595E-08
   32.94000      2.2447802E-08
   33.00000      2.5049419E-08
   33.06000      2.7483454E-08
   33.12000      2.9692730E-08
   33.18000      3.1614789E-08
   33.24000      3.3199846E-08
   33.30000      3.4429213E-08
   33.36000      3.5323833E-08
   33.42000      3.5936832E-08
   33.48000      3.6331809E-08
   33.54000      3.6556155E-08
   33.60000      3.6621682E-08
   33.66000      3.6501586E-08
   33.72000      3.6145028E-08
   33.78000      3.5502236E-08
   33.84000      3.4548520E-08
   33.90000      3.3296988E-08
   33.96000      3.1796066E-08
   34.02000      3.0115498E-08
   34.08000      2.8329071E-08
   34.14000      2.6502070E-08
   34.20000      2.4686878E-08
   34.26000      2.2924624E-08
   34.32000      2.1247713E-08
   34.38000      1.9679286E-08
   34.44000      1.8229557E-08
   34.50000      1.6892963E-08
   34.56000      1.5650775E-08
   34.62000      1.4480727E-08
   34.68000      1.3370184E-08
   34.74000      1.2325788E-08
   34.80000      1.1373185E-08
   34.86000      1.0545318E-08
   34.92000      9.8642543E-09
   34.98000      9.3257135E-09
   35.04000      8.8947374E-09
   35.10000      8.5154035E-09
   35.16000      8.1302218E-09
   35.22000      7.6999136E-09
   35.28000      7.2142221E-09
   35.34000      6.6893118E-09
   35.40000      6.1541541E-09
   35.46000      5.6334541E-09
   35.52000      5.1356221E-09
   35.58000      4.6509512E-09
   35.64000      4.1597423E-09
   35.70000      3.6456336E-09
   35.76000      3.1077958E-09
   35.82000      2.5671969E-09
   35.88000      2.0653594E-09
   35.94000      1.6569949E-09
   36.00000      1.3993583E-09
   36.06000      1.3410471E-09
   36.12000      1.5121123E-09
   36.18000      1.9167004E-09
   36.24000      2.5293820E-09
   36.30000      3.2965095E-09
   36.36000      4.1436206E-09
   36.42000      4.9886566E-09
   36.48000      5.7587406E-09
   36.54000      6.4063159E-09
   36.60000      6.9196298E-09
   36.66000      7.3235293E-09
   36.72000      7.6693212E-09
   36.78000      8.0161096E-09
   36.84000      8.4093204E-09
   36.90000      8.8636156E-09
   36.96000      9.3563743E-09
   37.02000      9.8345039E-09
   37.08000      1.0232555E-08
   37.14000      1.0495790E-08
   37.20000      1.0599720E-08
   37.26000      1.0558702E-08
   37.32000      1.0420258E-08
   37.38000      1.0247408E-08
   37.44000      1.0095994E-08
   37.50000      9.9959099E-09
   37.56000      9.9432418E-09
   37.62000      9.9055795E-09
   37.68000      9.8372075E-09
   37.74000      9.6971418E-09
   37.80000      9.4625232E-09
   37.86000      9.1327950E-09
   37.92000      8.7246059E-09
   37.98000      8.2613001E-09
   38.04000      7.7623854E-09
   38.10000      7.2370780E-09
   38.16000      6.6831212E-09
   38.22000      6.0892580E-09
   38.28000      5.4386442E-09
   38.34000      4.7112980E-09
   38.40000      3.8855910E-09
   38.46000      2.9402853E-09
   38.52000      1.8585519E-09
   38.58000      6.3381761E-10
   38.64000     -7.2480694E-10
   38.70000     -2.1908473E-09
   38.76000     -3.7248897E-09
   38.82000     -5.2847193E-09
   38.88000     -6.8375785E-09
   38.94000     -8.3691241E-09
   39.00000     -9.8845341E-09
   39.06000     -1.1400586E-08
   39.12000     -1.2931875E-08
   39.18000     -1.4477473E-08
   39.24000     -1.6014567E-08
   39.30000     -1.7502529E-08
   39.36000     -1.8896074E-08
   39.42000     -2.0161783E-08
   39.48000     -2.1290585E-08
   39.54000     -2.2300625E-08
   39.60000     -2.3229221E-08
   39.66000     -2.4117481E-08
   39.72000     -2.4994224E-08
   39.78000     -2.5865750E-08
   39.84000     -2.6715352E-08
   39.90000     -2.7512177E-08
   39.96000     -2.8225555E-08
   40.02000     -2.8839164E-08
   40.08000     -2.9359986E-08
   40.14000     -2.9819265E-08
   40.20000     -3.0265454E-08
   40.26000     -3.0751607E-08
   40.32000     -3.1321076E-08
   40.38000     -3.1995729E-08
   40.44000     -3.2770220E-08
   40.50000     -3.3614278E-08
   40.56000     -3.4482682E-08
   40.62000     -3.5330221E-08
   40.68000     -3.6126760E-08
   40.74000     -3.6866897E-08
   40.80000     -3.7570068E-08
   40.86000     -3.8270144E-08
   40.92000     -3.8997950E-08
   40.98000     -3.9763506E-08
   41.04000     -4.0545928E-08
   41.10000     -4.1296321E-08
   41.16000     -4.1953832E-08
   41.22000     -4.2468876E-08
   41.28000     -4.2823711E-08
   41.34000     -4.3040721E-08
   41.40000     -4.3173522E-08
   41.46000     -4.3283478E-08
   41.52000     -4.3411148E-08
   41.58000     -4.3555001E-08
   41.64000     -4.3667285E-08
   41.70000     -4.3669658E-08
   41.76000     -4.3482700E-08
   41.82000     -4.3057216E-08
   41.88000     -4.2394465E-08
   41.94000     -4.1547260E-08
   42.00000     -4.0601957E-08
   42.06000     -3.9649272E-08
   42.12000     -3.8755882E-08
   42.18000     -3.7947689E-08
   42.24000     -3.7210064E-08
   42.30000     -3.6503273E-08
   42.36000     -3.5785522E-08
   42.42000     -3.5033832E-08
   42.48000     -3.4254924E-08
   42.54000     -3.3482824E-08
   42.60000     -3.2765346E-08
   42.66000     -3.2145486E-08
   42.72000     -3.1645182E-08
   42.78000     -3.1257390E-08
   42.84000     -3.0949003E-08
   42.90000     -3.0673007E-08
   42.96000     -3.0384825E-08
   43.02000     -3.0056601E-08
   43.08000     -2.9683967E-08
   43.14000     -2.9283029E-08
   43.20000     -2.8879112E-08
   43.26000     -2.8492069E-08
   43.32000     -2.8124399E-08
   43.38000     -2.7757203E-08
   43.44000     -2.7355844E-08
   43.50000     -2.6883189E-08
   43.56000     -2.6315112E-08
   43.62000     -2.5651914E-08
   43.68000     -2.4920777E-08
   43.74000     -2.4167901E-08
   43.80000     -2.3443173E-08
   43.86000     -2.2783290E-08
   43.92000     -2.2200144E-08
   43.98000     -2.1679259E-08
   44.04000     -2.1189008E-08
   44.10000     -2.0696765E-08
   44.16000     -2.0185071E-08
   44.22000     -1.9660799E-08
   44.28000     -1.9153292E-08
   44.34000     -1.8702497E-08
   44.40000     -1.8342648E-08
   44.46000     -1.8089066E-08
   44.52000     -1.7934038E-08
   44.58000     -1.7853209E-08
   44.64000     -1.7818779E-08
   44.70000     -1.7812678E-08
   44.76000     -1.7833198E-08
   44.82000     -1.7892370E-08
   44.88000     -1.8006137E-08
   44.94000     -1.8183012E-08
   45.00000     -1.8417383E-08
   45.06000     -1.8690702E-08
   45.12000     -1.8979591E-08
   45.18000     -1.9266169E-08
   45.24000     -1.9544997E-08
   45.30000     -1.9822860E-08
   45.36000     -2.0111401E-08
   45.42000     -2.0416220E-08
   45.48000     -2.0727878E-08
   45.54000     -2.1019526E-08
   45.60000     -2.1253067E-08
   45.66000     -2.1392005E-08
   45.72000     -2.1416193E-08
   45.78000     -2.1332474E-08
   45.84000     -2.1176437E-08
   45.90000     -2.1003750E-08
   45.96000     -2.0873454E-08
   46.02000     -2.0829102E-08
   46.08000     -2.0884722E-08
   46.14000     -2.1021153E-08
   46.20000     -2.1194365E-08
   46.26000     -2.1352733E-08
   46.32000     -2.1456591E-08
   46.38000     -2.1492580E-08
   46.44000     -2.1477279E-08
   46.50000     -2.1449006E-08
   46.56000     -2.1451168E-08
   46.62000     -2.1513765E-08
   46.68000     -2.1640160E-08
   46.74000     -2.1804288E-08
   46.80000     -2.1959528E-08
   46.86000     -2.2056280E-08
   46.92000     -2.2061958E-08
   46.98000     -2.1975804E-08
   47.04000     -2.1832472E-08
   47.10000     -2.1691994E-08
   47.16000     -2.1619030E-08
   47.22000     -2.1658749E-08
   47.28000     -2.1818749E-08
   47.34000     -2.2064670E-08
   47.40000     -2.2332030E-08
   47.46000     -2.2550212E-08
   47.52000     -2.2669417E-08
   47.58000     -2.2679810E-08
   47.64000     -2.2615179E-08
   47.70000     -2.2539561E-08
   47.76000     -2.2522073E-08
   47.82000     -2.2609806E-08
   47.88000     -2.2809180E-08
   47.94000     -2.3082722E-08
   48.00000     -2.3361908E-08
   48.06000     -2.3570347E-08
   48.12000     -2.3647299E-08
   48.18000     -2.3561432E-08
   48.24000     -2.3308935E-08
   48.30000     -2.2897117E-08
   48.36000     -2.2321430E-08
   48.42000     -2.1547153E-08
   48.48000     -2.0504713E-08
   48.54000     -1.9100735E-08
   48.60000     -1.7238586E-08
   48.66000     -1.4836772E-08
   48.72000     -1.1834414E-08
   48.78000     -8.1794829E-09
   48.84000     -3.8043235E-09
   48.90000      1.4007673E-09
   48.96000      7.6049629E-09
   49.02000      1.5039930E-08
   49.08000      2.3991086E-08
   49.14000      3.4785671E-08
   49.20000      4.7786962E-08
   49.26000      6.3399966E-08
   49.32000      8.2087837E-08
   49.38000      1.0439346E-07
   49.44000      1.3095998E-07
   49.50000      1.6254624E-07
   49.56000      2.0003797E-07
   49.62000      2.4445873E-07
   49.68000      2.9698649E-07
   49.74000      3.5898040E-07
   49.80000      4.3201777E-07
   49.86000      5.1793825E-07
   49.92000      6.1888818E-07
   49.98000      7.3735907E-07
   50.04000      8.7621754E-07
   50.10000      1.0387308E-06
   50.16000      1.2285968E-06
   50.22000      1.4499894E-06
   50.28000      1.7076229E-06
   50.34000      2.0068348E-06
   50.40000      2.3536777E-06
   50.46000      2.7550050E-06
   50.52000      3.2185517E-06
   50.58000      3.7530074E-06
   50.64000      4.3680925E-06
   50.70000      5.0746462E-06
   50.76000      5.8847295E-06
   50.82000      6.8117374E-06
   50.88000      7.8705098E-06
   50.94000      9.0774347E-06
   51.00000      1.0450553E-05
   51.06000      1.2009656E-05
   51.12000      1.3776395E-05
   51.18000      1.5774416E-05
   51.24000      1.8029486E-05
   51.30000      2.0569623E-05
   51.36000      2.3425206E-05
   51.42000      2.6629075E-05
   51.48000      3.0216619E-05
   51.54000      3.4225832E-05
   51.60000      3.8697424E-05
   51.66000      4.3674867E-05
   51.72000      4.9204449E-05
   51.78000      5.5335327E-05
   51.84000      6.2119492E-05
   51.90000      6.9611749E-05
   51.96000      7.7869641E-05
   52.02000      8.6953361E-05
   52.08000      9.6925607E-05
   52.14000      1.0785146E-04
   52.20000      1.1979822E-04
   52.26000      1.3283516E-04
   52.32000      1.4703342E-04
   52.38000      1.6246554E-04
   52.44000      1.7920532E-04
   52.50000      1.9732729E-04
   52.56000      2.1690629E-04
   52.62000      2.3801712E-04
   52.68000      2.6073394E-04
   52.74000      2.8512985E-04
   52.80000      3.1127621E-04
   52.86000      3.3924228E-04
   52.92000      3.6909422E-04
   52.98000      4.0089479E-04
   53.04000      4.3470232E-04
   53.10000      4.7057046E-04
   53.16000      5.0854724E-04
   53.22000      5.4867455E-04
   53.28000      5.9098768E-04
   53.34000      6.3551427E-04
   53.40000      6.8227417E-04
   53.46000      7.3127839E-04
   53.52000      7.8252866E-04
   53.58000      8.3601708E-04
   53.64000      8.9172565E-04
   53.70000      9.4962586E-04
   53.76000      1.0096784E-03
   53.82000      1.0718332E-03
   53.88000      1.1360289E-03
   53.94000      1.2021932E-03
   54.00000      1.2702429E-03
   54.06000      1.3400834E-03
   54.12000      1.4116102E-03
   54.18000      1.4847079E-03
   54.24000      1.5592516E-03
   54.30000      1.6351071E-03
   54.36000      1.7121314E-03
   54.42000      1.7901742E-03
   54.48000      1.8690773E-03
   54.54000      1.9486772E-03
   54.60000      2.0288052E-03
   54.66000      2.1092882E-03
   54.72000      2.1899508E-03
   54.78000      2.2706154E-03
   54.84000      2.3511036E-03
   54.90000      2.4312378E-03
   54.96000      2.5108424E-03
   55.02000      2.5897436E-03
   55.08000      2.6677721E-03
   55.14000      2.7447641E-03
   55.20000      2.8205614E-03
   55.26000      2.8950139E-03
   55.32000      2.9679788E-03
   55.38000      3.0393221E-03
   55.44000      3.1089198E-03
   55.50000      3.1766573E-03
   55.56000      3.2424307E-03