  -2.400000      0.0000000E+00
  -2.340000      0.0000000E+00
  -2.280000      0.0000000E+00
  -2.220000      0.0000000E+00
  -2.160000      0.0000000E+00
  -2.100000      9.0258919E-19
  -2.040000      7.3417639E-18
  -1.980000      3.0485212E-17
  -1.920000      8.3351900E-17
  -1.860000      1.5869033E-16
  -1.800000      1.8926137E-16
  -1.740000      1.7902136E-17
  -1.680000     -5.6241807E-16
  -1.620000     -1.6387524E-15
  -1.560000     -2.8983661E-15
  -1.500000     -3.4173284E-15
  -1.440000     -1.8323154E-15
  -1.380000      2.8600391E-15
  -1.320000      1.0040527E-14
  -1.260000      1.6529219E-14
  -1.200000      1.7135661E-14
  -1.140000      7.4066729E-15
  -1.080000     -1.2201087E-14
  -1.020000     -3.3345885E-14
 -0.9600000     -4.1406775E-14
 -0.9000000     -2.3339947E-14
 -0.8400000      2.0758638E-14
 -0.7800000      6.9511989E-14
 -0.7200000      8.4032722E-14
 -0.6600000      2.7458170E-14
 -0.6000000     -1.0586555E-13
 -0.5400000     -2.6784900E-13
 -0.4800000     -3.6002166E-13
 -0.4200000     -2.7265348E-13
 -0.3600000      5.0383207E-14
 -0.3000000      5.5165329E-13
 -0.2400000      1.0437522E-12
 -0.1800000      1.2615824E-12
 -0.1200000      9.7588853E-13
 -5.9999999E-02  1.2392859E-13
  0.0000000E+00 -1.1071996E-12
  5.9999999E-02 -2.2985080E-12
  0.1200000     -2.9315810E-12
  0.1800000     -2.5953827E-12
  0.2400000     -1.1867921E-12
  0.3000000      9.8270383E-13
  0.3600000      3.2307362E-12
  0.4200000      4.6992210E-12
  0.4800000      4.6453735E-12
  0.5400000      2.7366846E-12
  0.6000000     -7.4778676E-13
  0.6600000     -4.8850498E-12
  0.7200000     -8.2786937E-12
  0.7800000     -9.4153513E-12
  0.8400000     -7.1365023E-12
  0.9000000     -1.1061453E-12
  0.9600000      7.8757669E-12
   1.020000      1.7856935E-11
   1.080000      2.6093978E-11
   1.140000      2.9755177E-11
   1.200000      2.6786960E-11
   1.260000      1.6657625E-11
   1.320000      6.8011270E-13
   1.380000     -1.8261913E-11
   1.440000     -3.6525800E-11
   1.500000     -5.0743753E-11
   1.560000     -5.8613586E-11
   1.620000     -5.9049335E-11
   1.680000     -5.1601560E-11
   1.740000     -3.5497862E-11
   1.800000     -9.0150934E-12
   1.860000      3.0052200E-11
   1.920000      8.2442136E-11
   1.980000      1.4433922E-10
   2.040000      2.0427862E-10
   2.100000      2.4160049E-10
   2.160000      2.2777949E-10
   2.220000      1.3101548E-10
   2.280000     -7.6854197E-11
   2.340000     -4.1319692E-10
   2.400000     -8.7962776E-10
   2.460000     -1.4610239E-09
   2.520000     -2.1287665E-09
   2.580000     -2.8467537E-09
   2.640000     -3.5776238E-09
   2.700000     -4.2866906E-09
   2.760000     -4.9423541E-09
   2.820000     -5.5136118E-09
   2.880000     -5.9668976E-09
   2.940000     -6.2649268E-09
   3.000000     -6.3693482E-09
   3.060000     -6.2470846E-09
   3.120000     -5.8783001E-09
   3.180000     -5.2628155E-09
   3.240000     -4.4222159E-09
   3.300000     -3.3965388E-09
   3.360000     -2.2366995E-09
   3.420000     -9.9552910E-10
   3.480000      2.7924832E-10
   3.540000      1.5478212E-09
   3.600000      2.7766496E-09
   3.660000      3.9342600E-09
   3.720000      4.9875766E-09
   3.780000      5.9016747E-09
   3.840000      6.6442860E-09
   3.900000      7.1941555E-09
   3.960000      7.5503754E-09
   4.020000      7.7389419E-09
   4.080000      7.8133695E-09
   4.140000      7.8480662E-09
   4.200000      7.9256424E-09
   4.260000      8.1215017E-09
   4.320000      8.4901233E-09
   4.380000      9.0570262E-09
   4.440000      9.8185780E-09
   4.500000      1.0749247E-08
   4.560000      1.1813442E-08
   4.620000      1.2977704E-08
   4.680000      1.4219133E-08
   4.740000      1.5527560E-08
   4.800000      1.6901588E-08
   4.860000      1.8341051E-08
   4.920000      1.9839808E-08
   4.980000      2.1382569E-08
   5.040000      2.2947388E-08
   5.100000      2.4512826E-08
   5.160000      2.6066321E-08
   5.220000      2.7609490E-08
   5.280000      2.9157228E-08
   5.340000      3.0730344E-08
   5.400000      3.2344612E-08
   5.460000      3.4001328E-08
   5.520000      3.5684192E-08
   5.580000      3.7364746E-08
   5.640000      3.9014754E-08
   5.700000      4.0620204E-08
   5.760000      4.2190489E-08
   5.820000      4.3757865E-08
   5.880000      4.5366505E-08
   5.940000      4.7055060E-08
   6.000000      4.8839755E-08
   6.060000      5.0705079E-08
   6.120000      5.2605866E-08
   6.180000      5.4479770E-08
   6.240000      5.6264753E-08
   6.300000      5.7914257E-08
   6.360000      5.9404176E-08
   6.420000      6.0729604E-08
   6.480000      6.1893829E-08
   6.540000      6.2895204E-08
   6.600000      6.3717920E-08
   6.660000      6.4330465E-08
   6.720000      6.4691946E-08
   6.780000      6.4762972E-08
   6.840000      6.4516250E-08
   6.900000      6.3942537E-08
   6.960000      6.3050351E-08
   7.020000      6.1860412E-08
   7.080000      6.0398264E-08
   7.140000      5.8688521E-08
   7.200000      5.6753215E-08
   7.260000      5.4614087E-08
   7.320000      5.2296951E-08
   7.380000      4.9835194E-08
   7.440000      4.7270422E-08
   7.500000      4.4649735E-08
   7.560000      4.2020879E-08
   7.620000      3.9427395E-08
   7.680000      3.6905444E-08
   7.740000      3.4482930E-08
   7.800000      3.2180179E-08
   7.860000      3.0011055E-08
   7.920000      2.7983564E-08
   7.980000      2.6099757E-08
   8.040000      2.4355600E-08
   8.100000      2.2741279E-08
   8.160000      2.1242238E-08
   8.220000      1.9840629E-08
   8.280000      1.8516690E-08
   8.340000      1.7249853E-08
   8.400000      1.6019889E-08
   8.460000      1.4808578E-08
   8.520000      1.3602068E-08
   8.580000      1.2393413E-08
   8.640000      1.1184264E-08
   8.700000      9.9846957E-09
   8.760000      8.8109049E-09
   8.820000      7.6814421E-09
   8.880000      6.6132997E-09
   8.940000      5.6191265E-09
   9.000000      4.7061621E-09
   9.060000      3.8766848E-09
   9.120000      3.1292369E-09
   9.180000      2.4598936E-09
   9.240000      1.8632054E-09
   9.300000      1.3327377E-09
   9.360000      8.6125962E-10
   9.420000      4.4053874E-10
   9.480000      6.0675083E-11
   9.540000     -2.9089470E-10
   9.600000     -6.3028843E-10
   9.660000     -9.7734665E-10
   9.720000     -1.3546431E-09
   9.780000     -1.7853785E-09
   9.840000     -2.2906717E-09
   9.900000     -2.8869176E-09
   9.960000     -3.5836496E-09
   10.02000     -4.3819934E-09
   10.08000     -5.2736944E-09
   10.14000     -6.2409375E-09
   10.20000     -7.2575221E-09
   10.26000     -8.2918969E-09
   10.32000     -9.3118748E-09
   10.38000     -1.0289739E-08
   10.44000     -1.1205767E-08
   10.50000     -1.2048530E-08
   10.56000     -1.2811864E-08
   10.62000     -1.3490310E-08
   10.68000     -1.4075973E-08
   10.74000     -1.4559081E-08
   10.80000     -1.4932468E-08
   10.86000     -1.5197589E-08
   10.92000     -1.5368430E-08
   10.98000     -1.5470535E-08
   11.04000     -1.5535058E-08
   11.10000     -1.5590638E-08
   11.16000     -1.5657230E-08
   11.22000     -1.5744845E-08
   11.28000     -1.5857340E-08
   11.34000     -1.5998349E-08
   11.40000     -1.6175457E-08
   11.46000     -1.6400071E-08
   11.52000     -1.6683389E-08
   11.58000     -1.7031477E-08
   11.64000     -1.7443007E-08
   11.70000     -1.7911423E-08
   11.76000     -1.8430226E-08
   11.82000     -1.8997847E-08
   11.88000     -1.9618566E-08
   11.94000     -2.0298172E-08
   12.00000     -2.1036257E-08
   12.06000     -2.1819297E-08
   12.12000     -2.2618380E-08
   12.18000     -2.3393211E-08
   12.24000     -2.4100705E-08
   12.30000     -2.4704313E-08
   12.36000     -2.5180137E-08
   12.42000     -2.5517908E-08
   12.48000     -2.5717622E-08
   12.54000     -2.5784740E-08
   12.60000     -2.5727013E-08
   12.66000     -2.5554540E-08
   12.72000     -2.5282286E-08
   12.78000     -2.4932602E-08
   12.84000     -2.4534890E-08
   12.90000     -2.4120959E-08
   12.96000     -2.3716801E-08
   13.02000     -2.3333689E-08
   13.08000     -2.2962437E-08
   13.14000     -2.2573804E-08
   13.20000     -2.2125905E-08
   13.26000     -2.1576579E-08
   13.32000     -2.0896520E-08
   13.38000     -2.0078430E-08
   13.44000     -1.9138801E-08
   13.50000     -1.8111859E-08
   13.56000     -1.7038158E-08
   13.62000     -1.5952381E-08
   13.68000     -1.4874787E-08
   13.74000     -1.3808900E-08
   13.80000     -1.2745226E-08
   13.86000     -1.1668439E-08
   13.92000     -1.0564601E-08
   13.98000     -9.4257357E-09
   14.04000     -8.2508826E-09
   14.10000     -7.0445081E-09
   14.16000     -5.8140888E-09
   14.22000     -4.5685331E-09
   14.28000     -3.3181486E-09
   14.34000     -2.0758690E-09
   14.40000     -8.5872714E-10
   14.46000      3.1159456E-10
   14.52000      1.4100077E-09
   14.58000      2.4113478E-09
   14.64000      3.2952610E-09
   14.70000      4.0512864E-09
   14.76000      4.6821302E-09
   14.82000      5.2031344E-09
   14.88000      5.6368905E-09
   14.94000      6.0038103E-09
   15.00000      6.3115277E-09
   15.06000      6.5473147E-09
   15.12000      6.6773320E-09
   15.18000      6.6542909E-09
   15.24000      6.4317827E-09
   15.30000      5.9805885E-09
   15.36000      5.3011511E-09
   15.42000      4.4277022E-09
   15.48000      3.4227619E-09
   15.54000      2.3643854E-09
   15.60000      1.3309923E-09
   15.66000      3.8887271E-10
   15.72000     -4.1438755E-10
   15.78000     -1.0501566E-09
   15.84000     -1.5047380E-09
   15.90000     -1.7741696E-09
   15.96000     -1.8603791E-09
   16.02000     -1.7697409E-09
   16.08000     -1.5136056E-09
   16.14000     -1.1096015E-09
   16.20000     -5.8259630E-10
   16.26000      3.5265443E-11
   16.32000      7.0551770E-10
   16.38000      1.3852457E-09
   16.44000      2.0298672E-09
   16.50000      2.5967872E-09
   16.56000      3.0495459E-09
   16.62000      3.3615384E-09
   16.68000      3.5180772E-09
   16.74000      3.5159329E-09
   16.80000      3.3605021E-09
   16.86000      3.0619505E-09
   16.92000      2.6323164E-09
   16.98000      2.0850890E-09
   17.04000      1.4373316E-09
   17.10000      7.1281481E-10
   17.16000     -5.6156354E-11
   17.22000     -8.2990814E-10
   17.28000     -1.5654984E-09
   17.34000     -2.2218885E-09
   17.40000     -2.7636384E-09
   17.46000     -3.1615344E-09
   17.52000     -3.3906526E-09
   17.58000     -3.4282730E-09
   17.64000     -3.2544754E-09
   17.70000     -2.8567468E-09
   17.76000     -2.2372562E-09
   17.82000     -1.4191628E-09
   17.88000     -4.4789122E-10
   17.94000      6.1486738E-10
   18.00000      1.7033804E-09
   18.06000      2.7622409E-09
   18.12000      3.7575285E-09
   18.18000      4.6805999E-09
   18.24000      5.5433254E-09
   18.30000      6.3669985E-09
   18.36000      7.1694464E-09
   18.42000      7.9552471E-09
   18.48000      8.7124343E-09
   18.54000      9.4164694E-09
   18.60000      1.0039569E-08
   18.66000      1.0561694E-08
   18.72000      1.0979062E-08
   18.78000      1.1307048E-08
   18.84000      1.1576442E-08
   18.90000      1.1824484E-08
   18.96000      1.2084082E-08
   19.02000      1.2375264E-08
   19.08000      1.2701964E-08
   19.14000      1.3054924E-08
   19.20000      1.3418877E-08
   19.26000      1.3780379E-08
   19.32000      1.4132691E-08
   19.38000      1.4475831E-08
   19.44000      1.4812609E-08
   19.50000      1.5143636E-08
   19.56000      1.5464760E-08
   19.62000      1.5768975E-08
   19.68000      1.6052162E-08
   19.74000      1.6319607E-08
   19.80000      1.6589327E-08
   19.86000      1.6889546E-08
   19.92000      1.7250471E-08
   19.98000      1.7693585E-08
   20.04000      1.8223266E-08
   20.10000      1.8824885E-08
   20.16000      1.9470750E-08
   20.22000      2.0131660E-08
   20.28000      2.0789232E-08
   20.34000      2.1443821E-08
   20.40000      2.2114923E-08
   20.46000      2.2834463E-08
   20.52000      2.3636458E-08
   20.58000      2.4547795E-08
   20.64000      2.5583480E-08
   20.70000      2.6746973E-08
   20.76000      2.8033323E-08
   20.82000      2.9431780E-08
   20.88000      3.0925584E-08
   20.94000      3.2489176E-08
   21.00000      3.4085335E-08
   21.06000      3.5665437E-08
   21.12000      3.7174384E-08
   21.18000      3.8558987E-08
   21.24000      3.9776253E-08
   21.30000      4.0797474E-08
   21.36000      4.1606093E-08
   21.42000      4.2190287E-08
   21.48000      4.2534268E-08
   21.54000      4.2612953E-08
   21.60000      4.2393133E-08
   21.66000      4.1841108E-08
   21.72000      4.0933749E-08
   21.78000      3.9668258E-08
   21.84000      3.8066837E-08
   21.90000      3.6174519E-08
   21.96000      3.4051272E-08
   22.02000      3.1761203E-08
   22.08000      2.9362148E-08
   22.14000      2.6898094E-08
   22.20000      2.4395714E-08
   22.26000      2.1865127E-08
   22.32000      1.9304428E-08
   22.38000      1.6707055E-08
   22.44000      1.4070538E-08
   22.50000      1.1404535E-08
   22.56000      8.7356469E-09
   22.62000      6.1069092E-09
   22.68000      3.5714198E-09
   22.74000      1.1817475E-09
   22.80000     -1.0212059E-09
   22.86000     -3.0155254E-09
   22.92000     -4.7987090E-09
   22.98000     -6.3809789E-09
   23.04000     -7.7745472E-09
   23.10000     -8.9840242E-09
   23.16000     -1.0002950E-08
   23.22000     -1.0818891E-08
   23.28000     -1.1425549E-08
   23.34000     -1.1836762E-08
   23.40000     -1.2095674E-08
   23.46000     -1.2273667E-08
   23.52000     -1.2457448E-08
   23.58000     -1.2727538E-08
   23.64000     -1.3135398E-08
   23.70000     -1.3687554E-08
   23.76000     -1.4342965E-08
   23.82000     -1.5024861E-08
   23.88000     -1.5642659E-08
   23.94000     -1.6115512E-08
   24.00000     -1.6388723E-08
   24.06000     -1.6437623E-08
   24.12000     -1.6259319E-08
   24.18000     -1.5857969E-08
   24.24000     -1.5231640E-08
   24.30000     -1.4367075E-08
   24.36000     -1.3244113E-08
   24.42000     -1.1846522E-08
   24.48000     -1.0173262E-08
   24.54000     -8.2450162E-09
   24.60000     -6.1040843E-09
   24.66000     -3.8093955E-09
   24.72000     -1.4300066E-09
   24.78000      9.6052899E-10
   24.84000      3.2890441E-09
   24.90000      5.4888392E-09
   24.96000      7.5084401E-09
   25.02000      9.3218970E-09
   25.08000      1.0936517E-08
   25.14000      1.2392971E-08
   25.20000      1.3754960E-08
   25.26000      1.5090274E-08
   25.32000      1.6449635E-08
   25.38000      1.7851475E-08
   25.44000      1.9278630E-08
   25.50000      2.0687656E-08
   25.56000      2.2025992E-08
   25.62000      2.3249026E-08
   25.68000      2.4329955E-08
   25.74000      2.5259407E-08
   25.80000      2.6036673E-08
   25.86000      2.6657988E-08
   25.92000      2.7107667E-08
   25.98000      2.7355748E-08
   26.04000      2.7362208E-08
   26.10000      2.7085211E-08
   26.16000      2.6489881E-08
   26.22000      2.5555297E-08
   26.28000      2.4279133E-08
   26.34000      2.2680664E-08
   26.40000      2.0802732E-08
   26.46000      1.8711933E-08
   26.52000      1.6495042E-08
   26.58000      1.4249710E-08
   26.64000      1.2069520E-08
   26.70000      1.0026730E-08
   26.76000      8.1587386E-09
   26.82000      6.4645160E-09
   26.88000      4.9141011E-09
   26.94000      3.4687255E-09
   27.00000      2.1038287E-09
   27.06000      8.2506196E-10
   27.12000     -3.3009123E-10
   27.18000     -1.3060646E-09
   27.24000     -2.0521165E-09
   27.30000     -2.5439204E-09
   27.36000     -2.7942395E-09
   27.42000     -2.8486944E-09
   27.48000     -2.7699076E-09
   27.54000     -2.6183955E-09
   27.60000     -2.4389415E-09
   27.66000     -2.2570121E-09
   27.72000     -2.0838142E-09
   27.78000     -1.9243624E-09
   27.84000     -1.7826888E-09
   27.90000     -1.6617221E-09
   27.96000     -1.5598957E-09
   28.02000     -1.4691414E-09
   28.08000     -1.3779161E-09
   28.14000     -1.2789870E-09
   28.20000     -1.1776058E-09
   28.26000     -1.0941185E-09
   28.32000     -1.0572803E-09
   28.38000     -1.0895218E-09
   28.44000     -1.1903293E-09
   28.50000     -1.3258998E-09
   28.56000     -1.4310101E-09
   28.62000     -1.4236426E-09
   28.68000     -1.2270562E-09
   28.74000     -7.9058127E-10
   28.80000     -1.0114436E-10
   28.86000      8.1816126E-10
   28.92000      1.9204540E-09
   28.98000      3.1520508E-09
   29.04000      4.4666066E-09
   29.10000      5.8312111E-09
   29.16000      7.2234259E-09
   29.22000      8.6221927E-09
   29.28000      9.9975450E-09
   29.34000      1.1303603E-08
   29.40000      1.2477165E-08
   29.46000      1.3441774E-08
   29.52000      1.4115555E-08
   29.58000      1.4420858E-08
   29.64000      1.4294264E-08
   29.70000      1.3695923E-08
   29.76000      1.2617024E-08
   29.82000      1.1083530E-08
   29.88000      9.1539913E-09
   29.94000      6.9101023E-09
   30.00000      4.4408690E-09
   30.06000      1.8241505E-09
   30.12000     -8.8861352E-10
   30.18000     -3.6787822E-09
   30.24000     -6.5550316E-09
   30.30000     -9.5375512E-09
   30.36000     -1.2637749E-08
   30.42000     -1.5841334E-08
   30.48000     -1.9101288E-08
   30.54000     -2.2343013E-08
   30.60000     -2.5478782E-08
   30.66000     -2.8425049E-08
   30.72000     -3.1115743E-08
   30.78000     -3.3507572E-08
   30.84000     -3.5577628E-08
   30.90000     -3.7317246E-08
   30.96000     -3.8726654E-08
   31.02000     -3.9813131E-08
   31.08000     -4.0591633E-08
   31.14000     -4.1084519E-08
   31.20000     -4.1317062E-08
   31.26000     -4.1308439E-08
   31.32000     -4.1061767E-08
   31.38000     -4.0559129E-08
   31.44000     -3.9766366E-08
   31.50000     -3.8647947E-08
   31.56000     -3.7186517E-08
   31.62000     -3.5398244E-08
   31.68000     -3.3335905E-08
   31.74000     -3.1076972E-08
   31.80000     -2.8701292E-08
   31.86000     -2.6268324E-08
   31.92000     -2.3804429E-08
   31.98000     -2.1305654E-08
   32.04000     -1.8753685E-08
   32.10000     -1.6135903E-08
   32.16000     -1.3458796E-08
   32.22000     -1.0747925E-08
   32.28000     -8.0353395E-09
   32.34000     -5.3421902E-09
   32.40000     -2.6667697E-09
   32.46000      1.5112691E-11
   32.52000      2.7375844E-09
   32.58000      5.5268399E-09
   32.64000      8.3873744E-09
   32.70000      1.1298884E-08
   32.76000      1.4223949E-08
   32.82000      1.7120502E-08
   32.88000      1.9950930E-08
   32.94000      2.2682570E-08
   33.00000      2.5280526E-08
   33.06000      2.7699263E-08
   33.12000      2.9880926E-08
   33.18000      3.1764586E-08
   33.24000      3.3303923E-08
   33.30000      3.4484852E-08
   33.36000      3.5333070E-08
   33.42000      3.5905792E-08
   33.48000      3.6269480E-08
   33.54000      3.6473001E-08
   33.60000      3.6528238E-08
   33.66000      3.6407233E-08
   33.72000      3.6056932E-08
   33.78000      3.5424666E-08
   33.84000      3.4482682E-08
   33.90000      3.3241545E-08
   33.96000      3.1748296E-08
   34.02000      3.0072705E-08
   34.08000      2.8289769E-08
   34.14000      2.6466486E-08
   34.20000      2.4656615E-08
   34.26000      2.2901741E-08
   34.32000      2.1233790E-08
   34.38000      1.9674975E-08
   34.44000      1.8234836E-08
   34.50000      1.6907833E-08
   34.56000      1.5675873E-08
   34.62000      1.4517394E-08
   34.68000      1.3419831E-08
   34.74000      1.2388873E-08
   34.80000      1.1448329E-08
   34.86000      1.0629022E-08
   34.92000      9.9513171E-09
   34.98000      9.4100976E-09
   35.04000      8.9704448E-09
   35.10000      8.5770644E-09
   35.16000      8.1734131E-09
   35.22000      7.7214590E-09
   35.28000      7.2127477E-09
   35.34000      6.6660162E-09
   35.40000      6.1134093E-09
   35.46000      5.5826601E-09
   35.52000      5.0839302E-09
   35.58000      4.6069846E-09
   35.64000      4.1290473E-09
   35.70000      3.6288974E-09
   35.76000      3.1007061E-09
   35.82000      2.5621800E-09
   35.88000      2.0546109E-09
   35.94000      1.6356316E-09
   36.00000      1.3674426E-09
   36.06000      1.3037303E-09
   36.12000      1.4779515E-09
   36.18000      1.8949424E-09
   36.24000      2.5273332E-09
   36.30000      3.3179035E-09
   36.36000      4.1883257E-09
   36.42000      5.0534492E-09
   36.48000      5.8385266E-09
   36.54000      6.4952226E-09
   36.60000      7.0117268E-09
   36.66000      7.4132820E-09
   36.72000      7.7520372E-09
   36.78000      8.0885112E-09
   36.84000      8.4700957E-09
   36.90000      8.9136396E-09
   36.96000      9.3983301E-09
   37.02000      9.8719406E-09
   37.08000      1.0268757E-08
   37.14000      1.0532990E-08
   37.20000      1.0638996E-08
   37.26000      1.0600487E-08
   37.32000      1.0465017E-08
   37.38000      1.0295893E-08
   37.44000      1.0148784E-08
   37.50000      1.0052429E-08
   37.56000      1.0000874E-08
   37.62000      9.9595505E-09
   37.68000      9.8815249E-09
   37.74000      9.7262838E-09
   37.80000      9.4731050E-09
   37.86000      9.1244132E-09
   37.92000      8.6995176E-09
   37.98000      8.2232381E-09
   38.04000      7.7152755E-09
   38.10000      7.1844037E-09
   38.16000      6.6281678E-09
   38.22000      6.0358345E-09
   38.28000      5.3914815E-09
   38.34000      4.6754880E-09
   38.40000      3.8650581E-09
   38.46000      2.9359946E-09
   38.52000      1.8675028E-09
   38.58000      6.4958688E-10
   38.64000     -7.1000877E-10
   38.70000     -2.1834805E-09
   38.76000     -3.7280361E-09
   38.82000     -5.2976601E-09
   38.88000     -6.8571206E-09
   38.94000     -8.3918694E-09
   39.00000     -9.9088009E-09
   39.06000     -1.1426954E-08
   39.12000     -1.2962132E-08
   39.18000     -1.4512684E-08
   39.24000     -1.6053445E-08
   39.30000     -1.7541096E-08
   39.36000     -1.8928842E-08
   39.42000     -2.0183840E-08
   39.48000     -2.1299506E-08
   39.54000     -2.2297289E-08
   39.60000     -2.3217311E-08
   39.66000     -2.4102096E-08
   39.72000     -2.4980400E-08
   39.78000     -2.5857524E-08
   39.84000     -2.6715474E-08
   39.90000     -2.7522107E-08
   39.96000     -2.8245312E-08
   40.02000     -2.8866891E-08
   40.08000     -2.9391600E-08
   40.14000     -2.9848795E-08
   40.20000     -3.0286433E-08
   40.26000     -3.0759246E-08
   40.32000     -3.1314350E-08
   40.38000     -3.1978239E-08
   40.44000     -3.2749210E-08
   40.50000     -3.3598052E-08
   40.56000     -3.4477601E-08
   40.62000     -3.5338648E-08
   40.68000     -3.6146940E-08
   40.74000     -3.6894651E-08
   40.80000     -3.7601236E-08
   40.86000     -3.8302307E-08
   40.92000     -3.9030471E-08
   40.98000     -3.9796003E-08
   41.04000     -4.0576229E-08
   41.10000     -4.1319385E-08
   41.16000     -4.1962561E-08
   41.22000     -4.2456680E-08
   41.28000     -4.2787626E-08
   41.34000     -4.2983480E-08
   41.40000     -4.3103441E-08
   41.46000     -4.3212136E-08
   41.52000     -4.3349843E-08
   41.58000     -4.3511545E-08
   41.64000     -4.3644409E-08
   41.70000     -4.3665420E-08
   41.76000     -4.3492339E-08
   41.82000     -4.3075342E-08
   41.88000     -4.2416620E-08
   41.94000     -4.1570413E-08
   42.00000     -4.0624222E-08
   42.06000     -3.9669466E-08
   42.12000     -3.8773479E-08
   42.18000     -3.7963229E-08
   42.24000     -3.7225700E-08
   42.30000     -3.6522870E-08
   42.36000     -3.5813962E-08
   42.42000     -3.5075718E-08
   42.48000     -3.4313153E-08
   42.54000     -3.3557761E-08
   42.60000     -3.2854885E-08
   42.66000     -3.2245890E-08
   42.72000     -3.1752151E-08
   42.78000     -3.1366746E-08
   42.84000     -3.1056736E-08
   42.90000     -3.0774910E-08
   42.96000     -3.0476315E-08
   43.02000     -3.0133279E-08
   43.08000     -2.9742932E-08
   43.14000     -2.9324399E-08
   43.20000     -2.8906788E-08
   43.26000     -2.8513014E-08
   43.32000     -2.8146351E-08
   43.38000     -2.7785655E-08
   43.44000     -2.7391648E-08
   43.50000     -2.6921963E-08
   43.56000     -2.6348937E-08
   43.62000     -2.5672598E-08
   43.68000     -2.4923308E-08
   43.74000     -2.4152548E-08
   43.80000     -2.3415357E-08
   43.86000     -2.2751463E-08
   43.92000     -2.2172754E-08
   43.98000     -2.1662238E-08
   44.04000     -2.1184752E-08
   44.10000     -2.0704778E-08
   44.16000     -2.0203583E-08
   44.22000     -1.9688295E-08
   44.28000     -1.9189136E-08
   44.34000     -1.8746441E-08
   44.40000     -1.8393706E-08
   44.46000     -1.8144549E-08
   44.52000     -1.7989397E-08
   44.58000     -1.7902824E-08
   44.64000     -1.7857314E-08
   44.70000     -1.7836333E-08
   44.76000     -1.7840328E-08
   44.82000     -1.7883336E-08
   44.88000     -1.7982691E-08
   44.94000     -1.8147757E-08
   45.00000     -1.8373592E-08
   45.06000     -1.8642522E-08
   45.12000     -1.8932200E-08
   45.18000     -1.9225437E-08
   45.24000     -1.9516440E-08
   45.30000     -1.9810139E-08
   45.36000     -2.0115030E-08
   45.42000     -2.0433157E-08
   45.48000     -2.0752365E-08
   45.54000     -2.1044913E-08
   45.60000     -2.1273902E-08
   45.66000     -2.1405514E-08
   45.72000     -2.1422601E-08
   45.78000     -2.1334206E-08
   45.84000     -2.1176762E-08
   45.90000     -2.1005599E-08
   45.96000     -2.0878941E-08
   46.02000     -2.0839757E-08
   46.08000     -2.0901998E-08
   46.14000     -2.1046681E-08
   46.20000     -2.1229642E-08
   46.26000     -2.1398408E-08
   46.32000     -2.1511868E-08
   46.38000     -2.1555225E-08
   46.44000     -2.1544411E-08
   46.50000     -2.1518277E-08
   46.56000     -2.1521679E-08
   46.62000     -2.1586086E-08
   46.68000     -2.1715376E-08
   46.74000     -2.1882551E-08
   46.80000     -2.2039021E-08
   46.86000     -2.2133342E-08
   46.92000     -2.2132509E-08
   46.98000     -2.2037481E-08
   47.04000     -2.1886359E-08
   47.10000     -2.1742929E-08
   47.16000     -2.1674117E-08
   47.22000     -2.1724579E-08
   47.28000     -2.1898515E-08
   47.34000     -2.2156463E-08
   47.40000     -2.2429141E-08
   47.46000     -2.2643329E-08
   47.52000     -2.2749820E-08
   47.58000     -2.2742270E-08
   47.64000     -2.2659435E-08
   47.70000     -2.2569886E-08
   47.76000     -2.2545253E-08
   47.82000     -2.2632481E-08
   47.88000     -2.2835646E-08
   47.94000     -2.3113978E-08
   48.00000     -2.3396158E-08
   48.06000     -2.3604469E-08
   48.12000     -2.3678483E-08
   48.18000     -2.3588186E-08
   48.24000     -2.3331095E-08
   48.30000     -2.2915010E-08
   48.36000     -2.2334724E-08
   48.42000     -2.1553975E-08
   48.48000     -2.0501362E-08
   48.54000     -1.9081996E-08
   48.60000     -1.7198344E-08
   48.66000     -1.4768726E-08
   48.72000     -1.1732754E-08
   48.78000     -8.0395441E-09
   48.84000     -3.6231567E-09
   48.90000      1.6241739E-09
   48.96000      7.8702138E-09
   49.02000      1.5346771E-08
   49.08000      2.4341823E-08
   49.14000      3.5187721E-08
   49.20000      4.8254577E-08
   49.26000      6.3954282E-08
   49.32000      8.2755037E-08
   49.38000      1.0520181E-07
   49.44000      1.3193680E-07
   49.50000      1.6371628E-07
   49.56000      2.0142373E-07
   49.62000      2.4608283E-07
   49.68000      2.9887545E-07
   49.74000      3.6116828E-07
   49.80000      4.3454909E-07
   49.86000      5.2086955E-07
   49.92000      6.2228821E-07
   49.98000      7.4130844E-07
   50.04000      8.8080839E-07
   50.10000      1.0440676E-06
   50.16000      1.2347981E-06
   50.22000      1.4571896E-06
   50.28000      1.7159748E-06
   50.34000      2.0165121E-06
   50.40000      2.3648756E-06
   50.46000      2.7679437E-06
   50.52000      3.2334781E-06
   50.58000      3.7701986E-06
   50.64000      4.3878599E-06
   50.70000      5.0973385E-06
   50.76000      5.9107365E-06
   50.82000      6.8414893E-06
   50.88000      7.9044803E-06
   50.94000      9.1161455E-06
   51.00000      1.0494576E-05
   51.06000      1.2059619E-05
   51.12000      1.3832993E-05
   51.18000      1.5838412E-05
   51.24000      1.8101715E-05
   51.30000      2.0650994E-05
   51.36000      2.3516699E-05
   51.42000      2.6731748E-05
   51.48000      3.0331601E-05
   51.54000      3.4354336E-05
   51.60000      3.8840746E-05
   51.66000      4.3834392E-05
   51.72000      4.9381655E-05
   51.78000      5.5531778E-05
   51.84000      6.2336847E-05
   51.90000      6.9851754E-05
   51.96000      7.8134137E-05
   52.02000      8.7244276E-05
   52.08000      9.7244934E-05
   52.14000      1.0820130E-04
   52.20000      1.2018070E-04
   52.26000      1.3325251E-04
   52.32000      1.4748788E-04
   52.38000      1.6295945E-04
   52.44000      1.7974101E-04
   52.50000      1.9790712E-04
   52.56000      2.1753267E-04
   52.62000      2.3869240E-04
   52.68000      2.6146049E-04
   52.74000      2.8590995E-04
   52.80000      3.1211218E-04
   52.86000      3.4013626E-04
   52.92000      3.7004834E-04
   52.98000      4.0191098E-04
   53.04000      4.3578245E-04
   53.10000      4.7171616E-04
   53.16000      5.0976005E-04
   53.22000      5.4995576E-04
   53.28000      5.9233833E-04
   53.34000      6.3693523E-04
   53.40000      6.8376592E-04
   53.46000      7.3284114E-04
   53.52000      7.8416249E-04
   53.58000      8.3772163E-04
   53.64000      8.9350017E-04
   53.70000      9.5146929E-04
   53.76000      1.0115894E-03
   53.82000      1.0738100E-03
   53.88000      1.1380694E-03
   53.94000      1.2042951E-03
   54.00000      1.2724031E-03
   54.06000      1.3422988E-03
   54.12000      1.4138772E-03
   54.18000      1.4870227E-03
   54.24000      1.5616099E-03
   54.30000      1.6375044E-03
   54.36000      1.7145632E-03
   54.42000      1.7926351E-03
   54.48000      1.8715622E-03
   54.54000      1.9511807E-03
   54.60000      2.0313216E-03
   54.66000      2.1118119E-03
   54.72000      2.1924756E-03
   54.78000      2.2731356E-03
   54.84000      2.3536135E-03
   54.90000      2.4337317E-03
   54.96000      2.5133139E-03
   55.02000      2.5921874E-03
   55.08000      2.6701828E-03
   55.14000      2.7471364E-03
   55.20000      2.8228904E-03
   55.26000      2.8972945E-03
   55.32000      2.9702066E-03
   55.38000      3.0414930E-03
   55.44000      3.1110297E-03
   55.50000      3.1787029E-03
   55.56000      3.2444089E-03