  -2.400000      0.0000000E+00
  -2.340000      0.0000000E+00
  -2.280000      0.0000000E+00
  -2.220000      0.0000000E+00
  -2.160000      0.0000000E+00
  -2.100000     -9.3168227E-19
  -2.040000     -6.8880426E-18
  -1.980000     -2.5077051E-17
  -1.920000     -5.7131962E-17
  -1.860000     -8.2087267E-17
  -1.800000     -4.7601624E-17
  -1.740000      1.0495578E-16
  -1.680000      3.7756803E-16
  -1.620000      6.6345994E-16
  -1.560000      7.9289505E-16
  -1.500000      7.1787297E-16
  -1.440000      7.2261874E-16
  -1.380000      1.3801143E-15
  -1.320000      2.9953920E-15
  -1.260000      4.6377777E-15
  -1.200000      3.4622457E-15
  -1.140000     -4.5946133E-15
  -1.080000     -2.2063103E-14
  -1.020000     -4.5860827E-14
 -0.9600000     -6.4425550E-14
 -0.9000000     -5.9455262E-14
 -0.8400000     -1.4189579E-14
 -0.7800000      7.3772694E-14
 -0.7200000      1.8175320E-13
 -0.6600000      2.6207839E-13
 -0.6000000      2.5839763E-13
 -0.5400000      1.3503300E-13
 -0.4800000     -9.3905603E-14
 -0.4200000     -3.5396143E-13
 -0.3600000     -5.3145498E-13
 -0.3000000     -5.2400310E-13
 -0.2400000     -2.9936839E-13
 -0.1800000      6.9555073E-14
 -0.1200000      4.2028292E-13
 -5.9999999E-02  5.7054649E-13
  0.0000000E+00  4.1558277E-13
  5.9999999E-02  4.4002557E-15
  0.1200000     -4.5215660E-13
  0.1800000     -6.6091929E-13
  0.2400000     -3.8956428E-13
  0.3000000      3.8834205E-13
  0.3600000      1.4201149E-12
  0.4200000      2.2230601E-12
  0.4800000      2.2559370E-12
  0.5400000      1.1565037E-12
  0.6000000     -1.0477103E-12
  0.6600000     -3.8476900E-12
  0.7200000     -6.3332386E-12
  0.7800000     -7.4351454E-12
  0.8400000     -6.2572495E-12
  0.9000000     -2.3907948E-12
  0.9600000      3.8914059E-12
   1.020000      1.1619176E-11
   1.080000      1.9280464E-11
   1.140000      2.5082821E-11
   1.200000      2.7231564E-11
   1.260000      2.4158927E-11
   1.320000      1.4700380E-11
   1.380000     -1.7174711E-12
   1.440000     -2.4781774E-11
   1.500000     -5.2836045E-11
   1.560000     -8.2323030E-11
   1.620000     -1.0734907E-10
   1.680000     -1.1972243E-10
   1.740000     -1.0984306E-10
   1.800000     -6.8689519E-11
   1.860000      9.1378155E-12
   1.920000      1.2173058E-10
   1.980000      2.5630129E-10
   2.040000      3.8667763E-10
   2.100000      4.7276733E-10
   2.160000      4.6259546E-10
   2.220000      2.9701966E-10
   2.280000     -8.3340543E-11
   2.340000     -7.2992407E-10
   2.400000     -1.6780695E-09
   2.460000     -2.9402047E-09
   2.520000     -4.5015107E-09
   2.580000     -6.3188117E-09
   2.640000     -8.3229530E-09
   2.700000     -1.0424464E-08
   2.760000     -1.2521876E-08
   2.820000     -1.4511734E-08
   2.880000     -1.6299163E-08
   2.940000     -1.7807675E-08
   3.000000     -1.8987011E-08
   3.060000     -1.9817881E-08
   3.120000     -2.0312918E-08
   3.180000     -2.0513641E-08
   3.240000     -2.0483908E-08
   3.300000     -2.0301014E-08
   3.360000     -2.0046020E-08
   3.420000     -1.9795074E-08
   3.480000     -1.9613093E-08
   3.540000     -1.9550514E-08
   3.600000     -1.9642837E-08
   3.660000     -1.9911937E-08
   3.720000     -2.0367711E-08
   3.780000     -2.1008839E-08
   3.840000     -2.1822141E-08
   3.900000     -2.2781029E-08
   3.960000     -2.3844365E-08
   4.020000     -2.4957318E-08
   4.080000     -2.6055464E-08
   4.140000     -2.7072282E-08
   4.200000     -2.7949065E-08
   4.260000     -2.8645070E-08
   4.320000     -2.9145426E-08
   4.380000     -2.9464593E-08
   4.440000     -2.9644156E-08
   4.500000     -2.9745186E-08
   4.560000     -2.9836599E-08
   4.620000     -2.9981901E-08
   4.680000     -3.0226971E-08
   4.740000     -3.0591220E-08
   4.800000     -3.1063674E-08
   4.860000     -3.1604586E-08
   4.920000     -3.2152091E-08
   4.980000     -3.2632666E-08
   5.040000     -3.2973443E-08
   5.100000     -3.3114294E-08
   5.160000     -3.3017599E-08
   5.220000     -3.2674095E-08
   5.280000     -3.2103859E-08
   5.340000     -3.1352393E-08
   5.400000     -3.0482568E-08
   5.460000     -2.9563996E-08
   5.520000     -2.8661688E-08
   5.580000     -2.7825971E-08
   5.640000     -2.7085253E-08
   5.700000     -2.6442716E-08
   5.760000     -2.5877281E-08
   5.820000     -2.5348687E-08
   5.880000     -2.4805875E-08
   5.940000     -2.4197387E-08
   6.000000     -2.3482050E-08
   6.060000     -2.2637844E-08
   6.120000     -2.1666882E-08
   6.180000     -2.0595010E-08
   6.240000     -1.9465594E-08
   6.300000     -1.8328784E-08
   6.360000     -1.7228940E-08
   6.420000     -1.6193770E-08
   6.480000     -1.5228409E-08
   6.540000     -1.4316076E-08
   6.600000     -1.3424839E-08
   6.660000     -1.2517893E-08
   6.720000     -1.1563731E-08
   6.780000     -1.0542923E-08
   6.840000     -9.4497281E-09
   6.900000     -8.2888230E-09
   6.960000     -7.0690502E-09
   7.020000     -5.7968097E-09
   7.080000     -4.4713171E-09
   7.140000     -3.0829106E-09
   7.200000     -1.6143862E-09
   7.260000     -4.4545524E-11
   7.320000      1.6471524E-09
   7.380000      3.4758338E-09
   7.440000      5.4471032E-09
   7.500000      7.5541644E-09
   7.560000      9.7766586E-09
   7.620000      1.2081618E-08
   7.680000      1.4426677E-08
   7.740000      1.6765302E-08
   7.800000      1.9053289E-08
   7.860000      2.1255323E-08
   7.920000      2.3350188E-08
   7.980000      2.5333305E-08
   8.040000      2.7215714E-08
   8.100000      2.9019420E-08
   8.160000      3.0769900E-08
   8.220000      3.2487502E-08
   8.280000      3.4179902E-08
   8.340000      3.5837687E-08
   8.400000      3.7434464E-08
   8.460000      3.8931645E-08
   8.520000      4.0286743E-08
   8.580000      4.1463078E-08
   8.640000      4.2438366E-08
   8.700000      4.3210100E-08
   8.760000      4.3796405E-08
   8.820000      4.4232326E-08
   8.880000      4.4562665E-08
   8.940000      4.4833143E-08
   9.000000      4.5082135E-08
   9.060000      4.5334868E-08
   9.120000      4.5601169E-08
   9.180000      4.5876913E-08
   9.240000      4.6148173E-08
   9.300000      4.6396615E-08
   9.360000      4.6604583E-08
   9.420000      4.6758789E-08
   9.480000      4.6852342E-08
   9.540000      4.6885248E-08
   9.600000      4.6863764E-08
   9.660000      4.6798899E-08
   9.720000      4.6704113E-08
   9.780000      4.6592469E-08
   9.840000      4.6473634E-08
   9.900000      4.6351630E-08
   9.960000      4.6224137E-08
   10.02000      4.6083830E-08
   10.08000      4.5921308E-08
   10.14000      4.5728701E-08
   10.20000      4.5502521E-08
   10.26000      4.5244882E-08
   10.32000      4.4962885E-08
   10.38000      4.4666656E-08
   10.44000      4.4366875E-08
   10.50000      4.4072394E-08
   10.56000      4.3788326E-08
   10.62000      4.3514607E-08
   10.68000      4.3245212E-08
   10.74000      4.2968420E-08
   10.80000      4.2668454E-08
   10.86000      4.2328598E-08
   10.92000      4.1935031E-08
   10.98000      4.1480217E-08
   11.04000      4.0964423E-08
   11.10000      4.0394774E-08
   11.16000      3.9782272E-08
   11.22000      3.9138058E-08
   11.28000      3.8470485E-08
   11.34000      3.7783838E-08
   11.40000      3.7078635E-08
   11.46000      3.6352418E-08
   11.52000      3.5600110E-08
   11.58000      3.4813631E-08
   11.64000      3.3981511E-08
   11.70000      3.3089769E-08
   11.76000      3.2125012E-08
   11.82000      3.1079342E-08
   11.88000      2.9955391E-08
   11.94000      2.8768957E-08
   12.00000      2.7547285E-08
   12.06000      2.6322677E-08
   12.12000      2.5123189E-08
   12.18000      2.3963636E-08
   12.24000      2.2840345E-08
   12.30000      2.1731802E-08
   12.36000      2.0605158E-08
   12.42000      1.9426398E-08
   12.48000      1.8170637E-08
   12.54000      1.6829054E-08
   12.60000      1.5410301E-08
   12.66000      1.3936194E-08
   12.72000      1.2433534E-08
   12.78000      1.0925135E-08
   12.84000      9.4232515E-09
   12.90000      7.9276008E-09
   12.96000      6.4283183E-09
   13.02000      4.9123794E-09
   13.08000      3.3706364E-09
   13.14000      1.8025286E-09
   13.20000      2.1648543E-10
   13.26000     -1.3741356E-09
   13.32000     -2.9578882E-09
   13.38000     -4.5320130E-09
   13.44000     -6.1063230E-09
   13.50000     -7.7024849E-09
   13.56000     -9.3487280E-09
   13.62000     -1.1071648E-08
   13.68000     -1.2887757E-08
   13.74000     -1.4797418E-08
   13.80000     -1.6782989E-08
   13.86000     -1.8811676E-08
   13.92000     -2.0842291E-08
   13.98000     -2.2834099E-08
   14.04000     -2.4755510E-08
   14.10000     -2.6590470E-08
   14.16000     -2.8341015E-08
   14.22000     -3.0025333E-08
   14.28000     -3.1671707E-08
   14.34000     -3.3309639E-08
   14.40000     -3.4960248E-08
   14.46000     -3.6628361E-08
   14.52000     -3.8298623E-08
   14.58000     -3.9937149E-08
   14.64000     -4.1498762E-08
   14.70000     -4.2938101E-08
   14.76000     -4.4221387E-08
   14.82000     -4.5334968E-08
   14.88000     -4.6287582E-08
   14.94000     -4.7105580E-08
   15.00000     -4.7822844E-08
   15.06000     -4.8469353E-08
   15.12000     -4.9062610E-08
   15.18000     -4.9604786E-08
   15.24000     -5.0085585E-08
   15.30000     -5.0488541E-08
   15.36000     -5.0797397E-08
   15.42000     -5.0999930E-08
   15.48000     -5.1088744E-08
   15.54000     -5.1060237E-08
   15.60000     -5.0913737E-08
   15.66000     -5.0651959E-08
   15.72000     -5.0282480E-08
   15.78000     -4.9818748E-08
   15.84000     -4.9279269E-08
   15.90000     -4.8684804E-08
   15.96000     -4.8054869E-08
   16.02000     -4.7405297E-08
   16.08000     -4.6748070E-08
   16.14000     -4.6092875E-08
   16.20000     -4.5448601E-08
   16.26000     -4.4822777E-08
   16.32000     -4.4218375E-08
   16.38000     -4.3629530E-08
   16.44000     -4.3039197E-08
   16.50000     -4.2421629E-08
   16.56000     -4.1750397E-08
   16.62000     -4.1009503E-08
   16.68000     -4.0202849E-08
   16.74000     -3.9357104E-08
   16.80000     -3.8515424E-08
   16.86000     -3.7723648E-08
   16.92000     -3.7014228E-08
   16.98000     -3.6394621E-08
   17.04000     -3.5845211E-08
   17.10000     -3.5327414E-08
   17.16000     -3.4798195E-08
   17.22000     -3.4224364E-08
   17.28000     -3.3590801E-08
   17.34000     -3.2900086E-08
   17.40000     -3.2165534E-08
   17.46000     -3.1402379E-08
   17.52000     -3.0621873E-08
   17.58000     -2.9830094E-08
   17.64000     -2.9030092E-08
   17.70000     -2.8223781E-08
   17.76000     -2.7411010E-08
   17.82000     -2.6586061E-08
   17.88000     -2.5734654E-08
   17.94000     -2.4835256E-08
   18.00000     -2.3866274E-08
   18.06000     -2.2816760E-08
   18.12000     -2.1695236E-08
   18.18000     -2.0531136E-08
   18.24000     -1.9366643E-08
   18.30000     -1.8241746E-08
   18.36000     -1.7179159E-08
   18.42000     -1.6176237E-08
   18.48000     -1.5207609E-08
   18.54000     -1.4236931E-08
   18.60000     -1.3231834E-08
   18.66000     -1.2175040E-08
   18.72000     -1.1067238E-08
   18.78000     -9.9219708E-09
   18.84000     -8.7567615E-09
   18.90000     -7.5859239E-09
   18.96000     -6.4185959E-09
   19.02000     -5.2617803E-09
   19.08000     -4.1250590E-09
   19.14000     -3.0227922E-09
   19.20000     -1.9714872E-09
   19.26000     -9.8326958E-10
   19.32000     -5.9091058E-11
   19.38000      8.1421136E-10
   19.44000      1.6607880E-09
   19.50000      2.5075952E-09
   19.56000      3.3748282E-09
   19.62000      4.2692641E-09
   19.68000      5.1831419E-09
   19.74000      6.0982677E-09
   19.80000      6.9925234E-09
   19.86000      7.8453182E-09
   19.92000      8.6398835E-09
   19.98000      9.3628101E-09
   20.04000      1.0003075E-08
   20.10000      1.0552955E-08
   20.16000      1.1011455E-08
   20.22000      1.1388482E-08
   20.28000      1.1706534E-08
   20.34000      1.1997315E-08
   20.40000      1.2293203E-08
   20.46000      1.2616566E-08
   20.52000      1.2971602E-08
   20.58000      1.3342634E-08
   20.64000      1.3699916E-08
   20.70000      1.4010483E-08
   20.76000      1.4249288E-08
   20.82000      1.4406114E-08
   20.88000      1.4486077E-08
   20.94000      1.4504728E-08
   21.00000      1.4480953E-08
   21.06000      1.4431228E-08
   21.12000      1.4367181E-08
   21.18000      1.4296369E-08
   21.24000      1.4224568E-08
   21.30000      1.4157710E-08
   21.36000      1.4102463E-08
   21.42000      1.4065621E-08
   21.48000      1.4053090E-08
   21.54000      1.4069159E-08
   21.60000      1.4116125E-08
   21.66000      1.4193971E-08
   21.72000      1.4299887E-08
   21.78000      1.4427880E-08
   21.84000      1.4569182E-08
   21.90000      1.4713965E-08
   21.96000      1.4854233E-08
   22.02000      1.4986828E-08
   22.08000      1.5115031E-08
   22.14000      1.5247577E-08
   22.20000      1.5394873E-08
   22.26000      1.5563533E-08
   22.32000      1.5751130E-08
   22.38000      1.5943172E-08
   22.44000      1.6113571E-08
   22.50000      1.6228764E-08
   22.56000      1.6254521E-08
   22.62000      1.6163739E-08
   22.68000      1.5943201E-08
   22.74000      1.5597536E-08
   22.80000      1.5149158E-08
   22.86000      1.4633873E-08
   22.92000      1.4093056E-08
   22.98000      1.3564335E-08
   23.04000      1.3073381E-08
   23.10000      1.2629285E-08
   23.16000      1.2224914E-08
   23.22000      1.1842026E-08
   23.28000      1.1459288E-08
   23.34000      1.1060407E-08
   23.40000      1.0639774E-08
   23.46000      1.0204086E-08
   23.52000      9.7700132E-09
   23.58000      9.3591828E-09
   23.64000      8.9923464E-09
   23.70000      8.6843430E-09
   23.76000      8.4408551E-09
   23.82000      8.2573068E-09
   23.88000      8.1198523E-09
   23.94000      8.0082403E-09
   24.00000      7.9001232E-09
   24.06000      7.7760358E-09
   24.12000      7.6238491E-09
   24.18000      7.4412871E-09
   24.24000      7.2354616E-09
   24.30000      7.0193091E-09
   24.36000      6.8060455E-09
   24.42000      6.6037016E-09
   24.48000      6.4119487E-09
   24.54000      6.2225873E-09
   24.60000      6.0235750E-09
   24.66000      5.8049219E-09
   24.72000      5.5639124E-09
   24.78000      5.3073017E-09
   24.84000      5.0493099E-09
   24.90000      4.8059126E-09
   24.96000      4.5873856E-09
   25.02000      4.3917265E-09
   25.08000      4.2012167E-09
   25.14000      3.9832035E-09
   25.20000      3.6947028E-09
   25.26000      3.2892511E-09
   25.32000      2.7239706E-09
   25.38000      1.9651456E-09
   25.44000      9.9139819E-10
   25.50000     -2.0560732E-10
   25.56000     -1.6225127E-09
   25.62000     -3.2471774E-09
   25.68000     -5.0627889E-09
   25.74000     -7.0527961E-09
   25.80000     -9.2059445E-09
   25.86000     -1.1520149E-08
   25.92000     -1.4003601E-08
   25.98000     -1.6671834E-08
   26.04000     -1.9540620E-08
   26.10000     -2.2616147E-08
   26.16000     -2.5885324E-08
   26.22000     -2.9309479E-08
   26.28000     -3.2823927E-08
   26.34000     -3.6343959E-08
   26.40000     -3.9775873E-08
   26.46000     -4.3030088E-08
   26.52000     -4.6033161E-08
   26.58000     -4.8736119E-08
   26.64000     -5.1118025E-08
   26.70000     -5.3184795E-08
   26.76000     -5.4964307E-08
   26.82000     -5.6499275E-08
   26.88000     -5.7839479E-08
   26.94000     -5.9035109E-08
   27.00000     -6.0132699E-08
   27.06000     -6.1174546E-08
   27.12000     -6.2201202E-08
   27.18000     -6.3255406E-08
   27.24000     -6.4384636E-08
   27.30000     -6.5639576E-08
   27.36000     -6.7067255E-08
   27.42000     -6.8699684E-08
   27.48000     -7.0541489E-08
   27.54000     -7.2560873E-08
   27.60000     -7.4688039E-08
   27.66000     -7.6822808E-08
   27.72000     -7.8850675E-08
   27.78000     -8.0663462E-08
   27.84000     -8.2179625E-08
   27.90000     -8.3358906E-08
   27.96000     -8.4207457E-08
   28.02000     -8.4771656E-08
   28.08000     -8.5121677E-08
   28.14000     -8.5328480E-08
   28.20000     -8.5440043E-08
   28.26000     -8.5463370E-08
   28.32000     -8.5357605E-08
   28.38000     -8.5040917E-08
   28.44000     -8.4409479E-08
   28.50000     -8.3363446E-08
   28.56000     -8.1832297E-08
   28.62000     -7.9792734E-08
   28.68000     -7.7274500E-08
   28.74000     -7.4353721E-08
   28.80000     -7.1136967E-08
   28.86000     -6.7741198E-08
   28.92000     -6.4275127E-08
   28.98000     -6.0825876E-08
   29.04000     -5.7452748E-08
   29.10000     -5.4187705E-08
   29.16000     -5.1040971E-08
   29.22000     -4.8009362E-08
   29.28000     -4.5085258E-08
   29.34000     -4.2264297E-08
   29.40000     -3.9550404E-08
   29.46000     -3.6957349E-08
   29.52000     -3.4506805E-08
   29.58000     -3.2223706E-08
   29.64000     -3.0130671E-08
   29.70000     -2.8243587E-08
   29.76000     -2.6570303E-08
   29.82000     -2.5113186E-08
   29.88000     -2.3874554E-08
   29.94000     -2.2862508E-08
   30.00000     -2.2094069E-08
   30.06000     -2.1593426E-08
   30.12000     -2.1385212E-08
   30.18000     -2.1485127E-08
   30.24000     -2.1891641E-08
   30.30000     -2.2582212E-08
   30.36000     -2.3515412E-08
   30.42000     -2.4637863E-08
   30.48000     -2.5892945E-08
   30.54000     -2.7228209E-08
   30.60000     -2.8599780E-08
   30.66000     -2.9973929E-08
   30.72000     -3.1327250E-08
   30.78000     -3.2646764E-08
   30.84000     -3.3930011E-08
   30.90000     -3.5184133E-08
   30.96000     -3.6422723E-08
   31.02000     -3.7660254E-08
   31.08000     -3.8905590E-08
   31.14000     -4.0156955E-08
   31.20000     -4.1400707E-08
   31.26000     -4.2614413E-08
   31.32000     -4.3772978E-08
   31.38000     -4.4855014E-08
   31.44000     -4.5846857E-08
   31.50000     -4.6742684E-08
   31.56000     -4.7541143E-08
   31.62000     -4.8240157E-08
   31.68000     -4.8832174E-08
   31.74000     -4.9301551E-08
   31.80000     -4.9624798E-08
   31.86000     -4.9773401E-08
   31.92000     -4.9718434E-08
   31.98000     -4.9436036E-08
   32.04000     -4.8913144E-08
   32.10000     -4.8152852E-08
   32.16000     -4.7178755E-08
   32.22000     -4.6036931E-08
   32.28000     -4.4794049E-08
   32.34000     -4.3530129E-08
   32.40000     -4.2325937E-08
   32.46000     -4.1247134E-08
   32.52000     -4.0329304E-08
   32.58000     -3.9569013E-08
   32.64000     -3.8924476E-08
   32.70000     -3.8326583E-08
   32.76000     -3.7696669E-08
   32.82000     -3.6965215E-08
   32.88000     -3.6085442E-08
   32.94000     -3.5038621E-08
   33.00000     -3.3831775E-08
   33.06000     -3.2491386E-08
   33.12000     -3.1057098E-08
   33.18000     -2.9577523E-08
   33.24000     -2.8107388E-08
   33.30000     -2.6703761E-08
   33.36000     -2.5419595E-08
   33.42000     -2.4295263E-08
   33.48000     -2.3350928E-08
   33.54000     -2.2583095E-08
   33.60000     -2.1966923E-08
   33.66000     -2.1463091E-08
   33.72000     -2.1025921E-08
   33.78000     -2.0609546E-08
   33.84000     -2.0170985E-08
   33.90000     -1.9671496E-08
   33.96000     -1.9078890E-08
   34.02000     -1.8372432E-08
   34.08000     -1.7549567E-08
   34.14000     -1.6631201E-08
   34.20000     -1.5661875E-08
   34.26000     -1.4702740E-08
   34.32000     -1.3818467E-08
   34.38000     -1.3062054E-08
   34.44000     -1.2462509E-08
   34.50000     -1.2019299E-08
   34.56000     -1.1704783E-08
   34.62000     -1.1473111E-08
   34.68000     -1.1272301E-08
   34.74000     -1.1055903E-08
   34.80000     -1.0791611E-08
   34.86000     -1.0465609E-08
   34.92000     -1.0082715E-08
   34.98000     -9.6632142E-09
   35.04000     -9.2375103E-09
   35.10000     -8.8397192E-09
   35.16000     -8.5011838E-09
   35.22000     -8.2449079E-09
   35.28000     -8.0818516E-09
   35.34000     -8.0099651E-09
   35.40000     -8.0163307E-09
   35.46000     -8.0819955E-09
   35.52000     -8.1880920E-09
   35.58000     -8.3212690E-09
   35.64000     -8.4766638E-09
   35.70000     -8.6577314E-09
   35.76000     -8.8737453E-09
   35.82000     -9.1368229E-09
   35.88000     -9.4602788E-09
   35.94000     -9.8588462E-09
   36.00000     -1.0349669E-08
   36.06000     -1.0952020E-08
   36.12000     -1.1684180E-08
   36.18000     -1.2557734E-08
   36.24000     -1.3571421E-08
   36.30000     -1.4707606E-08
   36.36000     -1.5933455E-08
   36.42000     -1.7206807E-08
   36.48000     -1.8484533E-08
   36.54000     -1.9730503E-08
   36.60000     -2.0920945E-08
   36.66000     -2.2046800E-08
   36.72000     -2.3113921E-08
   36.78000     -2.4142009E-08
   36.84000     -2.5162270E-08
   36.90000     -2.6213005E-08
   36.96000     -2.7332486E-08
   37.02000     -2.8550090E-08
   37.08000     -2.9878262E-08
   37.14000     -3.1308506E-08
   37.20000     -3.2813251E-08
   37.26000     -3.4352809E-08
   37.32000     -3.5884266E-08
   37.38000     -3.7368704E-08
   37.44000     -3.8774548E-08
   37.50000     -4.0077687E-08
   37.56000     -4.1260911E-08
   37.62000     -4.2314927E-08
   37.68000     -4.3241222E-08
   37.74000     -4.4054502E-08
   37.80000     -4.4781387E-08
   37.86000     -4.5453429E-08
   37.92000     -4.6095657E-08
   37.98000     -4.6714828E-08
   38.04000     -4.7292581E-08
   38.10000     -4.7786987E-08
   38.16000     -4.8142418E-08
   38.22000     -4.8304265E-08
   38.28000     -4.8233304E-08
   38.34000     -4.7915158E-08
   38.40000     -4.7362633E-08
   38.46000     -4.6611376E-08
   38.52000     -4.5711062E-08
   38.58000     -4.4714813E-08
   38.64000     -4.3669118E-08
   38.70000     -4.2605858E-08
   38.76000     -4.1537675E-08
   38.82000     -4.0457540E-08
   38.88000     -3.9343121E-08
   38.94000     -3.8165425E-08
   39.00000     -3.6900055E-08
   39.06000     -3.5537919E-08
   39.12000     -3.4091872E-08
   39.18000     -3.2596386E-08
   39.24000     -3.1099542E-08
   39.30000     -2.9649426E-08
   39.36000     -2.8279347E-08
   39.42000     -2.6997359E-08
   39.48000     -2.5784148E-08
   39.54000     -2.4600331E-08
   39.60000     -2.3400448E-08
   39.66000     -2.2148246E-08
   39.72000     -2.0827590E-08
   39.78000     -1.9445578E-08
   39.84000     -1.8027967E-08
   39.90000     -1.6610224E-08
   39.96000     -1.5228460E-08
   40.02000     -1.3913331E-08
   40.08000     -1.2687490E-08
   40.14000     -1.1565235E-08
   40.20000     -1.0552643E-08
   40.26000     -9.6478381E-09
   40.32000     -8.8424805E-09
   40.38000     -8.1258431E-09
   40.44000     -7.4913107E-09
   40.50000     -6.9427624E-09
   40.56000     -6.4969399E-09
   40.62000     -6.1789662E-09
   40.68000     -6.0114900E-09
   40.74000     -6.0017933E-09
   40.80000     -6.1331829E-09
   40.86000     -6.3656116E-09
   40.92000     -6.6462857E-09
   40.98000     -6.9260975E-09
   41.04000     -7.1748669E-09
   41.10000     -7.3890258E-09
   41.16000     -7.5891116E-09
   41.22000     -7.8091542E-09
   41.28000     -8.0832745E-09
   41.34000     -8.4351832E-09
   41.40000     -8.8740197E-09
   41.46000     -9.3966586E-09
   41.52000     -9.9939985E-09
   41.58000     -1.0657874E-08
   41.64000     -1.1385862E-08
   41.70000     -1.2182693E-08
   41.76000     -1.3058161E-08
   41.82000     -1.4022172E-08
   41.88000     -1.5077964E-08
   41.94000     -1.6214992E-08
   42.00000     -1.7403689E-08
   42.06000     -1.8594653E-08
   42.12000     -1.9724427E-08
   42.18000     -2.0728312E-08
   42.24000     -2.1557872E-08
   42.30000     -2.2198076E-08
   42.36000     -2.2677650E-08
   42.42000     -2.3067182E-08
   42.48000     -2.3463302E-08
   42.54000     -2.3962290E-08
   42.60000     -2.4631184E-08
   42.66000     -2.5486470E-08
   42.72000     -2.6488520E-08
   42.78000     -2.7554572E-08
   42.84000     -2.8586044E-08
   42.90000     -2.9500466E-08
   42.96000     -3.0256395E-08
   43.02000     -3.0862523E-08
   43.08000     -3.1368536E-08
   43.14000     -3.1842109E-08
   43.20000     -3.2341550E-08
   43.26000     -3.2894281E-08
   43.32000     -3.3488377E-08
   43.38000     -3.4078834E-08
   43.44000     -3.4604991E-08
   43.50000     -3.5012022E-08
   43.56000     -3.5269135E-08
   43.62000     -3.5378942E-08
   43.68000     -3.5375898E-08
   43.74000     -3.5315153E-08
   43.80000     -3.5255734E-08
   43.86000     -3.5243318E-08
   43.92000     -3.5297749E-08
   43.98000     -3.5409034E-08
   44.04000     -3.5542978E-08
   44.10000     -3.5654644E-08
   44.16000     -3.5705106E-08
   44.22000     -3.5675601E-08
   44.28000     -3.5573795E-08
   44.34000     -3.5429487E-08
   44.40000     -3.5281072E-08
   44.46000     -3.5157736E-08
   44.52000     -3.5064513E-08
   44.58000     -3.4976591E-08
   44.64000     -3.4845929E-08
   44.70000     -3.4618289E-08
   44.76000     -3.4254427E-08
   44.82000     -3.3747050E-08
   44.88000     -3.3126415E-08
   44.94000     -3.2451943E-08
   45.00000     -3.1792528E-08
   45.06000     -3.1203012E-08
   45.12000     -3.0705579E-08
   45.18000     -3.0282997E-08
   45.24000     -2.9885818E-08
   45.30000     -2.9450646E-08
   45.36000     -2.8922639E-08
   45.42000     -2.8274737E-08
   45.48000     -2.7517629E-08
   45.54000     -2.6697998E-08
   45.60000     -2.5886099E-08
   45.66000     -2.5156407E-08
   45.72000     -2.4566519E-08
   45.78000     -2.4139625E-08
   45.84000     -2.3855112E-08
   45.90000     -2.3650330E-08
   45.96000     -2.3433957E-08
   46.02000     -2.3108413E-08
   46.08000     -2.2595650E-08
   46.14000     -2.1858833E-08
   46.20000     -2.0912781E-08
   46.26000     -1.9818996E-08
   46.32000     -1.8666142E-08
   46.38000     -1.7541943E-08
   46.44000     -1.6505815E-08
   46.50000     -1.5571560E-08
   46.56000     -1.4705892E-08
   46.62000     -1.3842943E-08
   46.68000     -1.2909219E-08
   46.74000     -1.1850038E-08
   46.80000     -1.0648495E-08
   46.86000     -9.3310151E-09
   46.92000     -7.9584908E-09
   46.98000     -6.6065962E-09
   47.04000     -5.3420788E-09
   47.10000     -4.2025361E-09
   47.16000     -3.1858327E-09
   47.22000     -2.2523192E-09
   47.28000     -1.3392449E-09
   47.34000     -3.8306361E-10
   47.40000      6.5737055E-10
   47.46000      1.7845276E-09
   47.52000      2.9588911E-09
   47.58000      4.1104831E-09
   47.64000      5.1616875E-09
   47.70000      6.0532495E-09
   47.76000      6.7636052E-09
   47.82000      7.3139375E-09
   47.88000      7.7568654E-09
   47.94000      8.1532052E-09
   48.00000      8.5460172E-09
   48.06000      8.9420764E-09
   48.12000      9.3077421E-09
   48.18000      9.5804147E-09
   48.24000      9.6908455E-09
   48.30000      9.5878532E-09
   48.36000      9.2564738E-09
   48.42000      8.7232177E-09
   48.48000      8.0465252E-09
   48.54000      7.2952973E-09
   48.60000      6.5221220E-09
   48.66000      5.7395733E-09
   48.72000      4.9073083E-09
   48.78000      3.9346562E-09
   48.84000      2.6986957E-09
   48.90000      1.0727884E-09
   48.96000     -1.0432677E-09
   49.02000     -3.7013905E-09
   49.08000     -6.8993966E-09
   49.14000     -1.0594016E-08
   49.20000     -1.4729446E-08
   49.26000     -1.9272973E-08
   49.32000     -2.4246777E-08
   49.38000     -2.9746326E-08
   49.44000     -3.5940275E-08
   49.50000     -4.3053323E-08
   49.56000     -5.1339391E-08
   49.62000     -6.1055808E-08
   49.68000     -7.2448614E-08
   49.74000     -8.5754778E-08
   49.80000     -1.0122076E-07
   49.86000     -1.1913154E-07
   49.92000     -1.3984169E-07
   49.98000     -1.6380064E-07
   50.04000     -1.9156850E-07
   50.10000     -2.2382218E-07
   50.16000     -2.6135407E-07
   50.22000     -3.0506649E-07
   50.28000     -3.5596466E-07
   50.34000     -4.1515159E-07
   50.40000     -4.8382924E-07
   50.46000     -5.6331089E-07
   50.52000     -6.5504946E-07
   50.58000     -7.6068011E-07
   50.64000     -8.8207128E-07
   50.70000     -1.0213712E-06
   50.76000     -1.1810381E-06
   50.82000     -1.3638501E-06
   50.88000     -1.5728966E-06
   50.94000     -1.8115659E-06
   51.00000     -2.0835439E-06
   51.06000     -2.3928328E-06
   51.12000     -2.7437945E-06
   51.18000     -3.1412028E-06
   51.24000     -3.5902972E-06
   51.30000     -4.0968253E-06
   51.36000     -4.6670684E-06
   51.42000     -5.3078566E-06
   51.48000     -6.0265797E-06
   51.54000     -6.8311992E-06
   51.60000     -7.7302630E-06
   51.66000     -8.7329236E-06
   51.72000     -9.8489527E-06
   51.78000     -1.1088761E-05
   51.84000     -1.2463413E-05
   51.90000     -1.3984638E-05
   51.96000     -1.5664838E-05
   52.02000     -1.7517079E-05
   52.08000     -1.9555069E-05
   52.14000     -2.1793119E-05
   52.20000     -2.4246103E-05
   52.26000     -2.6929405E-05
   52.32000     -2.9858889E-05
   52.38000     -3.3050848E-05
   52.44000     -3.6521989E-05
   52.50000     -4.0289357E-05
   52.56000     -4.4370310E-05
   52.62000     -4.8782440E-05
   52.68000     -5.3543466E-05
   52.74000     -5.8671128E-05
   52.80000     -6.4183056E-05
   52.86000     -7.0096605E-05
   52.92000     -7.6428754E-05
   52.98000     -8.3195941E-05
   53.04000     -9.0413945E-05
   53.10000     -9.8097778E-05
   53.16000     -1.0626157E-04
   53.22000     -1.1491844E-04
   53.28000     -1.2408037E-04
   53.34000     -1.3375803E-04
   53.40000     -1.4396074E-04
   53.46000     -1.5469617E-04
   53.52000     -1.6597028E-04
   53.58000     -1.7778722E-04
   53.64000     -1.9014919E-04
   53.70000     -2.0305630E-04
   53.76000     -2.1650652E-04
   53.82000     -2.3049556E-04
   53.88000     -2.4501691E-04
   53.94000     -2.6006176E-04
   54.00000     -2.7561910E-04
   54.06000     -2.9167559E-04
   54.12000     -3.0821565E-04
   54.18000     -3.2522139E-04
   54.24000     -3.4267263E-04
   54.30000     -3.6054690E-04
   54.36000     -3.7881982E-04
   54.42000     -3.9746499E-04
   54.48000     -4.1645439E-04
   54.54000     -4.3575844E-04
   54.60000     -4.5534607E-04
   54.66000     -4.7518496E-04
   54.72000     -4.9524172E-04
   54.78000     -5.1548186E-04
   54.84000     -5.3587067E-04
   54.90000     -5.5637269E-04
   54.96000     -5.7695241E-04
   55.02000     -5.9757434E-04
   55.08000     -6.1820337E-04
   55.14000     -6.3880463E-04
   55.20000     -6.5934443E-04
   55.26000     -6.7978981E-04
   55.32000     -7.0010900E-04
   55.38000     -7.2027172E-04
   55.44000     -7.4024900E-04
   55.50000     -7.6001341E-04
   55.56000     -7.7953940E-04