  -2.400000      0.0000000E+00
  -2.340000      0.0000000E+00
  -2.280000      0.0000000E+00
  -2.220000      0.0000000E+00
  -2.160000      0.0000000E+00
  -2.100000      3.9293437E-22
  -2.040000      1.6096742E-20
  -1.980000      1.2728498E-19
  -1.920000      5.2811698E-19
  -1.860000      1.3716087E-18
  -1.800000      2.0969411E-18
  -1.740000      1.9890324E-19
  -1.680000     -9.7372815E-18
  -1.620000     -3.4844672E-17
  -1.560000     -7.8579908E-17
  -1.500000     -1.3106243E-16
  -1.440000     -1.5929337E-16
  -1.380000     -1.0575923E-16
  -1.320000      9.5379106E-17
  -1.260000      4.8151615E-16
  -1.200000      1.0138565E-15
  -1.140000      1.5414344E-15
  -1.080000      1.8042107E-15
  -1.020000      1.4919868E-15
 -0.9600000      3.5216972E-16
 -0.9000000     -1.6854388E-15
 -0.8400000     -4.4092054E-15
 -0.7800000     -7.2828282E-15
 -0.7200000     -9.4670552E-15
 -0.6600000     -9.9013256E-15
 -0.6000000     -7.4570960E-15
 -0.5400000     -1.2111402E-15
 -0.4800000      9.1009802E-15
 -0.4200000      2.2462026E-14
 -0.3600000      3.5968597E-14
 -0.3000000      4.4653622E-14
 -0.2400000      4.2254228E-14
 -0.1800000      2.3259979E-14
 -0.1200000     -1.3984122E-14
 -5.9999999E-02 -6.4148577E-14
  0.0000000E+00 -1.1345549E-13
  5.9999999E-02 -1.4159519E-13
  0.1200000     -1.2778045E-13
  0.1800000     -5.9851816E-14
  0.2400000      5.6715717E-14
  0.3000000      1.9428202E-13
  0.3600000      3.0677815E-13
  0.4200000      3.4278860E-13
  0.4800000      2.6495280E-13
  0.5400000      6.8839547E-14
  0.6000000     -2.0709404E-13
  0.6600000     -4.8679593E-13
  0.7200000     -6.7803342E-13
  0.7800000     -7.0383022E-13
  0.8400000     -5.3237959E-13
  0.9000000     -1.9278225E-13
  0.9600000      2.3158596E-13
   1.020000      6.3149187E-13
   1.080000      9.1179711E-13
   1.140000      1.0264312E-12
   1.200000      9.9229934E-13
   1.260000      8.7376617E-13
   1.320000      7.4183514E-13
   1.380000      6.2443274E-13
   1.440000      4.7096094E-13
   1.500000      1.5193960E-13
   1.560000     -4.9703953E-13
   1.620000     -1.5951319E-12
   1.680000     -3.1248483E-12
   1.740000     -4.8644786E-12
   1.800000     -6.3778878E-12
   1.860000     -7.0813281E-12
   1.920000     -6.3838869E-12
   1.980000     -3.8726205E-12
   2.040000      5.0651085E-13
   2.100000      6.3281151E-12
   2.160000      1.2674397E-11
   2.220000      1.8252436E-11
   2.280000      2.1630520E-11
   2.340000      2.1548154E-11
   2.400000      1.7230301E-11
   2.460000      8.6300299E-12
   2.520000     -3.4618627E-12
   2.580000     -1.7469835E-11
   2.640000     -3.1238619E-11
   2.700000     -4.2342720E-11
   2.760000     -4.8429954E-11
   2.820000     -4.7526243E-11
   2.880000     -3.8245525E-11
   2.940000     -1.9878760E-11
   3.000000      7.6323782E-12
   3.060000      4.3807128E-11
   3.120000      8.7780991E-11
   3.180000      1.3846373E-10
   3.240000      1.9466759E-10
   3.300000      2.5518257E-10
   3.360000      3.1878539E-10
   3.420000      3.8417752E-10
   3.480000      4.4986090E-10
   3.540000      5.1397936E-10
   3.600000      5.7417437E-10
   3.660000      6.2752076E-10
   3.720000      6.7060313E-10
   3.780000      6.9976741E-10
   3.840000      7.1153011E-10
   3.900000      7.0306916E-10
   3.960000      6.7267764E-10
   4.020000      6.2005251E-10
   4.080000      5.4632926E-10
   4.140000      4.5384677E-10
   4.200000      3.4571671E-10
   4.260000      2.2533773E-10
   4.320000      9.6015348E-11
   4.380000     -3.9191747E-11
   4.440000     -1.7736479E-10
   4.500000     -3.1542796E-10
   4.560000     -4.4981230E-10
   4.620000     -5.7625643E-10
   4.680000     -6.8987965E-10
   4.740000     -7.8556578E-10
   4.800000     -8.5858642E-10
   4.860000     -9.0530961E-10
   4.920000     -9.2381064E-10
   4.980000     -9.1425040E-10
   5.040000     -8.7896435E-10
   5.100000     -8.2229323E-10
   5.160000     -7.5024048E-10
   5.220000     -6.7003270E-10
   5.280000     -5.8962751E-10
   5.340000     -5.1716437E-10
   5.400000     -4.6034487E-10
   5.460000     -4.2576359E-10
   5.520000     -4.1826001E-10
   5.580000     -4.4041704E-10
   5.640000     -4.9231608E-10
   5.700000     -5.7159660E-10
   5.760000     -6.7376627E-10
   5.820000     -7.9262003E-10
   5.880000     -9.2060798E-10
   5.940000     -1.0490447E-09
   6.000000     -1.1681622E-09
   6.060000     -1.2671146E-09
   6.120000     -1.3340876E-09
   6.180000     -1.3566325E-09
   6.240000     -1.3222416E-09
   6.300000     -1.2190704E-09
   6.360000     -1.0366397E-09
   6.420000     -7.6634743E-10
   6.480000     -4.0167494E-10
   6.540000      6.1946205E-11
   6.600000      6.2757088E-10
   6.660000      1.2973959E-09
   6.720000      2.0735147E-09
   6.780000      2.9586142E-09
   6.840000      3.9564019E-09
   6.900000      5.0715387E-09
   6.960000      6.3088708E-09
   7.020000      7.6719164E-09
   7.080000      9.1607681E-09
   7.140000      1.0769813E-08
   7.200000      1.2485840E-08
   7.260000      1.4287090E-08
   7.320000      1.6143581E-08
   7.380000      1.8018723E-08
   7.440000      1.9871843E-08
   7.500000      2.1661013E-08
   7.560000      2.3345530E-08
   7.620000      2.4887605E-08
   7.680000      2.6253113E-08
   7.740000      2.7411629E-08
   7.800000      2.8336199E-08
   7.860000      2.9003356E-08
   7.920000      2.9393700E-08
   7.980000      2.9493178E-08
   8.040000      2.9294766E-08
   8.100000      2.8800148E-08
   8.160000      2.8020764E-08
   8.220000      2.6977753E-08
   8.280000      2.5700556E-08
   8.340000      2.4224237E-08
   8.400000      2.2586034E-08
   8.460000      2.0821751E-08
   8.520000      1.8962828E-08
   8.580000      1.7034660E-08
   8.640000      1.5056546E-08
   8.700000      1.3043095E-08
   8.760000      1.1006652E-08
   8.820000      8.9600336E-09
   8.880000      6.9187092E-09
   8.940000      4.9018221E-09
   9.000000      2.9316587E-09
   9.060000      1.0316249E-09
   9.120000     -7.7685169E-10
   9.180000     -2.4777831E-09
   9.240000     -4.0636410E-09
   9.300000     -5.5372253E-09
   9.360000     -6.9119590E-09
   9.420000     -8.2105780E-09
   9.480000     -9.4625303E-09
   9.540000     -1.0700647E-08
   9.600000     -1.1957699E-08
   9.660000     -1.3263282E-08
   9.720000     -1.4641289E-08
   9.780000     -1.6107970E-08
   9.840000     -1.7670494E-08
   9.900000     -1.9325990E-08
   9.960000     -2.1061158E-08
   10.02000     -2.2852682E-08
   10.08000     -2.4668672E-08
   10.14000     -2.6471218E-08
   10.20000     -2.8219818E-08
   10.26000     -2.9875213E-08
   10.32000     -3.1402948E-08
   10.38000     -3.2775940E-08
   10.44000     -3.3975770E-08
   10.50000     -3.4992524E-08
   10.56000     -3.5823522E-08
   10.62000     -3.6471452E-08
   10.68000     -3.6942460E-08
   10.74000     -3.7244622E-08
   10.80000     -3.7386968E-08
   10.86000     -3.7379106E-08
   10.92000     -3.7231061E-08
   10.98000     -3.6953299E-08
   11.04000     -3.6556571E-08
   11.10000     -3.6051745E-08
   11.16000     -3.5449617E-08
   11.22000     -3.4760976E-08
   11.28000     -3.3996990E-08
   11.34000     -3.3169794E-08
   11.40000     -3.2293059E-08
   11.46000     -3.1382104E-08
   11.52000     -3.0453347E-08
   11.58000     -2.9522919E-08
   11.64000     -2.8604884E-08
   11.70000     -2.7709445E-08
   11.76000     -2.6841761E-08
   11.82000     -2.6001674E-08
   11.88000     -2.5184343E-08
   11.94000     -2.4381469E-08
   12.00000     -2.3582645E-08
   12.06000     -2.2776517E-08
   12.12000     -2.1951651E-08
   12.18000     -2.1097296E-08
   12.24000     -2.0204249E-08
   12.30000     -1.9265880E-08
   12.36000     -1.8279152E-08
   12.42000     -1.7245231E-08
   12.48000     -1.6169290E-08
   12.54000     -1.5059427E-08
   12.60000     -1.3924899E-08
   12.66000     -1.2774159E-08
   12.72000     -1.1613209E-08
   12.78000     -1.0444617E-08
   12.84000     -9.2671950E-09
   12.90000     -8.0762241E-09
   12.96000     -6.8640165E-09
   13.02000     -5.6208411E-09
   13.08000     -4.3363322E-09
   13.14000     -3.0014797E-09
   13.20000     -1.6110534E-09
   13.26000     -1.6594298E-10
   13.32000      1.3253550E-09
   13.38000      2.8467932E-09
   13.44000      4.3766359E-09
   13.50000      5.8907625E-09
   13.56000      7.3664870E-09
   13.62000      8.7857730E-09
   13.68000      1.0136951E-08
   13.74000      1.1414613E-08
   13.80000      1.2617978E-08
   13.86000      1.3748444E-08
   13.92000      1.4807172E-08
   13.98000      1.5793326E-08
   14.04000      1.6703284E-08
   14.10000      1.7530883E-08
   14.16000      1.8268452E-08
   14.22000      1.8908450E-08
   14.28000      1.9445300E-08
   14.34000      1.9877007E-08
   14.40000      2.0206151E-08
   14.46000      2.0439824E-08
   14.52000      2.0588455E-08
   14.58000      2.0663775E-08
   14.64000      2.0676506E-08
   14.70000      2.0634504E-08
   14.76000      2.0541869E-08
   14.82000      2.0399202E-08
   14.88000      2.0204634E-08
   14.94000      1.9955065E-08
   15.00000      1.9647107E-08
   15.06000      1.9277474E-08
   15.12000      1.8843028E-08
   15.18000      1.8340911E-08
   15.24000      1.7769134E-08
   15.30000      1.7127681E-08
   15.36000      1.6419827E-08
   15.42000      1.5653072E-08
   15.48000      1.4839141E-08
   15.54000      1.3992890E-08
   15.60000      1.3130249E-08
   15.66000      1.2265843E-08
   15.72000      1.1410966E-08
   15.78000      1.0572453E-08
   15.84000      9.7527080E-09
   15.90000      8.9507672E-09
   15.96000      8.1640863E-09
   16.02000      7.3905606E-09
   16.08000      6.6304007E-09
   16.14000      5.8875140E-09
   16.20000      5.1701847E-09
   16.26000      4.4909525E-09
   16.32000      3.8657242E-09
   16.38000      3.3122955E-09
   16.44000      2.8485914E-09
   16.50000      2.4909994E-09
   16.56000      2.2531481E-09
   16.62000      2.1453090E-09
   16.68000      2.1743891E-09
   16.74000      2.3442515E-09
   16.80000      2.6560083E-09
   16.86000      3.1079770E-09
   16.92000      3.6952170E-09
   16.98000      4.4088462E-09
   17.04000      5.2355511E-09
   17.10000      6.1577667E-09
   17.16000      7.1548287E-09
   17.22000      8.2050660E-09
   17.28000      9.2884243E-09
   17.34000      1.0388947E-08
   17.40000      1.1496397E-08
   17.46000      1.2606522E-08
   17.52000      1.3719843E-08
   17.58000      1.4839244E-08
   17.64000      1.5966991E-08
   17.70000      1.7101859E-08
   17.76000      1.8237047E-08
   17.82000      1.9359332E-08
   17.88000      2.0449619E-08
   17.94000      2.1484798E-08
   18.00000      2.2440503E-08
   18.06000      2.3294117E-08
   18.12000      2.4027255E-08
   18.18000      2.4626956E-08
   18.24000      2.5085155E-08
   18.30000      2.5396565E-08
   18.36000      2.5555668E-08
   18.42000      2.5554090E-08
   18.48000      2.5379522E-08
   18.54000      2.5017020E-08
   18.60000      2.4452543E-08
   18.66000      2.3677693E-08
   18.72000      2.2693964E-08
   18.78000      2.1514932E-08
   18.84000      2.0165400E-08
   18.90000      1.8677721E-08
   18.96000      1.7086379E-08
   19.02000      1.5422577E-08
   19.08000      1.3710298E-08
   19.14000      1.1964629E-08
   19.20000      1.0192220E-08
   19.26000      8.3929779E-09
   19.32000      6.5619297E-09
   19.38000      4.6904312E-09
   19.44000      2.7664848E-09
   19.50000      7.7451828E-10
   19.56000     -1.3047150E-09
   19.62000     -3.4934673E-09
   19.68000     -5.8152048E-09
   19.74000     -8.2917238E-09
   19.80000     -1.0939528E-08
   19.86000     -1.3766086E-08
   19.92000     -1.6766624E-08
   19.98000     -1.9922229E-08
   20.04000     -2.3199837E-08
   20.10000     -2.6554572E-08
   20.16000     -2.9934384E-08
   20.22000     -3.3286444E-08
   20.28000     -3.6564220E-08
   20.34000     -3.9733653E-08
   20.40000     -4.2777152E-08
   20.46000     -4.5694303E-08
   20.52000     -4.8499242E-08
   20.58000     -5.1215281E-08
   20.64000     -5.3868060E-08
   20.70000     -5.6478783E-08
   20.76000     -5.9058657E-08
   20.82000     -6.1605348E-08
   20.88000     -6.4101641E-08
   20.94000     -6.6515973E-08
   21.00000     -6.8804688E-08
   21.06000     -7.0915590E-08
   21.12000     -7.2792560E-08
   21.18000     -7.4381006E-08
   21.24000     -7.5633793E-08
   21.30000     -7.6517018E-08
   21.36000     -7.7014718E-08
   21.42000     -7.7131801E-08
   21.48000     -7.6894331E-08
   21.54000     -7.6347142E-08
   21.60000     -7.5548684E-08
   21.66000     -7.4563943E-08
   21.72000     -7.3456349E-08
   21.78000     -7.2280038E-08
   21.84000     -7.1073579E-08
   21.90000     -6.9856490E-08
   21.96000     -6.8629213E-08
   22.02000     -6.7376554E-08
   22.08000     -6.6074065E-08
   22.14000     -6.4695683E-08
   22.20000     -6.3220781E-08
   22.26000     -6.1638737E-08
   22.32000     -5.9949961E-08
   22.38000     -5.8163327E-08
   22.44000     -5.6291409E-08
   22.50000     -5.4345598E-08
   22.56000     -5.2333018E-08
   22.62000     -5.0256489E-08
   22.68000     -4.8117354E-08
   22.74000     -4.5919670E-08
   22.80000     -4.3673815E-08
   22.86000     -4.1397680E-08
   22.92000     -3.9114855E-08
   22.98000     -3.6850377E-08
   23.04000     -3.4625746E-08
   23.10000     -3.2455119E-08
   23.16000     -3.0344204E-08
   23.22000     -2.8292233E-08
   23.28000     -2.6296492E-08
   23.34000     -2.4357899E-08
   23.40000     -2.2486024E-08
   23.46000     -2.0701993E-08
   23.52000     -1.9038330E-08
   23.58000     -1.7535386E-08
   23.64000     -1.6234834E-08
   23.70000     -1.5171434E-08
   23.76000     -1.4364917E-08
   23.82000     -1.3814176E-08
   23.88000     -1.3495756E-08
   23.94000     -1.3367713E-08
   24.00000     -1.3378475E-08
   24.06000     -1.3478737E-08
   24.12000     -1.3633283E-08
   24.18000     -1.3829307E-08
   24.24000     -1.4078776E-08
   24.30000     -1.4414059E-08
   24.36000     -1.4878162E-08
   24.42000     -1.5512464E-08
   24.48000     -1.6345505E-08
   24.54000     -1.7385762E-08
   24.60000     -1.8620000E-08
   24.66000     -2.0016889E-08
   24.72000     -2.1534284E-08
   24.78000     -2.3127599E-08
   24.84000     -2.4756972E-08
   24.90000     -2.6391502E-08
   24.96000     -2.8010096E-08
   25.02000     -2.9599372E-08
   25.08000     -3.1149980E-08
   25.14000     -3.2652867E-08
   25.20000     -3.4096967E-08
   25.26000     -3.5468943E-08
   25.32000     -3.6755136E-08
   25.38000     -3.7944680E-08
   25.44000     -3.9032617E-08
   25.50000     -4.0021554E-08
   25.56000     -4.0920938E-08
   25.62000     -4.1743910E-08
   25.68000     -4.2502485E-08
   25.74000     -4.3202572E-08
   25.80000     -4.3840299E-08
   25.86000     -4.4400924E-08
   25.92000     -4.4860609E-08
   25.98000     -4.5190479E-08
   26.04000     -4.5361752E-08
   26.10000     -4.5350436E-08
   26.16000     -4.5140403E-08
   26.22000     -4.4724377E-08
   26.28000     -4.4103114E-08
   26.34000     -4.3283631E-08
   26.40000     -4.2277591E-08
   26.46000     -4.1100655E-08
   26.52000     -3.9772942E-08
   26.58000     -3.8320053E-08
   26.64000     -3.6773482E-08
   26.70000     -3.5169201E-08
   26.76000     -3.3543564E-08
   26.82000     -3.1926753E-08
   26.88000     -3.0334981E-08
   26.94000     -2.8763695E-08
   27.00000     -2.7184202E-08
   27.06000     -2.5545647E-08
   27.12000     -2.3782977E-08
   27.18000     -2.1829733E-08
   27.24000     -1.9632957E-08
   27.30000     -1.7166691E-08
   27.36000     -1.4440565E-08
   27.42000     -1.1501301E-08
   27.48000     -8.4267047E-09
   27.54000     -5.3137845E-09
   27.60000     -2.2640527E-09
   27.66000      6.3043221E-10
   27.72000      3.2972318E-09
   27.78000      5.6882339E-09
   27.84000      7.7789100E-09
   27.90000      9.5636219E-09
   27.96000      1.1049320E-08
   28.02000      1.2249962E-08
   28.08000      1.3183270E-08
   28.14000      1.3870203E-08
   28.20000      1.4336340E-08
   28.26000      1.4613523E-08
   28.32000      1.4739888E-08
   28.38000      1.4756927E-08
   28.44000      1.4703318E-08
   28.50000      1.4606575E-08
   28.56000      1.4474704E-08
   28.62000      1.4290612E-08
   28.68000      1.4011667E-08
   28.74000      1.3575641E-08
   28.80000      1.2912404E-08
   28.86000      1.1958903E-08
   28.92000      1.0673634E-08
   28.98000      9.0466328E-09
   29.04000      7.1021007E-09
   29.10000      4.8928603E-09
   29.16000      2.4883551E-09
   29.22000     -4.0127696E-11
   29.28000     -2.6324924E-09
   29.34000     -5.2473128E-09
   29.40000     -7.8619014E-09
   29.46000     -1.0465696E-08
   29.52000     -1.3049988E-08
   29.58000     -1.5598220E-08
   29.64000     -1.8080797E-08
   29.70000     -2.0456772E-08
   29.76000     -2.2682267E-08
   29.82000     -2.4723128E-08
   29.88000     -2.6567683E-08
   29.94000     -2.8235112E-08
   30.00000     -2.9776094E-08
   30.06000     -3.1264555E-08
   30.12000     -3.2781998E-08
   30.18000     -3.4398159E-08
   30.24000     -3.6153185E-08
   30.30000     -3.8046313E-08
   30.36000     -4.0034497E-08
   30.42000     -4.2041830E-08
   30.48000     -4.3977728E-08
   30.54000     -4.5759268E-08
   30.60000     -4.7331923E-08
   30.66000     -4.8683308E-08
   30.72000     -4.9846342E-08
   30.78000     -5.0891181E-08
   30.84000     -5.1908135E-08
   30.90000     -5.2986195E-08
   30.96000     -5.4192778E-08
   31.02000     -5.5559699E-08
   31.08000     -5.7078484E-08
   31.14000     -5.8705549E-08
   31.20000     -6.0374980E-08
   31.26000     -6.2014919E-08
   31.32000     -6.3562723E-08
   31.38000     -6.4974913E-08
   31.44000     -6.6229902E-08
   31.50000     -6.7323640E-08
   31.56000     -6.8260611E-08
   31.62000     -6.9043892E-08
   31.68000     -6.9668097E-08
   31.74000     -7.0117444E-08
   31.80000     -7.0369772E-08
   31.86000     -7.0404717E-08
   31.92000     -7.0213133E-08
   31.98000     -6.9804209E-08
   32.04000     -6.9207495E-08
   32.10000     -6.8468701E-08
   32.16000     -6.7640002E-08
   32.22000     -6.6767363E-08
   32.28000     -6.5878353E-08
   32.34000     -6.4974060E-08
   32.40000     -6.4027567E-08
   32.46000     -6.2990040E-08
   32.52000     -6.1803341E-08
   32.58000     -6.0416163E-08
   32.64000     -5.8799763E-08
   32.70000     -5.6958836E-08
   32.76000     -5.4934244E-08
   32.82000     -5.2796228E-08
   32.88000     -5.0629303E-08
   32.94000     -4.8512494E-08
   33.00000     -4.6500084E-08
   33.06000     -4.4608363E-08
   33.12000     -4.2812204E-08
   33.18000     -4.1052811E-08
   33.24000     -3.9254655E-08
   33.30000     -3.7347039E-08
   33.36000     -3.5284259E-08
   33.42000     -3.3058548E-08
   33.48000     -3.0702179E-08
   33.54000     -2.8278047E-08
   33.60000     -2.5861471E-08
   33.66000     -2.3518579E-08
   33.72000     -2.1287713E-08
   33.78000     -1.9169557E-08
   33.84000     -1.7129143E-08
   33.90000     -1.5109418E-08
   33.96000     -1.3052356E-08
   34.02000     -1.0921243E-08
   34.08000     -8.7171248E-09
   34.14000     -6.4840662E-09
   34.20000     -4.3012767E-09
   34.26000     -2.2642290E-09
   34.32000     -4.6034640E-10
   34.38000      1.0534872E-09
   34.44000      2.2649953E-09
   34.50000      3.2082585E-09
   34.56000      3.9530765E-09
   34.62000      4.5855479E-09
   34.68000      5.1858602E-09
   34.74000      5.8097243E-09
   34.80000      6.4784271E-09
   34.86000      7.1797053E-09
   34.92000      7.8784019E-09
   34.98000      8.5331680E-09
   35.04000      9.1138519E-09
   35.10000      9.6141717E-09
   35.16000      1.0055675E-08
   35.22000      1.0481531E-08
   35.28000      1.0941808E-08
   35.34000      1.1474645E-08
   35.40000      1.2089343E-08
   35.46000      1.2757291E-08
   35.52000      1.3414526E-08
   35.58000      1.3976245E-08
   35.64000      1.4359610E-08
   35.70000      1.4508205E-08
   35.76000      1.4410431E-08
   35.82000      1.4105728E-08
   35.88000      1.3676081E-08
   35.94000      1.3224841E-08
   36.00000      1.2848913E-08
   36.06000      1.2612348E-08
   36.12000      1.2528880E-08
   36.18000      1.2558059E-08
   36.24000      1.2615462E-08
   36.30000      1.2593411E-08
   36.36000      1.2385807E-08
   36.42000      1.1910119E-08
   36.48000      1.1120880E-08
   36.54000      1.0012027E-08
   36.60000      8.6088061E-09
   36.66000      6.9529080E-09
   36.72000      5.0861075E-09
   36.78000      3.0376366E-09
   36.84000      8.1893153E-10
   36.90000     -1.5732126E-09
   36.96000     -4.1468384E-09
   37.02000     -6.9022459E-09
   37.08000     -9.8212851E-09
   37.14000     -1.2862428E-08
   37.20000     -1.5963449E-08
   37.26000     -1.9050956E-08
   37.32000     -2.2053710E-08
   37.38000     -2.4915435E-08
   37.44000     -2.7603198E-08
   37.50000     -3.0108886E-08
   37.56000     -3.2443648E-08
   37.62000     -3.4627408E-08
   37.68000     -3.6676813E-08
   37.74000     -3.8595292E-08
   37.80000     -4.0368018E-08
   37.86000     -4.1962942E-08
   37.92000     -4.3337312E-08
   37.98000     -4.4447699E-08
   38.04000     -4.5260794E-08
   38.10000     -4.5762093E-08
   38.16000     -4.5960402E-08
   38.22000     -4.5887084E-08
   38.28000     -4.5590404E-08
   38.34000     -4.5126544E-08
   38.40000     -4.4549633E-08
   38.46000     -4.3903380E-08
   38.52000     -4.3216307E-08
   38.58000     -4.2501398E-08
   38.64000     -4.1759666E-08
   38.70000     -4.0985956E-08
   38.76000     -4.0174765E-08
   38.82000     -3.9324192E-08
   38.88000     -3.8436962E-08
   38.94000     -3.7518742E-08
   39.00000     -3.6574932E-08
   39.06000     -3.5607520E-08
   39.12000     -3.4613318E-08
   39.18000     -3.3584239E-08
   39.24000     -3.2509284E-08
   39.30000     -3.1377319E-08
   39.36000     -3.0179592E-08
   39.42000     -2.8911042E-08
   39.48000     -2.7570072E-08
   39.54000     -2.6157082E-08
   39.60000     -2.4672296E-08
   39.66000     -2.3113790E-08
   39.72000     -2.1476509E-08
   39.78000     -1.9752850E-08
   39.84000     -1.7935085E-08
   39.90000     -1.6019371E-08
   39.96000     -1.4010649E-08
   40.02000     -1.1927169E-08
   40.08000     -9.8032382E-09
   40.14000     -7.6889499E-09
   40.20000     -5.6463358E-09
   40.26000     -3.7423358E-09
   40.32000     -2.0399920E-09
   40.38000     -5.8991934E-10
   40.44000      5.7591604E-10
   40.50000      1.4467300E-09
   40.56000      2.0314792E-09
   40.62000      2.3542814E-09
   40.68000      2.4482607E-09
   40.74000      2.3495068E-09
   40.80000      2.0923823E-09
   40.86000      1.7066285E-09
   40.92000      1.2159790E-09
   40.98000      6.3755640E-10
   41.04000     -1.8636922E-11
   41.10000     -7.5043766E-10
   41.16000     -1.5641818E-09
   41.22000     -2.4745856E-09
   41.28000     -3.5029917E-09
   41.34000     -4.6734261E-09
   41.40000     -6.0065997E-09
   41.46000     -7.5128588E-09
   41.52000     -9.1858414E-09
   41.58000     -1.0998887E-08
   41.64000     -1.2905834E-08
   41.70000     -1.4846790E-08
   41.76000     -1.6757939E-08
   41.82000     -1.8583075E-08
   41.88000     -2.0283835E-08
   41.94000     -2.1845798E-08
   42.00000     -2.3278886E-08
   42.06000     -2.4612275E-08
   42.12000     -2.5885594E-08
   42.18000     -2.7139192E-08
   42.24000     -2.8406028E-08
   42.30000     -2.9706799E-08
   42.36000     -3.1048526E-08
   42.42000     -3.2425703E-08
   42.48000     -3.3822655E-08
   42.54000     -3.5216090E-08
   42.60000     -3.6577404E-08
   42.66000     -3.7874965E-08
   42.72000     -3.9076813E-08
   42.78000     -4.0153971E-08
   42.84000     -4.1083975E-08
   42.90000     -4.1854072E-08
   42.96000     -4.2463199E-08
   43.02000     -4.2922490E-08
   43.08000     -4.3254207E-08
   43.14000     -4.3489582E-08
   43.20000     -4.3665828E-08
   43.26000     -4.3822610E-08
   43.32000     -4.3998000E-08
   43.38000     -4.4224084E-08
   43.44000     -4.4522771E-08
   43.50000     -4.4902816E-08
   43.56000     -4.5359265E-08
   43.62000     -4.5876231E-08
   43.68000     -4.6433122E-08
   43.74000     -4.7013231E-08
   43.80000     -4.7612772E-08
   43.86000     -4.8248037E-08
   43.92000     -4.8958785E-08
   43.98000     -4.9807099E-08
   44.04000     -5.0872146E-08
   44.10000     -5.2242417E-08
   44.16000     -5.4007710E-08
   44.22000     -5.6253032E-08
   44.28000     -5.9056099E-08
   44.34000     -6.2489278E-08
   44.40000     -6.6625780E-08
   44.46000     -7.1548918E-08
   44.52000     -7.7362763E-08
   44.58000     -8.4201993E-08
   44.64000     -9.2239311E-08
   44.70000     -1.0168949E-07
   44.76000     -1.1281030E-07
   44.82000     -1.2590178E-07
   44.88000     -1.4130609E-07
   44.94000     -1.5940952E-07
   45.00000     -1.8064866E-07
   45.06000     -2.0551983E-07
   45.12000     -2.3459121E-07
   45.18000     -2.6851555E-07
   45.24000     -3.0804139E-07
   45.30000     -3.5402235E-07
   45.36000     -4.0742418E-07
   45.42000     -4.6933170E-07
   45.48000     -5.4095722E-07
   45.54000     -6.2365302E-07
   45.60000     -7.1892907E-07
   45.66000     -8.2847583E-07
   45.72000     -9.5419148E-07
   45.78000     -1.0982113E-06
   45.84000     -1.2629361E-06
   45.90000     -1.4510561E-06
   45.96000     -1.6655712E-06
   46.02000     -1.9098034E-06
   46.08000     -2.1874048E-06
   46.14000     -2.5023658E-06
   46.20000     -2.8590218E-06
   46.26000     -3.2620708E-06
   46.32000     -3.7165935E-06
   46.38000     -4.2280840E-06
   46.44000     -4.8024808E-06
   46.50000     -5.4461989E-06
   46.56000     -6.1661572E-06
   46.62000     -6.9697930E-06
   46.68000     -7.8650710E-06
   46.74000     -8.8604793E-06
   46.80000     -9.9650242E-06
   46.86000     -1.1188224E-05
   46.92000     -1.2540105E-05
   46.98000     -1.4031197E-05
   47.04000     -1.5672529E-05
   47.10000     -1.7475615E-05
   47.16000     -1.9452429E-05
   47.22000     -2.1615368E-05
   47.28000     -2.3977191E-05
   47.34000     -2.6550948E-05
   47.40000     -2.9349912E-05
   47.46000     -3.2387485E-05
   47.52000     -3.5677134E-05
   47.58000     -3.9232298E-05
   47.64000     -4.3066328E-05
   47.70000     -4.7192403E-05
   47.76000     -5.1623440E-05
   47.82000     -5.6371991E-05
   47.88000     -6.1450126E-05
   47.94000     -6.6869310E-05
   48.00000     -7.2640229E-05
   48.06000     -7.8772689E-05
   48.12000     -8.5275424E-05
   48.18000     -9.2155940E-05
   48.24000     -9.9420424E-05
   48.30000     -1.0707352E-04
   48.36000     -1.1511832E-04
   48.42000     -1.2355614E-04
   48.48000     -1.3238653E-04
   48.54000     -1.4160713E-04
   48.60000     -1.5121359E-04
   48.66000     -1.6119945E-04
   48.72000     -1.7155615E-04
   48.78000     -1.8227295E-04
   48.84000     -1.9333688E-04
   48.90000     -2.0473267E-04
   48.96000     -2.1644279E-04
   49.02000     -2.2844755E-04
   49.08000     -2.4072509E-04
   49.14000     -2.5325155E-04
   49.20000     -2.6600109E-04
   49.26000     -2.7894604E-04
   49.32000     -2.9205714E-04
   49.38000     -3.0530363E-04
   49.44000     -3.1865339E-04
   49.50000     -3.3207325E-04
   49.56000     -3.4552917E-04
   49.62000     -3.5898658E-04
   49.68000     -3.7241055E-04
   49.74000     -3.8576612E-04
   49.80000     -3.9901873E-04
   49.86000     -4.1213425E-04
   49.92000     -4.2507949E-04
   49.98000     -4.3782225E-04
   50.04000     -4.5033175E-04
   50.10000     -4.6257878E-04
   50.16000     -4.7453603E-04
   50.22000     -4.8617841E-04
   50.28000     -4.9748324E-04
   50.34000     -5.0843053E-04
   50.40000     -5.1900308E-04
   50.46000     -5.2918657E-04
   50.52000     -5.3896994E-04
   50.58000     -5.4834521E-04
   50.64000     -5.5730762E-04
   50.70000     -5.6585559E-04
   50.76000     -5.7399058E-04
   50.82000     -5.8171724E-04
   50.88000     -5.8904290E-04
   50.94000     -5.9597805E-04
   51.00000     -6.0253550E-04
   51.06000     -6.0873065E-04
   51.12000     -6.1458111E-04
   51.18000     -6.2010647E-04
   51.24000     -6.2532799E-04
   51.30000     -6.3026819E-04
   51.36000     -6.3495088E-04
   51.42000     -6.3940015E-04
   51.48000     -6.4364076E-04
   51.54000     -6.4769696E-04
   51.60000     -6.5159274E-04
   51.66000     -6.5535126E-04
   51.72000     -6.5899448E-04
   51.78000     -6.6254311E-04
   51.84000     -6.6601613E-04
   51.90000     -6.6943059E-04
   51.96000     -6.7280151E-04
   52.02000     -6.7614141E-04
   52.08000     -6.7946041E-04
   52.14000     -6.8276597E-04
   52.20000     -6.8606262E-04
   52.26000     -6.8935216E-04
   52.32000     -6.9263350E-04
   52.38000     -6.9590297E-04
   52.44000     -6.9915410E-04
   52.50000     -7.0237817E-04
   52.56000     -7.0556410E-04
   52.62000     -7.0869870E-04
   52.68000     -7.1176694E-04
   52.74000     -7.1475236E-04
   52.80000     -7.1763695E-04
   52.86000     -7.2040182E-04
   52.92000     -7.2302733E-04
   52.98000     -7.2549353E-04
   53.04000     -7.2778034E-04
   53.10000     -7.2986830E-04
   53.16000     -7.3173846E-04
   53.22000     -7.3337310E-04
   53.28000     -7.3475571E-04
   53.34000     -7.3587144E-04
   53.40000     -7.3670718E-04
   53.46000     -7.3725212E-04
   53.52000     -7.3749741E-04
   53.58000     -7.3743670E-04
   53.64000     -7.3706592E-04
   53.70000     -7.3638372E-04
   53.76000     -7.3539146E-04
   53.82000     -7.3409278E-04
   53.88000     -7.3249405E-04
   53.94000     -7.3060417E-04
   54.00000     -7.2843418E-04
   54.06000     -7.2599744E-04
   54.12000     -7.2330906E-04
   54.18000     -7.2038581E-04
   54.24000     -7.1724597E-04
   54.30000     -7.1390881E-04
   54.36000     -7.1039441E-04
   54.42000     -7.0672354E-04
   54.48000     -7.0291694E-04
   54.54000     -6.9899543E-04
   54.60000     -6.9497939E-04
   54.66000     -6.9088832E-04
   54.72000     -6.8674085E-04
   54.78000     -6.8255438E-04
   54.84000     -6.7834463E-04
   54.90000     -6.7412603E-04
   54.96000     -6.6991081E-04
   55.02000     -6.6570914E-04
   55.08000     -6.6152919E-04
   55.14000     -6.5737672E-04
   55.20000     -6.5325550E-04
   55.26000     -6.4916688E-04
   55.32000     -6.4511015E-04
   55.38000     -6.4108253E-04
   55.44000     -6.3707907E-04
   55.50000     -6.3309306E-04
   55.56000     -6.2911579E-04