  -2.400000      0.0000000E+00
  -2.340000      0.0000000E+00
  -2.280000      0.0000000E+00
  -2.220000      0.0000000E+00
  -2.160000      0.0000000E+00
  -2.100000     -2.9771290E-19
  -2.040000     -2.5099075E-18
  -1.980000     -1.0646717E-17
  -1.920000     -2.9175736E-17
  -1.860000     -5.4336525E-17
  -1.800000     -6.0816727E-17
  -1.740000      2.0457794E-18
  -1.680000      1.8395926E-16
  -1.620000      4.7333938E-16
  -1.560000      7.4076679E-16
  -1.500000      7.5967817E-16
  -1.440000      3.5504117E-16
  -1.380000     -3.7357403E-16
  -1.320000     -9.3820927E-16
  -1.260000     -6.7063881E-16
  -1.200000      7.1132202E-16
  -1.140000      2.4810654E-15
  -1.080000      2.7918411E-15
  -1.020000     -4.5884304E-16
 -0.9600000     -7.9114792E-15
 -0.9000000     -1.7103113E-14
 -0.8400000     -2.2283653E-14
 -0.7800000     -1.6635544E-14
 -0.7200000      3.5181264E-15
 -0.6600000      3.4556783E-14
 -0.6000000      6.4301578E-14
 -0.5400000      7.5646100E-14
 -0.4800000      5.4634926E-14
 -0.4200000     -3.4944172E-16
 -0.3600000     -7.3301892E-14
 -0.3000000     -1.3339266E-13
 -0.2400000     -1.4664980E-13
 -0.1800000     -9.2761688E-14
 -0.1200000      2.0344025E-14
 -5.9999999E-02  1.5212391E-13
  0.0000000E+00  2.4011687E-13
  5.9999999E-02  2.2451707E-13
  0.1200000      7.8534123E-14
  0.1800000     -1.6839184E-13
  0.2400000     -4.2762088E-13
  0.3000000     -5.7582070E-13
  0.3600000     -5.0315530E-13
  0.4200000     -1.6878942E-13
  0.4800000      3.6106469E-13
  0.5400000      9.1585550E-13
  0.6000000      1.2735509E-12
  0.6600000      1.2500858E-12
  0.7200000      7.8947070E-13
  0.7800000      9.3962873E-15
  0.8400000     -8.3000170E-13
  0.9000000     -1.4327488E-12
  0.9600000     -1.6064005E-12
   1.020000     -1.3647127E-12
   1.080000     -9.3046165E-13
   1.140000     -6.1890087E-13
   1.200000     -6.4663216E-13
   1.260000     -9.6298013E-13
   1.320000     -1.2085488E-12
   1.380000     -8.5479264E-13
   1.440000      5.1349468E-13
   1.500000      2.8995085E-12
   1.560000      5.7410860E-12
   1.620000      8.0163480E-12
   1.680000      8.6045953E-12
   1.740000      6.7654680E-12
   1.800000      2.5202132E-12
   1.860000     -3.2576940E-12
   1.920000     -9.1107556E-12
   1.980000     -1.3523491E-11
   2.040000     -1.5475614E-11
   2.100000     -1.4771052E-11
   2.160000     -1.1994439E-11
   2.220000     -8.1248732E-12
   2.280000     -3.9999119E-12
   2.340000      1.1013723E-13
   2.400000      4.6205132E-12
   2.460000      1.0402687E-11
   2.520000      1.8338005E-11
   2.580000      2.8883554E-11
   2.640000      4.1862191E-11
   2.700000      5.6570769E-11
   2.760000      7.2143895E-11
   2.820000      8.7992592E-11
   2.880000      1.0410725E-10
   2.940000      1.2108209E-10
   3.000000      1.3984115E-10
   3.060000      1.6117738E-10
   3.120000      1.8529603E-10
   3.180000      2.1155964E-10
   3.240000      2.3855931E-10
   3.300000      2.6451352E-10
   3.360000      2.8786640E-10
   3.420000      3.0786687E-10
   3.480000      3.2489908E-10
   3.540000      3.4041306E-10
   3.600000      3.5645278E-10
   3.660000      3.7493830E-10
   3.720000      3.9696216E-10
   3.780000      4.2236134E-10
   3.840000      4.4971579E-10
   3.900000      4.7674764E-10
   3.960000      5.0093640E-10
   4.020000      5.2008997E-10
   4.080000      5.3265825E-10
   4.140000      5.3771865E-10
   4.200000      5.3473043E-10
   4.260000      5.2326754E-10
   4.320000      5.0293847E-10
   4.380000      4.7358523E-10
   4.440000      4.3568807E-10
   4.500000      3.9076362E-10
   4.560000      3.4151659E-10
   4.620000      2.9159725E-10
   4.680000      2.4499819E-10
   4.740000      2.0529821E-10
   4.800000      1.7504037E-10
   4.860000      1.5547488E-10
   4.920000      1.4673744E-10
   4.980000      1.4833712E-10
   5.040000      1.5969837E-10
   5.100000      1.8048708E-10
   5.160000      2.1053929E-10
   5.220000      2.4935004E-10
   5.280000      2.9522218E-10
   5.340000      3.4427286E-10
   5.400000      3.8955589E-10
   5.460000      4.2056059E-10
   5.520000      4.2327497E-10
   5.580000      3.8083861E-10
   5.640000      2.7459102E-10
   5.700000      8.5121764E-11
   5.760000     -2.0710220E-10
   5.820000     -6.2174565E-10
   5.880000     -1.1790713E-09
   5.940000     -1.9003055E-09
   6.000000     -2.8072324E-09
   6.060000     -3.9206505E-09
   6.120000     -5.2579026E-09
   6.180000     -6.8302595E-09
   6.240000     -8.6411145E-09
   6.300000     -1.0685610E-08
   6.360000     -1.2951596E-08
   6.420000     -1.5421225E-08
   6.480000     -1.8072200E-08
   6.540000     -2.0878144E-08
   6.600000     -2.3808104E-08
   6.660000     -2.6825813E-08
   6.720000     -2.9889360E-08
   6.780000     -3.2951618E-08
   6.840000     -3.5961190E-08
   6.900000     -3.8863444E-08
   6.960000     -4.1601272E-08
   7.020000     -4.4115659E-08
   7.080000     -4.6346457E-08
   7.140000     -4.8233897E-08
   7.200000     -4.9720889E-08
   7.260000     -5.0756064E-08
   7.320000     -5.1296997E-08
   7.380000     -5.1313243E-08
   7.440000     -5.0788820E-08
   7.500000     -4.9724004E-08
   7.560000     -4.8136101E-08
   7.620000     -4.6059046E-08
   7.680000     -4.3541593E-08
   7.740000     -4.0644423E-08
   7.800000     -3.7436703E-08
   7.860000     -3.3992922E-08
   7.920000     -3.0390403E-08
   7.980000     -2.6707477E-08
   8.040000     -2.3021871E-08
   8.100000     -1.9408791E-08
   8.160000     -1.5938623E-08
   8.220000     -1.2674641E-08
   8.280000     -9.6712718E-09
   8.340000     -6.9731043E-09
   8.400000     -4.6142383E-09
   8.460000     -2.6172768E-09
   8.520000     -9.9149433E-10
   8.580000      2.6944175E-10
   8.640000      1.1891065E-09
   8.700000      1.8080647E-09
   8.760000      2.1811579E-09
   8.820000      2.3728497E-09
   8.880000      2.4519360E-09
   8.940000      2.4868880E-09
   9.000000      2.5423357E-09
   9.060000      2.6762634E-09
   9.120000      2.9371339E-09
   9.180000      3.3606034E-09
   9.240000      3.9664010E-09
   9.300000      4.7565538E-09
   9.360000      5.7159499E-09
   9.420000      6.8152803E-09
   9.480000      8.0153866E-09
   9.540000      9.2716164E-09
   9.600000      1.0537298E-08
   9.660000      1.1766419E-08
   9.720000      1.2916298E-08
   9.780000      1.3950945E-08
   9.840000      1.4844946E-08
   9.900000      1.5586807E-08
   9.960000      1.6180428E-08
   10.02000      1.6644032E-08
   10.08000      1.7006997E-08
   10.14000      1.7305938E-08
   10.20000      1.7581295E-08
   10.26000      1.7874989E-08
   10.32000      1.8228636E-08
   10.38000      1.8681503E-08
   10.44000      1.9267729E-08
   10.50000      2.0013326E-08
   10.56000      2.0933932E-08
   10.62000      2.2034209E-08
   10.68000      2.3308852E-08
   10.74000      2.4744260E-08
   10.80000      2.6319620E-08
   10.86000      2.8006882E-08
   10.92000      2.9770089E-08
   10.98000      3.1565385E-08
   11.04000      3.3342804E-08
   11.10000      3.5049929E-08
   11.16000      3.6636308E-08
   11.22000      3.8056971E-08
   11.28000      3.9273871E-08
   11.34000      4.0255376E-08
   11.40000      4.0974996E-08
   11.46000      4.1410892E-08
   11.52000      4.1547061E-08
   11.58000      4.1375738E-08
   11.64000      4.0899945E-08
   11.70000      4.0134665E-08
   11.76000      3.9106308E-08
   11.82000      3.7850665E-08
   11.88000      3.6410359E-08
   11.94000      3.4832489E-08
   12.00000      3.3166508E-08
   12.06000      3.1461969E-08
   12.12000      2.9765603E-08
   12.18000      2.8117798E-08
   12.24000      2.6549108E-08
   12.30000      2.5077670E-08
   12.36000      2.3708296E-08
   12.42000      2.2433435E-08
   12.48000      2.1235827E-08
   12.54000      2.0092427E-08
   12.60000      1.8979051E-08
   12.66000      1.7875065E-08
   12.72000      1.6767091E-08
   12.78000      1.5650471E-08
   12.84000      1.4527473E-08
   12.90000      1.3402219E-08
   12.96000      1.2273714E-08
   13.02000      1.1129499E-08
   13.08000      9.9426103E-09
   13.14000      8.6733918E-09
   13.20000      7.2757729E-09
   13.26000      5.7057883E-09
   13.32000      3.9293662E-09
   13.38000      1.9269855E-09
   13.44000     -3.0565547E-10
   13.50000     -2.7601892E-09
   13.56000     -5.4196483E-09
   13.62000     -8.2623552E-09
   13.68000     -1.1264625E-08
   13.74000     -1.4402141E-08
   13.80000     -1.7650493E-08
   13.86000     -2.0985668E-08
   13.92000     -2.4385225E-08
   13.98000     -2.7830657E-08
   14.04000     -3.1310893E-08
   14.10000     -3.4826083E-08
   14.16000     -3.8390091E-08
   14.22000     -4.2029754E-08
   14.28000     -4.5779394E-08
   14.34000     -4.9670600E-08
   14.40000     -5.3719109E-08
   14.46000     -5.7912207E-08
   14.52000     -6.2200456E-08
   14.58000     -6.6496675E-08
   14.64000     -7.0683150E-08
   14.70000     -7.4625746E-08
   14.76000     -7.8192144E-08
   14.82000     -8.1270386E-08
   14.88000     -8.3784187E-08
   14.94000     -8.5702069E-08
   15.00000     -8.7038650E-08
   15.06000     -8.7847859E-08
   15.12000     -8.8209696E-08
   15.18000     -8.8213504E-08
   15.24000     -8.7941650E-08
   15.30000     -8.7457330E-08
   15.36000     -8.6798579E-08
   15.42000     -8.5978932E-08
   15.48000     -8.4993246E-08
   15.54000     -8.3826194E-08
   15.60000     -8.2461106E-08
   15.66000     -8.0887297E-08
   15.72000     -7.9104680E-08
   15.78000     -7.7125165E-08
   15.84000     -7.4970629E-08
   15.90000     -7.2668108E-08
   15.96000     -7.0243495E-08
   16.02000     -6.7716087E-08
   16.08000     -6.5096344E-08
   16.14000     -6.2388132E-08
   16.20000     -5.9595173E-08
   16.26000     -5.6729281E-08
   16.32000     -5.3816841E-08
   16.38000     -5.0900585E-08
   16.44000     -4.8035311E-08
   16.50000     -4.5278558E-08
   16.56000     -4.2678995E-08
   16.62000     -4.0266123E-08
   16.68000     -3.8044146E-08
   16.74000     -3.5991967E-08
   16.80000     -3.4069416E-08
   16.86000     -3.2228616E-08
   16.92000     -3.0427994E-08
   16.98000     -2.8645410E-08
   17.04000     -2.6886534E-08
   17.10000     -2.5185360E-08
   17.16000     -2.3595826E-08
   17.22000     -2.2176701E-08
   17.28000     -2.0974628E-08
   17.34000     -2.0011443E-08
   17.40000     -1.9280494E-08
   17.46000     -1.8753058E-08
   17.52000     -1.8391571E-08
   17.58000     -1.8163483E-08
   17.64000     -1.8049450E-08
   17.70000     -1.8042510E-08
   17.76000     -1.8139398E-08
   17.82000     -1.8328944E-08
   17.88000     -1.8583663E-08
   17.94000     -1.8858957E-08
   18.00000     -1.9100490E-08
   18.06000     -1.9256589E-08
   18.12000     -1.9290637E-08
   18.18000     -1.9188871E-08
   18.24000     -1.8961451E-08
   18.30000     -1.8637294E-08
   18.36000     -1.8255063E-08
   18.42000     -1.7853097E-08
   18.48000     -1.7460424E-08
   18.54000     -1.7090258E-08
   18.60000     -1.6736767E-08
   18.66000     -1.6375823E-08
   18.72000     -1.5970000E-08
   18.78000     -1.5477129E-08
   18.84000     -1.4860345E-08
   18.90000     -1.4096487E-08
   18.96000     -1.3179736E-08
   19.02000     -1.2119098E-08
   19.08000     -1.0930957E-08
   19.14000     -9.6303800E-09
   19.20000     -8.2257179E-09
   19.26000     -6.7196462E-09
   19.32000     -5.1167532E-09
   19.38000     -3.4344554E-09
   19.44000     -1.7121027E-09
   19.50000     -1.3612762E-11
   19.56000      1.5784357E-09
   19.62000      2.9758396E-09
   19.68000      4.1007837E-09
   19.74000      4.8998299E-09
   19.80000      5.3520162E-09
   19.86000      5.4695590E-09
   19.92000      5.2919620E-09
   19.98000      4.8757598E-09
   20.04000      4.2824260E-09
   20.10000      3.5666154E-09
   20.16000      2.7665394E-09
   20.22000      1.8981032E-09
   20.28000      9.5429176E-10
   20.34000     -8.9406434E-11
   20.40000     -1.2642640E-09
   20.46000     -2.5949918E-09
   20.52000     -4.0880548E-09
   20.58000     -5.7258722E-09
   20.64000     -7.4692199E-09
   20.70000     -9.2669321E-09
   20.76000     -1.1068920E-08
   20.82000     -1.2837137E-08
   20.88000     -1.4550182E-08
   20.94000     -1.6200294E-08
   21.00000     -1.7785050E-08
   21.06000     -1.9298371E-08
   21.12000     -2.0725521E-08
   21.18000     -2.2044565E-08
   21.24000     -2.3233660E-08
   21.30000     -2.4280748E-08
   21.36000     -2.5191129E-08
   21.42000     -2.5989253E-08
   21.48000     -2.6713256E-08
   21.54000     -2.7403683E-08
   21.60000     -2.8090103E-08
   21.66000     -2.8780290E-08
   21.72000     -2.9455968E-08
   21.78000     -3.0076912E-08
   21.84000     -3.0592176E-08
   21.90000     -3.0954606E-08
   21.96000     -3.1133577E-08
   22.02000     -3.1121651E-08
   22.08000     -3.0933393E-08
   22.14000     -3.0597619E-08
   22.20000     -3.0146754E-08
   22.26000     -2.9607472E-08
   22.32000     -2.8995808E-08
   22.38000     -2.8317869E-08
   22.44000     -2.7575231E-08
   22.50000     -2.6772895E-08
   22.56000     -2.5927175E-08
   22.62000     -2.5070779E-08
   22.68000     -2.4252698E-08
   22.74000     -2.3531287E-08
   22.80000     -2.2960691E-08
   22.86000     -2.2573333E-08
   22.92000     -2.2363791E-08
   22.98000     -2.2280378E-08
   23.04000     -2.2229376E-08
   23.10000     -2.2092742E-08
   23.16000     -2.1755133E-08
   23.22000     -2.1132166E-08
   23.28000     -2.0191036E-08
   23.34000     -1.8957188E-08
   23.40000     -1.7505462E-08
   23.46000     -1.5938985E-08
   23.52000     -1.4362271E-08
   23.58000     -1.2855773E-08
   23.64000     -1.1458130E-08
   23.70000     -1.0160115E-08
   23.76000     -8.9116989E-09
   23.82000     -7.6407289E-09
   23.88000     -6.2788006E-09
   23.94000     -4.7873669E-09
   24.00000     -3.1762224E-09
   24.06000     -1.5080241E-09
   24.12000      1.1341884E-10
   24.18000      1.5679048E-09
   24.24000      2.7487934E-09
   24.30000      3.5883705E-09
   24.36000      4.0705270E-09
   24.42000      4.2272732E-09
   24.48000      4.1212647E-09
   24.54000      3.8210723E-09
   24.60000      3.3778584E-09
   24.66000      2.8110745E-09
   24.72000      2.1073367E-09
   24.78000      1.2320249E-09
   24.84000      1.4886277E-10
   24.90000     -1.1599585E-09
   24.96000     -2.6807008E-09
   25.02000     -4.3671080E-09
   25.08000     -6.1521455E-09
   25.14000     -7.9682634E-09
   25.20000     -9.7687209E-09
   25.26000     -1.1542093E-08
   25.32000     -1.3314709E-08
   25.38000     -1.5140262E-08
   25.44000     -1.7080430E-08
   25.50000     -1.9183256E-08
   25.56000     -2.1466549E-08
   25.62000     -2.3911658E-08
   25.68000     -2.6469740E-08
   25.74000     -2.9078780E-08
   25.80000     -3.1686341E-08
   25.86000     -3.4270784E-08
   25.92000     -3.6853567E-08
   25.98000     -3.9497163E-08
   26.04000     -4.2287603E-08
   26.10000     -4.5305896E-08
   26.16000     -4.8597119E-08
   26.22000     -5.2147765E-08
   26.28000     -5.5879511E-08
   26.34000     -5.9662405E-08
   26.40000     -6.3343776E-08
   26.46000     -6.6784025E-08
   26.52000     -6.9888671E-08
   26.58000     -7.2627849E-08
   26.64000     -7.5038479E-08
   26.70000     -7.7209464E-08
   26.76000     -7.9254562E-08
   26.82000     -8.1280170E-08
   26.88000     -8.3356539E-08
   26.94000     -8.5500041E-08
   27.00000     -8.7671573E-08
   27.06000     -8.9791911E-08
   27.12000     -9.1769508E-08
   27.18000     -9.3531789E-08
   27.24000     -9.5049380E-08
   27.30000     -9.6344529E-08
   27.36000     -9.7480843E-08
   27.42000     -9.8537974E-08
   27.48000     -9.9580653E-08
   27.54000     -1.0063314E-07
   27.60000     -1.0166749E-07
   27.66000     -1.0260893E-07
   27.72000     -1.0335550E-07
   27.78000     -1.0380482E-07
   27.84000     -1.0387954E-07
   27.90000     -1.0354433E-07
   27.96000     -1.0281072E-07
   28.02000     -1.0172917E-07
   28.08000     -1.0037166E-07
   28.14000     -9.8809892E-08
   28.20000     -9.7095246E-08
   28.26000     -9.5245994E-08
   28.32000     -9.3245205E-08
   28.38000     -9.1049429E-08
   28.44000     -8.8604935E-08
   28.50000     -8.5866027E-08
   28.56000     -8.2809350E-08
   28.62000     -7.9439879E-08
   28.68000     -7.5787305E-08
   28.74000     -7.1894803E-08
   28.80000     -6.7804649E-08
   28.86000     -6.3545933E-08
   28.92000     -5.9128361E-08
   28.98000     -5.4544117E-08
   29.04000     -4.9776808E-08
   29.10000     -4.4814293E-08
   29.16000     -3.9660904E-08
   29.22000     -3.4344769E-08
   29.28000     -2.8917816E-08
   29.34000     -2.3448523E-08
   29.40000     -1.8010351E-08
   29.46000     -1.2670198E-08
   29.52000     -7.4811437E-09
   29.58000     -2.4816618E-09
   29.64000      2.2991997E-09
   29.70000      6.8336203E-09
   29.76000      1.1087554E-08
   29.82000      1.5016983E-08
   29.88000      1.8568903E-08
   29.94000      2.1686237E-08
   30.00000      2.4314794E-08
   30.06000      2.6410355E-08
   30.12000      2.7944459E-08
   30.18000      2.8907831E-08
   30.24000      2.9310574E-08
   30.30000      2.9178450E-08
   30.36000      2.8545443E-08
   30.42000      2.7444109E-08
   30.48000      2.5896883E-08
   30.54000      2.3911939E-08
   30.60000      2.1486008E-08
   30.66000      1.8613909E-08
   30.72000      1.5301451E-08
   30.78000      1.1576586E-08
   30.84000      7.4941600E-09
   30.90000      3.1321623E-09
   30.96000     -1.4192569E-09
   31.02000     -6.0721610E-09
   31.08000     -1.0754000E-08
   31.14000     -1.5416058E-08
   31.20000     -2.0035579E-08
   31.26000     -2.4611891E-08
   31.32000     -2.9158064E-08
   31.38000     -3.3690242E-08
   31.44000     -3.8217287E-08
   31.50000     -4.2733323E-08
   31.56000     -4.7215444E-08
   31.62000     -5.1627406E-08
   31.68000     -5.5928162E-08
   31.74000     -6.0081867E-08
   31.80000     -6.4065276E-08
   31.86000     -6.7869443E-08
   31.92000     -7.1495336E-08
   31.98000     -7.4945781E-08
   32.04000     -7.8217873E-08
   32.10000     -8.1299312E-08
   32.16000     -8.4169926E-08
   32.22000     -8.6806800E-08
   32.28000     -8.9189783E-08
   32.34000     -9.1304557E-08
   32.40000     -9.3142255E-08
   32.46000     -9.4696745E-08
   32.52000     -9.5961902E-08
   32.58000     -9.6930947E-08
   32.64000     -9.7598466E-08
   32.70000     -9.7964154E-08
   32.76000     -9.8036288E-08
   32.82000     -9.7832967E-08
   32.88000     -9.7380386E-08
   32.94000     -9.6707986E-08
   33.00000     -9.5842054E-08
   33.06000     -9.4799624E-08
   33.12000     -9.3584603E-08
   33.18000     -9.2187982E-08
   33.24000     -9.0592678E-08
   33.30000     -8.8782535E-08
   33.36000     -8.6753296E-08
   33.42000     -8.4522405E-08
   33.48000     -8.2133951E-08
   33.54000     -7.9656132E-08
   33.60000     -7.7170505E-08
   33.66000     -7.4755107E-08
   33.72000     -7.2465959E-08
   33.78000     -7.0322663E-08
   33.84000     -6.8303180E-08
   33.90000     -6.6350296E-08
   33.96000     -6.4388360E-08
   34.02000     -6.2345642E-08
   34.08000     -6.0175168E-08
   34.14000     -5.7867759E-08
   34.20000     -5.5453341E-08
   34.26000     -5.2990718E-08
   34.32000     -5.0549378E-08
   34.38000     -4.8189136E-08
   34.44000     -4.5943356E-08
   34.50000     -4.3810076E-08
   34.56000     -4.1752809E-08
   34.62000     -3.9710493E-08
   34.68000     -3.7613873E-08
   34.74000     -3.5404234E-08
   34.80000     -3.3049457E-08
   34.86000     -3.0552783E-08
   34.92000     -2.7951394E-08
   34.98000     -2.5304843E-08
   35.04000     -2.2677005E-08
   35.10000     -2.0117664E-08
   35.16000     -1.7650450E-08
   35.22000     -1.5271571E-08
   35.28000     -1.2959820E-08
   35.34000     -1.0694031E-08
   35.40000     -8.4713667E-09
   35.46000     -6.3195937E-09
   35.52000     -4.2987254E-09
   35.58000     -2.4910731E-09
   35.64000     -9.8258290E-10
   35.70000      1.5890632E-10
   35.76000      9.0180496E-10
   35.82000      1.2595086E-09
   35.88000      1.2865496E-09
   35.94000      1.0627572E-09
   36.00000      6.6991507E-10
   36.06000      1.6816770E-10
   36.12000     -4.2014831E-10
   36.18000     -1.1138752E-09
   36.24000     -1.9626398E-09
   36.30000     -3.0265874E-09
   36.36000     -4.3535300E-09
   36.42000     -5.9613789E-09
   36.48000     -7.8314333E-09
   36.54000     -9.9139479E-09
   36.60000     -1.2143174E-08
   36.66000     -1.4456223E-08
   36.72000     -1.6809404E-08
   36.78000     -1.9187031E-08
   36.84000     -2.1600416E-08
   36.90000     -2.4077934E-08
   36.96000     -2.6649756E-08
   37.02000     -2.9332515E-08
   37.08000     -3.2119026E-08
   37.14000     -3.4976491E-08
   37.20000     -3.7853461E-08
   37.26000     -4.0692747E-08
   37.32000     -4.3445329E-08
   37.38000     -4.6080210E-08
   37.44000     -4.8587228E-08
   37.50000     -5.0972702E-08
   37.56000     -5.3250655E-08
   37.62000     -5.5433482E-08
   37.68000     -5.7525430E-08
   37.74000     -5.9520470E-08
   37.80000     -6.1404243E-08
   37.86000     -6.3158645E-08
   37.92000     -6.4767292E-08
   37.98000     -6.6220451E-08
   38.04000     -6.7518670E-08
   38.10000     -6.8673970E-08
   38.16000     -6.9708186E-08
   38.22000     -7.0648021E-08
   38.28000     -7.1517512E-08
   38.34000     -7.2329769E-08
   38.40000     -7.3080606E-08
   38.46000     -7.3746655E-08
   38.52000     -7.4289098E-08
   38.58000     -7.4662495E-08
   38.64000     -7.4826019E-08
   38.70000     -7.4753991E-08
   38.76000     -7.4442632E-08
   38.82000     -7.3911373E-08
   38.88000     -7.3198855E-08
   38.94000     -7.2354773E-08
   39.00000     -7.1429682E-08
   39.06000     -7.0464864E-08
   39.12000     -6.9484265E-08
   39.18000     -6.8490110E-08
   39.24000     -6.7463532E-08
   39.30000     -6.6370539E-08
   39.36000     -6.5172358E-08
   39.42000     -6.3837795E-08
   39.48000     -6.2353990E-08
   39.54000     -6.0732233E-08
   39.60000     -5.9006680E-08
   39.66000     -5.7226281E-08
   39.72000     -5.5442680E-08
   39.78000     -5.3698390E-08
   39.84000     -5.2019196E-08
   39.90000     -5.0412961E-08
   39.96000     -4.8874213E-08
   40.02000     -4.7391723E-08
   40.08000     -4.5955414E-08
   40.14000     -4.4559634E-08
   40.20000     -4.3202018E-08
   40.26000     -4.1879236E-08
   40.32000     -4.0582496E-08
   40.38000     -3.9295660E-08
   40.44000     -3.7997644E-08
   40.50000     -3.6668929E-08
   40.56000     -3.5300104E-08
   40.62000     -3.3899330E-08
   40.68000     -3.2495773E-08
   40.74000     -3.1137073E-08
   40.80000     -2.9880844E-08
   40.86000     -2.8782157E-08
   40.92000     -2.7880420E-08
   40.98000     -2.7189600E-08
   41.04000     -2.6694915E-08
   41.10000     -2.6357240E-08
   41.16000     -2.6124019E-08
   41.22000     -2.5943169E-08
   41.28000     -2.5775416E-08
   41.34000     -2.5601015E-08
   41.40000     -2.5419009E-08
   41.46000     -2.5240050E-08
   41.52000     -2.5076385E-08
   41.58000     -2.4933561E-08
   41.64000     -2.4807395E-08
   41.70000     -2.4687219E-08
   41.76000     -2.4563478E-08
   41.82000     -2.4435911E-08
   41.88000     -2.4318428E-08
   41.94000     -2.4238478E-08
   42.00000     -2.4231140E-08
   42.06000     -2.4330243E-08
   42.12000     -2.4559654E-08
   42.18000     -2.4927385E-08
   42.24000     -2.5423953E-08
   42.30000     -2.6025173E-08
   42.36000     -2.6698626E-08
   42.42000     -2.7412586E-08
   42.48000     -2.8145568E-08
   42.54000     -2.8894119E-08
   42.60000     -2.9676180E-08
   42.66000     -3.0527808E-08
   42.72000     -3.1492917E-08
   42.78000     -3.2608259E-08
   42.84000     -3.3888362E-08
   42.90000     -3.5316031E-08
   42.96000     -3.6842735E-08
   43.02000     -3.8399705E-08
   43.08000     -3.9916387E-08
   43.14000     -4.1340051E-08
   43.20000     -4.2649578E-08
   43.26000     -4.3858794E-08
   43.32000     -4.5008505E-08
   43.38000     -4.6150465E-08
   43.44000     -4.7329042E-08
   43.50000     -4.8566545E-08
   43.56000     -4.9856457E-08
   43.62000     -5.1165614E-08
   43.68000     -5.2443649E-08
   43.74000     -5.3635908E-08
   43.80000     -5.4695782E-08
   43.86000     -5.5593286E-08
   43.92000     -5.6318346E-08
   43.98000     -5.6879230E-08
   44.04000     -5.7297676E-08
   44.10000     -5.7602815E-08
   44.16000     -5.7825513E-08
   44.22000     -5.7994143E-08
   44.28000     -5.8131882E-08
   44.34000     -5.8255246E-08
   44.40000     -5.8373459E-08
   44.46000     -5.8488265E-08
   44.52000     -5.8594122E-08
   44.58000     -5.8678722E-08
   44.64000     -5.8723984E-08
   44.70000     -5.8707631E-08
   44.76000     -5.8605746E-08
   44.82000     -5.8396424E-08
   44.88000     -5.8064341E-08
   44.94000     -5.7605412E-08
   45.00000     -5.7030054E-08
   45.06000     -5.6363419E-08
   45.12000     -5.5641646E-08
   45.18000     -5.4904291E-08
   45.24000     -5.4184806E-08
   45.30000     -5.3501680E-08
   45.36000     -5.2853082E-08
   45.42000     -5.2216603E-08
   45.48000     -5.1554178E-08
   45.54000     -5.0820731E-08
   45.60000     -4.9974094E-08
   45.66000     -4.8983793E-08
   45.72000     -4.7836838E-08
   45.78000     -4.6539608E-08
   45.84000     -4.5115790E-08
   45.90000     -4.3601293E-08
   45.96000     -4.2037534E-08
   46.02000     -4.0464915E-08
   46.08000     -3.8917932E-08
   46.14000     -3.7422776E-08
   46.20000     -3.5996955E-08
   46.26000     -3.4649773E-08
   46.32000     -3.3382388E-08
   46.38000     -3.2186865E-08
   46.44000     -3.1045193E-08
   46.50000     -2.9930113E-08
   46.56000     -2.8809376E-08
   46.62000     -2.7653638E-08
   46.68000     -2.6445980E-08
   46.74000     -2.5189504E-08
   46.80000     -2.3909665E-08
   46.86000     -2.2649759E-08
   46.92000     -2.1460863E-08
   46.98000     -2.0389722E-08
   47.04000     -1.9468704E-08
   47.10000     -1.8710718E-08
   47.16000     -1.8109732E-08
   47.22000     -1.7645476E-08
   47.28000     -1.7289951E-08
   47.34000     -1.7013686E-08
   47.40000     -1.6790738E-08
   47.46000     -1.6602302E-08
   47.52000     -1.6439126E-08
   47.58000     -1.6302552E-08
   47.64000     -1.6203659E-08
   47.70000     -1.6159939E-08
   47.76000     -1.6189796E-08
   47.82000     -1.6306259E-08
   47.88000     -1.6512459E-08
   47.94000     -1.6801337E-08
   48.00000     -1.7160712E-08
   48.06000     -1.7582259E-08
   48.12000     -1.8070414E-08
   48.18000     -1.8646229E-08
   48.24000     -1.9342808E-08
   48.30000     -2.0192964E-08
   48.36000     -2.1214284E-08
   48.42000     -2.2399300E-08
   48.48000     -2.3717000E-08
   48.54000     -2.5126637E-08
   48.60000     -2.6598334E-08
   48.66000     -2.8131055E-08
   48.72000     -2.9759365E-08
   48.78000     -3.1546158E-08
   48.84000     -3.3565616E-08
   48.90000     -3.5885265E-08
   48.96000     -3.8555644E-08
   49.02000     -4.1611397E-08
   49.08000     -4.5081844E-08
   49.14000     -4.9005664E-08
   49.20000     -5.3444467E-08
   49.26000     -5.8492684E-08
   49.32000     -6.4283689E-08
   49.38000     -7.0992598E-08
   49.44000     -7.8835591E-08
   49.50000     -8.8065150E-08
   49.56000     -9.8962502E-08
   49.62000     -1.1183104E-07
   49.68000     -1.2699672E-07
   49.74000     -1.4481979E-07
   49.80000     -1.6571764E-07
   49.86000     -1.9019383E-07
   49.92000     -2.1886525E-07
   49.98000     -2.5248082E-07
   50.04000     -2.9192989E-07
   50.10000     -3.3824298E-07
   50.16000     -3.9258916E-07
   50.22000     -4.5627485E-07
   50.28000     -5.3074689E-07
   50.34000     -6.1760124E-07
   50.40000     -7.1860069E-07
   50.46000     -8.3570319E-07
   50.52000     -9.7109967E-07
   50.58000     -1.1272581E-06
   50.64000     -1.3069644E-06
   50.70000     -1.5133555E-06
   50.76000     -1.7499410E-06
   50.82000     -2.0206178E-06
   50.88000     -2.3296864E-06
   50.94000     -2.6818764E-06
   51.00000     -3.0823801E-06
   51.06000     -3.5368939E-06
   51.12000     -4.0516584E-06
   51.18000     -4.6334994E-06
   51.24000     -5.2898677E-06
   51.30000     -6.0288753E-06
   51.36000     -6.8593413E-06
   51.42000     -7.7908217E-06
   51.48000     -8.8336337E-06
   51.54000     -9.9988629E-06
   51.60000     -1.1298360E-05
   51.66000     -1.2744740E-05
   51.72000     -1.4351391E-05
   51.78000     -1.6132492E-05
   51.84000     -1.8103032E-05
   51.90000     -2.0278814E-05
   51.96000     -2.2676450E-05
   52.02000     -2.5313315E-05
   52.08000     -2.8207511E-05
   52.14000     -3.1377804E-05
   52.20000     -3.4843575E-05
   52.26000     -3.8624763E-05
   52.32000     -4.2741780E-05
   52.38000     -4.7215424E-05
   52.44000     -5.2066764E-05
   52.50000     -5.7317000E-05
   52.56000     -6.2987310E-05
   52.62000     -6.9098744E-05
   52.68000     -7.5672062E-05
   52.74000     -8.2727609E-05
   52.80000     -9.0285110E-05
   52.86000     -9.8363504E-05
   52.92000     -1.0698075E-04
   52.98000     -1.1615363E-04
   53.04000     -1.2589752E-04
   53.10000     -1.3622626E-04
   53.16000     -1.4715186E-04
   53.22000     -1.5868436E-04
   53.28000     -1.7083158E-04
   53.34000     -1.8359892E-04
   53.40000     -1.9698923E-04
   53.46000     -2.1100255E-04
   53.52000     -2.2563609E-04
   53.58000     -2.4088396E-04
   53.64000     -2.5673711E-04
   53.70000     -2.7318316E-04
   53.76000     -2.9020626E-04
   53.82000     -3.0778718E-04
   53.88000     -3.2590318E-04
   53.94000     -3.4452803E-04
   54.00000     -3.6363216E-04
   54.06000     -3.8318257E-04
   54.12000     -4.0314291E-04
   54.18000     -4.2347366E-04
   54.24000     -4.4413243E-04
   54.30000     -4.6507397E-04
   54.36000     -4.8625068E-04
   54.42000     -5.0761260E-04
   54.48000     -5.2910775E-04
   54.54000     -5.5068242E-04
   54.60000     -5.7228189E-04
   54.66000     -5.9384998E-04
   54.72000     -6.1533041E-04
   54.78000     -6.3666643E-04
   54.84000     -6.5780163E-04
   54.90000     -6.7868026E-04
   54.96000     -6.9924770E-04
   55.02000     -7.1945082E-04
   55.08000     -7.3923857E-04
   55.14000     -7.5856218E-04
   55.20000     -7.7737530E-04
   55.26000     -7.9563481E-04
   55.32000     -8.1330084E-04
   55.38000     -8.3033735E-04
   55.44000     -8.4671233E-04
   55.50000     -8.6239789E-04
   55.56000     -8.7737059E-04