  -2.400000      0.0000000E+00
  -2.340000      0.0000000E+00
  -2.280000      0.0000000E+00
  -2.220000      0.0000000E+00
  -2.160000      0.0000000E+00
  -2.100000     -6.0914845E-21
  -2.040000      3.5271854E-20
  -1.980000      6.2617588E-19
  -1.920000      3.6350407E-18
  -1.860000      1.3314362E-17
  -1.800000      3.5975322E-17
  -1.740000      7.6590407E-17
  -1.680000      1.3231338E-16
  -1.620000      1.8645587E-16
  -1.560000      2.0906978E-16
  -1.500000      1.6761496E-16
  -1.440000      4.1066179E-17
  -1.380000     -1.8225648E-16
  -1.320000     -5.4633556E-16
  -1.260000     -1.2107290E-15
  -1.200000     -2.5272141E-15
  -1.140000     -5.0007661E-15
  -1.080000     -9.0012048E-15
  -1.020000     -1.4161069E-14
 -0.9600000     -1.8589271E-14
 -0.9000000     -1.8307904E-14
 -0.8400000     -7.5445377E-15
 -0.7800000      1.9517457E-14
 -0.7200000      6.5384208E-14
 -0.6600000      1.2503289E-13
 -0.6000000      1.8261608E-13
 -0.5400000      2.1154076E-13
 -0.4800000      1.8003394E-13
 -0.4200000      6.2584805E-14
 -0.3600000     -1.4521823E-13
 -0.3000000     -4.1396154E-13
 -0.2400000     -6.7690531E-13
 -0.1800000     -8.4150910E-13
 -0.1200000     -8.1697089E-13
 -5.9999999E-02 -5.5147423E-13
  0.0000000E+00 -6.5812929E-14
  5.9999999E-02  5.3307993E-13
  0.1200000      1.0714695E-12
  0.1800000      1.3627274E-12
  0.2400000      1.2820485E-12
  0.3000000      8.3443815E-13
  0.3600000      1.8343561E-13
  0.4200000     -3.8321608E-13
  0.4800000     -5.5252314E-13
  0.5400000     -1.2241610E-13
  0.6000000      8.7627654E-13
  0.6600000      2.1301567E-12
  0.7200000      3.1058944E-12
  0.7800000      3.2244884E-12
  0.8400000      2.0962305E-12
  0.9000000     -2.7386586E-13
  0.9600000     -3.4085779E-12
   1.020000     -6.4733770E-12
   1.080000     -8.5773437E-12
   1.140000     -9.1685583E-12
   1.200000     -8.3666581E-12
   1.260000     -7.0616772E-12
   1.320000     -6.6647118E-12
   1.380000     -8.5149691E-12
   1.440000     -1.3094675E-11
   1.500000     -1.9325248E-11
   1.560000     -2.4261622E-11
   1.620000     -2.3433311E-11
   1.680000     -1.1904530E-11
   1.740000      1.4113478E-11
   1.800000      5.5491039E-11
   1.860000      1.0877339E-10
   1.920000      1.6563900E-10
   1.980000      2.1353573E-10
   2.040000      2.3750549E-10
   2.100000      2.2288671E-10
   2.160000      1.5835275E-10
   2.220000      3.8683487E-11
   2.280000     -1.3320266E-10
   2.340000     -3.4516834E-10
   2.400000     -5.7565980E-10
   2.460000     -7.9414847E-10
   2.520000     -9.6197761E-10
   2.580000     -1.0335716E-09
   2.640000     -9.5823605E-10
   2.700000     -6.8297756E-10
   2.760000     -1.5674712E-10
   2.820000      6.6379774E-10
   2.880000      1.8074674E-09
   2.940000      3.2817096E-09
   3.000000      5.0672564E-09
   3.060000      7.1157706E-09
   3.120000      9.3515675E-09
   3.180000      1.1677630E-08
   3.240000      1.3985132E-08
   3.300000      1.6164755E-08
   3.360000      1.8117721E-08
   3.420000      1.9764492E-08
   3.480000      2.1049877E-08
   3.540000      2.1944237E-08
   3.600000      2.2441492E-08
   3.660000      2.2555350E-08
   3.720000      2.2315257E-08
   3.780000      2.1763235E-08
   3.840000      2.0951944E-08
   3.900000      1.9943569E-08
   3.960000      1.8808436E-08
   4.020000      1.7622238E-08
   4.080000      1.6461104E-08
   4.140000      1.5394525E-08
   4.200000      1.4477018E-08
   4.260000      1.3740194E-08
   4.320000      1.3187130E-08
   4.380000      1.2790750E-08
   4.440000      1.2497203E-08
   4.500000      1.2234183E-08
   4.560000      1.1923006E-08
   4.620000      1.1492446E-08
   4.680000      1.0891811E-08
   4.740000      1.0100860E-08
   4.800000      9.1347738E-09
   4.860000      8.0433136E-09
   4.920000      6.9043988E-09
   4.980000      5.8133232E-09
   5.040000      4.8694471E-09
   5.100000      4.1625148E-09
   5.160000      3.7605710E-09
   5.220000      3.7010659E-09
   5.280000      3.9861461E-09
   5.340000      4.5825392E-09
   5.400000      5.4259335E-09
   5.460000      6.4292953E-09
   5.520000      7.4942275E-09
   5.580000      8.5241423E-09
   5.640000      9.4377306E-09
   5.700000      1.0180948E-08
   5.760000      1.0735617E-08
   5.820000      1.1122883E-08
   5.880000      1.1400236E-08
   5.940000      1.1651745E-08
   6.000000      1.1972408E-08
   6.060000      1.2448941E-08
   6.120000      1.3140532E-08
   6.180000      1.4063641E-08
   6.240000      1.5184597E-08
   6.300000      1.6422312E-08
   6.360000      1.7661254E-08
   6.420000      1.8772230E-08
   6.480000      1.9636470E-08
   6.540000      2.0167338E-08
   6.600000      2.0324437E-08
   6.660000      2.0116673E-08
   6.720000      1.9593639E-08
   6.780000      1.8827814E-08
   6.840000      1.7892367E-08
   6.900000      1.6840566E-08
   6.960000      1.5692143E-08
   7.020000      1.4430076E-08
   7.080000      1.3008348E-08
   7.140000      1.1368303E-08
   7.200000      9.4590646E-09
   7.260000      7.2564963E-09
   7.320000      4.7757571E-09
   7.380000      2.0742623E-09
   7.440000     -7.5562817E-10
   7.500000     -3.6023455E-09
   7.560000     -6.3554939E-09
   7.620000     -8.9261762E-09
   7.680000     -1.1262805E-08
   7.740000     -1.3359118E-08
   7.800000     -1.5252926E-08
   7.860000     -1.7016037E-08
   7.920000     -1.8737495E-08
   7.980000     -2.0503524E-08
   8.040000     -2.2378044E-08
   8.100000     -2.4387690E-08
   8.160000     -2.6514398E-08
   8.220000     -2.8697356E-08
   8.280000     -3.0844273E-08
   8.340000     -3.2849893E-08
   8.400000     -3.4617823E-08
   8.460000     -3.6080774E-08
   8.520000     -3.7214182E-08
   8.580000     -3.8039776E-08
   8.640000     -3.8618047E-08
   8.700000     -3.9031676E-08
   8.760000     -3.9364370E-08
   8.820000     -3.9681190E-08
   8.880000     -4.0015696E-08
   8.940000     -4.0367350E-08
   9.000000     -4.0709374E-08
   9.060000     -4.1003918E-08
   9.120000     -4.1219433E-08
   9.180000     -4.1344503E-08
   9.240000     -4.1393953E-08
   9.300000     -4.1405681E-08
   9.360000     -4.1429882E-08
   9.420000     -4.1514685E-08
   9.480000     -4.1692999E-08
   9.540000     -4.1974591E-08
   9.600000     -4.2345299E-08
   9.660000     -4.2772601E-08
   9.720000     -4.3214875E-08
   9.780000     -4.3630674E-08
   9.840000     -4.3985207E-08
   9.900000     -4.4252513E-08
   9.960000     -4.4413838E-08
   10.02000     -4.4454104E-08
   10.08000     -4.4358760E-08
   10.14000     -4.4112863E-08
   10.20000     -4.3703036E-08
   10.26000     -4.3121712E-08
   10.32000     -4.2372019E-08
   10.38000     -4.1471399E-08
   10.44000     -4.0452296E-08
   10.50000     -3.9358863E-08
   10.56000     -3.8239836E-08
   10.62000     -3.7138548E-08
   10.68000     -3.6082035E-08
   10.74000     -3.5071928E-08
   10.80000     -3.4079772E-08
   10.86000     -3.3048998E-08
   10.92000     -3.1904364E-08
   10.98000     -3.0567836E-08
   11.04000     -2.8977826E-08
   11.10000     -2.7107099E-08
   11.16000     -2.4974359E-08
   11.22000     -2.2645608E-08
   11.28000     -2.0223894E-08
   11.34000     -1.7829217E-08
   11.40000     -1.5573335E-08
   11.46000     -1.3535809E-08
   11.52000     -1.1747413E-08
   11.58000     -1.0185000E-08
   11.64000     -8.7786853E-09
   11.70000     -7.4289197E-09
   11.76000     -6.0286123E-09
   11.82000     -4.4847033E-09
   11.88000     -2.7343656E-09
   11.94000     -7.5303624E-10
   12.00000      1.4461496E-09
   12.06000      3.8199417E-09
   12.12000      6.3067902E-09
   12.18000      8.8398489E-09
   12.24000      1.1358508E-08
   12.30000      1.3816648E-08
   12.36000      1.6186684E-08
   12.42000      1.8459357E-08
   12.48000      2.0640002E-08
   12.54000      2.2742670E-08
   12.60000      2.4783809E-08
   12.66000      2.6777224E-08
   12.72000      2.8731538E-08
   12.78000      3.0650455E-08
   12.84000      3.2535077E-08
   12.90000      3.4386893E-08
   12.96000      3.6209673E-08
   13.02000      3.8009372E-08
   13.08000      3.9791914E-08
   13.14000      4.1560170E-08
   13.20000      4.3311786E-08
   13.26000      4.5039425E-08
   13.32000      4.6733955E-08
   13.38000      4.8389456E-08
   13.44000      5.0007941E-08
   13.50000      5.1601301E-08
   13.56000      5.3188739E-08
   13.62000      5.4789783E-08
   13.68000      5.6414887E-08
   13.74000      5.8056884E-08
   13.80000      5.9686769E-08
   13.86000      6.1255953E-08
   13.92000      6.2705126E-08
   13.98000      6.3977176E-08
   14.04000      6.5030605E-08
   14.10000      6.5849193E-08
   14.16000      6.6445018E-08
   14.22000      6.6854099E-08
   14.28000      6.7126081E-08
   14.34000      6.7311106E-08
   14.40000      6.7447587E-08
   14.46000      6.7553856E-08
   14.52000      6.7625557E-08
   14.58000      6.7638723E-08
   14.64000      6.7557231E-08
   14.70000      6.7342512E-08
   14.76000      6.6963004E-08
   14.82000      6.6401483E-08
   14.88000      6.5658710E-08
   14.94000      6.4752975E-08
   15.00000      6.3715653E-08
   15.06000      6.2584071E-08
   15.12000      6.1393358E-08
   15.18000      6.0169498E-08
   15.24000      5.8925497E-08
   15.30000      5.7661850E-08
   15.36000      5.6371253E-08
   15.42000      5.5046023E-08
   15.48000      5.3685795E-08
   15.54000      5.2302557E-08
   15.60000      5.0921074E-08
   15.66000      4.9574084E-08
   15.72000      4.8293717E-08
   15.78000      4.7101970E-08
   15.84000      4.6003660E-08
   15.90000      4.4984493E-08
   15.96000      4.4015135E-08
   16.02000      4.3060087E-08
   16.08000      4.2088374E-08
   16.14000      4.1082593E-08
   16.20000      4.0043474E-08
   16.26000      3.8988805E-08
   16.32000      3.7947533E-08
   16.38000      3.6951267E-08
   16.44000      3.6025988E-08
   16.50000      3.5186225E-08
   16.56000      3.4432762E-08
   16.62000      3.3753714E-08
   16.68000      3.3128124E-08
   16.74000      3.2530796E-08
   16.80000      3.1937613E-08
   16.86000      3.1330721E-08
   16.92000      3.0703095E-08
   16.98000      3.0061713E-08
   17.04000      2.9428225E-08
   17.10000      2.8835959E-08
   17.16000      2.8322722E-08
   17.22000      2.7920336E-08
   17.28000      2.7643260E-08
   17.34000      2.7479864E-08
   17.40000      2.7389868E-08
   17.46000      2.7309950E-08
   17.52000      2.7167088E-08
   17.58000      2.6896332E-08
   17.64000      2.6457871E-08
   17.70000      2.5847985E-08
   17.76000      2.5100148E-08
   17.82000      2.4275613E-08
   17.88000      2.3446068E-08
   17.94000      2.2673568E-08
   18.00000      2.1993561E-08
   18.06000      2.1405771E-08
   18.12000      2.0875090E-08
   18.18000      2.0341552E-08
   18.24000      1.9735978E-08
   18.30000      1.8996641E-08
   18.36000      1.8082446E-08
   18.42000      1.6979641E-08
   18.48000      1.5701062E-08
   18.54000      1.4279046E-08
   18.60000      1.2754547E-08
   18.66000      1.1165705E-08
   18.72000      9.5388444E-09
   18.78000      7.8838829E-09
   18.84000      6.1947589E-09
   18.90000      4.4539985E-09
   18.96000      2.6394169E-09
   19.02000      7.3040557E-10
   19.08000     -1.2884828E-09
   19.14000     -3.4279546E-09
   19.20000     -5.6982743E-09
   19.26000     -8.1158316E-09
   19.32000     -1.0709352E-08
   19.38000     -1.3522892E-08
   19.44000     -1.6613527E-08
   19.50000     -2.0043078E-08
   19.56000     -2.3865157E-08
   19.62000     -2.8110335E-08
   19.68000     -3.2773261E-08
   19.74000     -3.7805322E-08
   19.80000     -4.3115261E-08
   19.86000     -4.8578240E-08
   19.92000     -5.4051664E-08
   19.98000     -5.9394239E-08
   20.04000     -6.4484105E-08
   20.10000     -6.9231959E-08
   20.16000     -7.3586811E-08
   20.22000     -7.7533805E-08
   20.28000     -8.1085936E-08
   20.34000     -8.4272692E-08
   20.40000     -8.7129436E-08
   20.46000     -8.9690168E-08
   20.52000     -9.1985328E-08
   20.58000     -9.4043820E-08
   20.64000     -9.5897320E-08
   20.70000     -9.7584106E-08
   20.76000     -9.9149950E-08
   20.82000     -1.0064467E-07
   20.88000     -1.0211487E-07
   20.94000     -1.0359439E-07
   21.00000     -1.0509518E-07
   21.06000     -1.0660138E-07
   21.12000     -1.0806838E-07
   21.18000     -1.0942771E-07
   21.24000     -1.1059690E-07
   21.30000     -1.1149235E-07
   21.36000     -1.1204249E-07
   21.42000     -1.1219845E-07
   21.48000     -1.1194037E-07
   21.54000     -1.1127791E-07
   21.60000     -1.1024581E-07
   21.66000     -1.0889537E-07
   21.72000     -1.0728441E-07
   21.78000     -1.0546761E-07
   21.84000     -1.0348926E-07
   21.90000     -1.0137956E-07
   21.96000     -9.9154555E-08
   22.02000     -9.6819498E-08
   22.08000     -9.4374165E-08
   22.14000     -9.1818947E-08
   22.20000     -8.9160025E-08
   22.26000     -8.6412477E-08
   22.32000     -8.3600348E-08
   22.38000     -8.0753757E-08
   22.44000     -7.7903600E-08
   22.50000     -7.5075377E-08
   22.56000     -7.2283783E-08
   22.62000     -6.9529882E-08
   22.68000     -6.6801682E-08
   22.74000     -6.4078421E-08
   22.80000     -6.1337609E-08
   22.86000     -5.8562957E-08
   22.92000     -5.5751357E-08
   22.98000     -5.2917024E-08
   23.04000     -5.0091618E-08
   23.10000     -4.7320398E-08
   23.16000     -4.4655135E-08
   23.22000     -4.2145508E-08
   23.28000     -3.9831196E-08
   23.34000     -3.7736470E-08
   23.40000     -3.5868837E-08
   23.46000     -3.4222023E-08
   23.52000     -3.2782495E-08
   23.58000     -3.1537546E-08
   23.64000     -3.0482418E-08
   23.70000     -2.9624157E-08
   23.76000     -2.8980711E-08
   23.82000     -2.8575437E-08
   23.88000     -2.8428694E-08
   23.94000     -2.8549447E-08
   24.00000     -2.8929916E-08
   24.06000     -2.9545440E-08
   24.12000     -3.0359967E-08
   24.18000     -3.1335478E-08
   24.24000     -3.2442205E-08
   24.30000     -3.3665788E-08
   24.36000     -3.5008664E-08
   24.42000     -3.6484590E-08
   24.48000     -3.8107945E-08
   24.54000     -3.9881197E-08
   24.60000     -4.1784954E-08
   24.66000     -4.3774307E-08
   24.72000     -4.5783331E-08
   24.78000     -4.7736854E-08
   24.84000     -4.9566221E-08
   24.90000     -5.1224369E-08
   24.96000     -5.2695558E-08
   25.02000     -5.3996690E-08
   25.08000     -5.5169632E-08
   25.14000     -5.6266661E-08
   25.20000     -5.7332993E-08
   25.26000     -5.8391219E-08
   25.32000     -5.9431663E-08
   25.38000     -6.0410933E-08
   25.44000     -6.1258760E-08
   25.50000     -6.1891022E-08
   25.56000     -6.2225482E-08
   25.62000     -6.2196520E-08
   25.68000     -6.1765732E-08
   25.74000     -6.0926375E-08
   25.80000     -5.9701414E-08
   25.86000     -5.8136383E-08
   25.92000     -5.6289032E-08
   25.98000     -5.4218422E-08
   26.04000     -5.1975665E-08
   26.10000     -4.9597947E-08
   26.16000     -4.7106390E-08
   26.22000     -4.4507399E-08
   26.28000     -4.1796433E-08
   26.34000     -3.8962909E-08
   26.40000     -3.5994987E-08
   26.46000     -3.2883531E-08
   26.52000     -2.9625083E-08
   26.58000     -2.6224061E-08
   26.64000     -2.2694433E-08
   26.70000     -1.9060879E-08
   26.76000     -1.5358967E-08
   26.82000     -1.1633548E-08
   26.88000     -7.9346085E-09
   26.94000     -4.3104036E-09
   27.00000     -7.9873413E-10
   27.06000      2.5816969E-09
   27.12000      5.8372214E-09
   27.18000      8.9999590E-09
   27.24000      1.2122068E-08
   27.30000      1.5264058E-08
   27.36000      1.8479819E-08
   27.42000      2.1802393E-08
   27.48000      2.5234723E-08
   27.54000      2.8748278E-08
   27.60000      3.2290089E-08
   27.66000      3.5795900E-08
   27.72000      3.9205268E-08
   27.78000      4.2473825E-08
   27.84000      4.5578922E-08
   27.90000      4.8517560E-08
   27.96000      5.1297867E-08
   28.02000      5.3927703E-08
   28.08000      5.6404538E-08
   28.14000      5.8709745E-08
   28.20000      6.0808844E-08
   28.26000      6.2656760E-08
   28.32000      6.4205949E-08
   28.38000      6.5414596E-08
   28.44000      6.6252582E-08
   28.50000      6.6704189E-08
   28.56000      6.6767733E-08
   28.62000      6.6452841E-08
   28.68000      6.5776689E-08
   28.74000      6.4760250E-08
   28.80000      6.3425013E-08
   28.86000      6.1790836E-08
   28.92000      5.9874992E-08
   28.98000      5.7692574E-08
   29.04000      5.5258148E-08
   29.10000      5.2588444E-08
   29.16000      4.9705275E-08
   29.22000      4.6637766E-08
   29.28000      4.3422844E-08
   29.34000      4.0103306E-08
   29.40000      3.6723321E-08
   29.46000      3.3322259E-08
   29.52000      2.9928252E-08
   29.58000      2.6553492E-08
   29.64000      2.3192937E-08
   29.70000      1.9827340E-08
   29.76000      1.6430274E-08
   29.82000      1.2977553E-08
   29.88000      9.4565120E-09
   29.94000      5.8724905E-09
   30.00000      2.2505668E-09
   30.06000     -1.3680910E-09
   30.12000     -4.9343134E-09
   30.18000     -8.4012903E-09
   30.24000     -1.1734515E-08
   30.30000     -1.4918836E-08
   30.36000     -1.7961039E-08
   30.42000     -2.0887388E-08
   30.48000     -2.3736630E-08
   30.54000     -2.6549623E-08
   30.60000     -2.9357336E-08
   30.66000     -3.2169371E-08
   30.72000     -3.4965410E-08
   30.78000     -3.7692093E-08
   30.84000     -4.0267121E-08
   30.90000     -4.2591168E-08
   30.96000     -4.4566054E-08
   31.02000     -4.6115403E-08
   31.08000     -4.7202594E-08
   31.14000     -4.7840601E-08
   31.20000     -4.8090172E-08
   31.26000     -4.8046065E-08
   31.32000     -4.7814780E-08
   31.38000     -4.7490296E-08
   31.44000     -4.7134971E-08
   31.50000     -4.6771486E-08
   31.56000     -4.6387804E-08
   31.62000     -4.5953062E-08
   31.68000     -4.5438473E-08
   31.74000     -4.4836082E-08
   31.80000     -4.4169244E-08
   31.86000     -4.3491845E-08
   31.92000     -4.2877211E-08
   31.98000     -4.2401076E-08
   32.04000     -4.2124423E-08
   32.10000     -4.2081446E-08
   32.16000     -4.2275680E-08
   32.22000     -4.2684274E-08
   32.28000     -4.3267942E-08
   32.34000     -4.3982787E-08
   32.40000     -4.4790383E-08
   32.46000     -4.5663761E-08
   32.52000     -4.6588543E-08
   32.58000     -4.7559940E-08
   32.64000     -4.8577114E-08
   32.70000     -4.9636519E-08
   32.76000     -5.0725717E-08
   32.82000     -5.1818926E-08
   32.88000     -5.2875336E-08
   32.94000     -5.3840960E-08
   33.00000     -5.4654393E-08
   33.06000     -5.5255761E-08
   33.12000     -5.5597241E-08
   33.18000     -5.5652322E-08
   33.24000     -5.5420919E-08
   33.30000     -5.4928261E-08
   33.36000     -5.4217196E-08
   33.42000     -5.3336002E-08
   33.48000     -5.2325284E-08
   33.54000     -5.1208328E-08
   33.60000     -4.9988007E-08
   33.66000     -4.8651049E-08
   33.72000     -4.7177956E-08
   33.78000     -4.5554557E-08
   33.84000     -4.3781256E-08
   33.90000     -4.1876884E-08
   33.96000     -3.9876607E-08
   34.02000     -3.7825778E-08
   34.08000     -3.5772739E-08
   34.14000     -3.3763666E-08
   34.20000     -3.1840734E-08
   34.26000     -3.0043047E-08
   34.32000     -2.8408110E-08
   34.38000     -2.6971458E-08
   34.44000     -2.5763264E-08
   34.50000     -2.4802567E-08
   34.56000     -2.4091577E-08
   34.62000     -2.3612975E-08
   34.68000     -2.3332246E-08
   34.74000     -2.3204947E-08
   34.80000     -2.3186697E-08
   34.86000     -2.3242288E-08
   34.92000     -2.3350506E-08
   34.98000     -2.3502905E-08
   35.04000     -2.3697137E-08
   35.10000     -2.3927559E-08
   35.16000     -2.4176869E-08
   35.22000     -2.4412039E-08
   35.28000     -2.4586210E-08
   35.34000     -2.4646107E-08
   35.40000     -2.4542748E-08
   35.46000     -2.4242276E-08
   35.52000     -2.3733808E-08
   35.58000     -2.3032115E-08
   35.64000     -2.2174339E-08
   35.70000     -2.1211411E-08
   35.76000     -2.0196271E-08
   35.82000     -1.9171820E-08
   35.88000     -1.8161884E-08
   35.94000     -1.7167947E-08
   36.00000     -1.6172935E-08
   36.06000     -1.5151379E-08
   36.12000     -1.4083068E-08
   36.18000     -1.2965833E-08
   36.24000     -1.1822856E-08
   36.30000     -1.0701402E-08
   36.36000     -9.6625348E-09
   36.42000     -8.7645669E-09
   36.48000     -8.0454443E-09
   36.54000     -7.5100406E-09
   36.60000     -7.1270394E-09
   36.66000     -6.8371349E-09
   36.72000     -6.5705930E-09
   36.78000     -6.2691914E-09
   36.84000     -5.9060730E-09
   36.90000     -5.4976415E-09
   36.96000     -5.1040314E-09
   37.02000     -4.8180180E-09
   37.08000     -4.7454818E-09
   37.14000     -4.9827102E-09
   37.20000     -5.5963594E-09
   37.26000     -6.6108181E-09
   37.32000     -8.0054106E-09
   37.38000     -9.7211252E-09
   37.44000     -1.1674227E-08
   37.50000     -1.3772725E-08
   37.56000     -1.5931677E-08
   37.62000     -1.8084368E-08
   37.68000     -2.0188111E-08
   37.74000     -2.2225127E-08
   37.80000     -2.4199922E-08
   37.86000     -2.6134753E-08
   37.92000     -2.8064230E-08
   37.98000     -3.0029266E-08
   38.04000     -3.2070215E-08
   38.10000     -3.4219109E-08
   38.16000     -3.6491731E-08
   38.22000     -3.8881026E-08
   38.28000     -4.1353776E-08
   38.34000     -4.3851983E-08
   38.40000     -4.6299196E-08
   38.46000     -4.8610456E-08
   38.52000     -5.0703335E-08
   38.58000     -5.2507371E-08
   38.64000     -5.3969902E-08
   38.70000     -5.5057740E-08
   38.76000     -5.5755528E-08
   38.82000     -5.6062525E-08
   38.88000     -5.5989315E-08
   38.94000     -5.5555425E-08
   39.00000     -5.4787865E-08
   39.06000     -5.3720225E-08
   39.12000     -5.2391826E-08
   39.18000     -5.0846957E-08
   39.24000     -4.9134293E-08
   39.30000     -4.7306539E-08
   39.36000     -4.5419711E-08
   39.42000     -4.3531116E-08
   39.48000     -4.1694921E-08
   39.54000     -3.9955271E-08
   39.60000     -3.8338179E-08
   39.66000     -3.6844913E-08
   39.72000     -3.5449897E-08
   39.78000     -3.4105238E-08
   39.84000     -3.2751768E-08
   39.90000     -3.1333837E-08
   39.96000     -2.9813418E-08
   40.02000     -2.8178853E-08
   40.08000     -2.6445489E-08
   40.14000     -2.4648365E-08
   40.20000     -2.2830115E-08
   40.26000     -2.1028924E-08
   40.32000     -1.9271010E-08
   40.38000     -1.7569990E-08
   40.44000     -1.5932532E-08
   40.50000     -1.4367063E-08
   40.56000     -1.2891321E-08
   40.62000     -1.1535247E-08
   40.68000     -1.0337939E-08
   40.74000     -9.3399342E-09
   40.80000     -8.5740703E-09
   40.86000     -8.0585210E-09
   40.92000     -7.7946085E-09
   40.98000     -7.7698799E-09
   41.04000     -7.9647720E-09
   41.10000     -8.3599216E-09
   41.16000     -8.9411643E-09
   41.22000     -9.7006021E-09
   41.28000     -1.0633947E-08
   41.34000     -1.1736067E-08
   41.40000     -1.2997233E-08
   41.46000     -1.4402032E-08
   41.52000     -1.5931315E-08
   41.58000     -1.7565899E-08
   41.64000     -1.9289622E-08
   41.70000     -2.1089598E-08
   41.76000     -2.2952857E-08
   41.82000     -2.4860462E-08
   41.88000     -2.6781755E-08
   41.94000     -2.8671904E-08
   42.00000     -3.0474766E-08
   42.06000     -3.2131158E-08
   42.12000     -3.3590325E-08
   42.18000     -3.4820943E-08
   42.24000     -3.5818140E-08
   42.30000     -3.6604199E-08
   42.36000     -3.7223039E-08
   42.42000     -3.7730420E-08
   42.48000     -3.8182833E-08
   42.54000     -3.8628009E-08
   42.60000     -3.9098680E-08
   42.66000     -3.9610104E-08
   42.72000     -4.0160817E-08
   42.78000     -4.0735998E-08
   42.84000     -4.1312877E-08
   42.90000     -4.1868020E-08
   42.96000     -4.2385722E-08
   43.02000     -4.2865981E-08
   43.08000     -4.3329774E-08
   43.14000     -4.3818897E-08
   43.20000     -4.4389008E-08
   43.26000     -4.5096492E-08
   43.32000     -4.5982560E-08
   43.38000     -4.7059697E-08
   43.44000     -4.8305910E-08
   43.50000     -4.9669911E-08
   43.56000     -5.1086939E-08
   43.62000     -5.2500933E-08
   43.68000     -5.3886168E-08
   43.74000     -5.5261204E-08
   43.80000     -5.6690364E-08
   43.86000     -5.8272104E-08
   43.92000     -6.0118019E-08
   43.98000     -6.2329505E-08
   44.04000     -6.4979673E-08
   44.10000     -6.8106452E-08
   44.16000     -7.1719001E-08
   44.22000     -7.5815315E-08
   44.28000     -8.0405584E-08
   44.34000     -8.5534332E-08
   44.40000     -9.1295384E-08
   44.46000     -9.7836327E-08
   44.52000     -1.0535271E-07
   44.58000     -1.1407537E-07
   44.64000     -1.2425613E-07
   44.70000     -1.3615745E-07
   44.76000     -1.5004977E-07
   44.82000     -1.6621817E-07
   44.88000     -1.8497737E-07
   44.94000     -2.0669182E-07
   45.00000     -2.3179716E-07
   45.06000     -2.6081889E-07
   45.12000     -2.9438593E-07
   45.18000     -3.3323784E-07
   45.24000     -3.7822664E-07
   45.30000     -4.3031673E-07
   45.36000     -4.9058588E-07
   45.42000     -5.6023259E-07
   45.48000     -6.4059179E-07
   45.54000     -7.3316102E-07
   45.60000     -8.3963334E-07
   45.66000     -9.6193401E-07
   45.72000     -1.1022530E-06
   45.78000     -1.2630700E-06
   45.84000     -1.4471665E-06
   45.90000     -1.6576291E-06
   45.96000     -1.8978478E-06
   46.02000     -2.1715157E-06
   46.08000     -2.4826404E-06
   46.14000     -2.8355653E-06
   46.20000     -3.2350067E-06
   46.26000     -3.6860952E-06
   46.32000     -4.1944172E-06
   46.38000     -4.7660492E-06
   46.44000     -5.4075799E-06
   46.50000     -6.1261185E-06
   46.56000     -6.9292983E-06
   46.62000     -7.8252733E-06
   46.68000     -8.8227116E-06
   46.74000     -9.9308063E-06
   46.80000     -1.1159269E-05
   46.86000     -1.2518342E-05
   46.92000     -1.4018791E-05
   46.98000     -1.5671892E-05
   47.04000     -1.7489419E-05
   47.10000     -1.9483605E-05
   47.16000     -2.1667111E-05
   47.22000     -2.4052979E-05
   47.28000     -2.6654579E-05
   47.34000     -2.9485547E-05
   47.40000     -3.2559710E-05
   47.46000     -3.5891018E-05
   47.52000     -3.9493443E-05
   47.58000     -4.3380889E-05
   47.64000     -4.7567104E-05
   47.70000     -5.2065567E-05
   47.76000     -5.6889392E-05
   47.82000     -6.2051200E-05
   47.88000     -6.7562978E-05
   47.94000     -7.3435942E-05
   48.00000     -7.9680394E-05
   48.06000     -8.6305547E-05
   48.12000     -9.3319373E-05
   48.18000     -1.0072849E-04
   48.24000     -1.0853796E-04
   48.30000     -1.1675125E-04
   48.36000     -1.2537005E-04
   48.42000     -1.3439414E-04
   48.48000     -1.4382137E-04
   48.54000     -1.5364744E-04
   48.60000     -1.6386597E-04
   48.66000     -1.7446831E-04
   48.72000     -1.8544347E-04
   48.78000     -1.9677820E-04
   48.84000     -2.0845696E-04
   48.90000     -2.2046192E-04
   48.96000     -2.3277305E-04
   49.02000     -2.4536811E-04
   49.08000     -2.5822275E-04
   49.14000     -2.7131062E-04
   49.20000     -2.8460359E-04
   49.26000     -2.9807174E-04
   49.32000     -3.1168363E-04
   49.38000     -3.2540649E-04
   49.44000     -3.3920660E-04
   49.50000     -3.5304934E-04
   49.56000     -3.6689974E-04
   49.62000     -3.8072246E-04
   49.68000     -3.9448240E-04
   49.74000     -4.0814484E-04
   49.80000     -4.2167574E-04
   49.86000     -4.3504214E-04
   49.92000     -4.4821226E-04
   49.98000     -4.6115613E-04
   50.04000     -4.7384555E-04
   50.10000     -4.8625458E-04
   50.16000     -4.9835973E-04
   50.22000     -5.1014032E-04
   50.28000     -5.2157842E-04
   50.34000     -5.3265947E-04
   50.40000     -5.4337212E-04
   50.46000     -5.5370841E-04
   50.52000     -5.6366390E-04
   50.58000     -5.7323766E-04
   50.64000     -5.8243232E-04
   50.70000     -5.9125375E-04
   50.76000     -5.9971143E-04
   50.82000     -6.0781772E-04
   50.88000     -6.1558839E-04
   50.94000     -6.2304188E-04
   51.00000     -6.3019939E-04
   51.06000     -6.3708430E-04
   51.12000     -6.4372213E-04
   51.18000     -6.5013999E-04
   51.24000     -6.5636612E-04
   51.30000     -6.6242961E-04
   51.36000     -6.6836010E-04
   51.42000     -6.7418691E-04
   51.48000     -6.7993940E-04
   51.54000     -6.8564579E-04
   51.60000     -6.9133344E-04
   51.66000     -6.9702778E-04
   51.72000     -7.0275221E-04
   51.78000     -7.0852821E-04
   51.84000     -7.1437418E-04
   51.90000     -7.2030566E-04
   51.96000     -7.2633516E-04
   52.02000     -7.3247153E-04
   52.08000     -7.3872035E-04
   52.14000     -7.4508326E-04
   52.20000     -7.5155846E-04
   52.26000     -7.5814064E-04
   52.32000     -7.6482061E-04
   52.38000     -7.7158597E-04
   52.44000     -7.7842077E-04
   52.50000     -7.8530604E-04
   52.56000     -7.9221983E-04
   52.62000     -7.9913758E-04
   52.68000     -8.0603268E-04
   52.74000     -8.1287662E-04
   52.80000     -8.1963971E-04
   52.86000     -8.2629104E-04
   52.92000     -8.3279924E-04
   52.98000     -8.3913264E-04
   53.04000     -8.4525981E-04
   53.10000     -8.5114990E-04
   53.16000     -8.5677323E-04
   53.22000     -8.6210185E-04
   53.28000     -8.6710975E-04
   53.34000     -8.7177311E-04
   53.40000     -8.7607111E-04
   53.46000     -8.7998534E-04
   53.52000     -8.8350085E-04
   53.58000     -8.8660559E-04
   53.64000     -8.8929129E-04
   53.70000     -8.9155283E-04
   53.76000     -8.9338870E-04
   53.82000     -8.9480093E-04
   53.88000     -8.9579495E-04
   53.94000     -8.9637941E-04
   54.00000     -8.9656585E-04
   54.06000     -8.9636870E-04
   54.12000     -8.9580496E-04
   54.18000     -8.9489348E-04
   54.24000     -8.9365512E-04
   54.30000     -8.9211197E-04
   54.36000     -8.9028728E-04
   54.42000     -8.8820467E-04
   54.48000     -8.8588800E-04
   54.54000     -8.8336127E-04
   54.60000     -8.8064757E-04
   54.66000     -8.7776926E-04
   54.72000     -8.7474729E-04
   54.78000     -8.7160064E-04
   54.84000     -8.6834637E-04
   54.90000     -8.6499902E-04
   54.96000     -8.6157018E-04
   55.02000     -8.5806893E-04
   55.08000     -8.5450104E-04
   55.14000     -8.5086969E-04
   55.20000     -8.4717502E-04
   55.26000     -8.4341411E-04
   55.32000     -8.3958136E-04
   55.38000     -8.3566818E-04
   55.44000     -8.3166320E-04
   55.50000     -8.2755258E-04
   55.56000     -8.2332030E-04