  -2.400000      0.0000000E+00
  -2.340000      0.0000000E+00
  -2.280000      0.0000000E+00
  -2.220000      0.0000000E+00
  -2.160000      0.0000000E+00
  -2.100000     -1.2314135E-20
  -2.040000     -9.0905379E-20
  -1.980000     -2.5038806E-19
  -1.920000      1.7068262E-19
  -1.860000      4.3229729E-18
  -1.800000      2.0586977E-17
  -1.740000      6.3317460E-17
  -1.680000      1.4526369E-16
  -1.620000      2.5529909E-16
  -1.560000      3.2380376E-16
  -1.500000      1.9660781E-16
  -1.440000     -3.4264153E-16
  -1.380000     -1.4628162E-15
  -1.320000     -3.0902458E-15
  -1.260000     -4.7093012E-15
  -1.200000     -5.3177897E-15
  -1.140000     -3.7025602E-15
  -1.080000      9.2722082E-16
  -1.020000      8.1666504E-15
 -0.9600000      1.5982538E-14
 -0.9000000      2.1168185E-14
 -0.8400000      2.0915002E-14
 -0.7800000      1.5027096E-14
 -0.7200000      7.5043053E-15
 -0.6600000      5.8572451E-15
 -0.6000000      1.7125702E-14
 -0.5400000      4.1291894E-14
 -0.4800000      6.5059530E-14
 -0.4200000      6.0577147E-14
 -0.3600000     -6.8076008E-15
 -0.3000000     -1.6105257E-13
 -0.2400000     -3.9307961E-13
 -0.1800000     -6.4397158E-13
 -0.1200000     -8.0613776E-13
 -5.9999999E-02 -7.5074479E-13
  0.0000000E+00 -3.7911346E-13
  5.9999999E-02  3.1800056E-13
  0.1200000      1.2199546E-12
  0.1800000      2.0818434E-12
  0.2400000      2.5999281E-12
  0.3000000      2.5252194E-12
  0.3600000      1.7855100E-12
  0.4200000      5.5899935E-13
  0.4800000     -7.5141266E-13
  0.5400000     -1.6608405E-12
  0.6000000     -1.8275479E-12
  0.6600000     -1.2746809E-12
  0.7200000     -4.9781018E-13
  0.7800000     -3.6815191E-13
  0.8400000     -1.8105126E-12
  0.9000000     -5.3334915E-12
  0.9600000     -1.0579886E-11
   1.020000     -1.6104829E-11
   1.080000     -1.9548212E-11
   1.140000     -1.8245370E-11
   1.200000     -1.0150458E-11
   1.260000      5.2086282E-12
   1.320000      2.6098642E-11
   1.380000      4.8574561E-11
   1.440000      6.7219001E-11
   1.500000      7.6490404E-11
   1.560000      7.2299160E-11
   1.620000      5.3299608E-11
   1.680000      2.1434517E-11
   1.740000     -1.8498992E-11
   1.800000     -6.0146513E-11
   1.860000     -9.7305719E-11
   1.920000     -1.2541022E-10
   1.980000     -1.4220521E-10
   2.040000     -1.4733710E-10
   2.100000     -1.4103835E-10
   2.160000     -1.2253139E-10
   2.220000     -8.9013831E-11
   2.280000     -3.5990346E-11
   2.340000      4.0725145E-11
   2.400000      1.4167312E-10
   2.460000      2.6005978E-10
   2.520000      3.7907100E-10
   2.580000      4.7146259E-10
   2.640000      5.0213639E-10
   2.700000      4.3351520E-10
   2.760000      2.3259901E-10
   2.820000     -1.2205566E-10
   2.880000     -6.3528255E-10
   2.940000     -1.2935152E-09
   3.000000     -2.0666231E-09
   3.060000     -2.9126408E-09
   3.120000     -3.7838150E-09
   3.180000     -4.6321156E-09
   3.240000     -5.4127396E-09
   3.300000     -6.0850458E-09
   3.360000     -6.6114474E-09
   3.420000     -6.9556441E-09
   3.480000     -7.0818569E-09
   3.540000     -6.9563324E-09
   3.600000     -6.5513888E-09
   3.660000     -5.8511356E-09
   3.720000     -4.8570472E-09
   3.780000     -3.5912679E-09
   3.840000     -2.0960005E-09
   3.900000     -4.2843118E-10
   3.960000      1.3479169E-09
   4.020000      3.1732958E-09
   4.080000      5.0006044E-09
   4.140000      6.8005672E-09
   4.200000      8.5618606E-09
   4.260000      1.0286355E-08
   4.320000      1.1981227E-08
   4.380000      1.3650648E-08
   4.440000      1.5289897E-08
   4.500000      1.6883870E-08
   4.560000      1.8410427E-08
   4.620000      1.9847221E-08
   4.680000      2.1179392E-08
   4.740000      2.2405009E-08
   4.800000      2.3535886E-08
   4.860000      2.4592985E-08
   4.920000      2.5597663E-08
   4.980000      2.6561620E-08
   5.040000      2.7479309E-08
   5.100000      2.8325843E-08
   5.160000      2.9061841E-08
   5.220000      2.9644246E-08
   5.280000      3.0039981E-08
   5.340000      3.0238105E-08
   5.400000      3.0256341E-08
   5.460000      3.0139518E-08
   5.520000      2.9949899E-08
   5.580000      2.9752188E-08
   5.640000      2.9597473E-08
   5.700000      2.9510963E-08
   5.760000      2.9486991E-08
   5.820000      2.9492481E-08
   5.880000      2.9477381E-08
   5.940000      2.9388445E-08
   6.000000      2.9182019E-08
   6.060000      2.8832037E-08
   6.120000      2.8331478E-08
   6.180000      2.7687818E-08
   6.240000      2.6915119E-08
   6.300000      2.6026283E-08
   6.360000      2.5028710E-08
   6.420000      2.3924958E-08
   6.480000      2.2717963E-08
   6.540000      2.1418515E-08
   6.600000      2.0051717E-08
   6.660000      1.8659408E-08
   6.720000      1.7296934E-08
   6.780000      1.6024524E-08
   6.840000      1.4895610E-08
   6.900000      1.3945504E-08
   6.960000      1.3184083E-08
   7.020000      1.2595019E-08
   7.080000      1.2142261E-08
   7.140000      1.1782181E-08
   7.200000      1.1478029E-08
   7.260000      1.1212325E-08
   7.320000      1.0993292E-08
   7.380000      1.0853007E-08
   7.440000      1.0837534E-08
   7.500000      1.0991820E-08
   7.560000      1.1344036E-08
   7.620000      1.1894406E-08
   7.680000      1.2612274E-08
   7.740000      1.3442466E-08
   7.800000      1.4318903E-08
   7.860000      1.5180808E-08
   7.920000      1.5985915E-08
   7.980000      1.6716124E-08
   8.040000      1.7373678E-08
   8.100000      1.7969482E-08
   8.160000      1.8508032E-08
   8.220000      1.8974708E-08
   8.280000      1.9330422E-08
   8.340000      1.9515864E-08
   8.400000      1.9464096E-08
   8.460000      1.9117101E-08
   8.520000      1.8440367E-08
   8.580000      1.7430162E-08
   8.640000      1.6110695E-08
   8.700000      1.4522049E-08
   8.760000      1.2703108E-08
   8.820000      1.0675744E-08
   8.880000      8.4363769E-09
   8.940000      5.9585883E-09
   9.000000      3.2067113E-09
   9.060000      1.5624131E-10
   9.120000     -3.1858831E-09
   9.180000     -6.7686194E-09
   9.240000     -1.0497182E-08
   9.300000     -1.4247695E-08
   9.360000     -1.7892516E-08
   9.420000     -2.1328724E-08
   9.480000     -2.4500700E-08
   9.540000     -2.7409333E-08
   9.600000     -3.0104555E-08
   9.660000     -3.2663376E-08
   9.720000     -3.5160504E-08
   9.780000     -3.7640906E-08
   9.840000     -4.0103146E-08
   9.900000     -4.2498304E-08
   9.960000     -4.4744198E-08
   10.02000     -4.6749488E-08
   10.08000     -4.8439404E-08
   10.14000     -4.9775032E-08
   10.20000     -5.0760857E-08
   10.26000     -5.1439692E-08
   10.32000     -5.1878384E-08
   10.38000     -5.2150224E-08
   10.44000     -5.2320146E-08
   10.50000     -5.2436700E-08
   10.56000     -5.2531810E-08
   10.62000     -5.2626014E-08
   10.68000     -5.2735349E-08
   10.74000     -5.2875865E-08
   10.80000     -5.3063356E-08
   10.86000     -5.3308248E-08
   10.92000     -5.3607817E-08
   10.98000     -5.3939157E-08
   11.04000     -5.4256429E-08
   11.10000     -5.4494500E-08
   11.16000     -5.4579200E-08
   11.22000     -5.4442104E-08
   11.28000     -5.4036281E-08
   11.34000     -5.3348717E-08
   11.40000     -5.2405920E-08
   11.46000     -5.1270710E-08
   11.52000     -5.0030629E-08
   11.58000     -4.8780493E-08
   11.64000     -4.7603265E-08
   11.70000     -4.6553755E-08
   11.76000     -4.5648942E-08
   11.82000     -4.4867114E-08
   11.88000     -4.4155449E-08
   11.94000     -4.3443897E-08
   12.00000     -4.2661664E-08
   12.06000     -4.1752134E-08
   12.12000     -4.0682906E-08
   12.18000     -3.9448821E-08
   12.24000     -3.8068173E-08
   12.30000     -3.6573795E-08
   12.36000     -3.5002266E-08
   12.42000     -3.3384577E-08
   12.48000     -3.1740996E-08
   12.54000     -3.0081139E-08
   12.60000     -2.8408417E-08
   12.66000     -2.6726200E-08
   12.72000     -2.5042709E-08
   12.78000     -2.3372026E-08
   12.84000     -2.1730466E-08
   12.90000     -2.0129704E-08
   12.96000     -1.8569599E-08
   13.02000     -1.7034248E-08
   13.08000     -1.5493542E-08
   13.14000     -1.3910475E-08
   13.20000     -1.2251976E-08
   13.26000     -1.0499492E-08
   13.32000     -8.6554488E-09
   13.38000     -6.7432522E-09
   13.44000     -4.8009290E-09
   13.50000     -2.8709541E-09
   13.56000     -9.9011355E-10
   13.62000      8.1696450E-10
   13.68000      2.5387203E-09
   13.74000      4.1725179E-09
   13.80000      5.7180354E-09
   13.86000      7.1716832E-09
   13.92000      8.5248679E-09
   13.98000      9.7670574E-09
   14.04000      1.0892260E-08
   14.10000      1.1905781E-08
   14.16000      1.2827671E-08
   14.22000      1.3690399E-08
   14.28000      1.4530578E-08
   14.34000      1.5377140E-08
   14.40000      1.6240191E-08
   14.46000      1.7105030E-08
   14.52000      1.7934333E-08
   14.58000      1.8678586E-08
   14.64000      1.9291758E-08
   14.70000      1.9747015E-08
   14.76000      2.0046899E-08
   14.82000      2.0224288E-08
   14.88000      2.0333710E-08
   14.94000      2.0436287E-08
   15.00000      2.0583856E-08
   15.06000      2.0808180E-08
   15.12000      2.1118870E-08
   15.18000      2.1510091E-08
   15.24000      2.1972387E-08
   15.30000      2.2503883E-08
   15.36000      2.3115451E-08
   15.42000      2.3827120E-08
   15.48000      2.4656977E-08
   15.54000      2.5607243E-08
   15.60000      2.6653787E-08
   15.66000      2.7744232E-08
   15.72000      2.8806445E-08
   15.78000      2.9765044E-08
   15.84000      3.0560283E-08
   15.90000      3.1162514E-08
   15.96000      3.1577073E-08
   16.02000      3.1838006E-08
   16.08000      3.1993181E-08
   16.14000      3.2086447E-08
   16.20000      3.2143284E-08
   16.26000      3.2164831E-08
   16.32000      3.2131943E-08
   16.38000      3.2017113E-08
   16.44000      3.1799569E-08
   16.50000      3.1478173E-08
   16.56000      3.1077718E-08
   16.62000      3.0647062E-08
   16.68000      3.0250042E-08
   16.74000      2.9952336E-08
   16.80000      2.9808220E-08
   16.86000      2.9850753E-08
   16.92000      3.0087477E-08
   16.98000      3.0502076E-08
   17.04000      3.1060960E-08
   17.10000      3.1722543E-08
   17.16000      3.2446628E-08
   17.22000      3.3201424E-08
   17.28000      3.3966327E-08
   17.34000      3.4730004E-08
   17.40000      3.5484351E-08
   17.46000      3.6216541E-08
   17.52000      3.6901788E-08
   17.58000      3.7499714E-08
   17.64000      3.7955921E-08
   17.70000      3.8208960E-08
   17.76000      3.8200923E-08
   17.82000      3.7888658E-08
   17.88000      3.7252228E-08
   17.94000      3.6298047E-08
   18.00000      3.5055706E-08
   18.06000      3.3569698E-08
   18.12000      3.1888689E-08
   18.18000      3.0055833E-08
   18.24000      2.8103189E-08
   18.30000      2.6051797E-08
   18.36000      2.3917025E-08
   18.42000      2.1716914E-08
   18.48000      1.9480131E-08
   18.54000      1.7250214E-08
   18.60000      1.5084042E-08
   18.66000      1.3044498E-08
   18.72000      1.1189416E-08
   18.78000      9.5603419E-09
   18.84000      8.1748350E-09
   18.90000      7.0247888E-09
   18.96000      6.0811391E-09
   19.02000      5.3029661E-09
   19.08000      4.6474442E-09
   19.14000      4.0769899E-09
   19.20000      3.5612826E-09
   19.26000      3.0741596E-09
   19.32000      2.5876585E-09
   19.38000      2.0667716E-09
   19.44000      1.4681986E-09
   19.50000      7.4465328E-10
   19.56000     -1.4618630E-10
   19.62000     -1.2311206E-09
   19.68000     -2.5131857E-09
   19.74000     -3.9689008E-09
   19.80000     -5.5521321E-09
   19.86000     -7.2031927E-09
   19.92000     -8.8599199E-09
   19.98000     -1.0466978E-08
   20.04000     -1.1980699E-08
   20.10000     -1.3368879E-08
   20.16000     -1.4607241E-08
   20.22000     -1.5675591E-08
   20.28000     -1.6556610E-08
   20.34000     -1.7238735E-08
   20.40000     -1.7722318E-08
   20.46000     -1.8026384E-08
   20.52000     -1.8192519E-08
   20.58000     -1.8283323E-08
   20.64000     -1.8374822E-08
   20.70000     -1.8544679E-08
   20.76000     -1.8859650E-08
   20.82000     -1.9365960E-08
   20.88000     -2.0085002E-08
   20.94000     -2.1014566E-08
   21.00000     -2.2133845E-08
   21.06000     -2.3409356E-08
   21.12000     -2.4799371E-08
   21.18000     -2.6255817E-08
   21.24000     -2.7724397E-08
   21.30000     -2.9144838E-08
   21.36000     -3.0453119E-08
   21.42000     -3.1586584E-08
   21.48000     -3.2491315E-08
   21.54000     -3.3129915E-08
   21.60000     -3.3487616E-08
   21.66000     -3.3574942E-08
   21.72000     -3.3426620E-08
   21.78000     -3.3097074E-08
   21.84000     -3.2653869E-08
   21.90000     -3.2170128E-08
   21.96000     -3.1716976E-08
   22.02000     -3.1356592E-08
   22.08000     -3.1136590E-08
   22.14000     -3.1086532E-08
   22.20000     -3.1217422E-08
   22.26000     -3.1524451E-08
   22.32000     -3.1992382E-08
   22.38000     -3.2601928E-08
   22.44000     -3.3334640E-08
   22.50000     -3.4174459E-08
   22.56000     -3.5105309E-08
   22.62000     -3.6106034E-08
   22.68000     -3.7145714E-08
   22.74000     -3.8182531E-08
   22.80000     -3.9168171E-08
   22.86000     -4.0057344E-08
   22.92000     -4.0819184E-08
   22.98000     -4.1446008E-08
   23.04000     -4.1955026E-08
   23.10000     -4.2381401E-08
   23.16000     -4.2764160E-08
   23.22000     -4.3129909E-08
   23.28000     -4.3480480E-08
   23.34000     -4.3789683E-08
   23.40000     -4.4010989E-08
   23.46000     -4.4094051E-08
   23.52000     -4.4004384E-08
   23.58000     -4.3739323E-08
   23.64000     -4.3334545E-08
   23.70000     -4.2858858E-08
   23.76000     -4.2398863E-08
   23.82000     -4.2038614E-08
   23.88000     -4.1840632E-08
   23.94000     -4.1833946E-08
   24.00000     -4.2012040E-08
   24.06000     -4.2340218E-08
   24.12000     -4.2769063E-08
   24.18000     -4.3249102E-08
   24.24000     -4.3742006E-08
   24.30000     -4.4225455E-08
   24.36000     -4.4691120E-08
   24.42000     -4.5137725E-08
   24.48000     -4.5562537E-08
   24.54000     -4.5954941E-08
   24.60000     -4.6294861E-08
   24.66000     -4.6556746E-08
   24.72000     -4.6717798E-08
   24.78000     -4.6767266E-08
   24.84000     -4.6712984E-08
   24.90000     -4.6581981E-08
   24.96000     -4.6413817E-08
   25.02000     -4.6248090E-08
   25.08000     -4.6109879E-08
   25.14000     -4.5998238E-08
   25.20000     -4.5882487E-08
   25.26000     -4.5708543E-08
   25.32000     -4.5414268E-08
   25.38000     -4.4949196E-08
   25.44000     -4.4291884E-08
   25.50000     -4.3458559E-08
   25.56000     -4.2499153E-08
   25.62000     -4.1481510E-08
   25.68000     -4.0468809E-08
   25.74000     -3.9498183E-08
   25.80000     -3.8568484E-08
   25.86000     -3.7642057E-08
   25.92000     -3.6660268E-08
   25.98000     -3.5567432E-08
   26.04000     -3.4334395E-08
   26.10000     -3.2972828E-08
   26.16000     -3.1534746E-08
   26.22000     -3.0096924E-08
   26.28000     -2.8735622E-08
   26.34000     -2.7500594E-08
   26.40000     -2.6397755E-08
   26.46000     -2.5386839E-08
   26.52000     -2.4395119E-08
   26.58000     -2.3342599E-08
   26.64000     -2.2170198E-08
   26.70000     -2.0861290E-08
   26.76000     -1.9449352E-08
   26.82000     -1.8009096E-08
   26.88000     -1.6633971E-08
   26.94000     -1.5407483E-08
   27.00000     -1.4377811E-08
   27.06000     -1.3544086E-08
   27.12000     -1.2858934E-08
   27.18000     -1.2246421E-08
   27.24000     -1.1629463E-08
   27.30000     -1.0957639E-08
   27.36000     -1.0226172E-08
   27.42000     -9.4799111E-09
   27.48000     -8.8011776E-09
   27.54000     -8.2857685E-09
   27.60000     -8.0151592E-09
   27.66000     -8.0338483E-09
   27.72000     -8.3385201E-09
   27.78000     -8.8813037E-09
   27.84000     -9.5844896E-09
   27.90000     -1.0360620E-08
   27.96000     -1.1130838E-08
   28.02000     -1.1836108E-08
   28.08000     -1.2439253E-08
   28.14000     -1.2919484E-08
   28.20000     -1.3263538E-08
   28.26000     -1.3458141E-08
   28.32000     -1.3487239E-08
   28.38000     -1.3334980E-08
   28.44000     -1.2992975E-08
   28.50000     -1.2468623E-08
   28.56000     -1.1790901E-08
   28.62000     -1.1010854E-08
   28.68000     -1.0195738E-08
   28.74000     -9.4178016E-09
   28.80000     -8.7405825E-09
   28.86000     -8.2065883E-09
   28.92000     -7.8302884E-09
   28.98000     -7.5990876E-09
   29.04000     -7.4826696E-09
   29.10000     -7.4483792E-09
   29.16000     -7.4779125E-09
   29.22000     -7.5795645E-09
   29.28000     -7.7911091E-09
   29.34000     -8.1712113E-09
   29.40000     -8.7811509E-09
   29.46000     -9.6623820E-09
   29.52000     -1.0817489E-08
   29.58000     -1.2201524E-08
   29.64000     -1.3727549E-08
   29.70000     -1.5285419E-08
   29.76000     -1.6768215E-08
   29.82000     -1.8097952E-08
   29.88000     -1.9242398E-08
   29.94000     -2.0217898E-08
   30.00000     -2.1077948E-08
   30.06000     -2.1891964E-08
   30.12000     -2.2721659E-08
   30.18000     -2.3602704E-08
   30.24000     -2.4536813E-08
   30.30000     -2.5495611E-08
   30.36000     -2.6433565E-08
   30.42000     -2.7304814E-08
   30.48000     -2.8078126E-08
   30.54000     -2.8745655E-08
   30.60000     -2.9323621E-08
   30.66000     -2.9845783E-08
   30.72000     -3.0352275E-08
   30.78000     -3.0877583E-08
   30.84000     -3.1440845E-08
   30.90000     -3.2041005E-08
   30.96000     -3.2657617E-08
   31.02000     -3.3256747E-08
   31.08000     -3.3799996E-08
   31.14000     -3.4253816E-08
   31.20000     -3.4596297E-08
   31.26000     -3.4819362E-08
   31.32000     -3.4925915E-08
   31.38000     -3.4923325E-08
   31.44000     -3.4816033E-08
   31.50000     -3.4600411E-08
   31.56000     -3.4264342E-08
   31.62000     -3.3791832E-08
   31.68000     -3.3171141E-08
   31.74000     -3.2403157E-08
   31.80000     -3.1506794E-08
   31.86000     -3.0518983E-08
   31.92000     -2.9489138E-08
   31.98000     -2.8469779E-08
   32.04000     -2.7506426E-08
   32.10000     -2.6629950E-08
   32.16000     -2.5853629E-08
   32.22000     -2.5175426E-08
   32.28000     -2.4584422E-08
   32.34000     -2.4069028E-08
   32.40000     -2.3624288E-08
   32.46000     -2.3255904E-08
   32.52000     -2.2979700E-08
   32.58000     -2.2816733E-08
   32.64000     -2.2785736E-08
   32.70000     -2.2895644E-08
   32.76000     -2.3141231E-08
   32.82000     -2.3503981E-08
   32.88000     -2.3958572E-08
   32.94000     -2.4482951E-08
   33.00000     -2.5068157E-08
   33.06000     -2.5723466E-08
   33.12000     -2.6473693E-08
   33.18000     -2.7348293E-08
   33.24000     -2.8365378E-08
   33.30000     -2.9516370E-08
   33.36000     -3.0757583E-08
   33.42000     -3.2013048E-08
   33.48000     -3.3188950E-08
   33.54000     -3.4195427E-08
   33.60000     -3.4968533E-08
   33.66000     -3.5484465E-08
   33.72000     -3.5760841E-08
   33.78000     -3.5844440E-08
   33.84000     -3.5789789E-08
   33.90000     -3.5636425E-08
   33.96000     -3.5392965E-08
   34.02000     -3.5033477E-08
   34.08000     -3.4507057E-08
   34.14000     -3.3756535E-08
   34.20000     -3.2739187E-08
   34.26000     -3.1442003E-08
   34.32000     -2.9886412E-08
   34.38000     -2.8121658E-08
   34.44000     -2.6210094E-08
   34.50000     -2.4210319E-08
   34.56000     -2.2164411E-08
   34.62000     -2.0093346E-08
   34.68000     -1.8001360E-08
   34.74000     -1.5886666E-08
   34.80000     -1.3753795E-08
   34.86000     -1.1622672E-08
   34.92000     -9.5311563E-09
   34.98000     -7.5304758E-09
   35.04000     -5.6756027E-09
   35.10000     -4.0143009E-09
   35.16000     -2.5787410E-09
   35.22000     -1.3822975E-09
   35.28000     -4.2203513E-10
   35.34000      3.1467839E-10
   35.40000      8.4231772E-10
   35.46000      1.1710634E-09
   35.52000      1.3043330E-09
   35.58000      1.2402683E-09
   35.64000      9.7589425E-10
   35.70000      5.1176913E-10
   35.76000     -1.4498740E-10
   35.82000     -9.8049191E-10
   35.88000     -1.9766113E-09
   35.94000     -3.1149361E-09
   36.00000     -4.3803952E-09
   36.06000     -5.7629137E-09
   36.12000     -7.2563253E-09
   36.18000     -8.8548466E-09
   36.24000     -1.0548323E-08
   36.30000     -1.2317956E-08
   36.36000     -1.4134080E-08
   36.42000     -1.5956983E-08
   36.48000     -1.7740900E-08
   36.54000     -1.9440439E-08
   36.60000     -2.1018094E-08
   36.66000     -2.2451204E-08
   36.72000     -2.3736771E-08
   36.78000     -2.4893083E-08
   36.84000     -2.5957636E-08
   36.90000     -2.6981569E-08
   36.96000     -2.8021519E-08
   37.02000     -2.9130332E-08
   37.08000     -3.0348367E-08
   37.14000     -3.1697112E-08
   37.20000     -3.3176615E-08
   37.26000     -3.4767371E-08
   37.32000     -3.6436376E-08
   37.38000     -3.8145945E-08
   37.44000     -3.9862822E-08
   37.50000     -4.1565023E-08
   37.56000     -4.3244206E-08
   37.62000     -4.4902702E-08
   37.68000     -4.6546198E-08
   37.74000     -4.8174606E-08
   37.80000     -4.9774389E-08
   37.86000     -5.1315268E-08
   37.92000     -5.2752522E-08
   37.98000     -5.4034000E-08
   38.04000     -5.5109279E-08
   38.10000     -5.5937448E-08
   38.16000     -5.6490819E-08
   38.22000     -5.6753755E-08
   38.28000     -5.6717745E-08
   38.34000     -5.6375701E-08
   38.40000     -5.5718356E-08
   38.46000     -5.4734812E-08
   38.52000     -5.3417065E-08
   38.58000     -5.1766545E-08
   38.64000     -4.9799606E-08
   38.70000     -4.7549335E-08
   38.76000     -4.5062560E-08
   38.82000     -4.2393051E-08
   38.88000     -3.9593353E-08
   38.94000     -3.6708297E-08
   39.00000     -3.3772405E-08
   39.06000     -3.0811613E-08
   39.12000     -2.7847902E-08
   39.18000     -2.4904365E-08
   39.24000     -2.2008059E-08
   39.30000     -1.9189182E-08
   39.36000     -1.6476870E-08
   39.42000     -1.3893428E-08
   39.48000     -1.1449673E-08
   39.54000     -9.1436485E-09
   39.60000     -6.9636790E-09
   39.66000     -4.8949578E-09
   39.72000     -2.9274050E-09
   39.78000     -1.0619349E-09
   39.84000      6.8723310E-10
   39.90000      2.2951898E-09
   39.96000      3.7331724E-09
   40.02000      4.9775362E-09
   40.08000      6.0181944E-09
   40.14000      6.8642203E-09
   40.20000      7.5453155E-09
   40.26000      8.1091116E-09
   40.32000      8.6152925E-09
   40.38000      9.1280015E-09
   40.44000      9.7080513E-09
   40.50000      1.0406076E-08
   40.56000      1.1257437E-08
   40.62000      1.2279376E-08
   40.68000      1.3470658E-08
   40.74000      1.4813681E-08
   40.80000      1.6278587E-08
   40.86000      1.7828402E-08
   40.92000      1.9423908E-08
   40.98000      2.1026979E-08
   41.04000      2.2601691E-08
   41.10000      2.4113477E-08
   41.16000      2.5527598E-08
   41.22000      2.6808619E-08
   41.28000      2.7922377E-08
   41.34000      2.8840802E-08
   41.40000      2.9548515E-08
   41.46000      3.0048927E-08
   41.52000      3.0367193E-08
   41.58000      3.0548076E-08
   41.64000      3.0648380E-08
   41.70000      3.0725548E-08
   41.76000      3.0825532E-08
   41.82000      3.0973581E-08
   41.88000      3.1170803E-08
   41.94000      3.1397693E-08
   42.00000      3.1623522E-08
   42.06000      3.1818569E-08
   42.12000      3.1965332E-08
   42.18000      3.2064900E-08
   42.24000      3.2136533E-08
   42.30000      3.2210469E-08
   42.36000      3.2316603E-08
   42.42000      3.2472922E-08
   42.48000      3.2677992E-08
   42.54000      3.2910339E-08
   42.60000      3.3135127E-08
   42.66000      3.3315985E-08
   42.72000      3.3427686E-08
   42.78000      3.3465099E-08
   42.84000      3.3445048E-08
   42.90000      3.3400294E-08
   42.96000      3.3367812E-08
   43.02000      3.3375716E-08
   43.08000      3.3433604E-08
   43.14000      3.3529833E-08
   43.20000      3.3636770E-08
   43.26000      3.3722078E-08
   43.32000      3.3762227E-08
   43.38000      3.3753849E-08
   43.44000      3.3719719E-08
   43.50000      3.3708343E-08
   43.56000      3.3788318E-08
   43.62000      3.4040614E-08
   43.68000      3.4552077E-08
   43.74000      3.5413013E-08
   43.80000      3.6719985E-08
   43.86000      3.8583288E-08
   43.92000      4.1137220E-08
   43.98000      4.4550521E-08
   44.04000      4.9034664E-08
   44.10000      5.4848549E-08
   44.16000      6.2299627E-08
   44.22000      7.1742761E-08
   44.28000      8.3579309E-08
   44.34000      9.8259278E-08
   44.40000      1.1628902E-07
   44.46000      1.3824595E-07
   44.52000      1.6480013E-07
   44.58000      1.9674115E-07
   44.64000      2.3500765E-07
   44.70000      2.8071619E-07
   44.76000      3.3518762E-07
   44.82000      3.9996971E-07
   44.88000      4.7685688E-07
   44.94000      5.6791026E-07
   45.00000      6.7548001E-07
   45.06000      8.0223487E-07
   45.12000      9.5120106E-07
   45.18000      1.1258111E-06
   45.24000      1.3299629E-06
   45.30000      1.5680861E-06
   45.36000      1.8452113E-06
   45.42000      2.1670419E-06
   45.48000      2.5400220E-06
   45.54000      2.9714035E-06
   45.60000      3.4693139E-06
   45.66000      4.0428240E-06
   45.72000      4.7020289E-06
   45.78000      5.4581346E-06
   45.84000      6.3235643E-06
   45.90000      7.3120791E-06
   45.96000      8.4389003E-06
   46.02000      9.7208394E-06
   46.08000      1.1176419E-05
   46.14000      1.2825984E-05
   46.20000      1.4691787E-05
   46.26000      1.6798085E-05
   46.32000      1.9171208E-05
   46.38000      2.1839638E-05
   46.44000      2.4834113E-05
   46.50000      2.8187709E-05
   46.56000      3.1935939E-05
   46.62000      3.6116824E-05
   46.68000      4.0770989E-05
   46.74000      4.5941666E-05
   46.80000      5.1674680E-05
   46.86000      5.8018431E-05
   46.92000      6.5023793E-05
   46.98000      7.2744013E-05
   47.04000      8.1234619E-05
   47.10000      9.0553287E-05
   47.16000      1.0075969E-04
   47.22000      1.1191533E-04
   47.28000      1.2408329E-04
   47.34000      1.3732797E-04
   47.40000      1.5171476E-04
   47.46000      1.6730967E-04
   47.52000      1.8417882E-04
   47.58000      2.0238802E-04
   47.64000      2.2200221E-04
   47.70000      2.4308497E-04
   47.76000      2.6569780E-04
   47.82000      2.8989985E-04
   47.88000      3.1574705E-04
   47.94000      3.4329155E-04
   48.00000      3.7258104E-04
   48.06000      4.0365811E-04
   48.12000      4.3655932E-04
   48.18000      4.7131479E-04
   48.24000      5.0794729E-04
   48.30000      5.4647168E-04
   48.36000      5.8689434E-04
   48.42000      6.2921236E-04
   48.48000      6.7341333E-04
   48.54000      7.1947486E-04
   48.60000      7.6736376E-04
   48.66000      8.1703614E-04
   48.72000      8.6843706E-04
   48.78000      9.2149997E-04
   48.84000      9.7614719E-04
   48.90000      1.0322897E-03
   48.96000      1.0898274E-03
   49.02000      1.1486494E-03
   49.08000      1.2086341E-03
   49.14000      1.2696505E-03
   49.20000      1.3315582E-03
   49.26000      1.3942088E-03
   49.32000      1.4574460E-03
   49.38000      1.5211076E-03
   49.44000      1.5850262E-03
   49.50000      1.6490299E-03
   49.56000      1.7129447E-03
   49.62000      1.7765950E-03
   49.68000      1.8398056E-03
   49.74000      1.9024027E-03
   49.80000      1.9642164E-03
   49.86000      2.0250808E-03
   49.92000      2.0848371E-03
   49.98000      2.1433344E-03
   50.04000      2.2004307E-03
   50.10000      2.2559953E-03
   50.16000      2.3099086E-03
   50.22000      2.3620650E-03
   50.28000      2.4123732E-03
   50.34000      2.4607566E-03
   50.40000      2.5071548E-03
   50.46000      2.5515237E-03
   50.52000      2.5938358E-03
   50.58000      2.6340808E-03
   50.64000      2.6722662E-03
   50.70000      2.7084153E-03
   50.76000      2.7425685E-03
   50.82000      2.7747818E-03
   50.88000      2.8051261E-03
   50.94000      2.8336858E-03
   51.00000      2.8605582E-03
   51.06000      2.8858518E-03
   51.12000      2.9096843E-03
   51.18000      2.9321818E-03
   51.24000      2.9534774E-03
   51.30000      2.9737083E-03
   51.36000      2.9930135E-03
   51.42000      3.0115333E-03
   51.48000      3.0294056E-03
   51.54000      3.0467652E-03
   51.60000      3.0637416E-03
   51.66000      3.0804574E-03
   51.72000      3.0970261E-03
   51.78000      3.1135506E-03
   51.84000      3.1301228E-03
   51.90000      3.1468209E-03
   51.96000      3.1637091E-03
   52.02000      3.1808363E-03
   52.08000      3.1982367E-03
   52.14000      3.2159272E-03
   52.20000      3.2339094E-03
   52.26000      3.2521691E-03
   52.32000      3.2706757E-03
   52.38000      3.2893850E-03
   52.44000      3.3082371E-03
   52.50000      3.3271594E-03
   52.56000      3.3460681E-03
   52.62000      3.3648671E-03
   52.68000      3.3834535E-03
   52.74000      3.4017158E-03
   52.80000      3.4195378E-03
   52.86000      3.4367996E-03
   52.92000      3.4533797E-03
   52.98000      3.4691566E-03
   53.04000      3.4840121E-03
   53.10000      3.4978313E-03
   53.16000      3.5105057E-03
   53.22000      3.5219351E-03
   53.28000      3.5320290E-03
   53.34000      3.5407082E-03
   53.40000      3.5479057E-03
   53.46000      3.5535672E-03
   53.52000      3.5576522E-03
   53.58000      3.5601363E-03
   53.64000      3.5610090E-03
   53.70000      3.5602760E-03
   53.76000      3.5579586E-03
   53.82000      3.5540934E-03
   53.88000      3.5487323E-03
   53.94000      3.5419397E-03
   54.00000      3.5337936E-03
   54.06000      3.5243826E-03
   54.12000      3.5138056E-03
   54.18000      3.5021701E-03
   54.24000      3.4895909E-03
   54.30000      3.4761881E-03
   54.36000      3.4620857E-03
   54.42000      3.4474097E-03
   54.48000      3.4322855E-03
   54.54000      3.4168360E-03
   54.60000      3.4011807E-03
   54.66000      3.3854321E-03
   54.72000      3.3696967E-03
   54.78000      3.3540712E-03
   54.84000      3.3386420E-03
   54.90000      3.3234849E-03
   54.96000      3.3086627E-03
   55.02000      3.2942246E-03
   55.08000      3.2802064E-03
   55.14000      3.2666293E-03
   55.20000      3.2535000E-03
   55.26000      3.2408105E-03
   55.32000      3.2285384E-03
   55.38000      3.2166471E-03
   55.44000      3.2050875E-03
   55.50000      3.1937978E-03
   55.56000      3.1827053E-03