  -2.400000      0.0000000E+00
  -2.340000      0.0000000E+00
  -2.280000      0.0000000E+00
  -2.220000      0.0000000E+00
  -2.160000     -2.3573836E-19
  -2.100000     -1.3465840E-18
  -2.040000     -3.7027528E-18
  -1.980000     -5.9825796E-18
  -1.920000     -4.9572020E-18
  -1.860000      9.3769463E-19
  -1.800000      4.4438277E-18
  -1.740000     -1.5586955E-17
  -1.680000     -8.7710255E-17
  -1.620000     -2.2369500E-16
  -1.560000     -3.8236960E-16
  -1.500000     -4.4220925E-16
  -1.440000     -2.1045656E-16
  -1.380000      5.1339260E-16
  -1.320000      1.8283577E-15
  -1.260000      3.6155538E-15
  -1.200000      5.4676316E-15
  -1.140000      6.7043174E-15
  -1.080000      6.4803653E-15
  -1.020000      3.9601357E-15
 -0.9600000     -1.4730392E-15
 -0.9000000     -9.9810636E-15
 -0.8400000     -2.0992180E-14
 -0.7800000     -3.2880921E-14
 -0.7200000     -4.2698074E-14
 -0.6600000     -4.6172078E-14
 -0.6000000     -3.8281939E-14
 -0.5400000     -1.4616145E-14
 -0.4800000      2.6573658E-14
 -0.4200000      8.2166485E-14
 -0.3600000      1.4274496E-13
 -0.3000000      1.9294631E-13
 -0.2400000      2.1417243E-13
 -0.1800000      1.8940116E-13
 -0.1200000      1.0889277E-13
 -5.9999999E-02 -2.5031523E-14
  0.0000000E+00 -1.9590061E-13
  5.9999999E-02 -3.7467130E-13
  0.1200000     -5.2474686E-13
  0.1800000     -6.0911703E-13
  0.2400000     -5.9777340E-13
  0.3000000     -4.7375884E-13
  0.3600000     -2.3690381E-13
  0.4200000      9.4952258E-14
  0.4800000      4.8704687E-13
  0.5400000      8.9085499E-13
  0.6000000      1.2491777E-12
  0.6600000      1.5028211E-12
  0.7200000      1.5979438E-12
  0.7800000      1.4925225E-12
  0.8400000      1.1603603E-12
  0.9000000      5.9224143E-13
  0.9600000     -2.0400311E-13
   1.020000     -1.2006452E-12
   1.080000     -2.3402435E-12
   1.140000     -3.5175367E-12
   1.200000     -4.5577379E-12
   1.260000     -5.2029635E-12
   1.320000     -5.1229160E-12
   1.380000     -3.9637794E-12
   1.440000     -1.4388626E-12
   1.500000      2.5522152E-12
   1.560000      7.8062964E-12
   1.620000      1.3742027E-11
   1.680000      1.9405259E-11
   1.740000      2.3574231E-11
   1.800000      2.4956624E-11
   1.860000      2.2442765E-11
   1.920000      1.5361460E-11
   1.980000      3.6834524E-12
   2.040000     -1.1868144E-11
   2.100000     -2.9817371E-11
   2.160000     -4.8038611E-11
   2.220000     -6.3941276E-11
   2.280000     -7.4707872E-11
   2.340000     -7.7557800E-11
   2.400000     -7.0011351E-11
   2.460000     -5.0128204E-11
   2.520000     -1.6692378E-11
   2.580000      3.0684875E-11
   2.640000      9.1565457E-11
   2.700000      1.6479437E-10
   2.760000      2.4870273E-10
   2.820000      3.4136369E-10
   2.880000      4.4084517E-10
   2.940000      5.4539989E-10
   3.000000      6.5354894E-10
   3.060000      7.6404649E-10
   3.120000      8.7575280E-10
   3.180000      9.8747943E-10
   3.240000      1.0978836E-09
   3.300000      1.2054732E-09
   3.360000      1.3087353E-09
   3.420000      1.4063418E-09
   3.480000      1.4973374E-09
   3.540000      1.5812196E-09
   3.600000      1.6578687E-09
   3.660000      1.7273688E-09
   3.720000      1.7898286E-09
   3.780000      1.8453264E-09
   3.840000      1.8940303E-09
   3.900000      1.9364375E-09
   3.960000      1.9735606E-09
   4.020000      2.0068731E-09
   4.080000      2.0378925E-09
   4.140000      2.0674569E-09
   4.200000      2.0949227E-09
   4.260000      2.1175965E-09
   4.320000      2.1306863E-09
   4.380000      2.1278888E-09
   4.440000      2.1025139E-09
   4.500000      2.0488624E-09
   4.560000      1.9635011E-09
   4.620000      1.8461193E-09
   4.680000      1.6997850E-09
   4.740000      1.5305955E-09
   4.800000      1.3468664E-09
   4.860000      1.1581081E-09
   4.920000      9.7408326E-10
   4.980000      8.0419715E-10
   5.040000      6.5736172E-10
   5.100000      5.4229349E-10
   5.160000      4.6801746E-10
   5.220000      4.4422438E-10
   5.280000      4.8114779E-10
   5.340000      5.8880734E-10
   5.400000      7.7575901E-10
   5.460000      1.0477650E-09
   5.520000      1.4069083E-09
   5.580000      1.8515515E-09
   5.640000      2.3772100E-09
   5.700000      2.9780267E-09
   5.760000      3.6482855E-09
   5.820000      4.3834003E-09
   5.880000      5.1800639E-09
   5.940000      6.0356133E-09
   6.000000      6.9469488E-09
   6.060000      7.9094642E-09
   6.120000      8.9162970E-09
   6.180000      9.9579962E-09
   6.240000      1.1022488E-08
   6.300000      1.2095180E-08
   6.360000      1.3159167E-08
   6.420000      1.4195605E-08
   6.480000      1.5184439E-08
   6.540000      1.6105547E-08
   6.600000      1.6940195E-08
   6.660000      1.7672431E-08
   6.720000      1.8290034E-08
   6.780000      1.8784769E-08
   6.840000      1.9151964E-08
   6.900000      1.9389772E-08
   6.960000      1.9498554E-08
   7.020000      1.9480716E-08
   7.080000      1.9341003E-08
   7.140000      1.9086892E-08
   7.200000      1.8728572E-08
   7.260000      1.8278179E-08
   7.320000      1.7748251E-08
   7.380000      1.7149876E-08
   7.440000      1.6491278E-08
   7.500000      1.5777422E-08
   7.560000      1.5010942E-08
   7.620000      1.4194055E-08
   7.680000      1.3330727E-08
   7.740000      1.2428308E-08
   7.800000      1.1497960E-08
   7.860000      1.0553807E-08
   7.920000      9.6110693E-09
   7.980000      8.6837844E-09
   8.040000      7.7826341E-09
   8.100000      6.9132944E-09
   8.160000      6.0754703E-09
   8.220000      5.2627316E-09
   8.280000      4.4632436E-09
   8.340000      3.6614620E-09
   8.400000      2.8407237E-09
   8.460000      1.9863158E-09
   8.520000      1.0882866E-09
   8.580000      1.4309171E-10
   8.640000     -8.4659058E-10
   8.700000     -1.8739603E-09
   8.760000     -2.9314604E-09
   8.820000     -4.0142325E-09
   8.880000     -5.1224389E-09
   8.940000     -6.2617280E-09
   9.000000     -7.4418822E-09
   9.060000     -8.6743928E-09
   9.120000     -9.9699573E-09
   9.180000     -1.1336671E-08
   9.240000     -1.2779082E-08
   9.300000     -1.4297827E-08
   9.360000     -1.5889357E-08
   9.420000     -1.7545533E-08
   9.480000     -1.9253273E-08
   9.540000     -2.0994785E-08
   9.600000     -2.2748790E-08
   9.660000     -2.4492705E-08
   9.720000     -2.6205262E-08
   9.780000     -2.7868694E-08
   9.840000     -2.9469811E-08
   9.900000     -3.0999825E-08
   9.960000     -3.2453261E-08
   10.02000     -3.3826772E-08
   10.08000     -3.5118287E-08
   10.14000     -3.6326618E-08
   10.20000     -3.7451105E-08
   10.26000     -3.8490690E-08
   10.32000     -3.9442234E-08
   10.38000     -4.0298314E-08
   10.44000     -4.1045336E-08
   10.50000     -4.1662876E-08
   10.56000     -4.2124672E-08
   10.62000     -4.2401215E-08
   10.68000     -4.2463210E-08
   10.74000     -4.2285155E-08
   10.80000     -4.1848381E-08
   10.86000     -4.1143490E-08
   10.92000     -4.0172328E-08
   10.98000     -3.8949622E-08
   11.04000     -3.7503948E-08
   11.10000     -3.5877417E-08
   11.16000     -3.4123357E-08
   11.22000     -3.2301589E-08
   11.28000     -3.0471895E-08
   11.34000     -2.8686923E-08
   11.40000     -2.6986216E-08
   11.46000     -2.5392811E-08
   11.52000     -2.3913074E-08
   11.58000     -2.2539334E-08
   11.64000     -2.1254333E-08
   11.70000     -2.0036145E-08
   11.76000     -1.8862604E-08
   11.82000     -1.7714836E-08
   11.88000     -1.6579881E-08
   11.94000     -1.5452493E-08
   12.00000     -1.4336043E-08
   12.06000     -1.3242168E-08
   12.12000     -1.2188830E-08
   12.18000     -1.1196776E-08
   12.24000     -1.0284989E-08
   12.30000     -9.4662163E-09
   12.36000     -8.7437861E-09
   12.42000     -8.1105691E-09
   12.48000     -7.5501978E-09
   12.54000     -7.0399202E-09
   12.60000     -6.5540577E-09
   12.66000     -6.0671441E-09
   12.72000     -5.5562781E-09
   12.78000     -5.0028182E-09
   12.84000     -4.3938480E-09
   12.90000     -3.7237677E-09
   12.96000     -2.9959466E-09
   13.02000     -2.2239135E-09
   13.08000     -1.4313253E-09
   13.14000     -6.5011785E-10
   13.20000      8.3273007E-11
   13.26000      7.3314882E-10
   13.32000      1.2703283E-09
   13.38000      1.6774075E-09
   13.44000      1.9525810E-09
   13.50000      2.1114042E-09
   13.56000      2.1862150E-09
   13.62000      2.2232238E-09
   13.68000      2.2775506E-09
   13.74000      2.4067601E-09
   13.80000      2.6637266E-09
   13.86000      3.0898679E-09
   13.92000      3.7098209E-09
   13.98000      4.5284261E-09
   14.04000      5.5304619E-09
   14.10000      6.6830412E-09
   14.16000      7.9401419E-09
   14.22000      9.2484465E-09
   14.28000      1.0553609E-08
   14.34000      1.1806076E-08
   14.40000      1.2965780E-08
   14.46000      1.4005090E-08
   14.52000      1.4909688E-08
   14.58000      1.5677340E-08
   14.64000      1.6314912E-08
   14.70000      1.6834386E-08
   14.76000      1.7248846E-08
   14.82000      1.7569350E-08
   14.88000      1.7803266E-08
   14.94000      1.7954138E-08
   15.00000      1.8022751E-08
   15.06000      1.8008787E-08
   15.12000      1.7912489E-08
   15.18000      1.7735992E-08
   15.24000      1.7484071E-08
   15.30000      1.7164325E-08
   15.36000      1.6786716E-08
   15.42000      1.6362499E-08
   15.48000      1.5902716E-08
   15.54000      1.5416559E-08
   15.60000      1.4910238E-08
   15.66000      1.4386845E-08
   15.72000      1.3847547E-08
   15.78000      1.3293840E-08
   15.84000      1.2730088E-08
   15.90000      1.2165284E-08
   15.96000      1.1613117E-08
   16.02000      1.1090014E-08
   16.08000      1.0611584E-08
   16.14000      1.0188521E-08
   16.20000      9.8233146E-09
   16.26000      9.5088915E-09
   16.32000      9.2297006E-09
   16.38000      8.9650589E-09
   16.44000      8.6939220E-09
   16.50000      8.3998533E-09
   16.56000      8.0749718E-09
   16.62000      7.7218605E-09
   16.68000      7.3530035E-09
   16.74000      6.9879165E-09
   16.80000      6.6487686E-09
   16.86000      6.3557293E-09
   16.92000      6.1233347E-09
   16.98000      5.9588339E-09
   17.04000      5.8627854E-09
   17.10000      5.8314065E-09
   17.16000      5.8596070E-09
   17.22000      5.9434653E-09
   17.28000      6.0812630E-09
   17.34000      6.2728103E-09
   17.40000      6.5175021E-09
   17.46000      6.8119683E-09
   17.52000      7.1482633E-09
   17.58000      7.5132629E-09
   17.64000      7.8895512E-09
   17.70000      8.2576657E-09
   17.76000      8.5993355E-09
   17.82000      8.9011580E-09
   17.88000      9.1580548E-09
   17.94000      9.3757464E-09
   18.00000      9.5714396E-09
   18.06000      9.7721546E-09
   18.12000      1.0010566E-08
   18.18000      1.0318976E-08
   18.24000      1.0722726E-08
   18.30000      1.1234764E-08
   18.36000      1.1852912E-08
   18.42000      1.2560633E-08
   18.48000      1.3331015E-08
   18.54000      1.4132671E-08
   18.60000      1.4935763E-08
   18.66000      1.5716441E-08
   18.72000      1.6458838E-08
   18.78000      1.7154628E-08
   18.84000      1.7801058E-08
   18.90000      1.8398602E-08
   18.96000      1.8949143E-08
   19.02000      1.9455053E-08
   19.08000      1.9918859E-08
   19.14000      2.0342826E-08
   19.20000      2.0727905E-08
   19.26000      2.1071695E-08
   19.32000      2.1365629E-08
   19.38000      2.1591880E-08
   19.44000      2.1720689E-08
   19.50000      2.1708928E-08
   19.56000      2.1500536E-08
   19.62000      2.1029495E-08
   19.68000      2.0225597E-08
   19.74000      1.9022997E-08
   19.80000      1.7370581E-08
   19.86000      1.5242568E-08
   19.92000      1.2646938E-08
   19.98000      9.6293027E-09
   20.04000      6.2704157E-09
   20.10000      2.6769666E-09
   20.16000     -1.0329458E-09
   20.22000     -4.7467688E-09
   20.28000     -8.3732425E-09
   20.34000     -1.1853636E-08
   20.40000     -1.5166451E-08
   20.46000     -1.8325297E-08
   20.52000     -2.1371292E-08
   20.58000     -2.4362325E-08
   20.64000     -2.7361713E-08
   20.70000     -3.0428318E-08
   20.76000     -3.3609304E-08
   20.82000     -3.6935802E-08
   20.88000     -4.0421156E-08
   20.94000     -4.4060926E-08
   21.00000     -4.7833961E-08
   21.06000     -5.1703751E-08
   21.12000     -5.5619839E-08
   21.18000     -5.9519383E-08
   21.24000     -6.3329274E-08
   21.30000     -6.6969690E-08
   21.36000     -7.0359555E-08
   21.42000     -7.3424061E-08
   21.48000     -7.6103589E-08
   21.54000     -7.8362341E-08
   21.60000     -8.0194773E-08
   21.66000     -8.1627711E-08
   21.72000     -8.2717065E-08
   21.78000     -8.3538971E-08
   21.84000     -8.4177053E-08
   21.90000     -8.4708013E-08
   21.96000     -8.5188724E-08
   22.02000     -8.5647471E-08
   22.08000     -8.6080931E-08
   22.14000     -8.6457433E-08
   22.20000     -8.6725386E-08
   22.26000     -8.6824762E-08
   22.32000     -8.6699181E-08
   22.38000     -8.6305818E-08
   22.44000     -8.5621501E-08
   22.50000     -8.4644064E-08
   22.56000     -8.3389459E-08
   22.62000     -8.1885993E-08
   22.68000     -8.0167567E-08
   22.74000     -7.8267966E-08
   22.80000     -7.6217361E-08
   22.86000     -7.4041665E-08
   22.92000     -7.1764127E-08
   22.98000     -6.9408117E-08
   23.04000     -6.6999760E-08
   23.10000     -6.4569043E-08
   23.16000     -6.2148985E-08
   23.22000     -5.9772702E-08
   23.28000     -5.7469194E-08
   23.34000     -5.5258862E-08
   23.40000     -5.3150025E-08
   23.46000     -5.1137413E-08
   23.52000     -4.9203315E-08
   23.58000     -4.7321485E-08
   23.64000     -4.5463210E-08
   23.70000     -4.3604512E-08
   23.76000     -4.1733035E-08
   23.82000     -3.9852949E-08
   23.88000     -3.7986648E-08
   23.94000     -3.6172480E-08
   24.00000     -3.4458875E-08
   24.06000     -3.2896054E-08
   24.12000     -3.1527296E-08
   24.18000     -3.0381880E-08
   24.24000     -2.9471446E-08
   24.30000     -2.8790389E-08
   24.36000     -2.8319871E-08
   24.42000     -2.8033989E-08
   24.48000     -2.7906164E-08
   24.54000     -2.7914018E-08
   24.60000     -2.8041697E-08
   24.66000     -2.8279450E-08
   24.72000     -2.8621068E-08
   24.78000     -2.9060248E-08
   24.84000     -2.9587088E-08
   24.90000     -3.0185813E-08
   24.96000     -3.0834485E-08
   25.02000     -3.1507110E-08
   25.08000     -3.2177969E-08
   25.14000     -3.2827433E-08
   25.20000     -3.3447701E-08
   25.26000     -3.4046664E-08
   25.32000     -3.4648028E-08
   25.38000     -3.5286803E-08
   25.44000     -3.6000394E-08
   25.50000     -3.6817422E-08
   25.56000     -3.7747206E-08
   25.62000     -3.8773294E-08
   25.68000     -3.9853337E-08
   25.74000     -4.0925805E-08
   25.80000     -4.1921933E-08
   25.86000     -4.2779632E-08
   25.92000     -4.3455643E-08
   25.98000     -4.3932666E-08
   26.04000     -4.4220055E-08
   26.10000     -4.4348418E-08
   26.16000     -4.4360110E-08
   26.22000     -4.4298584E-08
   26.28000     -4.4199385E-08
   26.34000     -4.4084793E-08
   26.40000     -4.3962824E-08
   26.46000     -4.3830077E-08
   26.52000     -4.3676849E-08
   26.58000     -4.3492555E-08
   26.64000     -4.3269583E-08
   26.70000     -4.3004448E-08
   26.76000     -4.2696026E-08
   26.82000     -4.2341807E-08
   26.88000     -4.1933710E-08
   26.94000     -4.1455429E-08
   27.00000     -4.0882654E-08
   27.06000     -4.0186688E-08
   27.12000     -3.9340772E-08
   27.18000     -3.8327304E-08
   27.24000     -3.7143870E-08
   27.30000     -3.5806011E-08
   27.36000     -3.4345803E-08
   27.42000     -3.2806451E-08
   27.48000     -3.1234269E-08
   27.54000     -2.9670140E-08
   27.60000     -2.8142665E-08
   27.66000     -2.6664448E-08
   27.72000     -2.5232183E-08
   27.78000     -2.3830042E-08
   27.84000     -2.2435202E-08
   27.90000     -2.1023936E-08
   27.96000     -1.9576889E-08
   28.02000     -1.8082565E-08
   28.08000     -1.6538641E-08
   28.14000     -1.4951441E-08
   28.20000     -1.3334103E-08
   28.26000     -1.1704375E-08
   28.32000     -1.0082683E-08
   28.38000     -8.4909457E-09
   28.44000     -6.9520807E-09
   28.50000     -5.4898495E-09
   28.56000     -4.1284145E-09
   28.62000     -2.8911282E-09
   28.68000     -1.7983464E-09
   28.74000     -8.6459501E-10
   28.80000     -9.5808049E-11
   28.86000      5.1241822E-10
   28.92000      9.7479125E-10
   28.98000      1.3141941E-09
   29.04000      1.5577947E-09
   29.10000      1.7322648E-09
   29.16000      1.8592814E-09
   29.22000      1.9523645E-09
   29.28000      2.0157163E-09
   29.34000      2.0451101E-09
   29.40000      2.0303432E-09
   29.46000      1.9584401E-09
   29.52000      1.8167559E-09
   29.58000      1.5953595E-09
   29.64000      1.2884331E-09
   29.70000      8.9476754E-10
   29.76000      4.1762754E-10
   29.82000     -1.3569865E-10
   29.88000     -7.5447343E-10
   29.94000     -1.4251528E-09
   30.00000     -2.1321591E-09
   30.06000     -2.8588616E-09
   30.12000     -3.5887835E-09
   30.18000     -4.3069619E-09
   30.24000     -5.0013083E-09
   30.30000     -5.6637988E-09
   30.36000     -6.2913261E-09
   30.42000     -6.8860890E-09
   30.48000     -7.4554247E-09
   30.54000     -8.0110185E-09
   30.60000     -8.5675085E-09
   30.66000     -9.1405754E-09
   30.72000     -9.7447694E-09
   30.78000     -1.0391452E-08
   30.84000     -1.1087320E-08
   30.90000     -1.1833897E-08
   30.96000     -1.2628212E-08
   31.02000     -1.3464549E-08
   31.08000     -1.4336828E-08
   31.14000     -1.5240921E-08
   31.20000     -1.6176179E-08
   31.26000     -1.7145611E-08
   31.32000     -1.8154646E-08
   31.38000     -1.9208874E-08
   31.44000     -2.0311637E-08
   31.50000     -2.1462446E-08
   31.56000     -2.2657034E-08
   31.62000     -2.3889116E-08
   31.68000     -2.5153307E-08
   31.74000     -2.6447907E-08
   31.80000     -2.7776281E-08
   31.86000     -2.9145863E-08
   31.92000     -3.0564863E-08
   31.98000     -3.2037704E-08
   32.04000     -3.3560955E-08
   32.10000     -3.5121449E-08
   32.16000     -3.6697568E-08
   32.22000     -3.8263543E-08
   32.28000     -3.9795207E-08
   32.34000     -4.1275275E-08
   32.40000     -4.2696133E-08
   32.46000     -4.4059131E-08
   32.52000     -4.5370694E-08
   32.58000     -4.6636586E-08
   32.64000     -4.7856496E-08
   32.70000     -4.9020834E-08
   32.76000     -5.0110948E-08
   32.82000     -5.1102734E-08
   32.88000     -5.1972481E-08
   32.94000     -5.2703022E-08
   33.00000     -5.3288066E-08
   33.06000     -5.3733189E-08
   33.12000     -5.4052915E-08
   33.18000     -5.4264831E-08
   33.24000     -5.4382554E-08
   33.30000     -5.4410080E-08
   33.36000     -5.4339488E-08
   33.42000     -5.4152956E-08
   33.48000     -5.3828465E-08
   33.54000     -5.3347126E-08
   33.60000     -5.2699562E-08
   33.66000     -5.1889050E-08
   33.72000     -5.0930293E-08
   33.78000     -4.9844431E-08
   33.84000     -4.8652129E-08
   33.90000     -4.7367262E-08
   33.96000     -4.5993293E-08
   34.02000     -4.4523542E-08
   34.08000     -4.2945047E-08
   34.14000     -4.1244583E-08
   34.20000     -3.9414932E-08
   34.26000     -3.7459227E-08
   34.32000     -3.5392169E-08
   34.38000     -3.3237662E-08
   34.44000     -3.1023664E-08
   34.50000     -2.8775945E-08
   34.56000     -2.6512984E-08
   34.62000     -2.4243876E-08
   34.68000     -2.1970409E-08
   34.74000     -1.9692914E-08
   34.80000     -1.7418042E-08
   34.86000     -1.5165693E-08
   34.92000     -1.2972161E-08
   34.98000     -1.0887720E-08
   35.04000     -8.9686329E-09
   35.10000     -7.2656254E-09
   35.16000     -5.8122378E-09
   35.22000     -4.6167390E-09
   35.28000     -3.6602896E-09
   35.34000     -2.9021072E-09
   35.40000     -2.2902340E-09
   35.46000     -1.7748628E-09
   35.52000     -1.3205450E-09
   35.58000     -9.1410607E-10
   35.64000     -5.6649302E-10
   35.70000     -3.0854033E-10
   35.76000     -1.8224848E-10
   35.82000     -2.3015650E-10
   35.88000     -4.8559023E-10
   35.94000     -9.6601449E-10
   36.00000     -1.6706605E-09
   36.06000     -2.5823679E-09
   36.12000     -3.6725520E-09
   36.18000     -4.9075974E-09
   36.24000     -6.2549086E-09
   36.30000     -7.6872766E-09
   36.36000     -9.1848689E-09
   36.42000     -1.0734928E-08
   36.48000     -1.2329800E-08
   36.54000     -1.3964191E-08
   36.60000     -1.5632546E-08
   36.66000     -1.7327244E-08
   36.72000     -1.9037904E-08
   36.78000     -2.0751894E-08
   36.84000     -2.2455749E-08
   36.90000     -2.4137103E-08
   36.96000     -2.5786646E-08
   37.02000     -2.7399579E-08
   37.08000     -2.8976174E-08
   37.14000     -3.0521136E-08
   37.20000     -3.2041736E-08
   37.26000     -3.3544971E-08
   37.32000     -3.5034116E-08
   37.38000     -3.6505462E-08
   37.44000     -3.7945988E-08
   37.50000     -3.9332747E-08
   37.56000     -4.0634383E-08
   37.62000     -4.1814875E-08
   37.68000     -4.2838785E-08
   37.74000     -4.3676998E-08
   37.80000     -4.4311509E-08
   37.86000     -4.4738044E-08
   37.92000     -4.4965926E-08
   37.98000     -4.5015398E-08
   38.04000     -4.4913293E-08
   38.10000     -4.4688555E-08
   38.16000     -4.4368768E-08
   38.22000     -4.3978527E-08
   38.28000     -4.3539455E-08
   38.34000     -4.3071136E-08
   38.40000     -4.2591964E-08
   38.46000     -4.2119034E-08
   38.52000     -4.1666873E-08
   38.58000     -4.1245439E-08
   38.64000     -4.0858303E-08
   38.70000     -4.0501980E-08
   38.76000     -4.0166910E-08
   38.82000     -3.9840106E-08
   38.88000     -3.9508809E-08
   38.94000     -3.9163947E-08
   39.00000     -3.8802519E-08
   39.06000     -3.8428031E-08
   39.12000     -3.8048963E-08
   39.18000     -3.7675736E-08
   39.24000     -3.7317143E-08
   39.30000     -3.6977163E-08
   39.36000     -3.6652981E-08
   39.42000     -3.6334526E-08
   39.48000     -3.6005268E-08
   39.54000     -3.5643819E-08
   39.60000     -3.5225728E-08
   39.66000     -3.4725058E-08
   39.72000     -3.4115615E-08
   39.78000     -3.3372022E-08
   39.84000     -3.2470886E-08
   39.90000     -3.1392343E-08
   39.96000     -3.0121807E-08
   40.02000     -2.8651767E-08
   40.08000     -2.6982979E-08
   40.14000     -2.5124653E-08
   40.20000     -2.3093342E-08
   40.26000     -2.0910569E-08
   40.32000     -1.8599664E-08
   40.38000     -1.6182502E-08
   40.44000     -1.3676955E-08
   40.50000     -1.1095704E-08
   40.56000     -8.4467340E-09
   40.62000     -5.7354144E-09
   40.68000     -2.9675946E-09
   40.74000     -1.5290504E-10
   40.80000      2.6926728E-09
   40.86000      5.5456750E-09
   40.92000      8.3758165E-09
   40.98000      1.1148292E-08
   41.04000      1.3827144E-08
   41.10000      1.6378841E-08
   41.16000      1.8775179E-08
   41.22000      2.0994824E-08
   41.28000      2.3023219E-08
   41.34000      2.4850998E-08
   41.40000      2.6471474E-08
   41.46000      2.7877991E-08
   41.52000      2.9061969E-08
   41.58000      3.0012206E-08
   41.64000      3.0715722E-08
   41.70000      3.1159889E-08
   41.76000      3.1335290E-08
   41.82000      3.1238528E-08
   41.88000      3.0874165E-08
   41.94000      3.0255279E-08
   42.00000      2.9402372E-08
   42.06000      2.8340967E-08
   42.12000      2.7098295E-08
   42.18000      2.5699986E-08
   42.24000      2.4167461E-08
   42.30000      2.2516703E-08
   42.36000      2.0758783E-08
   42.42000      1.8902005E-08
   42.48000      1.6955253E-08
   42.54000      1.4931587E-08
   42.60000      1.2851110E-08
   42.66000      1.0742122E-08
   42.72000      8.6399901E-09
   42.78000      6.5837367E-09
   42.84000      4.6109339E-09
   42.90000      2.7519633E-09
   42.96000      1.0248880E-09
   43.02000     -5.6796157E-10
   43.08000     -2.0409459E-09
   43.14000     -3.4233916E-09
   43.20000     -4.7554645E-09
   43.26000     -6.0823542E-09
   43.32000     -7.4477797E-09
   43.38000     -8.8879819E-09
   43.44000     -1.0427243E-08
   43.50000     -1.2075695E-08
   43.56000     -1.3829645E-08
   43.62000     -1.5673995E-08
   43.68000     -1.7585936E-08
   43.74000     -1.9538833E-08
   43.80000     -2.1505487E-08
   43.86000     -2.3460494E-08
   43.92000     -2.5381846E-08
   43.98000     -2.7252341E-08
   44.04000     -2.9061090E-08
   44.10000     -3.0805083E-08
   44.16000     -3.2490178E-08
   44.22000     -3.4130760E-08
   44.28000     -3.5747586E-08
   44.34000     -3.7364078E-08
   44.40000     -3.9001950E-08
   44.46000     -4.0677818E-08
   44.52000     -4.2401858E-08
   44.58000     -4.4179156E-08
   44.64000     -4.6013181E-08
   44.70000     -4.7910071E-08
   44.76000     -4.9882228E-08
   44.82000     -5.1950082E-08
   44.88000     -5.4141807E-08
   44.94000     -5.6491611E-08
   45.00000     -5.9037742E-08
   45.06000     -6.1821318E-08
   45.12000     -6.4886564E-08
   45.18000     -6.8282503E-08
   45.24000     -7.2065625E-08
   45.30000     -7.6302939E-08
   45.36000     -8.1074958E-08
   45.42000     -8.6478593E-08
   45.48000     -9.2629982E-08
   45.54000     -9.9667410E-08
   45.60000     -1.0775443E-07
   45.66000     -1.1708316E-07
   45.72000     -1.2787784E-07
   45.78000     -1.4039884E-07
   45.84000     -1.5494733E-07
   45.90000     -1.7187098E-07
   45.96000     -1.9157069E-07
   46.02000     -2.1450830E-07
   46.08000     -2.4121479E-07
   46.14000     -2.7229859E-07
   46.20000     -3.0845359E-07
   46.26000     -3.5046759E-07
   46.32000     -3.9923097E-07
   46.38000     -4.5574689E-07
   46.44000     -5.2114291E-07
   46.50000     -5.9668554E-07
   46.56000     -6.8379535E-07
   46.62000     -7.8406532E-07
   46.68000     -8.9927886E-07
   46.74000     -1.0314296E-06
   46.80000     -1.1827409E-06
   46.86000     -1.3556845E-06
   46.92000     -1.5529999E-06
   46.98000     -1.7777121E-06
   47.04000     -2.0331479E-06
   47.10000     -2.3229534E-06
   47.16000     -2.6511088E-06
   47.22000     -3.0219476E-06
   47.28000     -3.4401744E-06
   47.34000     -3.9108859E-06
   47.40000     -4.4395942E-06
   47.46000     -5.0322460E-06
   47.52000     -5.6952485E-06
   47.58000     -6.4354822E-06
   47.64000     -7.2603161E-06
   47.70000     -8.1776134E-06
   47.76000     -9.1957281E-06
   47.82000     -1.0323501E-05
   47.88000     -1.1570249E-05
   47.94000     -1.2945745E-05
   48.00000     -1.4460208E-05
   48.06000     -1.6124282E-05
   48.12000     -1.7949007E-05
   48.18000     -1.9945797E-05
   48.24000     -2.2126396E-05
   48.30000     -2.4502842E-05
   48.36000     -2.7087408E-05
   48.42000     -2.9892548E-05
   48.48000     -3.2930820E-05
   48.54000     -3.6214817E-05
   48.60000     -3.9757062E-05
   48.66000     -4.3569944E-05
   48.72000     -4.7665595E-05
   48.78000     -5.2055802E-05
   48.84000     -5.6751902E-05
   48.90000     -6.1764651E-05
   48.96000     -6.7104142E-05
   49.02000     -7.2779658E-05
   49.08000     -7.8799560E-05
   49.14000     -8.5171159E-05
   49.20000     -9.1900576E-05
   49.26000     -9.8992641E-05
   49.32000     -1.0645075E-04
   49.38000     -1.1427678E-04
   49.44000     -1.2247097E-04
   49.50000     -1.3103182E-04
   49.56000     -1.3995607E-04
   49.62000     -1.4923861E-04
   49.68000     -1.5887243E-04
   49.74000     -1.6884861E-04
   49.80000     -1.7915625E-04
   49.86000     -1.8978247E-04
   49.92000     -2.0071243E-04
   49.98000     -2.1192933E-04
   50.04000     -2.2341449E-04
   50.10000     -2.3514742E-04
   50.16000     -2.4710596E-04
   50.22000     -2.5926632E-04
   50.28000     -2.7160329E-04
   50.34000     -2.8409041E-04
   50.40000     -2.9670011E-04
   50.46000     -3.0940393E-04
   50.52000     -3.2217285E-04
   50.58000     -3.3497729E-04
   50.64000     -3.4778754E-04
   50.70000     -3.6057393E-04
   50.76000     -3.7330709E-04
   50.82000     -3.8595809E-04
   50.88000     -3.9849890E-04
   50.94000     -4.1090258E-04
   51.00000     -4.2314356E-04
   51.06000     -4.3519778E-04
   51.12000     -4.4704307E-04
   51.18000     -4.5865920E-04
   51.24000     -4.7002814E-04
   51.30000     -4.8113428E-04
   51.36000     -4.9196446E-04
   51.42000     -5.0250813E-04
   51.48000     -5.1275757E-04
   51.54000     -5.2270759E-04
   51.60000     -5.3235592E-04
   51.66000     -5.4170302E-04
   51.72000     -5.5075204E-04
   51.78000     -5.5950874E-04
   51.84000     -5.6798133E-04
   51.90000     -5.7618041E-04
   51.96000     -5.8411842E-04
   52.02000     -5.9180998E-04
   52.08000     -5.9927138E-04
   52.14000     -6.0652028E-04
   52.20000     -6.1357522E-04
   52.26000     -6.2045583E-04
   52.32000     -6.2718196E-04
   52.38000     -6.3377368E-04
   52.44000     -6.4025080E-04
   52.50000     -6.4663263E-04
   52.56000     -6.5293751E-04
   52.62000     -6.5918284E-04
   52.68000     -6.6538429E-04
   52.74000     -6.7155581E-04
   52.80000     -6.7770935E-04
   52.86000     -6.8385428E-04
   52.92000     -6.8999786E-04
   52.98000     -6.9614436E-04
   53.04000     -7.0229545E-04
   53.10000     -7.0844992E-04
   53.16000     -7.1460381E-04
   53.22000     -7.2075031E-04
   53.28000     -7.2687987E-04
   53.34000     -7.3298026E-04
   53.40000     -7.3903677E-04
   53.46000     -7.4503216E-04
   53.52000     -7.5094716E-04
   53.58000     -7.5676036E-04
   53.64000     -7.6244894E-04
   53.70000     -7.6798879E-04
   53.76000     -7.7335496E-04
   53.82000     -7.7852199E-04
   53.88000     -7.8346394E-04
   53.94000     -7.8815536E-04
   54.00000     -7.9257117E-04
   54.06000     -7.9668721E-04
   54.12000     -8.0048089E-04
   54.18000     -8.0393121E-04
   54.24000     -8.0701947E-04
   54.30000     -8.0972916E-04
   54.36000     -8.1204635E-04
   54.42000     -8.1396004E-04
   54.48000     -8.1546226E-04
   54.54000     -8.1654824E-04
   54.60000     -8.1721647E-04
   54.66000     -8.1746909E-04
   54.72000     -8.1731175E-04
   54.78000     -8.1675360E-04
   54.84000     -8.1580674E-04
   54.90000     -8.1448659E-04
   54.96000     -8.1281149E-04
   55.02000     -8.1080251E-04
   55.08000     -8.0848334E-04
   55.14000     -8.0588012E-04
   55.20000     -8.0302096E-04
   55.26000     -7.9993549E-04
   55.32000     -7.9665467E-04
   55.38000     -7.9321000E-04
   55.44000     -7.8963354E-04
   55.50000     -7.8595721E-04
   55.56000     -7.8221224E-04