  -2.400000      0.0000000E+00
  -2.340000      0.0000000E+00
  -2.280000      0.0000000E+00
  -2.220000      0.0000000E+00
  -2.160000      0.0000000E+00
  -2.100000     -6.3296515E-21
  -2.040000     -5.0043522E-20
  -1.980000     -1.9965596E-19
  -1.920000     -5.1834937E-19
  -1.860000     -9.1932119E-19
  -1.800000     -9.3845905E-19
  -1.740000      4.7647506E-19
  -1.680000      5.0759988E-18
  -1.620000      1.5392630E-17
  -1.560000      3.4989806E-17
  -1.500000      6.8697072E-17
  -1.440000      1.2140720E-16
  -1.380000      1.9223793E-16
  -1.320000      2.6025389E-16
  -1.260000      2.6130466E-16
  -1.200000      6.5005683E-17
  -1.140000     -5.2506672E-16
  -1.080000     -1.7140981E-15
  -1.020000     -3.5736456E-15
 -0.9600000     -5.8213233E-15
 -0.9000000     -7.5953258E-15
 -0.8400000     -7.3709925E-15
 -0.7800000     -3.2042617E-15
 -0.7200000      6.5672434E-15
 -0.6600000      2.2212821E-14
 -0.6000000      4.1409482E-14
 -0.5400000      5.8543380E-14
 -0.4800000      6.5192609E-14
 -0.4200000      5.2236678E-14
 -0.3600000      1.3430376E-14
 -0.3000000     -5.0551939E-14
 -0.2400000     -1.2930458E-13
 -0.1800000     -2.0295877E-13
 -0.1200000     -2.4663211E-13
 -5.9999999E-02 -2.3854172E-13
  0.0000000E+00 -1.6926936E-13
  5.9999999E-02 -4.8196090E-14
  0.1200000      9.6853915E-14
  0.1800000      2.2865691E-13
  0.2400000      3.1643465E-13
  0.3000000      3.5245233E-13
  0.3600000      3.6079955E-13
  0.4200000      3.9079235E-13
  0.4800000      4.9270478E-13
  0.5400000      6.8189676E-13
  0.6000000      9.0570585E-13
  0.6600000      1.0315783E-12
  0.7200000      8.7139351E-13
  0.7800000      2.4501112E-13
  0.8400000     -9.3126602E-13
  0.9000000     -2.5618719E-12
  0.9600000     -4.3327481E-12
   1.020000     -5.7463257E-12
   1.080000     -6.2386298E-12
   1.140000     -5.3545189E-12
   1.200000     -2.9275807E-12
   1.260000      8.0250883E-13
   1.320000      5.1912658E-12
   1.380000      9.3291885E-12
   1.440000      1.2289205E-11
   1.500000      1.3404342E-11
   1.560000      1.2475742E-11
   1.620000      9.8258762E-12
   1.680000      6.1628519E-12
   1.740000      2.2930609E-12
   1.800000     -1.2156130E-12
   1.860000     -4.2864627E-12
   1.920000     -7.3876044E-12
   1.980000     -1.1337976E-11
   2.040000     -1.6909011E-11
   2.100000     -2.4348780E-11
   2.160000     -3.2997306E-11
   2.220000     -4.1144338E-11
   2.280000     -4.6208436E-11
   2.340000     -4.5216365E-11
   2.400000     -3.5471511E-11
   2.460000     -1.5252922E-11
   2.520000      1.5604219E-11
   2.580000      5.5341683E-11
   2.640000      1.0015267E-10
   2.700000      1.4428093E-10
   2.760000      1.8032834E-10
   2.820000      1.9979586E-10
   2.880000      1.9393273E-10
   2.940000      1.5497989E-10
   3.000000      7.7831047E-11
   3.060000     -3.8011694E-11
   3.120000     -1.8650462E-10
   3.180000     -3.5363751E-10
   3.240000     -5.1706661E-10
   3.300000     -6.4724581E-10
   3.360000     -7.1021117E-10
   3.420000     -6.7176115E-10
   3.480000     -5.0235738E-10
   3.540000     -1.8177471E-10
   3.600000      2.9751887E-10
   3.660000      9.2903957E-10
   3.720000      1.6933248E-09
   3.780000      2.5610427E-09
   3.840000      3.4973495E-09
   3.900000      4.4663739E-09
   3.960000      5.4347300E-09
   4.020000      6.3733232E-09
   4.080000      7.2572948E-09
   4.140000      8.0645668E-09
   4.200000      8.7739407E-09
   4.260000      9.3638146E-09
   4.320000      9.8124131E-09
   4.380000      1.0099870E-08
   4.440000      1.0211819E-08
   4.500000      1.0143527E-08
   4.560000      9.9032356E-09
   4.620000      9.5134096E-09
   4.680000      9.0090513E-09
   4.740000      8.4330321E-09
   4.800000      7.8292546E-09
   4.860000      7.2351782E-09
   4.920000      6.6755690E-09
   4.980000      6.1590906E-09
   5.040000      5.6786877E-09
   5.100000      5.2156879E-09
   5.160000      4.7465671E-09
   5.220000      4.2506207E-09
   5.280000      3.7166192E-09
   5.340000      3.1468870E-09
   5.400000      2.5580524E-09
   5.460000      1.9786319E-09
   5.520000      1.4443973E-09
   5.580000      9.9284470E-10
   5.640000      6.5802291E-10
   5.700000      4.6653503E-10
   5.760000      4.3494777E-10
   5.820000      5.6836053E-10
   5.880000      8.5968477E-10
   5.940000      1.2893138E-09
   6.000000      1.8252241E-09
   6.060000      2.4239470E-09
   6.120000      3.0330711E-09
   6.180000      3.5958234E-09
   6.240000      4.0578132E-09
   6.300000      4.3753019E-09
   6.360000      4.5236428E-09
   6.420000      4.5040052E-09
   6.480000      4.3464636E-09
   6.540000      4.1079935E-09
   6.600000      3.8648778E-09
   6.660000      3.7003220E-09
   6.720000      3.6893053E-09
   6.780000      3.8836627E-09
   6.840000      4.3007029E-09
   6.900000      4.9182316E-09
   6.960000      5.6776339E-09
   7.020000      6.4949193E-09
   7.080000      7.2776984E-09
   7.140000      7.9444265E-09
   7.200000      8.4414173E-09
   7.260000      8.7533332E-09
   7.320000      8.9042631E-09
   7.380000      8.9487777E-09
   7.440000      8.9549532E-09
   7.500000      8.9836671E-09
   7.560000      9.0696970E-09
   7.620000      9.2099768E-09
   7.680000      9.3626449E-09
   7.740000      9.4576862E-09
   7.800000      9.4167225E-09
   7.860000      9.1768078E-09
   7.920000      8.7116128E-09
   7.980000      8.0437728E-09
   8.040000      7.2442643E-09
   8.100000      6.4180803E-09
   8.160000      5.6792215E-09
   8.220000      5.1210924E-09
   8.280000      4.7899431E-09
   8.340000      4.6684727E-09
   8.400000      4.6742739E-09
   8.460000      4.6740163E-09
   8.520000      4.5102069E-09
   8.580000      4.0341086E-09
   8.640000      3.1368510E-09
   8.700000      1.7713173E-09
   8.760000     -4.0132134E-11
   8.820000     -2.2133593E-09
   8.880000     -4.6229460E-09
   8.940000     -7.1298172E-09
   9.000000     -9.6088524E-09
   9.060000     -1.1969798E-08
   9.120000     -1.4166925E-08
   9.180000     -1.6196150E-08
   9.240000     -1.8081719E-08
   9.300000     -1.9857278E-08
   9.360000     -2.1547512E-08
   9.420000     -2.3155879E-08
   9.480000     -2.4662089E-08
   9.540000     -2.6029644E-08
   9.600000     -2.7220686E-08
   9.660000     -2.8212947E-08
   9.720000     -2.9012869E-08
   9.780000     -2.9660105E-08
   9.840000     -3.0221205E-08
   9.900000     -3.0773808E-08
   9.960000     -3.1385802E-08
   10.02000     -3.2095720E-08
   10.08000     -3.2900633E-08
   10.14000     -3.3755743E-08
   10.20000     -3.4586638E-08
   10.26000     -3.5311079E-08
   10.32000     -3.5864336E-08
   10.38000     -3.6220484E-08
   10.44000     -3.6403023E-08
   10.50000     -3.6480948E-08
   10.56000     -3.6550748E-08
   10.62000     -3.6709153E-08
   10.68000     -3.7024634E-08
   10.74000     -3.7516426E-08
   10.80000     -3.8147885E-08
   10.86000     -3.8836792E-08
   10.92000     -3.9479776E-08
   10.98000     -3.9983465E-08
   11.04000     -4.0292395E-08
   11.10000     -4.0404515E-08
   11.16000     -4.0368832E-08
   11.22000     -4.0265402E-08
   11.28000     -4.0173617E-08
   11.34000     -4.0138723E-08
   11.40000     -4.0147327E-08
   11.46000     -4.0120270E-08
   11.52000     -3.9925933E-08
   11.58000     -3.9411141E-08
   11.64000     -3.8441357E-08
   11.70000     -3.6939046E-08
   11.76000     -3.4909352E-08
   11.82000     -3.2445577E-08
   11.88000     -2.9712485E-08
   11.94000     -2.6911341E-08
   12.00000     -2.4235575E-08
   12.06000     -2.1828399E-08
   12.12000     -1.9753227E-08
   12.18000     -1.7984265E-08
   12.24000     -1.6419314E-08
   12.30000     -1.4910826E-08
   12.36000     -1.3306597E-08
   12.42000     -1.1488948E-08
   12.48000     -9.4021058E-09
   12.54000     -7.0609838E-09
   12.60000     -4.5401571E-09
   12.66000     -1.9474462E-09
   12.72000      6.0915356E-10
   12.78000      3.0509841E-09
   12.84000      5.3461160E-09
   12.90000      7.5103035E-09
   12.96000      9.5926138E-09
   13.02000      1.1651664E-08
   13.08000      1.3731066E-08
   13.14000      1.5842417E-08
   13.20000      1.7961142E-08
   13.26000      2.0035927E-08
   13.32000      2.2007827E-08
   13.38000      2.3832071E-08
   13.44000      2.5495108E-08
   13.50000      2.7021230E-08
   13.56000      2.8466959E-08
   13.62000      2.9905337E-08
   13.68000      3.1405499E-08
   13.74000      3.3013990E-08
   13.80000      3.4743366E-08
   13.86000      3.6570938E-08
   13.92000      3.8447084E-08
   13.98000      4.0309715E-08
   14.04000      4.2099952E-08
   14.10000      4.3774232E-08
   14.16000      4.5309832E-08
   14.22000      4.6703324E-08
   14.28000      4.7963777E-08
   14.34000      4.9104052E-08
   14.40000      5.0133529E-08
   14.46000      5.1054766E-08
   14.52000      5.1864628E-08
   14.58000      5.2558871E-08
   14.64000      5.3137878E-08
   14.70000      5.3611057E-08
   14.76000      5.3997933E-08
   14.82000      5.4325245E-08
   14.88000      5.4620585E-08
   14.94000      5.4904401E-08
   15.00000      5.5182628E-08
   15.06000      5.5442261E-08
   15.12000      5.5651487E-08
   15.18000      5.5764765E-08
   15.24000      5.5732023E-08
   15.30000      5.5509826E-08
   15.36000      5.5071833E-08
   15.42000      5.4415803E-08
   15.48000      5.3565230E-08
   15.54000      5.2565028E-08
   15.60000      5.1472238E-08
   15.66000      5.0344024E-08
   15.72000      4.9225857E-08
   15.78000      4.8142873E-08
   15.84000      4.7096400E-08
   15.90000      4.6066472E-08
   15.96000      4.5019597E-08
   16.02000      4.3919790E-08
   16.08000      4.2740016E-08
   16.14000      4.1470990E-08
   16.20000      4.0124846E-08
   16.26000      3.8732423E-08
   16.32000      3.7334470E-08
   16.38000      3.5968988E-08
   16.44000      3.4658257E-08
   16.50000      3.3399566E-08
   16.56000      3.2163246E-08
   16.62000      3.0899582E-08
   16.68000      2.9553741E-08
   16.74000      2.8085081E-08
   16.80000      2.6485234E-08
   16.86000      2.4789083E-08
   16.92000      2.3074188E-08
   16.98000      2.1447317E-08
   17.04000      2.0020645E-08
   17.10000      1.8883609E-08
   17.16000      1.8078190E-08
   17.22000      1.7585025E-08
   17.28000      1.7324940E-08
   17.34000      1.7176275E-08
   17.40000      1.7003821E-08
   17.46000      1.6691756E-08
   17.52000      1.6171706E-08
   17.58000      1.5438351E-08
   17.64000      1.4548481E-08
   17.70000      1.3604049E-08
   17.76000      1.2724212E-08
   17.82000      1.2014326E-08
   17.88000      1.1540503E-08
   17.94000      1.1316495E-08
   18.00000      1.1305962E-08
   18.06000      1.1438583E-08
   18.12000      1.1634505E-08
   18.18000      1.1829319E-08
   18.24000      1.1991770E-08
   18.30000      1.2128805E-08
   18.36000      1.2276473E-08
   18.42000      1.2479614E-08
   18.48000      1.2766722E-08
   18.54000      1.3128063E-08
   18.60000      1.3504385E-08
   18.66000      1.3790624E-08
   18.72000      1.3854749E-08
   18.78000      1.3567374E-08
   18.84000      1.2834358E-08
   18.90000      1.1623388E-08
   18.96000      9.9768407E-09
   19.02000      8.0068627E-09
   19.08000      5.8735314E-09
   19.14000      3.7517847E-09
   19.20000      1.7959113E-09
   19.26000      1.1094169E-10
   19.32000     -1.2620607E-09
   19.38000     -2.3441622E-09
   19.44000     -3.2025176E-09
   19.50000     -3.9264090E-09
   19.56000     -4.6033382E-09
   19.62000     -5.3021756E-09
   19.68000     -6.0672649E-09
   19.74000     -6.9234036E-09
   19.80000     -7.8880875E-09
   19.86000     -8.9854986E-09
   19.92000     -1.0256727E-08
   19.98000     -1.1762428E-08
   20.04000     -1.3576763E-08
   20.10000     -1.5774113E-08
   20.16000     -1.8412068E-08
   20.22000     -2.1515104E-08
   20.28000     -2.5063276E-08
   20.34000     -2.8989078E-08
   20.40000     -3.3183966E-08
   20.46000     -3.7513843E-08
   20.52000     -4.1840732E-08
   20.58000     -4.6046232E-08
   20.64000     -5.0051561E-08
   20.70000     -5.3829353E-08
   20.76000     -5.7404179E-08
   20.82000     -6.0841302E-08
   20.88000     -6.4226242E-08
   20.94000     -6.7640130E-08
   21.00000     -7.1137229E-08
   21.06000     -7.4730124E-08
   21.12000     -7.8386520E-08
   21.18000     -8.2037630E-08
   21.24000     -8.5595659E-08
   21.30000     -8.8974744E-08
   21.36000     -9.2109403E-08
   21.42000     -9.4965543E-08
   21.48000     -9.7541474E-08
   21.54000     -9.9859726E-08
   21.60000     -1.0195288E-07
   21.66000     -1.0384829E-07
   21.72000     -1.0555635E-07
   21.78000     -1.0706530E-07
   21.84000     -1.0834371E-07
   21.90000     -1.0934911E-07
   21.96000     -1.1003996E-07
   22.02000     -1.1038767E-07
   22.08000     -1.1038538E-07
   22.14000     -1.1005147E-07
   22.20000     -1.0942682E-07
   22.26000     -1.0856667E-07
   22.32000     -1.0752868E-07
   22.38000     -1.0636023E-07
   22.44000     -1.0508817E-07
   22.50000     -1.0371366E-07
   22.56000     -1.0221400E-07
   22.62000     -1.0055070E-07
   22.68000     -9.8681951E-08
   22.74000     -9.6575604E-08
   22.80000     -9.4219104E-08
   22.86000     -9.1623633E-08
   22.92000     -8.8821913E-08
   22.98000     -8.5861160E-08
   23.04000     -8.2794017E-08
   23.10000     -7.9670734E-08
   23.16000     -7.6534654E-08
   23.22000     -7.3421525E-08
   23.28000     -7.0361487E-08
   23.34000     -6.7381812E-08
   23.40000     -6.4508477E-08
   23.46000     -6.1765618E-08
   23.52000     -5.9173082E-08
   23.58000     -5.6743104E-08
   23.64000     -5.4477400E-08
   23.70000     -5.2365966E-08
   23.76000     -5.0387946E-08
   23.82000     -4.8514625E-08
   23.88000     -4.6713907E-08
   23.94000     -4.4955609E-08
   24.00000     -4.3216598E-08
   24.06000     -4.1484935E-08
   24.12000     -3.9762142E-08
   24.18000     -3.8062982E-08
   24.24000     -3.6412555E-08
   24.30000     -3.4841250E-08
   24.36000     -3.3378580E-08
   24.42000     -3.2047517E-08
   24.48000     -3.0860789E-08
   24.54000     -2.9820050E-08
   24.60000     -2.8917984E-08
   24.66000     -2.8142463E-08
   24.72000     -2.7481217E-08
   24.78000     -2.6925418E-08
   24.84000     -2.6471028E-08
   24.90000     -2.6117601E-08
   24.96000     -2.5865157E-08
   25.02000     -2.5710392E-08
   25.08000     -2.5643752E-08
   25.14000     -2.5648685E-08
   25.20000     -2.5703642E-08
   25.26000     -2.5786616E-08
   25.32000     -2.5881098E-08
   25.38000     -2.5981763E-08
   25.44000     -2.6098007E-08
   25.50000     -2.6253858E-08
   25.56000     -2.6483571E-08
   25.62000     -2.6823376E-08
   25.68000     -2.7301070E-08
   25.74000     -2.7925958E-08
   25.80000     -2.8682031E-08
   25.86000     -2.9526653E-08
   25.92000     -3.0395828E-08
   25.98000     -3.1215336E-08
   26.04000     -3.1915210E-08
   26.10000     -3.2443829E-08
   26.16000     -3.2777734E-08
   26.22000     -3.2924206E-08
   26.28000     -3.2915700E-08
   26.34000     -3.2797715E-08
   26.40000     -3.2613528E-08
   26.46000     -3.2390304E-08
   26.52000     -3.2130355E-08
   26.58000     -3.1809652E-08
   26.64000     -3.1383102E-08
   26.70000     -3.0794176E-08
   26.76000     -2.9985422E-08
   26.82000     -2.8906971E-08
   26.88000     -2.7521438E-08
   26.94000     -2.5805612E-08
   27.00000     -2.3750401E-08
   27.06000     -2.1360668E-08
   27.12000     -1.8655728E-08
   27.18000     -1.5669983E-08
   27.24000     -1.2452261E-08
   27.30000     -9.0624406E-09
   27.36000     -5.5649627E-09
   27.42000     -2.0202560E-09
   27.48000      1.5236514E-09
   27.54000      5.0367968E-09
   27.60000      8.5084224E-09
   27.66000      1.1943245E-08
   27.72000      1.5353987E-08
   27.78000      1.8752237E-08
   27.84000      2.2139755E-08
   27.90000      2.5501890E-08
   27.96000      2.8804019E-08
   28.02000      3.1991448E-08
   28.08000      3.4993022E-08
   28.14000      3.7728572E-08
   28.20000      4.0119843E-08
   28.26000      4.2103657E-08
   28.32000      4.3644746E-08
   28.38000      4.4744809E-08
   28.44000      4.5444320E-08
   28.50000      4.5815128E-08
   28.56000      4.5944368E-08
   28.62000      4.5913303E-08
   28.68000      4.5776630E-08
   28.74000      4.5548418E-08
   28.80000      4.5198977E-08
   28.86000      4.4663818E-08
   28.92000      4.3862130E-08
   28.98000      4.2719464E-08
   29.04000      4.1188244E-08
   29.10000      3.9260950E-08
   29.16000      3.6973415E-08
   29.22000      3.4398617E-08
   29.28000      3.1633888E-08
   29.34000      2.8785543E-08
   29.40000      2.5954478E-08
   29.46000      2.3225292E-08
   29.52000      2.0659751E-08
   29.58000      1.8294470E-08
   29.64000      1.6142016E-08
   29.70000      1.4194741E-08
   29.76000      1.2430688E-08
   29.82000      1.0820976E-08
   29.88000      9.3378230E-09
   29.94000      7.9619058E-09
   30.00000      6.6875607E-09
   30.06000      5.5244458E-09
   30.12000      4.4949382E-09
   30.18000      3.6275489E-09
   30.24000      2.9477738E-09
   30.30000      2.4685680E-09
   30.36000      2.1829294E-09
   30.42000      2.0606661E-09
   30.48000      2.0504680E-09
   30.54000      2.0870878E-09
   30.60000      2.1021418E-09
   30.66000      2.0360220E-09
   30.72000      1.8479810E-09
   30.78000      1.5217819E-09
   30.84000      1.0653260E-09
   30.90000      5.0422677E-10
   30.96000     -1.2900687E-10
   31.02000     -8.0723317E-10
   31.08000     -1.5189020E-09
   31.14000     -2.2732840E-09
   31.20000     -3.0992002E-09
   31.26000     -4.0376835E-09
   31.32000     -5.1308504E-09
   31.38000     -6.4103123E-09
   31.44000     -7.8884748E-09
   31.50000     -9.5549870E-09
   31.56000     -1.1378894E-08
   31.62000     -1.3315323E-08
   31.68000     -1.5314331E-08
   31.74000     -1.7329318E-08
   31.80000     -1.9322913E-08
   31.86000     -2.1269424E-08
   31.92000     -2.3154067E-08
   31.98000     -2.4970086E-08
   32.04000     -2.6715179E-08
   32.10000     -2.8388534E-08
   32.16000     -2.9989430E-08
   32.22000     -3.1517683E-08
   32.28000     -3.2975986E-08
   32.34000     -3.4373510E-08
   32.40000     -3.5729940E-08
   32.46000     -3.7078593E-08
   32.52000     -3.8467160E-08
   32.58000     -3.9954784E-08
   32.64000     -4.1604984E-08
   32.70000     -4.3475115E-08
   32.76000     -4.5604494E-08
   32.82000     -4.8004392E-08
   32.88000     -5.0653046E-08
   32.94000     -5.3497896E-08
   33.00000     -5.6464966E-08
   33.06000     -5.9473066E-08
   33.12000     -6.2448699E-08
   33.18000     -6.5337190E-08
   33.24000     -6.8106999E-08
   33.30000     -7.0746417E-08
   33.36000     -7.3254533E-08
   33.42000     -7.5630197E-08
   33.48000     -7.7862275E-08
   33.54000     -7.9923929E-08
   33.60000     -8.1771198E-08
   33.66000     -8.3344794E-08
   33.72000     -8.4573529E-08
   33.78000     -8.5378353E-08
   33.84000     -8.5677264E-08
   33.90000     -8.5391960E-08
   33.96000     -8.4457064E-08
   34.02000     -8.2831349E-08
   34.08000     -8.0508634E-08
   34.14000     -7.7525179E-08
   34.20000     -7.3960273E-08
   34.26000     -6.9928660E-08
   34.32000     -6.5565963E-08
   34.38000     -6.1010525E-08
   34.44000     -5.6386416E-08
   34.50000     -5.1791730E-08
   34.56000     -4.7294655E-08
   34.62000     -4.2937227E-08
   34.68000     -3.8744719E-08
   34.74000     -3.4737518E-08
   34.80000     -3.0942196E-08
   34.86000     -2.7399228E-08
   34.92000     -2.4165617E-08
   34.98000     -2.1311655E-08
   35.04000     -1.8912031E-08
   35.10000     -1.7032512E-08
   35.16000     -1.5714743E-08
   35.22000     -1.4962943E-08
   35.28000     -1.4736702E-08
   35.34000     -1.4953306E-08
   35.40000     -1.5500579E-08
   35.46000     -1.6257900E-08
   35.52000     -1.7119827E-08
   35.58000     -1.8014942E-08
   35.64000     -1.8913454E-08
   35.70000     -1.9820519E-08
   35.76000     -2.0757229E-08
   35.82000     -2.1735941E-08
   35.88000     -2.2739027E-08
   35.94000     -2.3709278E-08
   36.00000     -2.4556066E-08
   36.06000     -2.5175636E-08
   36.12000     -2.5478712E-08
   36.18000     -2.5415956E-08
   36.24000     -2.4992616E-08
   36.30000     -2.4267738E-08
   36.36000     -2.3338574E-08
   36.42000     -2.2315712E-08
   36.48000     -2.1296803E-08
   36.54000     -2.0346526E-08
   36.60000     -1.9487482E-08
   36.66000     -1.8703005E-08
   36.72000     -1.7949349E-08
   36.78000     -1.7172669E-08
   36.84000     -1.6325856E-08
   36.90000     -1.5381271E-08
   36.96000     -1.4337005E-08
   37.02000     -1.3216129E-08
   37.08000     -1.2059863E-08
   37.14000     -1.0916860E-08
   37.20000     -9.8315844E-09
   37.26000     -8.8351184E-09
   37.32000     -7.9411500E-09
   37.38000     -7.1484676E-09
   37.44000     -6.4491195E-09
   37.50000     -5.8391132E-09
   37.56000     -5.3272071E-09
   37.62000     -4.9376445E-09
   37.68000     -4.7048028E-09
   37.74000     -4.6611017E-09
   37.80000     -4.8226552E-09
   37.86000     -5.1787556E-09
   37.92000     -5.6903158E-09
   37.98000     -6.2991603E-09
   38.04000     -6.9457258E-09
   38.10000     -7.5891240E-09
   38.16000     -8.2223215E-09
   38.22000     -8.8767251E-09
   38.28000     -9.6144204E-09
   38.34000     -1.0510679E-08
   38.40000     -1.1632609E-08
   38.46000     -1.3020670E-08
   38.52000     -1.4678153E-08
   38.58000     -1.6570548E-08
   38.64000     -1.8633600E-08
   38.70000     -2.0786672E-08
   38.76000     -2.2947630E-08
   38.82000     -2.5046027E-08
   38.88000     -2.7032634E-08
   38.94000     -2.8884285E-08
   39.00000     -3.0603601E-08
   39.06000     -3.2213666E-08
   39.12000     -3.3748456E-08
   39.18000     -3.5240923E-08
   39.24000     -3.6711867E-08
   39.30000     -3.8163044E-08
   39.36000     -3.9577177E-08
   39.42000     -4.0925393E-08
   39.48000     -4.2179717E-08
   39.54000     -4.3326089E-08
   39.60000     -4.4372612E-08
   39.66000     -4.5349434E-08
   39.72000     -4.6299753E-08
   39.78000     -4.7264908E-08
   39.84000     -4.8269289E-08
   39.90000     -4.9310628E-08
   39.96000     -5.0359578E-08
   40.02000     -5.1368627E-08
   40.08000     -5.2287003E-08
   40.14000     -5.3076011E-08
   40.20000     -5.3719290E-08
   40.26000     -5.4224646E-08
   40.32000     -5.4617253E-08
   40.38000     -5.4927192E-08
   40.44000     -5.5175999E-08
   40.50000     -5.5366922E-08
   40.56000     -5.5482140E-08
   40.62000     -5.5487551E-08
   40.68000     -5.5343566E-08
   40.74000     -5.5018532E-08
   40.80000     -5.4500788E-08
   40.86000     -5.3806005E-08
   40.92000     -5.2977533E-08
   40.98000     -5.2079429E-08
   41.04000     -5.1183459E-08
   41.10000     -5.0353187E-08
   41.16000     -4.9629101E-08
   41.22000     -4.9018968E-08
   41.28000     -4.8496574E-08
   41.34000     -4.8009831E-08
   41.40000     -4.7496652E-08
   41.46000     -4.6904230E-08
   41.52000     -4.6205869E-08
   41.58000     -4.5409855E-08
   41.64000     -4.4556874E-08
   41.70000     -4.3706297E-08
   41.76000     -4.2915371E-08
   41.82000     -4.2218076E-08
   41.88000     -4.1610960E-08
   41.94000     -4.1051280E-08
   42.00000     -4.0468866E-08
   42.06000     -3.9788759E-08
   42.12000     -3.8958053E-08
   42.18000     -3.7968810E-08
   42.24000     -3.6869881E-08
   42.30000     -3.5763652E-08
   42.36000     -3.4787693E-08
   42.42000     -3.4085787E-08
   42.48000     -3.3775446E-08
   42.54000     -3.3920390E-08
   42.60000     -3.4515100E-08
   42.66000     -3.5485840E-08
   42.72000     -3.6708233E-08
   42.78000     -3.8037054E-08
   42.84000     -3.9340708E-08
   42.90000     -4.0531081E-08
   42.96000     -4.1580762E-08
   43.02000     -4.2523048E-08
   43.08000     -4.3435183E-08
   43.14000     -4.4410267E-08
   43.20000     -4.5526782E-08
   43.26000     -4.6824976E-08
   43.32000     -4.8296911E-08
   43.38000     -4.9892176E-08
   43.44000     -5.1535924E-08
   43.50000     -5.3152242E-08
   43.56000     -5.4684758E-08
   43.62000     -5.6108139E-08
   43.68000     -5.7428188E-08
   43.74000     -5.8672402E-08
   43.80000     -5.9875717E-08
   43.86000     -6.1067233E-08
   43.92000     -6.2262075E-08
   43.98000     -6.3460313E-08
   44.04000     -6.4651978E-08
   44.10000     -6.5825738E-08
   44.16000     -6.6978117E-08
   44.22000     -6.8120904E-08
   44.28000     -6.9285022E-08
   44.34000     -7.0520194E-08
   44.40000     -7.1890611E-08
   44.46000     -7.3467142E-08
   44.52000     -7.5317878E-08
   44.58000     -7.7499230E-08
   44.64000     -8.0050548E-08
   44.70000     -8.2994568E-08
   44.76000     -8.6344770E-08
   44.82000     -9.0118178E-08
   44.88000     -9.4350106E-08
   44.94000     -9.9106252E-08
   45.00000     -1.0448788E-07
   45.06000     -1.1062907E-07
   45.12000     -1.1768770E-07
   45.18000     -1.2583577E-07
   45.24000     -1.3525479E-07
   45.30000     -1.4614123E-07
   45.36000     -1.5872294E-07
   45.42000     -1.7328288E-07
   45.48000     -1.9018380E-07
   45.54000     -2.0988615E-07
   45.60000     -2.3295482E-07
   45.66000     -2.6005395E-07
   45.72000     -2.9193419E-07
   45.78000     -3.2942043E-07
   45.84000     -3.7340698E-07
   45.90000     -4.2486587E-07
   45.96000     -4.8486794E-07
   46.02000     -5.5461391E-07
   46.08000     -6.3546793E-07
   46.14000     -7.2898854E-07
   46.20000     -8.3695141E-07
   46.26000     -9.6136466E-07
   46.32000     -1.1044790E-06
   46.38000     -1.2687947E-06
   46.44000     -1.4570736E-06
   46.50000     -1.6723537E-06
   46.56000     -1.9179713E-06
   46.62000     -2.1975879E-06
   46.68000     -2.5152178E-06
   46.74000     -2.8752590E-06
   46.80000     -3.2825217E-06
   46.86000     -3.7422549E-06
   46.92000     -4.2601719E-06
   46.98000     -4.8424690E-06
   47.04000     -5.4958496E-06
   47.10000     -6.2275358E-06
   47.16000     -7.0452820E-06
   47.22000     -7.9573856E-06
   47.28000     -8.9726909E-06
   47.34000     -1.0100598E-05
   47.40000     -1.1351057E-05
   47.46000     -1.2734566E-05
   47.52000     -1.4262155E-05
   47.58000     -1.5945365E-05
   47.64000     -1.7796216E-05
   47.70000     -1.9827175E-05
   47.76000     -2.2051117E-05
   47.82000     -2.4481278E-05
   47.88000     -2.7131216E-05
   47.94000     -3.0014755E-05
   48.00000     -3.3145923E-05
   48.06000     -3.6538888E-05
   48.12000     -4.0207859E-05
   48.18000     -4.4166987E-05
   48.24000     -4.8430240E-05
   48.30000     -5.3011285E-05
   48.36000     -5.7923335E-05
   48.42000     -6.3179039E-05
   48.48000     -6.8790338E-05
   48.54000     -7.4768344E-05
   48.60000     -8.1123224E-05
   48.66000     -8.7864013E-05
   48.72000     -9.4998562E-05
   48.78000     -1.0253332E-04
   48.84000     -1.1047322E-04
   48.90000     -1.1882160E-04
   48.96000     -1.2757994E-04
   49.02000     -1.3674784E-04
   49.08000     -1.4632283E-04
   49.14000     -1.5630024E-04
   49.20000     -1.6667321E-04
   49.26000     -1.7743246E-04
   49.32000     -1.8856642E-04
   49.38000     -2.0006113E-04
   49.44000     -2.1190022E-04
   49.50000     -2.2406506E-04
   49.56000     -2.3653472E-04
   49.62000     -2.4928595E-04
   49.68000     -2.6229347E-04
   49.74000     -2.7552983E-04
   49.80000     -2.8896570E-04
   49.86000     -3.0256994E-04
   49.92000     -3.1630986E-04
   49.98000     -3.3015147E-04
   50.04000     -3.4405975E-04
   50.10000     -3.5799886E-04
   50.16000     -3.7193240E-04
   50.22000     -3.8582383E-04
   50.28000     -3.9963669E-04
   50.34000     -4.1333481E-04
   50.40000     -4.2688285E-04
   50.46000     -4.4024648E-04
   50.52000     -4.5339265E-04
   50.58000     -4.6629008E-04
   50.64000     -4.7890921E-04
   50.70000     -4.9122283E-04
   50.76000     -5.0320628E-04
   50.82000     -5.1483756E-04
   50.88000     -5.2609789E-04
   50.94000     -5.3697155E-04
   51.00000     -5.4744619E-04
   51.06000     -5.5751298E-04
   51.12000     -5.6716672E-04
   51.18000     -5.7640567E-04
   51.24000     -5.8523187E-04
   51.30000     -5.9365062E-04
   51.36000     -6.0167094E-04
   51.42000     -6.0930499E-04
   51.48000     -6.1656843E-04
   51.54000     -6.2347949E-04
   51.60000     -6.3005934E-04
   51.66000     -6.3633162E-04
   51.72000     -6.4232183E-04
   51.78000     -6.4805761E-04
   51.84000     -6.5356790E-04
   51.90000     -6.5888278E-04
   51.96000     -6.6403305E-04
   52.02000     -6.6904974E-04
   52.08000     -6.7396351E-04
   52.14000     -6.7880435E-04
   52.20000     -6.8360113E-04
   52.26000     -6.8838114E-04
   52.32000     -6.9316989E-04
   52.38000     -6.9799082E-04
   52.44000     -7.0286496E-04
   52.50000     -7.0781040E-04
   52.56000     -7.1284239E-04
   52.62000     -7.1797270E-04
   52.68000     -7.2320981E-04
   52.74000     -7.2855846E-04
   52.80000     -7.3401968E-04
   52.86000     -7.3959108E-04
   52.92000     -7.4526638E-04
   52.98000     -7.5103599E-04
   53.04000     -7.5688667E-04
   53.10000     -7.6280220E-04
   53.16000     -7.6876319E-04
   53.22000     -7.7474763E-04
   53.28000     -7.8073121E-04
   53.34000     -7.8668754E-04
   53.40000     -7.9258863E-04
   53.46000     -7.9840492E-04
   53.52000     -8.0410612E-04
   53.58000     -8.0966158E-04
   53.64000     -8.1504049E-04
   53.70000     -8.2021265E-04
   53.76000     -8.2514877E-04
   53.82000     -8.2982099E-04
   53.88000     -8.3420298E-04
   53.94000     -8.3827053E-04
   54.00000     -8.4200164E-04
   54.06000     -8.4537693E-04
   54.12000     -8.4837998E-04
   54.18000     -8.5099763E-04
   54.24000     -8.5322018E-04
   54.30000     -8.5504132E-04
   54.36000     -8.5645833E-04
   54.42000     -8.5747201E-04
   54.48000     -8.5808663E-04
   54.54000     -8.5830968E-04
   54.60000     -8.5815217E-04
   54.66000     -8.5762783E-04
   54.72000     -8.5675350E-04
   54.78000     -8.5554842E-04
   54.84000     -8.5403433E-04
   54.90000     -8.5223466E-04
   54.96000     -8.5017452E-04
   55.02000     -8.4788020E-04
   55.08000     -8.4537885E-04
   55.14000     -8.4269745E-04
   55.20000     -8.3986297E-04
   55.26000     -8.3690183E-04
   55.32000     -8.3383953E-04
   55.38000     -8.3069992E-04
   55.44000     -8.2750560E-04
   55.50000     -8.2427688E-04
   55.56000     -8.2103192E-04