  -2.400000      0.0000000E+00
  -2.340000      0.0000000E+00
  -2.280000      0.0000000E+00
  -2.220000      0.0000000E+00
  -2.160000     -8.5252382E-19
  -2.100000     -6.4497613E-18
  -2.040000     -2.5086385E-17
  -1.980000     -6.4973244E-17
  -1.920000     -1.2182447E-16
  -1.860000     -1.6913428E-16
  -1.800000     -1.7574699E-16
  -1.740000     -1.6791508E-16
  -1.680000     -3.0454943E-16
  -1.620000     -8.5851114E-16
  -1.560000     -1.9584827E-15
  -1.500000     -3.0362644E-15
  -1.440000     -2.1871320E-15
  -1.380000      4.0019596E-15
  -1.320000      1.9414590E-14
  -1.260000      4.5694798E-14
  -1.200000      7.8303751E-14
  -1.140000      1.0309083E-13
  -1.080000      9.6178904E-14
  -1.020000      2.9855170E-14
 -0.9600000     -1.1476514E-13
 -0.9000000     -3.3111898E-13
 -0.8400000     -5.7339718E-13
 -0.7800000     -7.5453646E-13
 -0.7200000     -7.6327730E-13
 -0.6600000     -5.0116936E-13
 -0.6000000      6.9240146E-14
 -0.5400000      8.8288491E-13
 -0.4800000      1.7587864E-12
 -0.4200000      2.4306230E-12
 -0.3600000      2.6219543E-12
 -0.3000000      2.1466700E-12
 -0.2400000      9.9843929E-13
 -0.1800000     -6.1141288E-13
 -0.1200000     -2.2947631E-12
 -5.9999999E-02 -3.6041675E-12
  0.0000000E+00 -4.1899336E-12
  5.9999999E-02 -3.9345619E-12
  0.1200000     -3.0011421E-12
  0.1800000     -1.7609658E-12
  0.2400000     -6.1696676E-13
  0.3000000      2.0626111E-13
  0.3600000      8.0372395E-13
  0.4200000      1.5721559E-12
  0.4800000      3.0016946E-12
  0.5400000      5.3348784E-12
  0.6000000      8.2344296E-12
  0.6600000      1.0638757E-11
  0.7200000      1.0946639E-11
  0.7800000      7.5593655E-12
  0.8400000     -3.4750301E-13
  0.9000000     -1.2090644E-11
  0.9600000     -2.5111344E-11
   1.020000     -3.5237674E-11
   1.080000     -3.7653589E-11
   1.140000     -2.8393735E-11
   1.200000     -5.9424111E-12
   1.260000      2.7609011E-11
   1.320000      6.6332086E-11
   1.380000      1.0139516E-10
   1.440000      1.2302555E-10
   1.500000      1.2299413E-10
   1.560000      9.6886908E-11
   1.620000      4.5441671E-11
   1.680000     -2.5494249E-11
   1.740000     -1.0636524E-10
   1.800000     -1.8615447E-10
   1.860000     -2.5462457E-10
   1.920000     -3.0365668E-10
   1.980000     -3.2709024E-10
   2.040000     -3.1901490E-10
   2.100000     -2.7109012E-10
   2.160000     -1.6992600E-10
   2.220000      4.3195647E-12
   2.280000      2.7726874E-10
   2.340000      6.7734529E-10
   2.400000      1.2310167E-09
   2.460000      1.9574076E-09
   2.520000      2.8637051E-09
   2.580000      3.9425889E-09
   2.640000      5.1723457E-09
   2.700000      6.5195374E-09
   2.760000      7.9434184E-09
   2.820000      9.4008765E-09
   2.880000      1.0850749E-08
   2.940000      1.2256748E-08
   3.000000      1.3588896E-08
   3.060000      1.4823893E-08
   3.120000      1.5945172E-08
   3.180000      1.6943275E-08
   3.240000      1.7816804E-08
   3.300000      1.8573580E-08
   3.360000      1.9231232E-08
   3.420000      1.9816280E-08
   3.480000      2.0361055E-08
   3.540000      2.0898419E-08
   3.600000      2.1455092E-08
   3.660000      2.2045011E-08
   3.720000      2.2664423E-08
   3.780000      2.3290189E-08
   3.840000      2.3881979E-08
   3.900000      2.4388008E-08
   3.960000      2.4753035E-08
   4.020000      2.4926644E-08
   4.080000      2.4869971E-08
   4.140000      2.4559572E-08
   4.200000      2.3988225E-08
   4.260000      2.3163487E-08
   4.320000      2.2105526E-08
   4.380000      2.0845626E-08
   4.440000      1.9426198E-08
   4.500000      1.7901858E-08
   4.560000      1.6340120E-08
   4.620000      1.4819752E-08
   4.680000      1.3425191E-08
   4.740000      1.2236661E-08
   4.800000      1.1317358E-08
   4.860000      1.0700646E-08
   4.920000      1.0380979E-08
   4.980000      1.0311835E-08
   5.040000      1.0412373E-08
   5.100000      1.0582118E-08
   5.160000      1.0720635E-08
   5.220000      1.0747558E-08
   5.280000      1.0618048E-08
   5.340000      1.0329989E-08
   5.400000      9.9214557E-09
   5.460000      9.4596926E-09
   5.520000      9.0250243E-09
   5.580000      8.6941689E-09
   5.640000      8.5271070E-09
   5.700000      8.5600975E-09
   5.760000      8.8052383E-09
   5.820000      9.2549808E-09
   5.880000      9.8887556E-09
   5.940000      1.0678874E-08
   6.000000      1.1593869E-08
   6.060000      1.2599070E-08
   6.120000      1.3655725E-08
   6.180000      1.4720746E-08
   6.240000      1.5748910E-08
   6.300000      1.6698088E-08
   6.360000      1.7536413E-08
   6.420000      1.8248885E-08
   6.480000      1.8840307E-08
   6.540000      1.9332278E-08
   6.600000      1.9753756E-08
   6.660000      2.0127157E-08
   6.720000      2.0454078E-08
   6.780000      2.0705718E-08
   6.840000      2.0822286E-08
   6.900000      2.0723286E-08
   6.960000      2.0327096E-08
   7.020000      1.9574822E-08
   7.080000      1.8451200E-08
   7.140000      1.6995433E-08
   7.200000      1.5297214E-08
   7.260000      1.3477598E-08
   7.320000      1.1659258E-08
   7.380000      9.9344506E-09
   7.440000      8.3404235E-09
   7.500000      6.8501746E-09
   7.560000      5.3820615E-09
   7.620000      3.8259236E-09
   7.680000      2.0781210E-09
   7.740000      7.4959879E-11
   7.800000     -2.1856390E-09
   7.860000     -4.6407389E-09
   7.920000     -7.1781106E-09
   7.980000     -9.6660937E-09
   8.040000     -1.1988449E-08
   8.100000     -1.4073875E-08
   8.160000     -1.5911850E-08
   8.220000     -1.7550898E-08
   8.280000     -1.9080730E-08
   8.340000     -2.0604318E-08
   8.400000     -2.2208557E-08
   8.460000     -2.3942064E-08
   8.520000     -2.5806083E-08
   8.580000     -2.7760466E-08
   8.640000     -2.9742187E-08
   8.700000     -3.1690409E-08
   8.760000     -3.3570299E-08
   8.820000     -3.5388339E-08
   8.880000     -3.7194301E-08
   8.940000     -3.9068951E-08
   9.000000     -4.1100684E-08
   9.060000     -4.3357677E-08
   9.120000     -4.5863825E-08
   9.180000     -4.8585935E-08
   9.240000     -5.1436658E-08
   9.300000     -5.4293160E-08
   9.360000     -5.7026600E-08
   9.420000     -5.9534109E-08
   9.480000     -6.1763629E-08
   9.540000     -6.3724066E-08
   9.600000     -6.5477465E-08
   9.660000     -6.7115586E-08
   9.720000     -6.8728497E-08
   9.780000     -7.0375087E-08
   9.840000     -7.2064971E-08
   9.900000     -7.3757249E-08
   9.960000     -7.5375787E-08
   10.02000     -7.6835128E-08
   10.08000     -7.8067615E-08
   10.14000     -7.9042067E-08
   10.20000     -7.9767894E-08
   10.26000     -8.0283485E-08
   10.32000     -8.0633683E-08
   10.38000     -8.0844615E-08
   10.44000     -8.0905060E-08
   10.50000     -8.0761097E-08
   10.56000     -8.0326238E-08
   10.62000     -7.9504098E-08
   10.68000     -7.8216857E-08
   10.74000     -7.6430801E-08
   10.80000     -7.4171524E-08
   10.86000     -7.1524084E-08
   10.92000     -6.8617759E-08
   10.98000     -6.5599252E-08
   11.04000     -6.2600982E-08
   11.10000     -5.9712619E-08
   11.16000     -5.6962939E-08
   11.22000     -5.4316743E-08
   11.28000     -5.1687419E-08
   11.34000     -4.8961944E-08
   11.40000     -4.6031708E-08
   11.46000     -4.2821121E-08
   11.52000     -3.9306645E-08
   11.58000     -3.5521815E-08
   11.64000     -3.1547838E-08
   11.70000     -2.7493400E-08
   11.76000     -2.3470047E-08
   11.82000     -1.9570228E-08
   11.88000     -1.5853432E-08
   11.94000     -1.2342886E-08
   12.00000     -9.0317753E-09
   12.06000     -5.8953789E-09
   12.12000     -2.9043519E-09
   12.18000     -3.5062613E-11
   12.24000      2.7253975E-09
   12.30000      5.3797047E-09
   12.36000      7.9247044E-09
   12.42000      1.0357237E-08
   12.48000      1.2678966E-08
   12.54000      1.4898560E-08
   12.60000      1.7030764E-08
   12.66000      1.9092914E-08
   12.72000      2.1100293E-08
   12.78000      2.3061967E-08
   12.84000      2.4978647E-08
   12.90000      2.6843372E-08
   12.96000      2.8645015E-08
   13.02000      3.0373492E-08
   13.08000      3.2024943E-08
   13.14000      3.3604909E-08
   13.20000      3.5128064E-08
   13.26000      3.6614153E-08
   13.32000      3.8081176E-08
   13.38000      3.9538037E-08
   13.44000      4.0979401E-08
   13.50000      4.2384894E-08
   13.56000      4.3723709E-08
   13.62000      4.4963663E-08
   13.68000      4.6082157E-08
   13.74000      4.7075581E-08
   13.80000      4.7963848E-08
   13.86000      4.8787964E-08
   13.92000      4.9600835E-08
   13.98000      5.0453487E-08
   14.04000      5.1380589E-08
   14.10000      5.2389574E-08
   14.16000      5.3456635E-08
   14.22000      5.4530958E-08
   14.28000      5.5546110E-08
   14.34000      5.6435464E-08
   14.40000      5.7147478E-08
   14.46000      5.7656944E-08
   14.52000      5.7969576E-08
   14.58000      5.8119234E-08
   14.64000      5.8158925E-08
   14.70000      5.8147858E-08
   14.76000      5.8137474E-08
   14.82000      5.8159273E-08
   14.88000      5.8216738E-08
   14.94000      5.8283060E-08
   15.00000      5.8305595E-08
   15.06000      5.8216752E-08
   15.12000      5.7949727E-08
   15.18000      5.7455956E-08
   15.24000      5.6719756E-08
   15.30000      5.5765806E-08
   15.36000      5.4656144E-08
   15.42000      5.3476320E-08
   15.48000      5.2313727E-08
   15.54000      5.1234235E-08
   15.60000      5.0264426E-08
   15.66000      4.9385438E-08
   15.72000      4.8540887E-08
   15.78000      4.7656549E-08
   15.84000      4.6665249E-08
   15.90000      4.5528648E-08
   15.96000      4.4248548E-08
   16.02000      4.2864244E-08
   16.08000      4.1437492E-08
   16.14000      4.0030944E-08
   16.20000      3.8688118E-08
   16.26000      3.7421874E-08
   16.32000      3.6215038E-08
   16.38000      3.5032166E-08
   16.44000      3.3837559E-08
   16.50000      3.2612729E-08
   16.56000      3.1367172E-08
   16.62000      3.0138978E-08
   16.68000      2.8985482E-08
   16.74000      2.7967301E-08
   16.80000      2.7130861E-08
   16.86000      2.6494559E-08
   16.92000      2.6042114E-08
   16.98000      2.5724503E-08
   17.04000      2.5469589E-08
   17.10000      2.5196986E-08
   17.16000      2.4834847E-08
   17.22000      2.4335160E-08
   17.28000      2.3684578E-08
   17.34000      2.2908559E-08
   17.40000      2.2067683E-08
   17.46000      2.1246317E-08
   17.52000      2.0535467E-08
   17.58000      2.0013081E-08
   17.64000      1.9726144E-08
   17.70000      1.9679060E-08
   17.76000      1.9831633E-08
   17.82000      2.0107816E-08
   17.88000      2.0413417E-08
   17.94000      2.0658380E-08
   18.00000      2.0777660E-08
   18.06000      2.0744915E-08
   18.12000      2.0575193E-08
   18.18000      2.0316129E-08
   18.24000      2.0030583E-08
   18.30000      1.9776289E-08
   18.36000      1.9588802E-08
   18.42000      1.9472779E-08
   18.48000      1.9403721E-08
   18.54000      1.9338724E-08
   18.60000      1.9232093E-08
   18.66000      1.9050212E-08
   18.72000      1.8780858E-08
   18.78000      1.8434280E-08
   18.84000      1.8036317E-08
   18.90000      1.7616429E-08
   18.96000      1.7194836E-08
   19.02000      1.6772974E-08
   19.08000      1.6329995E-08
   19.14000      1.5826013E-08
   19.20000      1.5210725E-08
   19.26000      1.4434639E-08
   19.32000      1.3459601E-08
   19.38000      1.2265750E-08
   19.44000      1.0853090E-08
   19.50000      9.2373424E-09
   19.56000      7.4411952E-09
   19.62000      5.4832645E-09
   19.68000      3.3677852E-09
   19.74000      1.0780503E-09
   19.80000     -1.4240855E-09
   19.86000     -4.1917305E-09
   19.92000     -7.2803843E-09
   19.98000     -1.0731951E-08
   20.04000     -1.4559285E-08
   20.10000     -1.8735550E-08
   20.16000     -2.3191806E-08
   20.22000     -2.7824269E-08
   20.28000     -3.2510112E-08
   20.34000     -3.7128228E-08
   20.40000     -4.1579742E-08
   20.46000     -4.5802970E-08
   20.52000     -4.9778965E-08
   20.58000     -5.3526442E-08
   20.64000     -5.7088052E-08
   20.70000     -6.0512484E-08
   20.76000     -6.3837845E-08
   20.82000     -6.7081352E-08
   20.88000     -7.0237739E-08
   20.94000     -7.3286067E-08
   21.00000     -7.6201466E-08
   21.06000     -7.8967275E-08
   21.12000     -8.1582769E-08
   21.18000     -8.4063934E-08
   21.24000     -8.6437254E-08
   21.30000     -8.8729159E-08
   21.36000     -9.0955325E-08
   21.42000     -9.3113762E-08
   21.48000     -9.5184333E-08
   21.54000     -9.7134638E-08
   21.60000     -9.8930194E-08
   21.66000     -1.0054518E-07
   21.72000     -1.0197012E-07
   21.78000     -1.0321394E-07
   21.84000     -1.0430009E-07
   21.90000     -1.0525802E-07
   21.96000     -1.0611335E-07
   22.02000     -1.0687976E-07
   22.08000     -1.0755536E-07
   22.14000     -1.0812455E-07
   22.20000     -1.0856458E-07
   22.26000     -1.0885442E-07
   22.32000     -1.0898285E-07
   22.38000     -1.0895300E-07
   22.44000     -1.0878178E-07
   22.50000     -1.0849395E-07
   22.56000     -1.0811286E-07
   22.62000     -1.0765032E-07
   22.68000     -1.0709899E-07
   22.74000     -1.0642928E-07
   22.80000     -1.0559224E-07
   22.86000     -1.0452789E-07
   22.92000     -1.0317735E-07
   22.98000     -1.0149623E-07
   23.04000     -9.9466376E-08
   23.10000     -9.7103118E-08
   23.16000     -9.4456240E-08
   23.22000     -9.1603596E-08
   23.28000     -8.8638117E-08
   23.34000     -8.5650541E-08
   23.40000     -8.2711445E-08
   23.46000     -7.9857045E-08
   23.52000     -7.7082852E-08
   23.58000     -7.4347220E-08
   23.64000     -7.1584729E-08
   23.70000     -6.8725967E-08
   23.76000     -6.5718673E-08
   23.82000     -6.2544181E-08
   23.88000     -5.9224707E-08
   23.94000     -5.5819548E-08
   24.00000     -5.2411551E-08
   24.06000     -4.9088204E-08
   24.12000     -4.5922928E-08
   24.18000     -4.2961968E-08
   24.24000     -4.0220222E-08
   24.30000     -3.7686569E-08
   24.36000     -3.5336424E-08
   24.42000     -3.3147199E-08
   24.48000     -3.1111821E-08
   24.54000     -2.9246239E-08
   24.60000     -2.7588779E-08
   24.66000     -2.6191850E-08
   24.72000     -2.5108555E-08
   24.78000     -2.4378359E-08
   24.84000     -2.4016018E-08
   24.90000     -2.4006985E-08
   24.96000     -2.4310493E-08
   25.02000     -2.4869278E-08
   25.08000     -2.5623086E-08
   25.14000     -2.6522081E-08
   25.20000     -2.7536508E-08
   25.26000     -2.8660097E-08
   25.32000     -2.9906538E-08
   25.38000     -3.1300235E-08
   25.44000     -3.2864094E-08
   25.50000     -3.4607758E-08
   25.56000     -3.6519644E-08
   25.62000     -3.8564821E-08
   25.68000     -4.0689244E-08
   25.74000     -4.2828930E-08
   25.80000     -4.4921151E-08
   25.86000     -4.6914334E-08
   25.92000     -4.8773686E-08
   25.98000     -5.0481223E-08
   26.04000     -5.2030874E-08
   26.10000     -5.3420848E-08
   26.16000     -5.4646385E-08
   26.22000     -5.5695530E-08
   26.28000     -5.6549105E-08
   26.34000     -5.7184259E-08
   26.40000     -5.7579694E-08
   26.46000     -5.7720193E-08
   26.52000     -5.7598704E-08
   26.58000     -5.7215697E-08
   26.64000     -5.6576681E-08
   26.70000     -5.5689451E-08
   26.76000     -5.4562513E-08
   26.82000     -5.3205007E-08
   26.88000     -5.1627655E-08
   26.94000     -4.9843585E-08
   27.00000     -4.7868102E-08
   27.06000     -4.5717293E-08
   27.12000     -4.3405976E-08
   27.18000     -4.0946198E-08
   27.24000     -3.8346947E-08
   27.30000     -3.5615152E-08
   27.36000     -3.2757086E-08
   27.42000     -2.9779237E-08
   27.48000     -2.6687808E-08
   27.54000     -2.3487264E-08
   27.60000     -2.0178950E-08
   27.66000     -1.6761264E-08
   27.72000     -1.3232220E-08
   27.78000     -9.5940571E-09
   27.84000     -5.8584164E-09
   27.90000     -2.0500006E-09
   27.96000      1.7928695E-09
   28.02000      5.6211857E-09
   28.08000      9.3806607E-09
   28.14000      1.3017790E-08
   28.20000      1.6484874E-08
   28.26000      1.9743245E-08
   28.32000      2.2765065E-08
   28.38000      2.5534694E-08
   28.44000      2.8050222E-08
   28.50000      3.0324742E-08
   28.56000      3.2385845E-08
   28.62000      3.4271547E-08
   28.68000      3.6021898E-08
   28.74000      3.7667430E-08
   28.80000      3.9217920E-08
   28.86000      4.0655717E-08
   28.92000      4.1937426E-08
   28.98000      4.3004842E-08
   29.04000      4.3802750E-08
   29.10000      4.4298108E-08
   29.16000      4.4494151E-08
   29.22000      4.4434181E-08
   29.28000      4.4193342E-08
   29.34000      4.3860680E-08
   29.40000      4.3517137E-08
   29.46000      4.3216243E-08
   29.52000      4.2973095E-08
   29.58000      4.2764103E-08
   29.64000      4.2536371E-08
   29.70000      4.2222904E-08
   29.76000      4.1758682E-08
   29.82000      4.1093468E-08
   29.88000      4.0199076E-08
   29.94000      3.9071107E-08
   30.00000      3.7726434E-08
   30.06000      3.6198227E-08
   30.12000      3.4529787E-08
   30.18000      3.2767769E-08
   30.24000      3.0955050E-08
   30.30000      2.9123717E-08
   30.36000      2.7289545E-08
   30.42000      2.5449557E-08
   30.48000      2.3584182E-08
   30.54000      2.1664226E-08
   30.60000      1.9661067E-08
   30.66000      1.7556966E-08
   30.72000      1.5351912E-08
   30.78000      1.3064506E-08
   30.84000      1.0726576E-08
   30.90000      8.3737977E-09
   30.96000      6.0361933E-09
   31.02000      3.7323371E-09
   31.08000      1.4693525E-09
   31.14000     -7.5193834E-10
   31.20000     -2.9297251E-09
   31.26000     -5.0557336E-09
   31.32000     -7.1145827E-09
   31.38000     -9.0885992E-09
   31.44000     -1.0966058E-08
   31.50000     -1.2749097E-08
   31.56000     -1.4457582E-08
   31.62000     -1.6126997E-08
   31.68000     -1.7800980E-08
   31.74000     -1.9521408E-08
   31.80000     -2.1319767E-08
   31.86000     -2.3212742E-08
   31.92000     -2.5202986E-08
   31.98000     -2.7283699E-08
   32.04000     -2.9444328E-08
   32.10000     -3.1674656E-08
   32.16000     -3.3965826E-08
   32.22000     -3.6308702E-08
   32.28000     -3.8691514E-08
   32.34000     -4.1099049E-08
   32.40000     -4.3514884E-08
   32.46000     -4.5926381E-08
   32.52000     -4.8330453E-08
   32.58000     -5.0737111E-08
   32.64000     -5.3168243E-08
   32.70000     -5.5650688E-08
   32.76000     -5.8204964E-08
   32.82000     -6.0833003E-08
   32.88000     -6.3509233E-08
   32.94000     -6.6178671E-08
   33.00000     -6.8763413E-08
   33.06000     -7.1176402E-08
   33.12000     -7.3338533E-08
   33.18000     -7.5194016E-08
   33.24000     -7.6719296E-08
   33.30000     -7.7923247E-08
   33.36000     -7.8838575E-08
   33.42000     -7.9507991E-08
   33.48000     -7.9969247E-08
   33.54000     -8.0243801E-08
   33.60000     -8.0331972E-08
   33.66000     -8.0215152E-08
   33.72000     -7.9863611E-08
   33.78000     -7.9247087E-08
   33.84000     -7.8344868E-08
   33.90000     -7.7153075E-08
   33.96000     -7.5687623E-08
   34.02000     -7.3982733E-08
   34.08000     -7.2085427E-08
   34.14000     -7.0047271E-08
   34.20000     -6.7915003E-08
   34.26000     -6.5721821E-08
   34.32000     -6.3481664E-08
   34.38000     -6.1188068E-08
   34.44000     -5.8818518E-08
   34.50000     -5.6343694E-08
   34.56000     -5.3739218E-08
   34.62000     -5.0996427E-08
   34.68000     -4.8128612E-08
   34.74000     -4.5170331E-08
   34.80000     -4.2169823E-08
   34.86000     -3.9176950E-08
   34.92000     -3.6231135E-08
   34.98000     -3.3353643E-08
   35.04000     -3.0547312E-08
   35.10000     -2.7803738E-08
   35.16000     -2.5115094E-08
   35.22000     -2.2485672E-08
   35.28000     -1.9938193E-08
   35.34000     -1.7511828E-08
   35.40000     -1.5252047E-08
   35.46000     -1.3195736E-08
   35.52000     -1.1357025E-08
   35.58000     -9.7192911E-09
   35.64000     -8.2367446E-09
   35.70000     -6.8455259E-09
   35.76000     -5.4808598E-09
   35.82000     -4.0945376E-09
   35.88000     -2.6668927E-09
   35.94000     -1.2094150E-09
   36.00000      2.4252397E-10
   36.06000      1.6438875E-09
   36.12000      2.9558691E-09
   36.18000      4.1578452E-09
   36.24000      5.2514322E-09
   36.30000      6.2557439E-09
   36.36000      7.1961632E-09
   36.42000      8.0911962E-09
   36.48000      8.9424175E-09
   36.54000      9.7311030E-09
   36.60000      1.0422423E-08
   36.66000      1.0975166E-08
   36.72000      1.1352984E-08
   36.78000      1.1532796E-08
   36.84000      1.1507346E-08
   36.90000      1.1281407E-08
   36.96000      1.0863649E-08
   37.02000      1.0257817E-08
   37.08000      9.4569055E-09
   37.14000      8.4425480E-09
   37.20000      7.1895889E-09
   37.26000      5.6736362E-09
   37.32000      3.8784069E-09
   37.38000      1.8000462E-09
   37.44000     -5.5274579E-10
   37.50000     -3.1619272E-09
   37.56000     -6.0042913E-09
   37.62000     -9.0539842E-09
   37.68000     -1.2281791E-08
   37.74000     -1.5651530E-08
   37.80000     -1.9115703E-08
   37.86000     -2.2613353E-08
   37.92000     -2.6072556E-08
   37.98000     -2.9418077E-08
   38.04000     -3.2582498E-08
   38.10000     -3.5517296E-08
   38.16000     -3.8200010E-08
   38.22000     -4.0634802E-08
   38.28000     -4.2846082E-08
   38.34000     -4.4867413E-08
   38.40000     -4.6729692E-08
   38.46000     -4.8452645E-08
   38.52000     -5.0042388E-08
   38.58000     -5.1495118E-08
   38.64000     -5.2804751E-08
   38.70000     -5.3970847E-08
   38.76000     -5.5003358E-08
   38.82000     -5.5922417E-08
   38.88000     -5.6753677E-08
   38.94000     -5.7521522E-08
   39.00000     -5.8243220E-08
   39.06000     -5.8926268E-08
   39.12000     -5.9569562E-08
   39.18000     -6.0167132E-08
   39.24000     -6.0712210E-08
   39.30000     -6.1199643E-08
   39.36000     -6.1625848E-08
   39.42000     -6.1986796E-08
   39.48000     -6.2275767E-08
   39.54000     -6.2482229E-08
   39.60000     -6.2592186E-08
   39.66000     -6.2589443E-08
   39.72000     -6.2456358E-08
   39.78000     -6.2173051E-08
   39.84000     -6.1715369E-08
   39.90000     -6.1053186E-08
   39.96000     -6.0151159E-08
   40.02000     -5.8973331E-08
   40.08000     -5.7491036E-08
   40.14000     -5.5691626E-08
   40.20000     -5.3583989E-08
   40.26000     -5.1197766E-08
   40.32000     -4.8575231E-08
   40.38000     -4.5758220E-08
   40.44000     -4.2774957E-08
   40.50000     -3.9632496E-08
   40.56000     -3.6318610E-08
   40.62000     -3.2813411E-08
   40.68000     -2.9106843E-08
   40.74000     -2.5215598E-08
   40.80000     -2.1192708E-08
   40.86000     -1.7125776E-08
   40.92000     -1.3123932E-08
   40.98000     -9.2978842E-09
   41.04000     -5.7397855E-09
   41.10000     -2.5093840E-09
   41.16000      3.6982037E-10
   41.22000      2.9046863E-09
   41.28000      5.1205777E-09
   41.34000      7.0489850E-09
   41.40000      8.7193079E-09
   41.46000      1.0156885E-08
   41.52000      1.1386184E-08
   41.58000      1.2435755E-08
   41.64000      1.3341042E-08
   41.70000      1.4142621E-08
   41.76000      1.4879911E-08
   41.82000      1.5582870E-08
   41.88000      1.6265320E-08
   41.94000      1.6922941E-08
   42.00000      1.7537010E-08
   42.06000      1.8082408E-08
   42.12000      1.8536824E-08
   42.18000      1.8887576E-08
   42.24000      1.9133919E-08
   42.30000      1.9284579E-08
   42.36000      1.9352342E-08
   42.42000      1.9348349E-08
   42.48000      1.9278403E-08
   42.54000      1.9142163E-08
   42.60000      1.8934555E-08
   42.66000      1.8647794E-08
   42.72000      1.8272544E-08
   42.78000      1.7797658E-08
   42.84000      1.7209137E-08
   42.90000      1.6489539E-08
   42.96000      1.5618802E-08
   43.02000      1.4576446E-08
   43.08000      1.3344027E-08
   43.14000      1.1906319E-08
   43.20000      1.0250281E-08
   43.26000      8.3622762E-09
   43.32000      6.2254597E-09
   43.38000      3.8197951E-09
   43.44000      1.1263669E-09
   43.50000     -1.8643758E-09
   43.56000     -5.1432023E-09
   43.62000     -8.6757526E-09
   43.68000     -1.2403228E-08
   43.74000     -1.6251876E-08
   43.80000     -2.0149605E-08
   43.86000     -2.4044819E-08
   43.92000     -2.7921022E-08
   43.98000     -3.1801484E-08
   44.04000     -3.5741461E-08
   44.10000     -3.9809638E-08
   44.16000     -4.4064308E-08
   44.22000     -4.8531689E-08
   44.28000     -5.3193183E-08
   44.34000     -5.7985478E-08
   44.40000     -6.2813307E-08
   44.46000     -6.7570880E-08
   44.52000     -7.2165768E-08
   44.58000     -7.6538605E-08
   44.64000     -8.0673985E-08
   44.70000     -8.4600472E-08
   44.76000     -8.8381050E-08
   44.82000     -9.2097423E-08
   44.88000     -9.5833038E-08
   44.94000     -9.9659331E-08
   45.00000     -1.0362862E-07
   45.06000     -1.0777502E-07
   45.12000     -1.1212268E-07
   45.18000     -1.1669894E-07
   45.24000     -1.2154838E-07
   45.30000     -1.2674423E-07
   45.36000     -1.3239369E-07
   45.42000     -1.3863639E-07
   45.48000     -1.4563653E-07
   45.54000     -1.5357257E-07
   45.60000     -1.6262904E-07
   45.66000     -1.7299462E-07
   45.72000     -1.8486944E-07
   45.78000     -1.9848115E-07
   45.84000     -2.1410654E-07
   45.90000     -2.3209323E-07
   45.96000     -2.5287622E-07
   46.02000     -2.7698565E-07
   46.08000     -3.0504569E-07
   46.14000     -3.3776826E-07
   46.20000     -3.7594685E-07
   46.26000     -4.2045662E-07
   46.32000     -4.7226430E-07
   46.38000     -5.3244798E-07
   46.44000     -6.0222391E-07
   46.50000     -6.8297464E-07
   46.56000     -7.7627317E-07
   46.62000     -8.8390118E-07
   46.68000     -1.0078595E-06
   46.74000     -1.1503766E-06
   46.80000     -1.3139166E-06
   46.86000     -1.5011912E-06
   46.92000     -1.7151784E-06
   46.98000     -1.9591448E-06
   47.04000     -2.2366703E-06
   47.10000     -2.5516722E-06
   47.16000     -2.9084285E-06
   47.22000     -3.3115991E-06
   47.28000     -3.7662448E-06
   47.34000     -4.2778483E-06
   47.40000     -4.8523375E-06
   47.46000     -5.4961019E-06
   47.52000     -6.2160157E-06
   47.58000     -7.0194437E-06
   47.64000     -7.9142574E-06
   47.70000     -8.9088335E-06
   47.76000     -1.0012051E-05
   47.82000     -1.1233290E-05
   47.88000     -1.2582420E-05
   47.94000     -1.4069780E-05
   48.00000     -1.5706168E-05
   48.06000     -1.7502805E-05
   48.12000     -1.9471303E-05
   48.18000     -2.1623624E-05
   48.24000     -2.3972041E-05
   48.30000     -2.6529091E-05
   48.36000     -2.9307521E-05
   48.42000     -3.2320229E-05
   48.48000     -3.5580208E-05
   48.54000     -3.9100440E-05
   48.60000     -4.2893811E-05
   48.66000     -4.6972986E-05
   48.72000     -5.1350307E-05
   48.78000     -5.6037654E-05
   48.84000     -6.1046354E-05
   48.90000     -6.6387038E-05
   48.96000     -7.2069532E-05
   49.02000     -7.8102712E-05
   49.08000     -8.4494415E-05
   49.14000     -9.1251284E-05
   49.20000     -9.8378674E-05
   49.26000     -1.0588048E-04
   49.32000     -1.1375906E-04
   49.38000     -1.2201511E-04
   49.44000     -1.3064758E-04
   49.50000     -1.3965352E-04
   49.56000     -1.4902813E-04
   49.62000     -1.5876454E-04
   49.68000     -1.6885386E-04
   49.74000     -1.7928513E-04
   49.80000     -1.9004523E-04
   49.86000     -2.0111898E-04
   49.92000     -2.1248915E-04
   49.98000     -2.2413646E-04
   50.04000     -2.3603973E-04
   50.10000     -2.4817599E-04
   50.16000     -2.6052049E-04
   50.22000     -2.7304693E-04
   50.28000     -2.8572750E-04
   50.34000     -2.9853327E-04
   50.40000     -3.1143421E-04
   50.46000     -3.2439953E-04
   50.52000     -3.3739788E-04
   50.58000     -3.5039757E-04
   50.64000     -3.6336691E-04
   50.70000     -3.7627443E-04
   50.76000     -3.8908914E-04
   50.82000     -4.0178094E-04
   50.88000     -4.1432079E-04
   50.94000     -4.2668084E-04
   51.00000     -4.3883504E-04
   51.06000     -4.5075899E-04
   51.12000     -4.6243041E-04
   51.18000     -4.7382931E-04
   51.24000     -4.8493815E-04
   51.30000     -4.9574208E-04
   51.36000     -5.0622912E-04
   51.42000     -5.1639014E-04
   51.48000     -5.2621879E-04
   51.54000     -5.3571205E-04
   51.60000     -5.4486981E-04
   51.66000     -5.5369479E-04
   51.72000     -5.6219281E-04
   51.78000     -5.7037245E-04
   51.84000     -5.7824492E-04
   51.90000     -5.8582373E-04
   51.96000     -5.9312460E-04
   52.02000     -6.0016545E-04
   52.08000     -6.0696568E-04
   52.14000     -6.1354612E-04
   52.20000     -6.1992859E-04
   52.26000     -6.2613591E-04
   52.32000     -6.3219114E-04
   52.38000     -6.3811737E-04
   52.44000     -6.4393762E-04
   52.50000     -6.4967386E-04
   52.56000     -6.5534748E-04
   52.62000     -6.6097814E-04
   52.68000     -6.6658412E-04
   52.74000     -6.7218178E-04
   52.80000     -6.7778508E-04
   52.86000     -6.8340579E-04
   52.92000     -6.8905303E-04
   52.98000     -6.9473323E-04
   53.04000     -7.0044992E-04
   53.10000     -7.0620375E-04
   53.16000     -7.1199238E-04
   53.22000     -7.1781036E-04
   53.28000     -7.2364946E-04
   53.34000     -7.2949880E-04
   53.40000     -7.3534471E-04
   53.46000     -7.4117159E-04
   53.52000     -7.4696145E-04
   53.58000     -7.5269479E-04
   53.64000     -7.5835013E-04
   53.70000     -7.6390483E-04
   53.76000     -7.6933537E-04
   53.82000     -7.7461742E-04
   53.88000     -7.7972666E-04
   53.94000     -7.8463904E-04
   54.00000     -7.8933121E-04
   54.06000     -7.9378090E-04
   54.12000     -7.9796702E-04
   54.18000     -8.0186978E-04
   54.24000     -8.0547144E-04
   54.30000     -8.0875616E-04
   54.36000     -8.1171043E-04
   54.42000     -8.1432360E-04
   54.48000     -8.1658777E-04
   54.54000     -8.1849803E-04
   54.60000     -8.2005234E-04
   54.66000     -8.2125131E-04
   54.72000     -8.2209840E-04
   54.78000     -8.2259974E-04
   54.84000     -8.2276395E-04
   54.90000     -8.2260207E-04
   54.96000     -8.2212774E-04
   55.02000     -8.2135655E-04
   55.08000     -8.2030572E-04
   55.14000     -8.1899395E-04
   55.20000     -8.1744109E-04
   55.26000     -8.1566750E-04
   55.32000     -8.1369403E-04
   55.38000     -8.1154134E-04
   55.44000     -8.0922997E-04
   55.50000     -8.0677954E-04
   55.56000     -8.0420898E-04