  -2.400000      0.0000000E+00
  -2.340000      0.0000000E+00
  -2.280000      0.0000000E+00
  -2.220000      0.0000000E+00
  -2.160000      0.0000000E+00
  -2.100000      1.3899704E-22
  -2.040000      1.0177724E-21
  -1.980000      3.2268253E-21
  -1.920000      3.4214504E-21
  -1.860000     -1.5423154E-20
  -1.800000     -9.5517751E-20
  -1.740000     -2.9992685E-19
  -1.680000     -6.6283518E-19
  -1.620000     -1.0740902E-18
  -1.560000     -1.1273226E-18
  -1.500000     -4.6563102E-20
  -1.440000      3.1205587E-18
  -1.380000      8.8806491E-18
  -1.320000      1.6283346E-17
  -1.260000      2.1932328E-17
  -1.200000      1.9815586E-17
  -1.140000      2.8617730E-18
  -1.080000     -3.3342367E-17
  -1.020000     -8.5401693E-17
 -0.9600000     -1.3781558E-16
 -0.9000000     -1.6299124E-16
 -0.8400000     -1.2874214E-16
 -0.7800000     -1.3869650E-17
 -0.7200000      1.7235806E-16
 -0.6600000      3.7637454E-16
 -0.6000000      5.0449081E-16
 -0.5400000      4.5412681E-16
 -0.4800000      1.6977252E-16
 -0.4200000     -2.9590376E-16
 -0.3600000     -7.5104357E-16
 -0.3000000     -9.0163004E-16
 -0.2400000     -4.7447048E-16
 -0.1800000      5.9958662E-16
 -0.1200000      2.0209194E-15
 -5.9999999E-02  3.0872536E-15
  0.0000000E+00  2.8849663E-15
  5.9999999E-02  7.1323160E-16
  0.1200000     -3.3890345E-15
  0.1800000     -8.2728412E-15
  0.2400000     -1.1761890E-14
  0.3000000     -1.1361876E-14
  0.3600000     -5.4843469E-15
  0.4200000      5.2786255E-15
  0.4800000      1.7531898E-14
  0.5400000      2.5745319E-14
  0.6000000      2.4389419E-14
  0.6600000      1.0956923E-14
  0.7200000     -1.1454464E-14
  0.7800000     -3.3618877E-14
  0.8400000     -4.2844949E-14
  0.9000000     -2.8634769E-14
  0.9600000      1.0570442E-14
   1.020000      6.2795587E-14
   1.080000      1.0339682E-13
   1.140000      1.0302486E-13
   1.200000      4.1201444E-14
   1.260000     -7.9397867E-14
   1.320000     -2.2490066E-13
   1.380000     -3.3456246E-13
   1.440000     -3.3947443E-13
   1.500000     -1.9137498E-13
   1.560000      1.0868613E-13
   1.620000      4.9475896E-13
   1.680000      8.4373719E-13
   1.740000      1.0087459E-12
   1.800000      8.6987102E-13
   1.860000      3.8498943E-13
   1.920000     -3.7950689E-13
   1.980000     -1.2530880E-12
   2.040000     -2.0033515E-12
   2.100000     -2.4042175E-12
   2.160000     -2.3068487E-12
   2.220000     -1.6873909E-12
   2.280000     -6.5322856E-13
   2.340000      5.9513592E-13
   2.400000      1.8321774E-12
   2.460000      2.8788085E-12
   2.520000      3.6486781E-12
   2.580000      4.1503493E-12
   2.640000      4.4441412E-12
   2.700000      4.5716018E-12
   2.760000      4.4886304E-12
   2.820000      4.0345596E-12
   2.880000      2.9577939E-12
   2.940000      9.9745733E-13
   3.000000     -2.0024594E-12
   3.060000     -5.9859084E-12
   3.120000     -1.0626225E-11
   3.180000     -1.5343993E-11
   3.240000     -1.9403340E-11
   3.300000     -2.2059122E-11
   3.360000     -2.2704855E-11
   3.420000     -2.0964022E-11
   3.480000     -1.6679779E-11
   3.540000     -9.7871008E-12
   3.600000     -9.0755955E-14
   3.660000      1.2989772E-11
   3.720000      3.0622324E-11
   3.780000      5.4622081E-11
   3.840000      8.7306218E-11
   3.900000      1.3112972E-10
   3.960000      1.8815517E-10
   4.020000      2.5947092E-10
   4.080000      3.4470807E-10
   4.140000      4.4179960E-10
   4.200000      5.4706589E-10
   4.260000      6.5561867E-10
   4.320000      7.6197620E-10
   4.380000      8.6071805E-10
   4.440000      9.4700525E-10
   4.500000      1.0168594E-09
   4.560000      1.0672049E-09
   4.620000      1.0957845E-09
   4.680000      1.1011150E-09
   4.740000      1.0826183E-09
   4.800000      1.0409551E-09
   4.860000      9.7845820E-10
   4.920000      8.9944896E-10
   4.980000      8.1020557E-10
   5.040000      7.1843237E-10
   5.100000      6.3224509E-10
   5.160000      5.5886457E-10
   5.220000      5.0333993E-10
   5.280000      4.6764304E-10
   5.340000      4.5038323E-10
   5.400000      4.4722234E-10
   5.460000      4.5187751E-10
   5.520000      4.5745777E-10
   5.580000      4.5782303E-10
   5.640000      4.4868503E-10
   5.700000      4.2826642E-10
   5.760000      3.9745182E-10
   5.820000      3.5947323E-10
   5.880000      3.1924302E-10
   5.940000      2.8249056E-10
   6.000000      2.5486613E-10
   6.060000      2.4116681E-10
   6.120000      2.4480706E-10
   6.180000      2.6760152E-10
   6.240000      3.0985586E-10
   6.300000      3.7068296E-10
   6.360000      4.4840598E-10
   6.420000      5.4089888E-10
   6.480000      6.4575811E-10
   6.540000      7.6028972E-10
   6.600000      8.8139568E-10
   6.660000      1.0055073E-09
   6.720000      1.1287171E-09
   6.780000      1.2471810E-09
   6.840000      1.3577455E-09
   6.900000      1.4586270E-09
   6.960000      1.5499185E-09
   7.020000      1.6337183E-09
   7.080000      1.7138043E-09
   7.140000      1.7949433E-09
   7.200000      1.8820703E-09
   7.260000      1.9796325E-09
   7.320000      2.0913429E-09
   7.380000      2.2204150E-09
   7.440000      2.3701718E-09
   7.500000      2.5447560E-09
   7.560000      2.7496376E-09
   7.620000      2.9917044E-09
   7.680000      3.2788916E-09
   7.740000      3.6194920E-09
   7.800000      4.0213899E-09
   7.860000      4.4914317E-09
   7.920000      5.0350355E-09
   7.980000      5.6559841E-09
   8.040000      6.3562489E-09
   8.100000      7.1357165E-09
   8.160000      7.9917806E-09
   8.220000      8.9188905E-09
   8.280000      9.9082387E-09
   8.340000      1.0947732E-08
   8.400000      1.2022280E-08
   8.460000      1.3114336E-08
   8.520000      1.4204516E-08
   8.580000      1.5272171E-08
   8.640000      1.6295877E-08
   8.700000      1.7253873E-08
   8.760000      1.8124542E-08
   8.820000      1.8886983E-08
   8.880000      1.9521634E-08
   8.940000      2.0010898E-08
   9.000000      2.0339710E-08
   9.060000      2.0496110E-08
   9.120000      2.0471834E-08
   9.180000      2.0262979E-08
   9.240000      1.9870628E-08
   9.300000      1.9301087E-08
   9.360000      1.8565483E-08
   9.420000      1.7678493E-08
   9.480000      1.6656395E-08
   9.540000      1.5514953E-08
   9.600000      1.4267858E-08
   9.660000      1.2926326E-08
   9.720000      1.1499989E-08
   9.780000      9.9986872E-09
   9.840000      8.4343501E-09
   9.900000      6.8220620E-09
   9.960000      5.1797655E-09
   10.02000      3.5266114E-09
   10.08000      1.8805126E-09
   10.14000      2.5571256E-10
   10.20000     -1.3388932E-09
   10.26000     -2.9003158E-09
   10.32000     -4.4309449E-09
   10.38000     -5.9372480E-09
   10.44000     -7.4280733E-09
   10.50000     -8.9128491E-09
   10.56000     -1.0399850E-08
   10.62000     -1.1894663E-08
   10.68000     -1.3399035E-08
   10.74000     -1.4910297E-08
   10.80000     -1.6421549E-08
   10.86000     -1.7922563E-08
   10.92000     -1.9401210E-08
   10.98000     -2.0844942E-08
   11.04000     -2.2241966E-08
   11.10000     -2.3581745E-08
   11.16000     -2.4854836E-08
   11.22000     -2.6052270E-08
   11.28000     -2.7164740E-08
   11.34000     -2.8181974E-08
   11.40000     -2.9092456E-08
   11.46000     -2.9883648E-08
   11.52000     -3.0542644E-08
   11.58000     -3.1057233E-08
   11.64000     -3.1417123E-08
   11.70000     -3.1615134E-08
   11.76000     -3.1648021E-08
   11.82000     -3.1516795E-08
   11.88000     -3.1226350E-08
   11.94000     -3.0784694E-08
   12.00000     -3.0201974E-08
   12.06000     -2.9489778E-08
   12.12000     -2.8660876E-08
   12.18000     -2.7729454E-08
   12.24000     -2.6711456E-08
   12.30000     -2.5624654E-08
   12.36000     -2.4488044E-08
   12.42000     -2.3320473E-08
   12.48000     -2.2138735E-08
   12.54000     -2.0955664E-08
   12.60000     -1.9778778E-08
   12.66000     -1.8609978E-08
   12.72000     -1.7446368E-08
   12.78000     -1.6282101E-08
   12.84000     -1.5110778E-08
   12.90000     -1.3927928E-08
   12.96000     -1.2733123E-08
   13.02000     -1.1531348E-08
   13.08000     -1.0333426E-08
   13.14000     -9.1554080E-09
   13.20000     -8.0169826E-09
   13.26000     -6.9391248E-09
   13.32000     -5.9414060E-09
   13.38000     -5.0395119E-09
   13.44000     -4.2435109E-09
   13.50000     -3.5572438E-09
   13.56000     -2.9788176E-09
   13.62000     -2.5017979E-09
   13.68000     -2.1163915E-09
   13.74000     -1.8099156E-09
   13.80000     -1.5661784E-09
   13.86000     -1.3639440E-09
   13.92000     -1.1752049E-09
   13.98000     -9.6429753E-10
   14.04000     -6.8879730E-10
   14.10000     -3.0264902E-10
   14.16000      2.3871663E-10
   14.22000      9.7217934E-10
   14.28000      1.9209110E-09
   14.34000      3.0898037E-09
   14.40000      4.4632520E-09
   14.46000      6.0056577E-09
   14.52000      7.6645001E-09
   14.58000      9.3753991E-09
   14.64000      1.1068378E-08
   14.70000      1.2674433E-08
   14.76000      1.4131571E-08
   14.82000      1.5389581E-08
   14.88000      1.6413010E-08
   14.94000      1.7182131E-08
   15.00000      1.7692068E-08
   15.06000      1.7950503E-08
   15.12000      1.7974727E-08
   15.18000      1.7788610E-08
   15.24000      1.7419994E-08
   15.30000      1.6898626E-08
   15.36000      1.6254496E-08
   15.42000      1.5516321E-08
   15.48000      1.4710012E-08
   15.54000      1.3857236E-08
   15.60000      1.2974354E-08
   15.66000      1.2072112E-08
   15.72000      1.1156340E-08
   15.78000      1.0229555E-08
   15.84000      9.2931067E-09
   15.90000      8.3492688E-09
   15.96000      7.4027815E-09
   16.02000      6.4615726E-09
   16.08000      5.5367413E-09
   16.14000      4.6420916E-09
   16.20000      3.7935304E-09
   16.26000      3.0084764E-09
   16.32000      2.3051876E-09
   16.38000      1.7017653E-09
   16.44000      1.2146173E-09
   16.50000      8.5638763E-10
   16.56000      6.3362909E-10
   16.62000      5.4470306E-10
   16.68000      5.7840249E-10
   16.74000      7.1363365E-10
   16.80000      9.2022434E-10
   16.86000      1.1606873E-09
   16.92000      1.3926241E-09
   16.98000      1.5714459E-09
   17.04000      1.6531408E-09
   17.10000      1.5968992E-09
   17.16000      1.3674712E-09
   17.22000      9.3720498E-10
   17.28000      2.8779268E-10
   17.34000     -5.8815397E-10
   17.40000     -1.6855406E-09
   17.46000     -2.9851488E-09
   17.52000     -4.4520538E-09
   17.58000     -6.0345302E-09
   17.64000     -7.6641431E-09
   17.70000     -9.2577368E-09
   17.76000     -1.0721821E-08
   17.82000     -1.1959324E-08
   17.88000     -1.2878096E-08
   17.94000     -1.3400079E-08
   18.00000     -1.3469847E-08
   18.06000     -1.3061300E-08
   18.12000     -1.2181627E-08
   18.18000     -1.0871990E-08
   18.24000     -9.2047499E-09
   18.30000     -7.2773640E-09
   18.36000     -5.2033773E-09
   18.42000     -3.1013891E-09
   18.48000     -1.0832875E-09
   18.54000      7.5659706E-10
   18.60000      2.3497242E-09
   18.66000      3.6576688E-09
   18.72000      4.6720299E-09
   18.78000      5.4103757E-09
   18.84000      5.9094929E-09
   18.90000      6.2175847E-09
   18.96000      6.3869074E-09
   19.02000      6.4677721E-09
   19.08000      6.5041781E-09
   19.14000      6.5308683E-09
   19.20000      6.5714505E-09
   19.26000      6.6374111E-09
   19.32000      6.7281061E-09
   19.38000      6.8319448E-09
   19.44000      6.9288384E-09
   19.50000      6.9936563E-09
   19.56000      7.0000512E-09
   19.62000      6.9238406E-09
   19.68000      6.7452759E-09
   19.74000      6.4498997E-09
   19.80000      6.0281833E-09
   19.86000      5.4744547E-09
   19.92000      4.7857505E-09
   19.98000      3.9610164E-09
   20.04000      3.0008283E-09
   20.10000      1.9075066E-09
   20.16000      6.8538747E-10
   20.22000     -6.5898276E-10
   20.28000     -2.1168680E-09
   20.34000     -3.6776377E-09
   20.40000     -5.3293756E-09
   20.46000     -7.0598380E-09
   20.52000     -8.8577776E-09
   20.58000     -1.0714503E-08
   20.64000     -1.2625351E-08
   20.70000     -1.4590577E-08
   20.76000     -1.6615122E-08
   20.82000     -1.8706906E-08
   20.88000     -2.0873728E-08
   20.94000     -2.3119350E-08
   21.00000     -2.5439730E-08
   21.06000     -2.7820509E-08
   21.12000     -3.0236556E-08
   21.18000     -3.2653865E-08
   21.24000     -3.5033288E-08
   21.30000     -3.7335223E-08
   21.36000     -3.9523879E-08
   21.42000     -4.1570239E-08
   21.48000     -4.3453070E-08
   21.54000     -4.5158203E-08
   21.60000     -4.6676735E-08
   21.66000     -4.8003034E-08
   21.72000     -4.9133398E-08
   21.78000     -5.0065584E-08
   21.84000     -5.0799258E-08
   21.90000     -5.1336777E-08
   21.96000     -5.1683738E-08
   22.02000     -5.1848897E-08
   22.08000     -5.1843230E-08
   22.14000     -5.1678235E-08
   22.20000     -5.1363784E-08
   22.26000     -5.0905861E-08
   22.32000     -5.0304777E-08
   22.38000     -4.9554291E-08
   22.44000     -4.8642185E-08
   22.50000     -4.7552692E-08
   22.56000     -4.6270710E-08
   22.62000     -4.4787217E-08
   22.68000     -4.3104670E-08
   22.74000     -4.1240856E-08
   22.80000     -3.9229811E-08
   22.86000     -3.7119179E-08
   22.92000     -3.4964483E-08
   22.98000     -3.2821731E-08
   23.04000     -3.0740370E-08
   23.10000     -2.8758423E-08
   23.16000     -2.6900782E-08
   23.22000     -2.5180576E-08
   23.28000     -2.3602565E-08
   23.34000     -2.2167134E-08
   23.40000     -2.0873587E-08
   23.46000     -1.9721982E-08
   23.52000     -1.8713386E-08
   23.58000     -1.7848883E-08
   23.64000     -1.7127896E-08
   23.70000     -1.6546453E-08
   23.76000     -1.6096021E-08
   23.82000     -1.5763415E-08
   23.88000     -1.5532203E-08
   23.94000     -1.5385544E-08
   24.00000     -1.5309924E-08
   24.06000     -1.5298644E-08
   24.12000     -1.5353736E-08
   24.18000     -1.5485277E-08
   24.24000     -1.5707887E-08
   24.30000     -1.6035340E-08
   24.36000     -1.6475058E-08
   24.42000     -1.7024457E-08
   24.48000     -1.7670617E-08
   24.54000     -1.8393555E-08
   24.60000     -1.9172157E-08
   24.66000     -1.9990956E-08
   24.72000     -2.0845782E-08
   24.78000     -2.1746688E-08
   24.84000     -2.2717474E-08
   24.90000     -2.3791952E-08
   24.96000     -2.5007795E-08
   25.02000     -2.6399247E-08
   25.08000     -2.7990097E-08
   25.14000     -2.9788321E-08
   25.20000     -3.1783568E-08
   25.26000     -3.3948144E-08
   25.32000     -3.6241371E-08
   25.38000     -3.8616339E-08
   25.44000     -4.1027253E-08
   25.50000     -4.3435392E-08
   25.56000     -4.5812151E-08
   25.62000     -4.8138524E-08
   25.68000     -5.0401677E-08
   25.74000     -5.2590156E-08
   25.80000     -5.4689572E-08
   25.86000     -5.6680346E-08
   25.92000     -5.8538085E-08
   25.98000     -6.0236353E-08
   26.04000     -6.1750796E-08
   26.10000     -6.3063375E-08
   26.16000     -6.4165548E-08
   26.22000     -6.5059687E-08
   26.28000     -6.5758435E-08
   26.34000     -6.6282091E-08
   26.40000     -6.6654536E-08
   26.46000     -6.6898586E-08
   26.52000     -6.7031735E-08
   26.58000     -6.7063361E-08
   26.64000     -6.6994289E-08
   26.70000     -6.6818544E-08
   26.76000     -6.6526994E-08
   26.82000     -6.6111603E-08
   26.88000     -6.5568912E-08
   26.94000     -6.4901883E-08
   27.00000     -6.4119774E-08
   27.06000     -6.3236619E-08
   27.12000     -6.2269208E-08
   27.18000     -6.1235461E-08
   27.24000     -6.0153745E-08
   27.30000     -5.9042812E-08
   27.36000     -5.7921785E-08
   27.42000     -5.6809533E-08
   27.48000     -5.5722960E-08
   27.54000     -5.4674572E-08
   27.60000     -5.3669840E-08
   27.66000     -5.2705285E-08
   27.72000     -5.1767863E-08
   27.78000     -5.0836004E-08
   27.84000     -4.9882075E-08
   27.90000     -4.8875844E-08
   27.96000     -4.7788326E-08
   28.02000     -4.6595442E-08
   28.08000     -4.5280910E-08
   28.14000     -4.3837961E-08
   28.20000     -4.2269651E-08
   28.26000     -4.0587629E-08
   28.32000     -3.8809816E-08
   28.38000     -3.6957431E-08
   28.44000     -3.5052235E-08
   28.50000     -3.3114546E-08
   28.56000     -3.1162219E-08
   28.62000     -2.9210499E-08
   28.68000     -2.7271998E-08
   28.74000     -2.5356311E-08
   28.80000     -2.3468946E-08
   28.86000     -2.1609836E-08
   28.92000     -1.9772189E-08
   28.98000     -1.7942618E-08
   29.04000     -1.6103227E-08
   29.10000     -1.4235739E-08
   29.16000     -1.2326882E-08
   29.22000     -1.0373720E-08
   29.28000     -8.3872322E-09
   29.34000     -6.3927832E-09
   29.40000     -4.4268065E-09
   29.46000     -2.5300968E-09
   29.52000     -7.3916367E-10
   29.58000      9.2211078E-10
   29.64000      2.4480693E-09
   29.70000      3.8522505E-09
   29.76000      5.1631051E-09
   29.82000      6.4154255E-09
   29.88000      7.6399473E-09
   29.94000      8.8542969E-09
   30.00000      1.0058177E-08
   30.06000      1.1234287E-08
   30.12000      1.2354496E-08
   30.18000      1.3388949E-08
   30.24000      1.4314723E-08
   30.30000      1.5120840E-08
   30.36000      1.5807823E-08
   30.42000      1.6381984E-08
   30.48000      1.6846565E-08
   30.54000      1.7193006E-08
   30.60000      1.7395672E-08
   30.66000      1.7412281E-08
   30.72000      1.7190533E-08
   30.78000      1.6679509E-08
   30.84000      1.5842840E-08
   30.90000      1.4669928E-08
   30.96000      1.3181798E-08
   31.02000      1.1429359E-08
   31.08000      9.4839541E-09
   31.14000      7.4222140E-09
   31.20000      5.3090821E-09
   31.26000      3.1837279E-09
   31.32000      1.0524396E-09
   31.38000     -1.1093000E-09
   31.44000     -3.3461034E-09
   31.50000     -5.7066019E-09
   31.56000     -8.2270004E-09
   31.62000     -1.0919383E-08
   31.68000     -1.3768289E-08
   31.74000     -1.6736299E-08
   31.80000     -1.9776337E-08
   31.86000     -2.2846166E-08
   31.92000     -2.5919903E-08
   31.98000     -2.8992487E-08
   32.04000     -3.2075523E-08
   32.10000     -3.5185938E-08
   32.16000     -3.8331400E-08
   32.22000     -4.1497639E-08
   32.28000     -4.4642388E-08
   32.34000     -4.7698627E-08
   32.40000     -5.0586877E-08
   32.46000     -5.3233357E-08
   32.52000     -5.5588941E-08
   32.58000     -5.7643099E-08
   32.64000     -5.9428405E-08
   32.70000     -6.1013601E-08
   32.76000     -6.2486443E-08
   32.82000     -6.3930571E-08
   32.88000     -6.5402453E-08
   32.94000     -6.6914694E-08
   33.00000     -6.8430488E-08
   33.06000     -6.9870929E-08
   33.12000     -7.1133471E-08
   33.18000     -7.2116507E-08
   33.24000     -7.2743070E-08
   33.30000     -7.2977173E-08
   33.36000     -7.2827923E-08
   33.42000     -7.2340661E-08
   33.48000     -7.1578185E-08
   33.54000     -7.0598361E-08
   33.60000     -6.9435757E-08
   33.66000     -6.8093343E-08
   33.72000     -6.6547187E-08
   33.78000     -6.4762254E-08
   33.84000     -6.2713639E-08
   33.90000     -6.0405370E-08
   33.96000     -5.7879731E-08
   34.02000     -5.5212958E-08
   34.08000     -5.2498358E-08
   34.14000     -4.9821985E-08
   34.20000     -4.7239020E-08
   34.26000     -4.4758988E-08
   34.32000     -4.2345196E-08
   34.38000     -3.9929230E-08
   34.44000     -3.7436411E-08
   34.50000     -3.4814594E-08
   34.56000     -3.2057496E-08
   34.62000     -2.9215283E-08
   34.68000     -2.6389097E-08
   34.74000     -2.3711012E-08
   34.80000     -2.1315202E-08
   34.86000     -1.9308787E-08
   34.92000     -1.7750754E-08
   34.98000     -1.6644790E-08
   35.04000     -1.5947609E-08
   35.10000     -1.5589476E-08
   35.16000     -1.5500017E-08
   35.22000     -1.5630839E-08
   35.28000     -1.5967755E-08
   35.34000     -1.6529011E-08
   35.40000     -1.7350580E-08
   35.46000     -1.8464002E-08
   35.52000     -1.9874594E-08
   35.58000     -2.1547661E-08
   35.64000     -2.3407422E-08
   35.70000     -2.5349062E-08
   35.76000     -2.7259885E-08
   35.82000     -2.9042690E-08
   35.88000     -3.0634020E-08
   35.94000     -3.2011918E-08
   36.00000     -3.3191331E-08
   36.06000     -3.4209325E-08
   36.12000     -3.5105096E-08
   36.18000     -3.5900982E-08
   36.24000     -3.6589906E-08
   36.30000     -3.7132384E-08
   36.36000     -3.7463309E-08
   36.42000     -3.7506091E-08
   36.48000     -3.7189942E-08
   36.54000     -3.6465600E-08
   36.60000     -3.5315491E-08
   36.66000     -3.3756123E-08
   36.72000     -3.1832524E-08
   36.78000     -2.9606749E-08
   36.84000     -2.7143910E-08
   36.90000     -2.4499757E-08
   36.96000     -2.1713134E-08
   37.02000     -1.8805089E-08
   37.08000     -1.5784281E-08
   37.14000     -1.2656358E-08
   37.20000     -9.4338626E-09
   37.26000     -6.1431793E-09
   37.32000     -2.8262677E-09
   37.38000      4.6321852E-10
   37.44000      3.6678178E-09
   37.50000      6.7352954E-09
   37.56000      9.6257020E-09
   37.62000      1.2314269E-08
   37.68000      1.4789576E-08
   37.74000      1.7048233E-08
   37.80000      1.9088480E-08
   37.86000      2.0905436E-08
   37.92000      2.2489953E-08
   37.98000      2.3831486E-08
   38.04000      2.4923807E-08
   38.10000      2.5771099E-08
   38.16000      2.6391668E-08
   38.22000      2.6817196E-08
   38.28000      2.7087003E-08
   38.34000      2.7238521E-08
   38.40000      2.7296743E-08
   38.46000      2.7265962E-08
   38.52000      2.7126687E-08
   38.58000      2.6839125E-08
   38.64000      2.6352676E-08
   38.70000      2.5618990E-08
   38.76000      2.4604923E-08
   38.82000      2.3301709E-08
   38.88000      2.1727574E-08
   38.94000      1.9923061E-08
   39.00000      1.7940296E-08
   39.06000      1.5829420E-08
   39.12000      1.3626119E-08
   39.18000      1.1344063E-08
   39.24000      8.9744763E-09
   39.30000      6.4930483E-09
   39.36000      3.8720827E-09
   39.42000      1.0942447E-09
   39.48000     -1.8362515E-09
   39.54000     -4.8883533E-09
   39.60000     -8.0063298E-09
   39.66000     -1.1118692E-08
   39.72000     -1.4151256E-08
   39.78000     -1.7040652E-08
   39.84000     -1.9744620E-08
   39.90000     -2.2246573E-08
   39.96000     -2.4553518E-08
   40.02000     -2.6688280E-08
   40.08000     -2.8678254E-08
   40.14000     -3.0543717E-08
   40.20000     -3.2288547E-08
   40.26000     -3.3895557E-08
   40.32000     -3.5327563E-08
   40.38000     -3.6533962E-08
   40.44000     -3.7461380E-08
   40.50000     -3.8066123E-08
   40.56000     -3.8325577E-08
   40.62000     -3.8245975E-08
   40.68000     -3.7864595E-08
   40.74000     -3.7245748E-08
   40.80000     -3.6471175E-08
   40.86000     -3.5626865E-08
   40.92000     -3.4789043E-08
   40.98000     -3.4012388E-08
   41.04000     -3.3323019E-08
   41.10000     -3.2717718E-08
   41.16000     -3.2169424E-08
   41.22000     -3.1637601E-08
   41.28000     -3.1080802E-08
   41.34000     -3.0468350E-08
   41.40000     -2.9788115E-08
   41.46000     -2.9048579E-08
   41.52000     -2.8274863E-08
   41.58000     -2.7500212E-08
   41.64000     -2.6755739E-08
   41.70000     -2.6061761E-08
   41.76000     -2.5423534E-08
   41.82000     -2.4832753E-08
   41.88000     -2.4274179E-08
   41.94000     -2.3735007E-08
   42.00000     -2.3213497E-08
   42.06000     -2.2723462E-08
   42.12000     -2.2292578E-08
   42.18000     -2.1954433E-08
   42.24000     -2.1736563E-08
   42.30000     -2.1648329E-08
   42.36000     -2.1672857E-08
   42.42000     -2.1766345E-08
   42.48000     -2.1865853E-08
   42.54000     -2.1904015E-08
   42.60000     -2.1826809E-08
   42.66000     -2.1609361E-08
   42.72000     -2.1265114E-08
   42.78000     -2.0845617E-08
   42.84000     -2.0430829E-08
   42.90000     -2.0112619E-08
   42.96000     -1.9975912E-08
   43.02000     -2.0082464E-08
   43.08000     -2.0461167E-08
   43.14000     -2.1106903E-08
   43.20000     -2.1987455E-08
   43.26000     -2.3056081E-08
   43.32000     -2.4265940E-08
   43.38000     -2.5582510E-08
   43.44000     -2.6990863E-08
   43.50000     -2.8496219E-08
   43.56000     -3.0118102E-08
   43.62000     -3.1880127E-08
   43.68000     -3.3798688E-08
   43.74000     -3.5873999E-08
   43.80000     -3.8086249E-08
   43.86000     -4.0398021E-08
   43.92000     -4.2762228E-08
   43.98000     -4.5132918E-08
   44.04000     -4.7475691E-08
   44.10000     -4.9774446E-08
   44.16000     -5.2032537E-08
   44.22000     -5.4268284E-08
   44.28000     -5.6506728E-08
   44.34000     -5.8770603E-08
   44.40000     -6.1074097E-08
   44.46000     -6.3421602E-08
   44.52000     -6.5812380E-08
   44.58000     -6.8249719E-08
   44.64000     -7.0751568E-08
   44.70000     -7.3358947E-08
   44.76000     -7.6139060E-08
   44.82000     -7.9181731E-08
   44.88000     -8.2590496E-08
   44.94000     -8.6471715E-08
   45.00000     -9.0926534E-08
   45.06000     -9.6049554E-08
   45.12000     -1.0193653E-07
   45.18000     -1.0869966E-07
   45.24000     -1.1648666E-07
   45.30000     -1.2549791E-07
   45.36000     -1.3599669E-07
   45.42000     -1.4830992E-07
   45.48000     -1.6282020E-07
   45.54000     -1.7995356E-07
   45.60000     -2.0016867E-07
   45.66000     -2.2395348E-07
   45.72000     -2.5183220E-07
   45.78000     -2.8438305E-07
   45.84000     -3.2226328E-07
   45.90000     -3.6623661E-07
   45.96000     -4.1719846E-07
   46.02000     -4.7619525E-07
   46.08000     -5.4443677E-07
   46.14000     -6.2330321E-07
   46.20000     -7.1434931E-07
   46.26000     -8.1930938E-07
   46.32000     -9.4010602E-07
   46.38000     -1.0788642E-06
   46.44000     -1.2379314E-06
   46.50000     -1.4199015E-06
   46.56000     -1.6276422E-06
   46.62000     -1.8643204E-06
   46.68000     -2.1334258E-06
   46.74000     -2.4387896E-06
   46.80000     -2.7845990E-06
   46.86000     -3.1754103E-06
   46.92000     -3.6161634E-06
   46.98000     -4.1122003E-06
   47.04000     -4.6692876E-06
   47.10000     -5.2936412E-06
   47.16000     -5.9919544E-06
   47.22000     -6.7714159E-06
   47.28000     -7.6397264E-06
   47.34000     -8.6050950E-06
   47.40000     -9.6762378E-06
   47.46000     -1.0862359E-05
   47.52000     -1.2173132E-05
   47.58000     -1.3618678E-05
   47.64000     -1.5209559E-05
   47.70000     -1.6956745E-05
   47.76000     -1.8871608E-05
   47.82000     -2.0965888E-05
   47.88000     -2.3251672E-05
   47.94000     -2.5741330E-05
   48.00000     -2.8447457E-05
   48.06000     -3.1382813E-05
   48.12000     -3.4560220E-05
   48.18000     -3.7992486E-05
   48.24000     -4.1692292E-05
   48.30000     -4.5672110E-05
   48.36000     -4.9944083E-05
   48.42000     -5.4519940E-05
   48.48000     -5.9410871E-05
   48.54000     -6.4627420E-05
   48.60000     -7.0179362E-05
   48.66000     -7.6075565E-05
   48.72000     -8.2323873E-05
   48.78000     -8.8930930E-05
   48.84000     -9.5902062E-05
   48.90000     -1.0324114E-04
   48.96000     -1.1095050E-04
   49.02000     -1.1903079E-04
   49.08000     -1.2748092E-04
   49.14000     -1.3629795E-04
   49.20000     -1.4547705E-04
   49.26000     -1.5501137E-04
   49.32000     -1.6489204E-04
   49.38000     -1.7510817E-04
   49.44000     -1.8564668E-04
   49.50000     -1.9649243E-04
   49.56000     -2.0762817E-04
   49.62000     -2.1903458E-04
   49.68000     -2.3069045E-04
   49.74000     -2.4257266E-04
   49.80000     -2.5465630E-04
   49.86000     -2.6691495E-04
   49.92000     -2.7932052E-04
   49.98000     -2.9184384E-04
   50.04000     -3.0445450E-04
   50.10000     -3.1712139E-04
   50.16000     -3.2981276E-04
   50.22000     -3.4249647E-04
   50.28000     -3.5514031E-04
   50.34000     -3.6771217E-04
   50.40000     -3.8018034E-04
   50.46000     -3.9251384E-04
   50.52000     -4.0468265E-04
   50.58000     -4.1665818E-04
   50.64000     -4.2841330E-04
   50.70000     -4.3992285E-04
   50.76000     -4.5116353E-04
   50.82000     -4.6211452E-04
   50.88000     -4.7275718E-04
   50.94000     -4.8307562E-04
   51.00000     -4.9305672E-04
   51.06000     -5.0269032E-04
   51.12000     -5.1196915E-04
   51.18000     -5.2088901E-04
   51.24000     -5.2944868E-04
   51.30000     -5.3765014E-04
   51.36000     -5.4549810E-04
   51.42000     -5.5300014E-04
   51.48000     -5.6016684E-04
   51.54000     -5.6701113E-04
   51.60000     -5.7354837E-04
   51.66000     -5.7979586E-04
   51.72000     -5.8577280E-04
   51.78000     -5.9149973E-04
   51.84000     -5.9699855E-04
   51.90000     -6.0229201E-04
   51.96000     -6.0740340E-04
   52.02000     -6.1235623E-04
   52.08000     -6.1717397E-04
   52.14000     -6.2187953E-04
   52.20000     -6.2649488E-04
   52.26000     -6.3104078E-04
   52.32000     -6.3553656E-04
   52.38000     -6.3999963E-04
   52.44000     -6.4444559E-04
   52.50000     -6.4888765E-04
   52.56000     -6.5333658E-04
   52.62000     -6.5780047E-04
   52.68000     -6.6228473E-04
   52.74000     -6.6679198E-04
   52.80000     -6.7132176E-04
   52.86000     -6.7587086E-04
   52.92000     -6.8043330E-04
   52.98000     -6.8500068E-04
   53.04000     -6.8956177E-04
   53.10000     -6.9410342E-04
   53.16000     -6.9860992E-04
   53.22000     -7.0306385E-04
   53.28000     -7.0744607E-04
   53.34000     -7.1173621E-04
   53.40000     -7.1591290E-04
   53.46000     -7.1995426E-04
   53.52000     -7.2383828E-04
   53.58000     -7.2754320E-04
   53.64000     -7.3104782E-04
   53.70000     -7.3433138E-04
   53.76000     -7.3737442E-04
   53.82000     -7.4015884E-04
   53.88000     -7.4266858E-04
   53.94000     -7.4488961E-04
   54.00000     -7.4681028E-04
   54.06000     -7.4842159E-04
   54.12000     -7.4971718E-04
   54.18000     -7.5069343E-04
   54.24000     -7.5134973E-04
   54.30000     -7.5168815E-04
   54.36000     -7.5171376E-04
   54.42000     -7.5143430E-04
   54.48000     -7.5086032E-04
   54.54000     -7.5000478E-04
   54.60000     -7.4888294E-04
   54.66000     -7.4751209E-04
   54.72000     -7.4591156E-04
   54.78000     -7.4410194E-04
   54.84000     -7.4210530E-04
   54.90000     -7.3994440E-04
   54.96000     -7.3764246E-04
   55.02000     -7.3522300E-04
   55.08000     -7.3270919E-04
   55.14000     -7.3012360E-04
   55.20000     -7.2748767E-04
   55.26000     -7.2482176E-04
   55.32000     -7.2214421E-04
   55.38000     -7.1947183E-04
   55.44000     -7.1681914E-04
   55.50000     -7.1419845E-04
   55.56000     -7.1161956E-04