  -2.400000      0.0000000E+00
  -2.340000      0.0000000E+00
  -2.280000      0.0000000E+00
  -2.220000      0.0000000E+00
  -2.160000     -7.0767320E-18
  -2.100000     -4.8620224E-17
  -2.040000     -1.7247843E-16
  -1.980000     -4.0534865E-16
  -1.920000     -6.5782485E-16
  -1.860000     -6.1108112E-16
  -1.800000      3.2193978E-16
  -1.740000      2.8355091E-15
  -1.680000      7.2814908E-15
  -1.620000      1.2978291E-14
  -1.560000      1.7550196E-14
  -1.500000      1.6801102E-14
  -1.440000      5.7061654E-15
  -1.380000     -1.9163338E-14
  -1.320000     -5.6191817E-14
  -1.260000     -9.5699917E-14
  -1.200000     -1.1966751E-13
  -1.140000     -1.0643017E-13
  -1.080000     -4.0897919E-14
  -1.020000      7.2414656E-14
 -0.9600000      1.9993764E-13
 -0.9000000      2.8144371E-13
 -0.8400000      2.5024115E-13
 -0.7800000      6.9542686E-14
 -0.7200000     -2.2761854E-13
 -0.6600000     -5.1698050E-13
 -0.6000000     -6.0334051E-13
 -0.5400000     -2.9355980E-13
 -0.4800000      4.9154685E-13
 -0.4200000      1.6093103E-12
 -0.3600000      2.6526123E-12
 -0.3000000      3.0266187E-12
 -0.2400000      2.1589247E-12
 -0.1800000     -2.0694020E-13
 -0.1200000     -3.7481472E-12
 -5.9999999E-02 -7.4718591E-12
  0.0000000E+00 -9.9069052E-12
  5.9999999E-02 -9.5882425E-12
  0.1200000     -5.7066994E-12
  0.1800000      1.3239916E-12
  0.2400000      9.6698951E-12
  0.3000000      1.6451158E-11
  0.3600000      1.8686155E-11
  0.4200000      1.4545023E-11
  0.4800000      4.4436989E-12
  0.5400000     -8.5415043E-12
  0.6000000     -1.9291969E-11
  0.6600000     -2.2291094E-11
  0.7200000     -1.3851556E-11
  0.7800000      5.8595615E-12
  0.8400000      3.1865569E-11
  0.9000000      5.5104258E-11
  0.9600000      6.4888615E-11
   1.020000      5.2493468E-11
   1.080000      1.4724463E-11
   1.140000     -4.3841680E-11
   1.200000     -1.1094590E-10
   1.260000     -1.6933994E-10
   1.320000     -2.0145438E-10
   1.380000     -1.9465160E-10
   1.440000     -1.4535685E-10
   1.500000     -6.0634858E-11
   1.560000      4.3416767E-11
   1.620000      1.4602107E-10
   1.680000      2.2743549E-10
   1.740000      2.7414990E-10
   1.800000      2.8185607E-10
   1.860000      2.5524213E-10
   1.920000      2.0477385E-10
   1.980000      1.4168149E-10
   2.040000      7.3002659E-11
   2.100000     -1.4832525E-12
   2.160000     -8.9256776E-11
   2.220000     -2.0190238E-10
   2.280000     -3.4983197E-10
   2.340000     -5.3672111E-10
   2.400000     -7.5568279E-10
   2.460000     -9.8871500E-10
   2.520000     -1.2099315E-09
   2.580000     -1.3918329E-09
   2.640000     -1.5127897E-09
   2.700000     -1.5633432E-09
   2.760000     -1.5490965E-09
   2.820000     -1.4888839E-09
   2.880000     -1.4083267E-09
   2.940000     -1.3304331E-09
   3.000000     -1.2660618E-09
   3.060000     -1.2074404E-09
   3.120000     -1.1272646E-09
   3.180000     -9.8430974E-10
   3.240000     -7.3437306E-10
   3.300000     -3.4340686E-10
   3.360000      2.0139719E-10
   3.420000      8.8655372E-10
   3.480000      1.6755483E-09
   3.540000      2.5200313E-09
   3.600000      3.3757517E-09
   3.660000      4.2181192E-09
   3.720000      5.0520494E-09
   3.780000      5.9124039E-09
   3.840000      6.8544330E-09
   3.900000      7.9371434E-09
   3.960000      9.2051025E-09
   4.020000      1.0674923E-08
   4.080000      1.2331085E-08
   4.140000      1.4132454E-08
   4.200000      1.6026883E-08
   4.260000      1.7968322E-08
   4.320000      1.9929821E-08
   4.380000      2.1907416E-08
   4.440000      2.3913424E-08
   4.500000      2.5961810E-08
   4.560000      2.8051655E-08
   4.620000      3.0155654E-08
   4.680000      3.2218971E-08
   4.740000      3.4169773E-08
   4.800000      3.5938353E-08
   4.860000      3.7477953E-08
   4.920000      3.8779625E-08
   4.980000      3.9875097E-08
   5.040000      4.0825999E-08
   5.100000      4.1702695E-08
   5.160000      4.2560007E-08
   5.220000      4.3418311E-08
   5.280000      4.4256740E-08
   5.340000      4.5021118E-08
   5.400000      4.5643965E-08
   5.460000      4.6070006E-08
   5.520000      4.6278629E-08
   5.580000      4.6296137E-08
   5.640000      4.6194113E-08
   5.700000      4.6074657E-08
   5.760000      4.6047379E-08
   5.820000      4.6205045E-08
   5.880000      4.6604573E-08
   5.940000      4.7257849E-08
   6.000000      4.8133572E-08
   6.060000      4.9168108E-08
   6.120000      5.0281248E-08
   6.180000      5.1392139E-08
   6.240000      5.2431385E-08
   6.300000      5.3347264E-08
   6.360000      5.4105922E-08
   6.420000      5.4687188E-08
   6.480000      5.5078694E-08
   6.540000      5.5270938E-08
   6.600000      5.5255246E-08
   6.660000      5.5025257E-08
   6.720000      5.4581182E-08
   6.780000      5.3934826E-08
   6.840000      5.3112938E-08
   6.900000      5.2156764E-08
   6.960000      5.1116753E-08
   7.020000      5.0043081E-08
   7.080000      4.8974382E-08
   7.140000      4.7928200E-08
   7.200000      4.6896673E-08
   7.260000      4.5849841E-08
   7.320000      4.4746564E-08
   7.380000      4.3550461E-08
   7.440000      4.2246057E-08
   7.500000      4.0849503E-08
   7.560000      3.9409482E-08
   7.620000      3.7996617E-08
   7.680000      3.6683648E-08
   7.740000      3.5522074E-08
   7.800000      3.4522806E-08
   7.860000      3.3647741E-08
   7.920000      3.2816011E-08
   7.980000      3.1923879E-08
   8.040000      3.0872496E-08
   8.100000      2.9594712E-08
   8.160000      2.8072172E-08
   8.220000      2.6336842E-08
   8.280000      2.4456591E-08
   8.340000      2.2509761E-08
   8.400000      2.0557712E-08
   8.460000      1.8624812E-08
   8.520000      1.6692706E-08
   8.580000      1.4710319E-08
   8.640000      1.2615450E-08
   8.700000      1.0359591E-08
   8.760000      7.9267632E-09
   8.820000      5.3395559E-09
   8.880000      2.6505651E-09
   8.940000     -7.7156830E-11
   9.000000     -2.7930884E-09
   9.060000     -5.4771121E-09
   9.120000     -8.1459142E-09
   9.180000     -1.0845959E-08
   9.240000     -1.3635996E-08
   9.300000     -1.6565615E-08
   9.360000     -1.9657421E-08
   9.420000     -2.2898739E-08
   9.480000     -2.6245125E-08
   9.540000     -2.9633812E-08
   9.600000     -3.3002006E-08
   9.660000     -3.6303650E-08
   9.720000     -3.9519186E-08
   9.780000     -4.2655447E-08
   9.840000     -4.5736169E-08
   9.900000     -4.8786593E-08
   9.960000     -5.1817427E-08
   10.02000     -5.4813302E-08
   10.08000     -5.7729494E-08
   10.14000     -6.0497868E-08
   10.20000     -6.3040332E-08
   10.26000     -6.5285796E-08
   10.32000     -6.7185567E-08
   10.38000     -6.8722926E-08
   10.44000     -6.9913931E-08
   10.50000     -7.0799594E-08
   10.56000     -7.1431629E-08
   10.62000     -7.1856178E-08
   10.68000     -7.2100221E-08
   10.74000     -7.2165037E-08
   10.80000     -7.2028655E-08
   10.86000     -7.1656999E-08
   10.92000     -7.1020395E-08
   10.98000     -7.0110566E-08
   11.04000     -6.8952403E-08
   11.10000     -6.7606358E-08
   11.16000     -6.6159863E-08
   11.22000     -6.4709816E-08
   11.28000     -6.3341155E-08
   11.34000     -6.2108512E-08
   11.40000     -6.1026967E-08
   11.46000     -6.0075060E-08
   11.52000     -5.9209082E-08
   11.58000     -5.8383264E-08
   11.64000     -5.7568311E-08
   11.70000     -5.6761113E-08
   11.76000     -5.5981985E-08
   11.82000     -5.5260603E-08
   11.88000     -5.4616610E-08
   11.94000     -5.4043280E-08
   12.00000     -5.3501566E-08
   12.06000     -5.2927998E-08
   12.12000     -5.2254109E-08
   12.18000     -5.1430273E-08
   12.24000     -5.0444715E-08
   12.30000     -4.9329856E-08
   12.36000     -4.8152955E-08
   12.42000     -4.6993993E-08
   12.48000     -4.5918501E-08
   12.54000     -4.4955240E-08
   12.60000     -4.4086541E-08
   12.66000     -4.3254513E-08
   12.72000     -4.2380304E-08
   12.78000     -4.1389182E-08
   12.84000     -4.0232369E-08
   12.90000     -3.8898442E-08
   12.96000     -3.7411500E-08
   13.02000     -3.5818243E-08
   13.08000     -3.4170078E-08
   13.14000     -3.2507309E-08
   13.20000     -3.0850877E-08
   13.26000     -2.9203330E-08
   13.32000     -2.7556720E-08
   13.38000     -2.5902573E-08
   13.44000     -2.4238791E-08
   13.50000     -2.2570358E-08
   13.56000     -2.0904034E-08
   13.62000     -1.9240220E-08
   13.68000     -1.7566757E-08
   13.74000     -1.5858550E-08
   13.80000     -1.4084543E-08
   13.86000     -1.2220064E-08
   13.92000     -1.0260055E-08
   13.98000     -8.2277669E-09
   14.04000     -6.1748815E-09
   14.10000     -4.1720463E-09
   14.16000     -2.2923856E-09
   14.22000     -5.9325317E-10
   14.28000      8.9771457E-10
   14.34000      2.1875819E-09
   14.40000      3.3125747E-09
   14.46000      4.3240789E-09
   14.52000      5.2710925E-09
   14.58000      6.1851311E-09
   14.64000      7.0725417E-09
   14.70000      7.9164559E-09
   14.76000      8.6871736E-09
   14.82000      9.3567962E-09
   14.88000      9.9125304E-09
   14.94000      1.0363581E-08
   15.00000      1.0738962E-08
   15.06000      1.1076872E-08
   15.12000      1.1409544E-08
   15.18000      1.1749303E-08
   15.24000      1.2081474E-08
   15.30000      1.2367488E-08
   15.36000      1.2557876E-08
   15.42000      1.2611096E-08
   15.48000      1.2511628E-08
   15.54000      1.2280582E-08
   15.60000      1.1974362E-08
   15.66000      1.1671013E-08
   15.72000      1.1448282E-08
   15.78000      1.1360581E-08
   15.84000      1.1422730E-08
   15.90000      1.1606298E-08
   15.96000      1.1850122E-08
   16.02000      1.2081830E-08
   16.08000      1.2243353E-08
   16.14000      1.2311898E-08
   16.20000      1.2309268E-08
   16.26000      1.2296103E-08
   16.32000      1.2352606E-08
   16.38000      1.2551857E-08
   16.44000      1.2934472E-08
   16.50000      1.3493263E-08
   16.56000      1.4173534E-08
   16.62000      1.4889584E-08
   16.68000      1.5552466E-08
   16.74000      1.6099866E-08
   16.80000      1.6517696E-08
   16.86000      1.6845259E-08
   16.92000      1.7161309E-08
   16.98000      1.7555001E-08
   17.04000      1.8091576E-08
   17.10000      1.8785069E-08
   17.16000      1.9588574E-08
   17.22000      2.0406434E-08
   17.28000      2.1124988E-08
   17.34000      2.1651125E-08
   17.40000      2.1944654E-08
   17.46000      2.2032193E-08
   17.52000      2.1996852E-08
   17.58000      2.1947049E-08
   17.64000      2.1975778E-08
   17.70000      2.2125636E-08
   17.76000      2.2373102E-08
   17.82000      2.2638355E-08
   17.88000      2.2817398E-08
   17.94000      2.2824430E-08
   18.00000      2.2628369E-08
   18.06000      2.2269301E-08
   18.12000      2.1848162E-08
   18.18000      2.1493072E-08
   18.24000      2.1314671E-08
   18.30000      2.1367143E-08
   18.36000      2.1629514E-08
   18.42000      2.2014172E-08
   18.48000      2.2399337E-08
   18.54000      2.2673246E-08
   18.60000      2.2773609E-08
   18.66000      2.2707910E-08
   18.72000      2.2547521E-08
   18.78000      2.2398364E-08
   18.84000      2.2359311E-08
   18.90000      2.2483563E-08
   18.96000      2.2756529E-08
   19.02000      2.3097348E-08
   19.08000      2.3382553E-08
   19.14000      2.3482860E-08
   19.20000      2.3300261E-08
   19.26000      2.2793332E-08
   19.32000      2.1983590E-08
   19.38000      2.0942398E-08
   19.44000      1.9764411E-08
   19.50000      1.8537360E-08
   19.56000      1.7318369E-08
   19.62000      1.6124085E-08
   19.68000      1.4936866E-08
   19.74000      1.3723708E-08
   19.80000      1.2460400E-08
   19.86000      1.1151726E-08
   19.92000      9.8398898E-09
   19.98000      8.5973904E-09
   20.04000      7.5060331E-09
   20.10000      6.6288615E-09
   20.16000      5.9847771E-09
   20.22000      5.5352491E-09
   20.28000      5.1887570E-09
   20.34000      4.8225401E-09
   20.40000      4.3149719E-09
   20.46000      3.5778036E-09
   20.52000      2.5772233E-09
   20.58000      1.3365012E-09
   20.64000     -8.0386149E-11
   20.70000     -1.5978493E-09
   20.76000     -3.1595959E-09
   20.82000     -4.7500164E-09
   20.88000     -6.3985621E-09
   20.94000     -8.1662135E-09
   21.00000     -1.0119883E-08
   21.06000     -1.2304827E-08
   21.12000     -1.4725327E-08
   21.18000     -1.7340170E-08
   21.24000     -2.0073495E-08
   21.30000     -2.2835703E-08
   21.36000     -2.5545882E-08
   21.42000     -2.8147326E-08
   21.48000     -3.0611272E-08
   21.54000     -3.2928952E-08
   21.60000     -3.5096800E-08
   21.66000     -3.7101906E-08
   21.72000     -3.8914308E-08
   21.78000     -4.0489557E-08
   21.84000     -4.1780581E-08
   21.90000     -4.2754195E-08
   21.96000     -4.3405684E-08
   22.02000     -4.3765514E-08
   22.08000     -4.3895202E-08
   22.14000     -4.3873158E-08
   22.20000     -4.3775064E-08
   22.26000     -4.3655142E-08
   22.32000     -4.3534406E-08
   22.38000     -4.3399648E-08
   22.44000     -4.3213028E-08
   22.50000     -4.2928789E-08
   22.56000     -4.2511040E-08
   22.62000     -4.1946638E-08
   22.68000     -4.1248946E-08
   22.74000     -4.0451813E-08
   22.80000     -3.9596767E-08
   22.86000     -3.8718628E-08
   22.92000     -3.7835427E-08
   22.98000     -3.6946524E-08
   23.04000     -3.6039477E-08
   23.10000     -3.5102730E-08
   23.16000     -3.4138605E-08
   23.22000     -3.3170863E-08
   23.28000     -3.2243047E-08
   23.34000     -3.1407225E-08
   23.40000     -3.0706737E-08
   23.46000     -3.0158944E-08
   23.52000     -2.9744502E-08
   23.58000     -2.9407614E-08
   23.64000     -2.9068143E-08
   23.70000     -2.8642290E-08
   23.76000     -2.8065463E-08
   23.82000     -2.7310101E-08
   23.88000     -2.6392680E-08
   23.94000     -2.5367671E-08
   24.00000     -2.4310586E-08
   24.06000     -2.3295952E-08
   24.12000     -2.2377879E-08
   24.18000     -2.1579988E-08
   24.24000     -2.0898172E-08
   24.30000     -2.0314941E-08
   24.36000     -1.9819520E-08
   24.42000     -1.9425338E-08
   24.48000     -1.9176991E-08
   24.54000     -1.9142464E-08
   24.60000     -1.9392127E-08
   24.66000     -1.9971679E-08
   24.72000     -2.0879524E-08
   24.78000     -2.2058412E-08
   24.84000     -2.3406436E-08
   24.90000     -2.4805150E-08
   24.96000     -2.6155641E-08
   25.02000     -2.7409410E-08
   25.08000     -2.8582154E-08
   25.14000     -2.9744509E-08
   25.20000     -3.0992553E-08
   25.26000     -3.2408760E-08
   25.32000     -3.4028144E-08
   25.38000     -3.5822538E-08
   25.44000     -3.7709096E-08
   25.50000     -3.9579650E-08
   25.56000     -4.1339547E-08
   25.62000     -4.2940876E-08
   25.68000     -4.4397289E-08
   25.74000     -4.5774780E-08
   25.80000     -4.7162022E-08
   25.86000     -4.8631609E-08
   25.92000     -5.0206605E-08
   25.98000     -5.1844715E-08
   26.04000     -5.3445593E-08
   26.10000     -5.4878385E-08
   26.16000     -5.6019694E-08
   26.22000     -5.6789016E-08
   26.28000     -5.7170215E-08
   26.34000     -5.7213018E-08
   26.40000     -5.7015367E-08
   26.46000     -5.6693477E-08
   26.52000     -5.6349638E-08
   26.58000     -5.6047483E-08
   26.64000     -5.5801056E-08
   26.70000     -5.5579356E-08
   26.76000     -5.5322992E-08
   26.82000     -5.4966709E-08
   26.88000     -5.4460173E-08
   26.94000     -5.3781033E-08
   27.00000     -5.2936816E-08
   27.06000     -5.1956100E-08
   27.12000     -5.0872654E-08
   27.18000     -4.9708436E-08
   27.24000     -4.8461782E-08
   27.30000     -4.7105296E-08
   27.36000     -4.5594806E-08
   27.42000     -4.3886811E-08
   27.48000     -4.1958298E-08
   27.54000     -3.9821739E-08
   27.60000     -3.7528959E-08
   27.66000     -3.5161431E-08
   27.72000     -3.2809425E-08
   27.78000     -3.0546868E-08
   27.84000     -2.8410970E-08
   27.90000     -2.6394279E-08
   27.96000     -2.4452847E-08
   28.02000     -2.2527878E-08
   28.08000     -2.0573186E-08
   28.14000     -1.8578048E-08
   28.20000     -1.6576438E-08
   28.26000     -1.4638464E-08
   28.32000     -1.2846651E-08
   28.38000     -1.1265697E-08
   28.44000     -9.9172350E-09
   28.50000     -8.7696774E-09
   28.56000     -7.7477118E-09
   28.62000     -6.7585497E-09
   28.68000     -5.7253646E-09
   28.74000     -4.6152260E-09
   28.80000     -3.4505527E-09
   28.86000     -2.2992657E-09
   28.92000     -1.2470308E-09
   28.98000     -3.6214803E-10
   29.04000      3.3320549E-10
   29.10000      8.7388952E-10
   29.16000      1.3402182E-09
   29.22000      1.8280626E-09
   29.28000      2.4121061E-09
   29.34000      3.1165488E-09
   29.40000      3.9047157E-09
   29.46000      4.6916675E-09
   29.52000      5.3749565E-09
   29.58000      5.8717116E-09
   29.64000      6.1479866E-09
   29.70000      6.2295680E-09
   29.76000      6.1907519E-09
   29.82000      6.1260259E-09
   29.88000      6.1157555E-09
   29.94000      6.1986651E-09
   30.00000      6.3606698E-09
   30.06000      6.5430483E-09
   30.12000      6.6656987E-09
   30.18000      6.6561334E-09
   30.24000      6.4736247E-09
   30.30000      6.1206165E-09
   30.36000      5.6387885E-09
   30.42000      5.0927711E-09
   30.48000      4.5483892E-09
   30.54000      4.0533119E-09
   30.60000      3.6261343E-09
   30.66000      3.2563001E-09
   30.72000      2.9134155E-09
   30.78000      2.5617071E-09
   30.84000      2.1743580E-09
   30.90000      1.7431613E-09
   30.96000      1.2808518E-09
   31.02000      8.1583218E-10
   31.08000      3.8119147E-10
   31.14000      1.4685211E-12
   31.20000     -3.1871145E-10
   31.26000     -6.0032812E-10
   31.32000     -8.8754742E-10
   31.38000     -1.2369581E-09
   31.44000     -1.7008570E-09
   31.50000     -2.3092619E-09
   31.56000     -3.0564613E-09
   31.62000     -3.8972261E-09
   31.68000     -4.7552091E-09
   31.74000     -5.5421849E-09
   31.80000     -6.1828240E-09
   31.86000     -6.6371753E-09
   31.92000     -6.9130186E-09
   31.98000     -7.0631070E-09
   32.04000     -7.1672228E-09
   32.10000     -7.3044117E-09
   32.16000     -7.5246431E-09
   32.22000     -7.8300193E-09
   32.28000     -8.1728757E-09
   32.34000     -8.4724565E-09
   32.40000     -8.6451752E-09
   32.46000     -8.6381711E-09
   32.52000     -8.4539868E-09
   32.58000     -8.1566940E-09
   32.64000     -7.8559390E-09
   32.70000     -7.6732745E-09
   32.76000     -7.7018099E-09
   32.82000     -7.9732354E-09
   32.88000     -8.4442737E-09
   32.94000     -9.0081489E-09
   33.00000     -9.5278851E-09
   33.06000     -9.8803765E-09
   33.12000     -9.9961017E-09
   33.18000     -9.8807282E-09
   33.24000     -9.6112140E-09
   33.30000     -9.3080548E-09
   33.36000     -9.0938199E-09
   33.42000     -9.0527532E-09
   33.48000     -9.2054728E-09
   33.54000     -9.5069694E-09
   33.60000     -9.8674562E-09
   33.66000     -1.0187497E-08
   33.72000     -1.0394158E-08
   33.78000     -1.0465354E-08
   33.84000     -1.0434553E-08
   33.90000     -1.0375569E-08
   33.96000     -1.0374228E-08
   34.02000     -1.0497755E-08
   34.08000     -1.0772555E-08
   34.14000     -1.1177093E-08
   34.20000     -1.1650759E-08
   34.26000     -1.2114169E-08
   34.32000     -1.2493258E-08
   34.38000     -1.2739413E-08
   34.44000     -1.2840411E-08
   34.50000     -1.2820468E-08
   34.56000     -1.2731106E-08
   34.62000     -1.2636562E-08
   34.68000     -1.2597961E-08
   34.74000     -1.2659867E-08
   34.80000     -1.2841713E-08
   34.86000     -1.3135426E-08
   34.92000     -1.3509562E-08
   34.98000     -1.3919160E-08
   35.04000     -1.4319287E-08
   35.10000     -1.4679117E-08
   35.16000     -1.4992571E-08
   35.22000     -1.5281922E-08
   35.28000     -1.5592391E-08
   35.34000     -1.5978470E-08
   35.40000     -1.6485753E-08
   35.46000     -1.7134120E-08
   35.52000     -1.7908281E-08
   35.58000     -1.8759589E-08
   35.64000     -1.9619250E-08
   35.70000     -2.0418755E-08
   35.76000     -2.1110504E-08
   35.82000     -2.1681078E-08
   35.88000     -2.2152088E-08
   35.94000     -2.2568116E-08
   36.00000     -2.2976295E-08
   36.06000     -2.3405549E-08
   36.12000     -2.3854092E-08
   36.18000     -2.4290786E-08
   36.24000     -2.4670774E-08
   36.30000     -2.4959899E-08
   36.36000     -2.5158528E-08
   36.42000     -2.5314943E-08
   36.48000     -2.5521935E-08
   36.54000     -2.5896343E-08
   36.60000     -2.6547964E-08
   36.66000     -2.7548657E-08
   36.72000     -2.8912870E-08
   36.78000     -3.0596848E-08
   36.84000     -3.2516979E-08
   36.90000     -3.4580548E-08
   36.96000     -3.6717498E-08
   37.02000     -3.8901572E-08
   37.08000     -4.1153307E-08
   37.14000     -4.3524356E-08
   37.20000     -4.6069552E-08
   37.26000     -4.8817355E-08
   37.32000     -5.1749442E-08
   37.38000     -5.4796175E-08
   37.44000     -5.7848627E-08
   37.50000     -6.0781979E-08
   37.56000     -6.3481757E-08
   37.62000     -6.5864675E-08
   37.68000     -6.7888422E-08
   37.74000     -6.9549458E-08
   37.80000     -7.0871273E-08
   37.86000     -7.1887989E-08
   37.92000     -7.2628019E-08
   37.98000     -7.3101759E-08
   38.04000     -7.3295411E-08
   38.10000     -7.3171890E-08
   38.16000     -7.2678667E-08
   38.22000     -7.1761384E-08
   38.28000     -7.0380835E-08
   38.34000     -6.8529317E-08
   38.40000     -6.6241576E-08
   38.46000     -6.3595664E-08
   38.52000     -6.0701765E-08
   38.58000     -5.7680452E-08
   38.64000     -5.4636264E-08
   38.70000     -5.1635247E-08
   38.76000     -4.8694858E-08
   38.82000     -4.5790927E-08
   38.88000     -4.2880416E-08
   38.94000     -3.9932271E-08
   39.00000     -3.6954841E-08
   39.06000     -3.4008508E-08
   39.12000     -3.1197199E-08
   39.18000     -2.8640073E-08
   39.24000     -2.6432605E-08
   39.30000     -2.4611069E-08
   39.36000     -2.3133904E-08
   39.42000     -2.1887956E-08
   39.48000     -2.0718605E-08
   39.54000     -1.9473967E-08
   39.60000     -1.8048089E-08
   39.66000     -1.6408256E-08
   39.72000     -1.4597346E-08
   39.78000     -1.2711275E-08
   39.84000     -1.0860513E-08
   39.90000     -9.1301047E-09
   39.96000     -7.5524804E-09
   40.02000     -6.1019634E-09
   40.08000     -4.7114375E-09
   40.14000     -3.3034246E-09
   40.20000     -1.8229966E-09
   40.26000     -2.6004202E-10
   40.32000      1.3468836E-09
   40.38000      2.9256404E-09
   40.44000      4.3981050E-09
   40.50000      5.7097513E-09
   40.56000      6.8506187E-09
   40.62000      7.8607423E-09
   40.68000      8.8188878E-09
   40.74000      9.8190931E-09
   40.80000      1.0943217E-08
   40.86000      1.2238369E-08
   40.92000      1.3705892E-08
   40.98000      1.5304499E-08
   41.04000      1.6965572E-08
   41.10000      1.8615172E-08
   41.16000      2.0195630E-08
   41.22000      2.1680242E-08
   41.28000      2.3076991E-08
   41.34000      2.4420803E-08
   41.40000      2.5757252E-08
   41.46000      2.7123164E-08
   41.52000      2.8530325E-08
   41.58000      2.9957462E-08
   41.64000      3.1353000E-08
   41.70000      3.2647769E-08
   41.76000      3.3773635E-08
   41.82000      3.4682273E-08
   41.88000      3.5358170E-08
   41.94000      3.5821802E-08
   42.00000      3.6122163E-08
   42.06000      3.6321136E-08
   42.12000      3.6474930E-08
   42.18000      3.6618605E-08
   42.24000      3.6758525E-08
   42.30000      3.6875011E-08
   42.36000      3.6933784E-08
   42.42000      3.6902069E-08
   42.48000      3.6763634E-08
   42.54000      3.6527634E-08
   42.60000      3.6228386E-08
   42.66000      3.5916372E-08
   42.72000      3.5643794E-08
   42.78000      3.5449780E-08
   42.84000      3.5350244E-08
   42.90000      3.5335709E-08
   42.96000      3.5377447E-08
   43.02000      3.5439392E-08
   43.08000      3.5491489E-08
   43.14000      3.5519726E-08
   43.20000      3.5529581E-08
   43.26000      3.5542076E-08
   43.32000      3.5584211E-08
   43.38000      3.5677449E-08
   43.44000      3.5828240E-08
   43.50000      3.6023707E-08
   43.56000      3.6233406E-08
   43.62000      3.6416147E-08
   43.68000      3.6529219E-08
   43.74000      3.6536974E-08
   43.80000      3.6416544E-08
   43.86000      3.6159665E-08
   43.92000      3.5771262E-08
   43.98000      3.5266215E-08
   44.04000      3.4666002E-08
   44.10000      3.3996358E-08
   44.16000      3.3286366E-08
   44.22000      3.2568597E-08
   44.28000      3.1879640E-08
   44.34000      3.1260431E-08
   44.40000      3.0756041E-08
   44.46000      3.0415030E-08
   44.52000      3.0288636E-08
   44.58000      3.0430371E-08
   44.64000      3.0896540E-08
   44.70000      3.1748268E-08
   44.76000      3.3055503E-08
   44.82000      3.4903064E-08
   44.88000      3.7398266E-08
   44.94000      4.0679112E-08
   45.00000      4.4921713E-08
   45.06000      5.0346024E-08
   45.12000      5.7219864E-08
   45.18000      6.5862260E-08
   45.24000      7.6648185E-08
   45.30000      9.0016542E-08
   45.36000      1.0648213E-07
   45.42000      1.2665083E-07
   45.48000      1.5123560E-07
   45.54000      1.8107052E-07
   45.60000      2.1712155E-07
   45.66000      2.6049494E-07
   45.72000      3.1244679E-07
   45.78000      3.7439878E-07
   45.84000      4.4796457E-07
   45.90000      5.3498889E-07
   45.96000      6.3759683E-07
   46.02000      7.5824840E-07
   46.08000      8.9979261E-07
   46.14000      1.0655142E-06
   46.20000      1.2591754E-06
   46.26000      1.4850535E-06
   46.32000      1.7479824E-06
   46.38000      2.0534055E-06
   46.44000      2.4074441E-06
   46.50000      2.8169802E-06
   46.56000      3.2897522E-06
   46.62000      3.8344492E-06
   46.68000      4.4608068E-06
   46.74000      5.1796897E-06
   46.80000      6.0031725E-06
   46.86000      6.9446178E-06
   46.92000      8.0187683E-06
   46.98000      9.2418386E-06
   47.04000      1.0631636E-05
   47.10000      1.2207682E-05
   47.16000      1.3991332E-05
   47.22000      1.6005910E-05
   47.28000      1.8276804E-05
   47.34000      2.0831565E-05
   47.40000      2.3699995E-05
   47.46000      2.6914211E-05
   47.52000      3.0508705E-05
   47.58000      3.4520413E-05
   47.64000      3.8988754E-05
   47.70000      4.3955668E-05
   47.76000      4.9465641E-05
   47.82000      5.5565710E-05
   47.88000      6.2305437E-05
   47.94000      6.9736816E-05
   48.00000      7.7914221E-05
   48.06000      8.6894273E-05
   48.12000      9.6735661E-05
   48.18000      1.0749894E-04
   48.24000      1.1924636E-04
   48.30000      1.3204149E-04
   48.36000      1.4594899E-04
   48.42000      1.6103423E-04
   48.48000      1.7736290E-04
   48.54000      1.9500058E-04
   48.60000      2.1401225E-04
   48.66000      2.3446180E-04
   48.72000      2.5641141E-04
   48.78000      2.7992114E-04
   48.84000      3.0504810E-04
   48.90000      3.3184598E-04
   48.96000      3.6036427E-04
   49.02000      3.9064771E-04
   49.08000      4.2273549E-04
   49.14000      4.5666081E-04
   49.20000      4.9244991E-04
   49.26000      5.3012167E-04
   49.32000      5.6968705E-04
   49.38000      6.1114802E-04
   49.44000      6.5449765E-04
   49.50000      6.9971895E-04
   49.56000      7.4678520E-04
   49.62000      7.9565891E-04
   49.68000      8.4629207E-04
   49.74000      8.9862553E-04
   49.80000      9.5258927E-04
   49.86000      1.0081023E-03
   49.92000      1.0650728E-03
   49.98000      1.1233985E-03
   50.04000      1.1829666E-03
   50.10000      1.2436552E-03
   50.16000      1.3053330E-03
   50.22000      1.3678604E-03
   50.28000      1.4310904E-03
   50.34000      1.4948696E-03
   50.40000      1.5590393E-03
   50.46000      1.6234363E-03
   50.52000      1.6878948E-03
   50.58000      1.7522471E-03
   50.64000      1.8163254E-03
   50.70000      1.8799632E-03
   50.76000      1.9429974E-03
   50.82000      2.0052686E-03
   50.88000      2.0666232E-03
   50.94000      2.1269149E-03
   51.00000      2.1860062E-03
   51.06000      2.2437694E-03
   51.12000      2.3000888E-03
   51.18000      2.3548596E-03
   51.24000      2.4079918E-03
   51.30000      2.4594094E-03
   51.36000      2.5090512E-03
   51.42000      2.5568728E-03
   51.48000      2.6028447E-03
   51.54000      2.6469550E-03
   51.60000      2.6892070E-03
   51.66000      2.7296208E-03
   51.72000      2.7682318E-03
   51.78000      2.8050907E-03
   51.84000      2.8402621E-03
   51.90000      2.8738242E-03
   51.96000      2.9058668E-03
   52.02000      2.9364913E-03
   52.08000      2.9658079E-03
   52.14000      2.9939348E-03
   52.20000      3.0209955E-03
   52.26000      3.0471175E-03
   52.32000      3.0724306E-03
   52.38000      3.0970646E-03
   52.44000      3.1211474E-03
   52.50000      3.1448032E-03
   52.56000      3.1681505E-03
   52.62000      3.1913007E-03
   52.68000      3.2143558E-03
   52.74000      3.2374074E-03
   52.80000      3.2605357E-03
   52.86000      3.2838057E-03
   52.92000      3.3072690E-03
   52.98000      3.3309618E-03
   53.04000      3.3549042E-03
   53.10000      3.3791000E-03
   53.16000      3.4035356E-03
   53.22000      3.4281826E-03
   53.28000      3.4529956E-03
   53.34000      3.4779147E-03
   53.40000      3.5028651E-03
   53.46000      3.5277579E-03
   53.52000      3.5524932E-03
   53.58000      3.5769583E-03
   53.64000      3.6010325E-03
   53.70000      3.6245873E-03
   53.76000      3.6474888E-03
   53.82000      3.6695993E-03
   53.88000      3.6907808E-03
   53.94000      3.7108948E-03
   54.00000      3.7298063E-03
   54.06000      3.7473841E-03
   54.12000      3.7635046E-03
   54.18000      3.7780514E-03
   54.24000      3.7909192E-03
   54.30000      3.8020136E-03
   54.36000      3.8112549E-03
   54.42000      3.8185772E-03
   54.48000      3.8239304E-03
   54.54000      3.8272808E-03
   54.60000      3.8286112E-03
   54.66000      3.8279220E-03
   54.72000      3.8252308E-03
   54.78000      3.8205718E-03
   54.84000      3.8139955E-03
   54.90000      3.8055680E-03
   54.96000      3.7953707E-03
   55.02000      3.7834980E-03
   55.08000      3.7700576E-03
   55.14000      3.7551678E-03
   55.20000      3.7389551E-03
   55.26000      3.7215538E-03
   55.32000      3.7031032E-03
   55.38000      3.6837461E-03
   55.44000      3.6636265E-03
   55.50000      3.6428880E-03
   55.56000      3.6216713E-03