  -2.400000      0.0000000E+00
  -2.340000      0.0000000E+00
  -2.280000      0.0000000E+00
  -2.220000      0.0000000E+00
  -2.160000      0.0000000E+00
  -2.100000     -2.5157963E-20
  -2.040000     -2.1491887E-19
  -1.980000     -9.1540056E-19
  -1.920000     -2.4507486E-18
  -1.860000     -4.0523314E-18
  -1.800000     -1.8832047E-18
  -1.740000      1.2323078E-17
  -1.680000      4.8427732E-17
  -1.620000      1.0707729E-16
  -1.560000      1.6176167E-16
  -1.500000      1.4447797E-16
  -1.440000     -4.4379060E-17
  -1.380000     -4.8223645E-16
  -1.320000     -1.1288440E-15
  -1.260000     -1.7323665E-15
  -1.200000     -1.8195568E-15
  -1.140000     -8.5298468E-16
  -1.080000      1.4310701E-15
  -1.020000      4.6245958E-15
 -0.9600000      7.4473644E-15
 -0.9000000      8.0358287E-15
 -0.8400000      4.8491213E-15
 -0.7800000     -2.0483586E-15
 -0.7200000     -9.9997068E-15
 -0.6600000     -1.3960374E-14
 -0.6000000     -8.5294109E-15
 -0.5400000      8.4122442E-15
 -0.4800000      3.1885864E-14
 -0.4200000      4.8224211E-14
 -0.3600000      3.8098065E-14
 -0.3000000     -1.4950836E-14
 -0.2400000     -1.1241812E-13
 -0.1800000     -2.3027449E-13
 -0.1200000     -3.1677997E-13
 -5.9999999E-02 -3.0425966E-13
  0.0000000E+00 -1.3549441E-13
  5.9999999E-02  2.0210579E-13
  0.1200000      6.4846013E-13
  0.1800000      1.0655917E-12
  0.2400000      1.2672392E-12
  0.3000000      1.0828103E-12
  0.3600000      4.3828989E-13
  0.4200000     -5.7766129E-13
  0.4800000     -1.6980812E-12
  0.5400000     -2.5362718E-12
  0.6000000     -2.7151881E-12
  0.6600000     -2.0303750E-12
  0.7200000     -5.8251087E-13
  0.7800000      1.1890472E-12
  0.8400000      2.6145056E-12
  0.9000000      3.0337000E-12
  0.9600000      2.0954061E-12
   1.020000     -2.9937071E-15
   1.080000     -2.4590234E-12
   1.140000     -4.0656788E-12
   1.200000     -3.6478411E-12
   1.260000     -6.0427021E-13
   1.320000      4.6532851E-12
   1.380000      1.0578414E-11
   1.440000      1.4815833E-11
   1.500000      1.4946435E-11
   1.560000      9.4435657E-12
   1.620000     -1.4977285E-12
   1.680000     -1.5613561E-11
   1.740000     -2.8937469E-11
   1.800000     -3.6873088E-11
   1.860000     -3.5691256E-11
   1.920000     -2.3962764E-11
   1.980000     -3.3914074E-12
   2.040000      2.1333329E-11
   2.100000      4.3724118E-11
   2.160000      5.7403506E-11
   2.220000      5.8111828E-11
   2.280000      4.5104694E-11
   2.340000      2.1402451E-11
   2.400000     -7.2502720E-12
   2.460000     -3.4374011E-11
   2.520000     -5.4963943E-11
   2.580000     -6.7059365E-11
   2.640000     -7.2014054E-11
   2.700000     -7.3291727E-11
   2.760000     -7.4209201E-11
   2.820000     -7.5535744E-11
   2.880000     -7.4024703E-11
   2.940000     -6.2704106E-11
   3.000000     -3.3140657E-11
   3.060000      2.0879840E-11
   3.120000      9.9461793E-11
   3.180000      1.9396877E-10
   3.240000      2.8686223E-10
   3.300000      3.5448403E-10
   3.360000      3.7227502E-10
   3.420000      3.2103242E-10
   3.480000      1.9234175E-10
   3.540000     -8.5312790E-12
   3.600000     -2.6325075E-10
   3.660000     -5.4436705E-10
   3.720000     -8.2135609E-10
   3.780000     -1.0667713E-09
   3.840000     -1.2604969E-09
   3.900000     -1.3907530E-09
   3.960000     -1.4516595E-09
   4.020000     -1.4384253E-09
   4.080000     -1.3421516E-09
   4.140000     -1.1464801E-09
   4.200000     -8.2775664E-10
   4.260000     -3.5918354E-10
   4.320000      2.8203814E-10
   4.380000      1.1067902E-09
   4.440000      2.1081001E-09
   4.500000      3.2595520E-09
   4.560000      4.5191610E-09
   4.620000      5.8380900E-09
   4.680000      7.1719053E-09
   4.740000      8.4910479E-09
   4.800000      9.7872128E-09
   4.860000      1.1073456E-08
   4.920000      1.2377741E-08
   4.980000      1.3731744E-08
   5.040000      1.5158291E-08
   5.100000      1.6661300E-08
   5.160000      1.8221344E-08
   5.220000      1.9798124E-08
   5.280000      2.1338876E-08
   5.340000      2.2789834E-08
   5.400000      2.4106901E-08
   5.460000      2.5262050E-08
   5.520000      2.6243599E-08
   5.580000      2.7050792E-08
   5.640000      2.7685164E-08
   5.700000      2.8142519E-08
   5.760000      2.8409097E-08
   5.820000      2.8464054E-08
   5.880000      2.8287934E-08
   5.940000      2.7874362E-08
   6.000000      2.7240654E-08
   6.060000      2.6432874E-08
   6.120000      2.5522485E-08
   6.180000      2.4594446E-08
   6.240000      2.3729559E-08
   6.300000      2.2986230E-08
   6.360000      2.2387304E-08
   6.420000      2.1916499E-08
   6.480000      2.1526056E-08
   6.540000      2.1153737E-08
   6.600000      2.0744190E-08
   6.660000      2.0268175E-08
   6.720000      1.9733557E-08
   6.780000      1.9184418E-08
   6.840000      1.8688274E-08
   6.900000      1.8315150E-08
   6.960000      1.8114935E-08
   7.020000      1.8100140E-08
   7.080000      1.8239694E-08
   7.140000      1.8466038E-08
   7.200000      1.8693600E-08
   7.260000      1.8843171E-08
   7.320000      1.8864634E-08
   7.380000      1.8751004E-08
   7.440000      1.8539493E-08
   7.500000      1.8299438E-08
   7.560000      1.8111226E-08
   7.620000      1.8043181E-08
   7.680000      1.8133795E-08
   7.740000      1.8384664E-08
   7.800000      1.8765553E-08
   7.860000      1.9228768E-08
   7.920000      1.9726963E-08
   7.980000      2.0227588E-08
   8.040000      2.0718835E-08
   8.100000      2.1205445E-08
   8.160000      2.1696518E-08
   8.220000      2.2190438E-08
   8.280000      2.2662995E-08
   8.340000      2.3063414E-08
   8.400000      2.3320121E-08
   8.460000      2.3354616E-08
   8.520000      2.3099107E-08
   8.580000      2.2512353E-08
   8.640000      2.1588891E-08
   8.700000      2.0359025E-08
   8.760000      1.8879902E-08
   8.820000      1.7220662E-08
   8.880000      1.5446313E-08
   8.940000      1.3605157E-08
   9.000000      1.1723338E-08
   9.060000      9.8076613E-09
   9.120000      7.8552507E-09
   9.180000      5.8663914E-09
   9.240000      3.8558694E-09
   9.300000      1.8586064E-09
   9.360000     -7.2775230E-11
   9.420000     -1.8781383E-09
   9.480000     -3.5047785E-09
   9.540000     -4.9223643E-09
   9.600000     -6.1328476E-09
   9.660000     -7.1717414E-09
   9.720000     -8.0998195E-09
   9.780000     -8.9874002E-09
   9.840000     -9.8958512E-09
   9.900000     -1.0862022E-08
   9.960000     -1.1890525E-08
   10.02000     -1.2956419E-08
   10.08000     -1.4017547E-08
   10.14000     -1.5032725E-08
   10.20000     -1.5980014E-08
   10.26000     -1.6869219E-08
   10.32000     -1.7744480E-08
   10.38000     -1.8675907E-08
   10.44000     -1.9742622E-08
   10.50000     -2.1012253E-08
   10.56000     -2.2522949E-08
   10.62000     -2.4273142E-08
   10.68000     -2.6221718E-08
   10.74000     -2.8297997E-08
   10.80000     -3.0417922E-08
   10.86000     -3.2501152E-08
   10.92000     -3.4483929E-08
   10.98000     -3.6324476E-08
   11.04000     -3.8000415E-08
   11.10000     -3.9500751E-08
   11.16000     -4.0816637E-08
   11.22000     -4.1935376E-08
   11.28000     -4.2840576E-08
   11.34000     -4.3518774E-08
   11.40000     -4.3969987E-08
   11.46000     -4.4217682E-08
   11.52000     -4.4313452E-08
   11.58000     -4.4333092E-08
   11.64000     -4.4363645E-08
   11.70000     -4.4484445E-08
   11.76000     -4.4747427E-08
   11.82000     -4.5162963E-08
   11.88000     -4.5696041E-08
   11.94000     -4.6274444E-08
   12.00000     -4.6806804E-08
   12.06000     -4.7205116E-08
   12.12000     -4.7404896E-08
   12.18000     -4.7377121E-08
   12.24000     -4.7128886E-08
   12.30000     -4.6693618E-08
   12.36000     -4.6115012E-08
   12.42000     -4.5430550E-08
   12.48000     -4.4660020E-08
   12.54000     -4.3802228E-08
   12.60000     -4.2839822E-08
   12.66000     -4.1749452E-08
   12.72000     -4.0512909E-08
   12.78000     -3.9124984E-08
   12.84000     -3.7595598E-08
   12.90000     -3.5945849E-08
   12.96000     -3.4199996E-08
   13.02000     -3.2376700E-08
   13.08000     -3.0482873E-08
   13.14000     -2.8512618E-08
   13.20000     -2.6451870E-08
   13.26000     -2.4287440E-08
   13.32000     -2.2017669E-08
   13.38000     -1.9661149E-08
   13.44000     -1.7260396E-08
   13.50000     -1.4878759E-08
   13.56000     -1.2590794E-08
   13.62000     -1.0468446E-08
   13.68000     -8.5667011E-09
   13.74000     -6.9127446E-09
   13.80000     -5.5016174E-09
   13.86000     -4.2994457E-09
   13.92000     -3.2529894E-09
   13.98000     -2.3024258E-09
   14.04000     -1.3935182E-09
   14.10000     -4.8591065E-10
   14.16000      4.4407791E-10
   14.22000      1.4057282E-09
   14.28000      2.3991742E-09
   14.34000      3.4208514E-09
   14.40000      4.4668176E-09
   14.46000      5.5329368E-09
   14.52000      6.6124786E-09
   14.58000      7.6928233E-09
   14.64000      8.7533332E-09
   14.70000      9.7658663E-09
   14.76000      1.0698371E-08
   14.82000      1.1520760E-08
   14.88000      1.2211435E-08
   14.94000      1.2762579E-08
   15.00000      1.3182655E-08
   15.06000      1.3495278E-08
   15.12000      1.3734616E-08
   15.18000      1.3938302E-08
   15.24000      1.4139560E-08
   15.30000      1.4360520E-08
   15.36000      1.4608528E-08
   15.42000      1.4876535E-08
   15.48000      1.5147547E-08
   15.54000      1.5401826E-08
   15.60000      1.5624561E-08
   15.66000      1.5811505E-08
   15.72000      1.5970651E-08
   15.78000      1.6119520E-08
   15.84000      1.6279287E-08
   15.90000      1.6468110E-08
   15.96000      1.6696319E-08
   16.02000      1.6965153E-08
   16.08000      1.7269038E-08
   16.14000      1.7599822E-08
   16.20000      1.7950466E-08
   16.26000      1.8316216E-08
   16.32000      1.8692614E-08
   16.38000      1.9071605E-08
   16.44000      1.9438124E-08
   16.50000      1.9769542E-08
   16.56000      2.0039034E-08
   16.62000      2.0221917E-08
   16.68000      2.0302389E-08
   16.74000      2.0277586E-08
   16.80000      2.0157072E-08
   16.86000      1.9958046E-08
   16.92000      1.9698822E-08
   16.98000      1.9394335E-08
   17.04000      1.9056626E-08
   17.10000      1.8700959E-08
   17.16000      1.8355010E-08
   17.22000      1.8066347E-08
   17.28000      1.7903091E-08
   17.34000      1.7944922E-08
   17.40000      1.8265487E-08
   17.46000      1.8911392E-08
   17.52000      1.9885302E-08
   17.58000      2.1140051E-08
   17.64000      2.2587075E-08
   17.70000      2.4117204E-08
   17.76000      2.5627010E-08
   17.82000      2.7041574E-08
   17.88000      2.8325708E-08
   17.94000      2.9480029E-08
   18.00000      3.0524159E-08
   18.06000      3.1474134E-08
   18.12000      3.2323250E-08
   18.18000      3.3033960E-08
   18.24000      3.3544040E-08
   18.30000      3.3784541E-08
   18.36000      3.3702729E-08
   18.42000      3.3281403E-08
   18.48000      3.2547490E-08
   18.54000      3.1566927E-08
   18.60000      3.0427501E-08
   18.66000      2.9215462E-08
   18.72000      2.7993396E-08
   18.78000      2.6786211E-08
   18.84000      2.5579210E-08
   18.90000      2.4328521E-08
   18.96000      2.2980476E-08
   19.02000      2.1494122E-08
   19.08000      1.9860225E-08
   19.14000      1.8111173E-08
   19.20000      1.6318607E-08
   19.26000      1.4579017E-08
   19.32000      1.2990951E-08
   19.38000      1.1630120E-08
   19.44000      1.0529658E-08
   19.50000      9.6715675E-09
   19.56000      8.9922443E-09
   19.62000      8.4005194E-09
   19.68000      7.8025142E-09
   19.74000      7.1251223E-09
   19.80000      6.3302990E-09
   19.86000      5.4156217E-09
   19.92000      4.4016741E-09
   19.98000      3.3119025E-09
   20.04000      2.1536180E-09
   20.10000      9.0845043E-10
   20.16000     -4.6317486E-10
   20.22000     -2.0047308E-09
   20.28000     -3.7401255E-09
   20.34000     -5.6537552E-09
   20.40000     -7.6829325E-09
   20.46000     -9.7271586E-09
   20.52000     -1.1672381E-08
   20.58000     -1.3422526E-08
   20.64000     -1.4927524E-08
   20.70000     -1.6197893E-08
   20.76000     -1.7300431E-08
   20.82000     -1.8336046E-08
   20.88000     -1.9406883E-08
   20.94000     -2.0583546E-08
   21.00000     -2.1883039E-08
   21.06000     -2.3264525E-08
   21.12000     -2.4643958E-08
   21.18000     -2.5922628E-08
   21.24000     -2.7020270E-08
   21.30000     -2.7902182E-08
   21.36000     -2.8591879E-08
   21.42000     -2.9165582E-08
   21.48000     -2.9730566E-08
   21.54000     -3.0394386E-08
   21.60000     -3.1234642E-08
   21.66000     -3.2278592E-08
   21.72000     -3.3498640E-08
   21.78000     -3.4824449E-08
   21.84000     -3.6167336E-08
   21.90000     -3.7448448E-08
   21.96000     -3.8621391E-08
   22.02000     -3.9681797E-08
   22.08000     -4.0660986E-08
   22.14000     -4.1606274E-08
   22.20000     -4.2555225E-08
   22.26000     -4.3513264E-08
   22.32000     -4.4443002E-08
   22.38000     -4.5269605E-08
   22.44000     -4.5900858E-08
   22.50000     -4.6255362E-08
   22.56000     -4.6289347E-08
   22.62000     -4.6012762E-08
   22.68000     -4.5488921E-08
   22.74000     -4.4817501E-08
   22.80000     -4.4106301E-08
   22.86000     -4.3440956E-08
   22.92000     -4.2862524E-08
   22.98000     -4.2360131E-08
   23.04000     -4.1880913E-08
   23.10000     -4.1353768E-08
   23.16000     -4.0718916E-08
   23.22000     -3.9953456E-08
   23.28000     -3.9084465E-08
   23.34000     -3.8185295E-08
   23.40000     -3.7356219E-08
   23.46000     -3.6695809E-08
   23.52000     -3.6272525E-08
   23.58000     -3.6105849E-08
   23.64000     -3.6163360E-08
   23.70000     -3.6374452E-08
   23.76000     -3.6655891E-08
   23.82000     -3.6940055E-08
   23.88000     -3.7195761E-08
   23.94000     -3.7434354E-08
   24.00000     -3.7699031E-08
   24.06000     -3.8041762E-08
   24.12000     -3.8496925E-08
   24.18000     -3.9061959E-08
   24.24000     -3.9692697E-08
   24.30000     -4.0315289E-08
   24.36000     -4.0850118E-08
   24.42000     -4.1238462E-08
   24.48000     -4.1461647E-08
   24.54000     -4.1545455E-08
   24.60000     -4.1548518E-08
   24.66000     -4.1539458E-08
   24.72000     -4.1571997E-08
   24.78000     -4.1667366E-08
   24.84000     -4.1810480E-08
   24.90000     -4.1960543E-08
   24.96000     -4.2071303E-08
   25.02000     -4.2112802E-08
   25.08000     -4.2086203E-08
   25.14000     -4.2026358E-08
   25.20000     -4.1991434E-08
   25.26000     -4.2043691E-08
   25.32000     -4.2228343E-08
   25.38000     -4.2557744E-08
   25.44000     -4.3005972E-08
   25.50000     -4.3515232E-08
   25.56000     -4.4011461E-08
   25.62000     -4.4423960E-08
   25.68000     -4.4702766E-08
   25.74000     -4.4828621E-08
   25.80000     -4.4812907E-08
   25.86000     -4.4688246E-08
   25.92000     -4.4493195E-08
   25.98000     -4.4256243E-08
   26.04000     -4.3984393E-08
   26.10000     -4.3659778E-08
   26.16000     -4.3245294E-08
   26.22000     -4.2697078E-08
   26.28000     -4.1979469E-08
   26.34000     -4.1077396E-08
   26.40000     -4.0001904E-08
   26.46000     -3.8787014E-08
   26.52000     -3.7478969E-08
   26.58000     -3.6121481E-08
   26.64000     -3.4742019E-08
   26.70000     -3.3343699E-08
   26.76000     -3.1905479E-08
   26.82000     -3.0390513E-08
   26.88000     -2.8759757E-08
   26.94000     -2.6986076E-08
   27.00000     -2.5064042E-08
   27.06000     -2.3012154E-08
   27.12000     -2.0866873E-08
   27.18000     -1.8670907E-08
   27.24000     -1.6460220E-08
   27.30000     -1.4254702E-08
   27.36000     -1.2056123E-08
   27.42000     -9.8540207E-09
   27.48000     -7.6371780E-09
   27.54000     -5.4058651E-09
   27.60000     -3.1796041E-09
   27.66000     -9.9673458E-10
   27.72000      1.0947384E-09
   27.78000      3.0519833E-09
   27.84000      4.8522941E-09
   27.90000      6.5021459E-09
   27.96000      8.0363440E-09
   28.02000      9.5069712E-09
   28.08000      1.0965871E-08
   28.14000      1.2447103E-08
   28.20000      1.3955995E-08
   28.26000      1.5468940E-08
   28.32000      1.6943828E-08
   28.38000      1.8336683E-08
   28.44000      1.9617586E-08
   28.50000      2.0779179E-08
   28.56000      2.1834239E-08
   28.62000      2.2803357E-08
   28.68000      2.3698030E-08
   28.74000      2.4506488E-08
   28.80000      2.5188584E-08
   28.86000      2.5682448E-08
   28.92000      2.5920810E-08
   28.98000      2.5851094E-08
   29.04000      2.5451845E-08
   29.10000      2.4739602E-08
   29.16000      2.3763985E-08
   29.22000      2.2593211E-08
   29.28000      2.1295563E-08
   29.34000      1.9923375E-08
   29.40000      1.8504688E-08
   29.46000      1.7044517E-08
   29.52000      1.5534122E-08
   29.58000      1.3963928E-08
   29.64000      1.2335028E-08
   29.70000      1.0665137E-08
   29.76000      8.9873051E-09
   29.82000      7.3424102E-09
   29.88000      5.7685279E-09
   29.94000      4.2911470E-09
   30.00000      2.9175617E-09
   30.06000      1.6371647E-09
   30.12000      4.2719925E-10
   30.18000     -7.3824796E-10
   30.24000     -1.8791959E-09
   30.30000     -3.0036498E-09
   30.36000     -4.1061861E-09
   30.42000     -5.1712568E-09
   30.48000     -6.1795404E-09
   30.54000     -7.1146689E-09
   30.60000     -7.9677038E-09
   30.66000     -8.7377812E-09
   30.72000     -9.4289989E-09
   30.78000     -1.0045240E-08
   30.84000     -1.0585564E-08
   30.90000     -1.1042627E-08
   30.96000     -1.1405460E-08
   31.02000     -1.1666025E-08
   31.08000     -1.1827341E-08
   31.14000     -1.1909893E-08
   31.20000     -1.1953445E-08
   31.26000     -1.2012762E-08
   31.32000     -1.2148013E-08
   31.38000     -1.2412730E-08
   31.44000     -1.2843372E-08
   31.50000     -1.3454287E-08
   31.56000     -1.4240102E-08
   31.62000     -1.5184824E-08
   31.68000     -1.6274370E-08
   31.74000     -1.7507594E-08
   31.80000     -1.8901028E-08
   31.86000     -2.0484704E-08
   31.92000     -2.2289541E-08
   31.98000     -2.4330230E-08
   32.04000     -2.6589689E-08
   32.10000     -2.9011188E-08
   32.16000     -3.1502189E-08
   32.22000     -3.3949966E-08
   32.28000     -3.6245176E-08
   32.34000     -3.8306371E-08
   32.40000     -4.0097870E-08
   32.46000     -4.1635239E-08
   32.52000     -4.2976417E-08
   32.58000     -4.4201279E-08
   32.64000     -4.5385896E-08
   32.70000     -4.6579544E-08
   32.76000     -4.7791378E-08
   32.82000     -4.8990465E-08
   32.88000     -5.0118462E-08
   32.94000     -5.1110220E-08
   33.00000     -5.1915141E-08
   33.06000     -5.2512142E-08
   33.12000     -5.2913467E-08
   33.18000     -5.3156427E-08
   33.24000     -5.3286545E-08
   33.30000     -5.3338450E-08
   33.36000     -5.3321894E-08
   33.42000     -5.3218542E-08
   33.48000     -5.2991236E-08
   33.54000     -5.2602836E-08
   33.60000     -5.2037723E-08
   33.66000     -5.1317549E-08
   33.72000     -5.0504333E-08
   33.78000     -4.9688325E-08
   33.84000     -4.8963813E-08
   33.90000     -4.8400825E-08
   33.96000     -4.8022851E-08
   34.02000     -4.7799080E-08
   34.08000     -4.7654513E-08
   34.14000     -4.7494872E-08
   34.20000     -4.7237432E-08
   34.26000     -4.6836636E-08
   34.32000     -4.6295060E-08
   34.38000     -4.5655845E-08
   34.44000     -4.4979807E-08
   34.50000     -4.4316224E-08
   34.56000     -4.3678913E-08
   34.62000     -4.3037073E-08
   34.68000     -4.2324896E-08
   34.74000     -4.1466642E-08
   34.80000     -4.0407961E-08
   34.86000     -3.9141675E-08
   34.92000     -3.7718181E-08
   34.98000     -3.6236013E-08
   35.04000     -3.4815479E-08
   35.10000     -3.3564220E-08
   35.16000     -3.2546783E-08
   35.22000     -3.1768717E-08
   35.28000     -3.1180782E-08
   35.34000     -3.0701745E-08
   35.40000     -3.0251712E-08
   35.46000     -2.9784365E-08
   35.52000     -2.9306809E-08
   35.58000     -2.8880171E-08
   35.64000     -2.8600734E-08
   35.70000     -2.8568136E-08
   35.76000     -2.8851474E-08
   35.82000     -2.9464852E-08
   35.88000     -3.0360553E-08
   35.94000     -3.1441989E-08
   36.00000     -3.2591984E-08
   36.06000     -3.3706787E-08
   36.12000     -3.4724579E-08
   36.18000     -3.5639037E-08
   36.24000     -3.6493724E-08
   36.30000     -3.7359268E-08
   36.36000     -3.8301035E-08
   36.42000     -3.9348134E-08
   36.48000     -4.0474141E-08
   36.54000     -4.1596060E-08
   36.60000     -4.2592131E-08
   36.66000     -4.3332868E-08
   36.72000     -4.3715296E-08
   36.78000     -4.3689255E-08
   36.84000     -4.3267391E-08
   36.90000     -4.2515939E-08
   36.96000     -4.1529994E-08
   37.02000     -4.0402259E-08
   37.08000     -3.9196191E-08
   37.14000     -3.7932750E-08
   37.20000     -3.6594653E-08
   37.26000     -3.5145462E-08
   37.32000     -3.3555473E-08
   37.38000     -3.1823859E-08
   37.44000     -2.9988328E-08
   37.50000     -2.8118471E-08
   37.56000     -2.6295384E-08
   37.62000     -2.4585585E-08
   37.68000     -2.3019263E-08
   37.74000     -2.1581318E-08
   37.80000     -2.0218488E-08
   37.86000     -1.8859703E-08
   37.92000     -1.7441701E-08
   37.98000     -1.5930134E-08
   38.04000     -1.4328409E-08
   38.10000     -1.2671520E-08
   38.16000     -1.1008176E-08
   38.22000     -9.3789261E-09
   38.28000     -7.7993247E-09
   38.34000     -6.2546319E-09
   38.40000     -4.7076236E-09
   38.46000     -3.1156457E-09
   38.52000     -1.4494798E-09
   38.58000      2.9375546E-10
   38.64000      2.0885900E-09
   38.70000      3.8903361E-09
   38.76000      5.6511760E-09
   38.82000      7.3365904E-09
   38.88000      8.9359657E-09
   38.94000      1.0464049E-08
   39.00000      1.1953707E-08
   39.06000      1.3443606E-08
   39.12000      1.4965673E-08
   39.18000      1.6536463E-08
   39.24000      1.8154386E-08
   39.30000      1.9802375E-08
   39.36000      2.1453992E-08
   39.42000      2.3080570E-08
   39.48000      2.4657583E-08
   39.54000      2.6169390E-08
   39.60000      2.7612124E-08
   39.66000      2.8994627E-08
   39.72000      3.0337144E-08
   39.78000      3.1667408E-08
   39.84000      3.3014295E-08
   39.90000      3.4400248E-08
   39.96000      3.5834788E-08
   40.02000      3.7311796E-08
   40.08000      3.8812523E-08
   40.14000      4.0314152E-08
   40.20000      4.1801343E-08
   40.26000      4.3276248E-08
   40.32000      4.4762277E-08
   40.38000      4.6299057E-08
   40.44000      4.7929245E-08
   40.50000      4.9681798E-08
   40.56000      5.1558196E-08
   40.62000      5.3527508E-08
   40.68000      5.5533082E-08
   40.74000      5.7508650E-08
   40.80000      5.9397767E-08
   40.86000      6.1168635E-08
   40.92000      6.2818167E-08
   40.98000      6.4363682E-08
   41.04000      6.5825787E-08
   41.10000      6.7209918E-08
   41.16000      6.8494650E-08
   41.22000      6.9631966E-08
   41.28000      7.0559558E-08
   41.34000      7.1219873E-08
   41.40000      7.1578000E-08
   41.46000      7.1630680E-08
   41.52000      7.1402830E-08
   41.58000      7.0932920E-08
   41.64000      7.0253471E-08
   41.70000      6.9374437E-08
   41.76000      6.8276115E-08
   41.82000      6.6914048E-08
   41.88000      6.5233500E-08
   41.94000      6.3187613E-08
   42.00000      6.0752065E-08
   42.06000      5.7931164E-08
   42.12000      5.4754071E-08
   42.18000      5.1263772E-08
   42.24000      4.7504049E-08
   42.30000      4.3509949E-08
   42.36000      3.9305039E-08
   42.42000      3.4905494E-08
   42.48000      3.0328149E-08
   42.54000      2.5598142E-08
   42.60000      2.0752491E-08
   42.66000      1.5838044E-08
   42.72000      1.0904971E-08
   42.78000      5.9987362E-09
   42.84000      1.1539217E-09
   42.90000     -3.6078767E-09
   42.96000     -8.2757801E-09
   43.02000     -1.2844408E-08
   43.08000     -1.7307913E-08
   43.14000     -2.1655142E-08
   43.20000     -2.5866758E-08
   43.26000     -2.9914109E-08
   43.32000     -3.3759303E-08
   43.38000     -3.7356273E-08
   43.44000     -4.0653305E-08
   43.50000     -4.3598014E-08
   43.56000     -4.6145036E-08
   43.62000     -4.8265505E-08
   43.68000     -4.9955450E-08
   43.74000     -5.1239351E-08
   43.80000     -5.2165575E-08
   43.86000     -5.2792700E-08
   43.92000     -5.3169327E-08
   43.98000     -5.3313073E-08
   44.04000     -5.3196011E-08
   44.10000     -5.2742347E-08
   44.16000     -5.1840196E-08
   44.22000     -5.0363973E-08
   44.28000     -4.8199404E-08
   44.34000     -4.5261586E-08
   44.40000     -4.1498453E-08
   44.46000     -3.6877392E-08
   44.52000     -3.1359001E-08
   44.58000     -2.4866901E-08
   44.64000     -1.7263904E-08
   44.70000     -8.3418312E-09
   44.76000      2.1736553E-09
   44.82000      1.4608513E-08
   44.88000      2.9325799E-08
   44.94000      4.6721389E-08
   45.00000      6.7236343E-08
   45.06000      9.1385793E-08
   45.12000      1.1979814E-07
   45.18000      1.5325433E-07
   45.24000      1.9271785E-07
   45.30000      2.3935047E-07
   45.36000      2.9451510E-07
   45.42000      3.5977322E-07
   45.48000      4.3688735E-07
   45.54000      5.2783747E-07
   45.60000      6.3485641E-07
   45.66000      7.6048264E-07
   45.72000      9.0762484E-07
   45.78000      1.0796286E-06
   45.84000      1.2803380E-06
   45.90000      1.5141486E-06
   45.96000      1.7860534E-06
   46.02000      2.1016863E-06
   46.08000      2.4673727E-06
   46.14000      2.8901920E-06
   46.20000      3.3780575E-06
   46.26000      3.9398110E-06
   46.32000      4.5853317E-06
   46.38000      5.3256454E-06
   46.44000      6.1730389E-06
   46.50000      7.1411600E-06
   46.56000      8.2451170E-06
   46.62000      9.5015675E-06
   46.68000      1.0928809E-05
   46.74000      1.2546873E-05
   46.80000      1.4377623E-05
   46.86000      1.6444868E-05
   46.92000      1.8774479E-05
   46.98000      2.1394497E-05
   47.04000      2.4335262E-05
   47.10000      2.7629494E-05
   47.16000      3.1312367E-05
   47.22000      3.5421574E-05
   47.28000      3.9997336E-05
   47.34000      4.5082423E-05
   47.40000      5.0722130E-05
   47.46000      5.6964269E-05
   47.52000      6.3859123E-05
   47.58000      7.1459413E-05
   47.64000      7.9820180E-05
   47.70000      8.8998713E-05
   47.76000      9.9054341E-05
   47.82000      1.1004825E-04
   47.88000      1.2204324E-04
   47.94000      1.3510337E-04
   48.00000      1.4929360E-04
   48.06000      1.6467948E-04
   48.12000      1.8132670E-04
   48.18000      1.9930063E-04
   48.24000      2.1866587E-04
   48.30000      2.3948580E-04
   48.36000      2.6182196E-04
   48.42000      2.8573346E-04
   48.48000      3.1127638E-04
   48.54000      3.3850307E-04
   48.60000      3.6746141E-04
   48.66000      3.9819416E-04
   48.72000      4.3073820E-04
   48.78000      4.6512400E-04
   48.84000      5.0137477E-04
   48.90000      5.3950597E-04
   48.96000      5.7952461E-04
   49.02000      6.2142900E-04
   49.08000      6.6520745E-04
   49.14000      7.1083847E-04
   49.20000      7.5829023E-04
   49.26000      8.0751994E-04
   49.32000      8.5847377E-04
   49.38000      9.1108656E-04
   49.44000      9.6528191E-04
   49.50000      1.0209723E-03
   49.56000      1.0780592E-03
   49.62000      1.1364331E-03
   49.68000      1.1959749E-03
   49.74000      1.2565550E-03
   49.80000      1.3180352E-03
   49.86000      1.3802691E-03
   49.92000      1.4431023E-03
   49.98000      1.5063746E-03
   50.04000      1.5699202E-03
   50.10000      1.6335697E-03
   50.16000      1.6971509E-03
   50.22000      1.7604900E-03
   50.28000      1.8234142E-03
   50.34000      1.8857518E-03
   50.40000      1.9473352E-03
   50.46000      2.0080006E-03
   50.52000      2.0675913E-03
   50.58000      2.1259582E-03
   50.64000      2.1829619E-03
   50.70000      2.2384729E-03
   50.76000      2.2923744E-03
   50.82000      2.3445629E-03
   50.88000      2.3949486E-03
   50.94000      2.4434580E-03
   51.00000      2.4900320E-03
   51.06000      2.5346295E-03
   51.12000      2.5772257E-03
   51.18000      2.6178122E-03
   51.24000      2.6563988E-03
   51.30000      2.6930107E-03
   51.36000      2.7276906E-03
   51.42000      2.7604969E-03
   51.48000      2.7915023E-03
   51.54000      2.8207938E-03
   51.60000      2.8484708E-03
   51.66000      2.8746447E-03
   51.72000      2.8994353E-03
   51.78000      2.9229722E-03
   51.84000      2.9453891E-03
   51.90000      2.9668256E-03
   51.96000      2.9874230E-03
   52.02000      3.0073232E-03
   52.08000      3.0266668E-03
   52.14000      3.0455908E-03
   52.20000      3.0642271E-03
   52.26000      3.0826996E-03
   52.32000      3.1011247E-03
   52.38000      3.1196061E-03
   52.44000      3.1382372E-03
   52.50000      3.1570976E-03
   52.56000      3.1762531E-03
   52.62000      3.1957529E-03
   52.68000      3.2156324E-03
   52.74000      3.2359096E-03
   52.80000      3.2565866E-03
   52.86000      3.2776494E-03
   52.92000      3.2990682E-03
   52.98000      3.3207978E-03
   53.04000      3.3427780E-03
   53.10000      3.3649355E-03
   53.16000      3.3871850E-03
   53.22000      3.4094304E-03
   53.28000      3.4315665E-03
   53.34000      3.4534808E-03
   53.40000      3.4750546E-03
   53.46000      3.4961656E-03
   53.52000      3.5166896E-03
   53.58000      3.5365026E-03
   53.64000      3.5554825E-03
   53.70000      3.5735120E-03
   53.76000      3.5904793E-03
   53.82000      3.6062794E-03
   53.88000      3.6208178E-03
   53.94000      3.6340100E-03
   54.00000      3.6457831E-03
   54.06000      3.6560781E-03
   54.12000      3.6648498E-03
   54.18000      3.6720673E-03
   54.24000      3.6777148E-03
   54.30000      3.6817924E-03
   54.36000      3.6843133E-03
   54.42000      3.6853075E-03
   54.48000      3.6848173E-03
   54.54000      3.6828993E-03
   54.60000      3.6796220E-03
   54.66000      3.6750657E-03
   54.72000      3.6693204E-03
   54.78000      3.6624838E-03
   54.84000      3.6546604E-03
   54.90000      3.6459591E-03
   54.96000      3.6364922E-03
   55.02000      3.6263722E-03
   55.08000      3.6157113E-03
   55.14000      3.6046186E-03
   55.20000      3.5931997E-03
   55.26000      3.5815525E-03
   55.32000      3.5697685E-03
   55.38000      3.5579286E-03
   55.44000      3.5461043E-03
   55.50000      3.5343538E-03
   55.56000      3.5227232E-03