  -2.400000      0.0000000E+00
  -2.340000      0.0000000E+00
  -2.280000      0.0000000E+00
  -2.220000      0.0000000E+00
  -2.160000      0.0000000E+00
  -2.100000      0.0000000E+00
  -2.040000      0.0000000E+00
  -1.980000      0.0000000E+00
  -1.920000      4.0071092E-25
  -1.860000      5.8060593E-24
  -1.800000      4.0462534E-23
  -1.740000      1.7764795E-22
  -1.680000      5.3246349E-22
  -1.620000      1.0573292E-21
  -1.560000      9.4802209E-22
  -1.500000     -2.1498721E-21
  -1.440000     -1.1919176E-20
  -1.380000     -2.9856619E-20
  -1.320000     -4.7027399E-20
  -1.260000     -3.4640489E-20
  -1.200000      5.4471407E-20
  -1.140000      2.5619748E-19
  -1.080000      5.3042078E-19
  -1.020000      6.8842282E-19
 -0.9600000      3.8634962E-19
 -0.9000000     -7.2122788E-19
 -0.8400000     -2.6331713E-18
 -0.7800000     -4.5868596E-18
 -0.7200000     -4.9092578E-18
 -0.6600000     -1.5541942E-18
 -0.6000000      6.4778098E-18
 -0.5400000      1.7250771E-17
 -0.4800000      2.4735298E-17
 -0.4200000      2.0007946E-17
 -0.3600000     -4.1504292E-18
 -0.3000000     -4.6122578E-17
 -0.2400000     -8.9350481E-17
 -0.1800000     -1.0275898E-16
 -0.1200000     -5.2343043E-17
 -5.9999999E-02  7.6420385E-17
  0.0000000E+00  2.5384651E-16
  5.9999999E-02  3.9500227E-16
  0.1200000      3.7929598E-16
  0.1800000      1.0724506E-16
  0.2400000     -4.2042951E-16
  0.3000000     -1.0403726E-15
  0.3600000     -1.4317694E-15
  0.4200000     -1.2248492E-15
  0.4800000     -2.0124988E-16
  0.5400000      1.4903799E-15
  0.6000000      3.2301474E-15
  0.6600000      4.0555518E-15
  0.7200000      3.0604459E-15
  0.7800000     -4.6039788E-17
  0.8400000     -4.4800987E-15
  0.9000000     -8.3420938E-15
  0.9600000     -9.2060377E-15
   1.020000     -5.2735894E-15
   1.080000      3.3301863E-15
   1.140000      1.3798705E-14
   1.200000      2.1071486E-14
   1.260000      1.9684527E-14
   1.320000      6.5820461E-15
   1.380000     -1.6270420E-14
   1.440000     -4.0945169E-14
   1.500000     -5.5385109E-14
   1.560000     -4.8029296E-14
   1.620000     -1.3806958E-14
   1.680000      4.1083012E-14
   1.740000      9.8379685E-14
   1.800000      1.3257060E-13
   1.860000      1.2062667E-13
   1.920000      5.3390547E-14
   1.980000     -5.6336473E-14
   2.040000     -1.7368153E-13
   2.100000     -2.5163359E-13
   2.160000     -2.4887506E-13
   2.220000     -1.4916458E-13
   2.280000      2.6245250E-14
   2.340000      2.2032765E-13
   2.400000      3.5831350E-13
   2.460000      3.7712306E-13
   2.520000      2.5499045E-13
   2.580000      2.7698614E-14
   2.640000     -2.1867195E-13
   2.700000     -3.7961667E-13
   2.760000     -3.7845207E-13
   2.820000     -2.0770346E-13
   2.880000      5.5404788E-14
   2.940000      2.7257290E-13
   3.000000      3.0443971E-13
   3.060000      8.5856005E-14
   3.120000     -3.1743537E-13
   3.180000     -7.0419137E-13
   3.240000     -8.0207732E-13
   3.300000     -3.8911653E-13
   3.360000      5.7059040E-13
   3.420000      1.8383001E-12
   3.480000      2.9153713E-12
   3.540000      3.1847081E-12
   3.600000      2.1504690E-12
   3.660000     -3.0405363E-13
   3.720000     -3.7482521E-12
   3.780000     -7.2195366E-12
   3.840000     -9.4574591E-12
   3.900000     -9.3061635E-12
   3.960000     -6.1549568E-12
   4.020000     -2.4969295E-13
   4.080000      7.2631987E-12
   4.140000      1.4605782E-11
   4.200000      1.9873362E-11
   4.260000      2.1595153E-11
   4.320000      1.9138562E-11
   4.380000      1.2804499E-11
   4.440000      3.5947432E-12
   4.500000     -7.2165125E-12
   4.560000     -1.8477853E-11
   4.620000     -2.9304965E-11
   4.680000     -3.8883900E-11
   4.740000     -4.6037250E-11
   4.800000     -4.8828254E-11
   4.860000     -4.4534359E-11
   4.920000     -3.0214387E-11
   4.980000     -3.8458711E-12
   5.040000      3.4284298E-11
   5.100000      8.0461221E-11
   5.160000      1.2723467E-10
   5.220000      1.6424613E-10
   5.280000      1.8013016E-10
   5.340000      1.6502397E-10
   5.400000      1.1295805E-10
   5.460000      2.3403795E-11
   5.520000     -9.8462460E-11
   5.580000     -2.4276287E-10
   5.640000     -3.9672313E-10
   5.700000     -5.4656268E-10
   5.760000     -6.7881090E-10
   5.820000     -7.8073370E-10
   5.880000     -8.4003993E-10
   5.940000     -8.4444440E-10
   6.000000     -7.8179807E-10
   6.060000     -6.4127997E-10
   6.120000     -4.1564444E-10
   6.180000     -1.0393859E-10
   6.240000      2.8629535E-10
   6.300000      7.3834244E-10
   6.360000      1.2277629E-09
   6.420000      1.7258582E-09
   6.480000      2.2043054E-09
   6.540000      2.6396341E-09
   6.600000      3.0162344E-09
   6.660000      3.3271010E-09
   6.720000      3.5723613E-09
   6.780000      3.7564676E-09
   6.840000      3.8854027E-09
   6.900000      3.9651442E-09
   6.960000      4.0019827E-09
   7.020000      4.0043431E-09
   7.080000      3.9849319E-09
   7.140000      3.9617198E-09
   7.200000      3.9566221E-09
   7.260000      3.9916945E-09
   7.320000      4.0837973E-09
   7.380000      4.2395492E-09
   7.440000      4.4525366E-09
   7.500000      4.7040802E-09
   7.560000      4.9675681E-09
   7.620000      5.2149893E-09
   7.680000      5.4233764E-09
   7.740000      5.5788862E-09
   7.800000      5.6771343E-09
   7.860000      5.7199654E-09
   7.920000      5.7102856E-09
   7.980000      5.6474141E-09
   8.040000      5.5251475E-09
   8.100000      5.3335301E-09
   8.160000      5.0636393E-09
   8.220000      4.7132813E-09
   8.280000      4.2909734E-09
   8.340000      3.8162287E-09
   8.400000      3.3156917E-09
   8.460000      2.8164848E-09
   8.520000      2.3393802E-09
   8.580000      1.8946027E-09
   8.640000      1.4820323E-09
   8.700000      1.0957728E-09
   8.760000      7.3120232E-10
   8.820000      3.9153672E-10
   8.880000      9.1058744E-11
   8.940000     -1.4651272E-10
   9.000000     -2.9407016E-10
   9.060000     -3.2931816E-10
   9.120000     -2.4194605E-10
   9.180000     -3.6961590E-11
   9.240000      2.6710609E-10
   9.300000      6.4437267E-10
   9.360000      1.0696256E-09
   9.420000      1.5249813E-09
   9.480000      2.0025637E-09
   9.540000      2.5023106E-09
   9.600000      3.0261154E-09
   9.660000      3.5711192E-09
   9.720000      4.1253831E-09
   9.780000      4.6681952E-09
   9.840000      5.1752811E-09
   9.900000      5.6270175E-09
   9.960000      6.0163323E-09
   10.02000      6.3529080E-09
   10.08000      6.6616863E-09
   10.14000      6.9759163E-09
   10.20000      7.3271900E-09
   10.26000      7.7361753E-09
   10.32000      8.2075209E-09
   10.38000      8.7307637E-09
   10.44000      9.2867305E-09
   10.50000      9.8567234E-09
   10.56000      1.0430731E-08
   10.62000      1.1011299E-08
   10.68000      1.1611446E-08
   10.74000      1.2247388E-08
   10.80000      1.2928890E-08
   10.86000      1.3651019E-08
   10.92000      1.4390515E-08
   10.98000      1.5108258E-08
   11.04000      1.5756955E-08
   11.10000      1.6291311E-08
   11.16000      1.6677163E-08
   11.22000      1.6896756E-08
   11.28000      1.6949164E-08
   11.34000      1.6846835E-08
   11.40000      1.6610914E-08
   11.46000      1.6268078E-08
   11.52000      1.5850580E-08
   11.58000      1.5399230E-08
   11.64000      1.4967148E-08
   11.70000      1.4621218E-08
   11.76000      1.4438678E-08
   11.82000      1.4498025E-08
   11.88000      1.4865824E-08
   11.94000      1.5582762E-08
   12.00000      1.6653038E-08
   12.06000      1.8040302E-08
   12.12000      1.9671390E-08
   12.18000      2.1446784E-08
   12.24000      2.3254863E-08
   12.30000      2.4986353E-08
   12.36000      2.6545717E-08
   12.42000      2.7857707E-08
   12.48000      2.8868852E-08
   12.54000      2.9545184E-08
   12.60000      2.9868271E-08
   12.66000      2.9831650E-08
   12.72000      2.9439120E-08
   12.78000      2.8705220E-08
   12.84000      2.7657164E-08
   12.90000      2.6336574E-08
   12.96000      2.4799299E-08
   13.02000      2.3112124E-08
   13.08000      2.1346374E-08
   13.14000      1.9569663E-08
   13.20000      1.7837881E-08
   13.26000      1.6189643E-08
   13.32000      1.4644522E-08
   13.38000      1.3205137E-08
   13.44000      1.1861907E-08
   13.50000      1.0598587E-08
   13.56000      9.3968051E-09
   13.62000      8.2386009E-09
   13.68000      7.1069177E-09
   13.74000      5.9847891E-09
   13.80000      4.8542543E-09
   13.86000      3.6959398E-09
   13.92000      2.4898108E-09
   13.98000      1.2171482E-09
   14.04000     -1.3660319E-10
   14.10000     -1.5787284E-09
   14.16000     -3.1066067E-09
   14.22000     -4.7061759E-09
   14.28000     -6.3518470E-09
   14.34000     -8.0078060E-09
   14.40000     -9.6302832E-09
   14.46000     -1.1170272E-08
   14.52000     -1.2576375E-08
   14.58000     -1.3797845E-08
   14.64000     -1.4788216E-08
   14.70000     -1.5509782E-08
   14.76000     -1.5938713E-08
   14.82000     -1.6069857E-08
   14.88000     -1.5919797E-08
   14.94000     -1.5526773E-08
   15.00000     -1.4946876E-08
   15.06000     -1.4246942E-08
   15.12000     -1.3495681E-08
   15.18000     -1.2754944E-08
   15.24000     -1.2072935E-08
   15.30000     -1.1480461E-08
   15.36000     -1.0990455E-08
   15.42000     -1.0600318E-08
   15.48000     -1.0296257E-08
   15.54000     -1.0058610E-08
   15.60000     -9.8672146E-09
   15.66000     -9.7059027E-09
   15.72000     -9.5653689E-09
   15.78000     -9.4438857E-09
   15.84000     -9.3457180E-09
   15.90000     -9.2776187E-09
   15.96000     -9.2442436E-09
   16.02000     -9.2437382E-09
   16.08000     -9.2648449E-09
   16.14000     -9.2866212E-09
   16.20000     -9.2812096E-09
   16.26000     -9.2192058E-09
   16.32000     -9.0762438E-09
   16.38000     -8.8388434E-09
   16.44000     -8.5076266E-09
   16.50000     -8.0968059E-09
   16.56000     -7.6300717E-09
   16.62000     -7.1343558E-09
   16.68000     -6.6336239E-09
   16.74000     -6.1447540E-09
   16.80000     -5.6766534E-09
   16.86000     -5.2324407E-09
   16.92000     -4.8134172E-09
   16.98000     -4.4230526E-09
   17.04000     -4.0694403E-09
   17.10000     -3.7654582E-09
   17.16000     -3.5267891E-09
   17.22000     -3.3686909E-09
   17.28000     -3.3027090E-09
   17.34000     -3.3343879E-09
   17.40000     -3.4625420E-09
   17.46000     -3.6800007E-09
   17.52000     -3.9751806E-09
   17.58000     -4.3336015E-09
   17.64000     -4.7387072E-09
   17.70000     -5.1719917E-09
   17.76000     -5.6131939E-09
   17.82000     -6.0417062E-09
   17.88000     -6.4400085E-09
   17.94000     -6.7988526E-09
   18.00000     -7.1225337E-09
   18.06000     -7.4316717E-09
   18.12000     -7.7611100E-09
   18.18000     -8.1520346E-09
   18.24000     -8.6397005E-09
   18.30000     -9.2402672E-09
   18.36000     -9.9411883E-09
   18.42000     -1.0698831E-08
   18.48000     -1.1444802E-08
   18.54000     -1.2099591E-08
   18.60000     -1.2589740E-08
   18.66000     -1.2863596E-08
   18.72000     -1.2901213E-08
   18.78000     -1.2715810E-08
   18.84000     -1.2346795E-08
   18.90000     -1.1846976E-08
   18.96000     -1.1268265E-08
   19.02000     -1.0650600E-08
   19.08000     -1.0017589E-08
   19.14000     -9.3798844E-09
   19.20000     -8.7443199E-09
   19.26000     -8.1244584E-09
   19.32000     -7.5475413E-09
   19.38000     -7.0541395E-09
   19.44000     -6.6899011E-09
   19.50000     -6.4922490E-09
   19.56000     -6.4772867E-09
   19.62000     -6.6323582E-09
   19.68000     -6.9175790E-09
   19.74000     -7.2760566E-09
   19.80000     -7.6491036E-09
   19.86000     -7.9908586E-09
   19.92000     -8.2772091E-09
   19.98000     -8.5063601E-09
   20.04000     -8.6916625E-09
   20.10000     -8.8501748E-09
   20.16000     -8.9916066E-09
   20.22000     -9.1117105E-09
   20.28000     -9.1921999E-09
   20.34000     -9.2066301E-09
   20.40000     -9.1296704E-09
   20.46000     -8.9462029E-09
   20.52000     -8.6571896E-09
   20.58000     -8.2807796E-09
   20.64000     -7.8491373E-09
   20.70000     -7.4030186E-09
   20.76000     -6.9865953E-09
   20.82000     -6.6441710E-09
   20.88000     -6.4187873E-09
   20.94000     -6.3510170E-09
   21.00000     -6.4756200E-09
   21.06000     -6.8145845E-09
   21.12000     -7.3672437E-09
   21.18000     -8.1005727E-09
   21.24000     -8.9441334E-09
   21.30000     -9.7935207E-09
   21.36000     -1.0523548E-08
   21.42000     -1.1008759E-08
   21.48000     -1.1145845E-08
   21.54000     -1.0871452E-08
   21.60000     -1.0170361E-08
   21.66000     -9.0723864E-09
   21.72000     -7.6401552E-09
   21.78000     -5.9526268E-09
   21.84000     -4.0896802E-09
   21.90000     -2.1215858E-09
   21.96000     -1.0439260E-10
   22.02000      1.9202351E-09
   22.08000      3.9234473E-09
   22.14000      5.8882281E-09
   22.20000      7.8097964E-09
   22.26000      9.6964508E-09
   22.32000      1.1568995E-08
   22.38000      1.3457177E-08
   22.44000      1.5392954E-08
   22.50000      1.7402078E-08
   22.56000      1.9496580E-08
   22.62000      2.1670747E-08
   22.68000      2.3901858E-08
   22.74000      2.6155217E-08
   22.80000      2.8391321E-08
   22.86000      3.0572494E-08
   22.92000      3.2666787E-08
   22.98000      3.4648565E-08
   23.04000      3.6496772E-08
   23.10000      3.8192827E-08
   23.16000      3.9720060E-08
   23.22000      4.1065608E-08
   23.28000      4.2224087E-08
   23.34000      4.3201378E-08
   23.40000      4.4016346E-08
   23.46000      4.4699281E-08
   23.52000      4.5286864E-08
   23.58000      4.5815298E-08
   23.64000      4.6313843E-08
   23.70000      4.6801102E-08
   23.76000      4.7285475E-08
   23.82000      4.7769259E-08
   23.88000      4.8254645E-08
   23.94000      4.8748625E-08
   24.00000      4.9264258E-08
   24.06000      4.9817302E-08
   24.12000      5.0419100E-08
   24.18000      5.1068831E-08
   24.24000      5.1748955E-08
   24.30000      5.2426721E-08
   24.36000      5.3062426E-08
   24.42000      5.3622013E-08
   24.48000      5.4089366E-08
   24.54000      5.4473116E-08
   24.60000      5.4804623E-08
   24.66000      5.5126961E-08
   24.72000      5.5478665E-08
   24.78000      5.5878125E-08
   24.84000      5.6314516E-08
   24.90000      5.6748664E-08
   24.96000      5.7123096E-08
   25.02000      5.7376809E-08
   25.08000      5.7458461E-08
   25.14000      5.7332588E-08
   25.20000      5.6976720E-08
   25.26000      5.6371650E-08
   25.32000      5.5490247E-08
   25.38000      5.4291164E-08
   25.44000      5.2721681E-08
   25.50000      5.0729874E-08
   25.56000      4.8281827E-08
   25.62000      4.5377167E-08
   25.68000      4.2056236E-08
   25.74000      3.8395424E-08
   25.80000      3.4491929E-08
   25.86000      3.0443427E-08
   25.92000      2.6330197E-08
   25.98000      2.2206034E-08
   26.04000      1.8100540E-08
   26.10000      1.4030510E-08
   26.16000      1.0014499E-08
   26.22000      6.0837322E-09
   26.28000      2.2846505E-09
   26.34000     -1.3274307E-09
   26.40000     -4.6999671E-09
   26.46000     -7.7943074E-09
   26.52000     -1.0591187E-08
   26.58000     -1.3088552E-08
   26.64000     -1.5293555E-08
   26.70000     -1.7213182E-08
   26.76000     -1.8848171E-08
   26.82000     -2.0192648E-08
   26.88000     -2.1238616E-08
   26.94000     -2.1981943E-08
   27.00000     -2.2425912E-08
   27.06000     -2.2580256E-08
   27.12000     -2.2456430E-08
   27.18000     -2.2062316E-08
   27.24000     -2.1400176E-08
   27.30000     -2.0470079E-08
   27.36000     -1.9278199E-08
   27.42000     -1.7846691E-08
   27.48000     -1.6220618E-08
   27.54000     -1.4468372E-08
   27.60000     -1.2674580E-08
   27.66000     -1.0927340E-08
   27.72000     -9.3039292E-09
   27.78000     -7.8594216E-09
   27.84000     -6.6214225E-09
   27.90000     -5.5917320E-09
   27.96000     -4.7533066E-09
   28.02000     -4.0792814E-09
   28.08000     -3.5406147E-09
   28.14000     -3.1099983E-09
   28.20000     -2.7615961E-09
   28.26000     -2.4681057E-09
   28.32000     -2.1978148E-09
   28.38000     -1.9142896E-09
   28.44000     -1.5800586E-09
   28.50000     -1.1636486E-09
   28.56000     -6.4744388E-10
   28.62000     -3.2957092E-11
   28.68000      6.5922867E-10
   28.74000      1.3954938E-09
   28.80000      2.1391402E-09
   28.86000      2.8601652E-09
   28.92000      3.5404490E-09
   28.98000      4.1718047E-09
   29.04000      4.7477062E-09
   29.10000      5.2528586E-09
   29.16000      5.6563891E-09
   29.22000      5.9132654E-09
   29.28000      5.9748460E-09
   29.34000      5.8048601E-09
   29.40000      5.3938463E-09
   29.46000      4.7650039E-09
   29.52000      3.9678048E-09
   29.58000      3.0612071E-09
   29.64000      2.0933228E-09
   29.70000      1.0864334E-09
   29.76000      3.4171829E-11
   29.82000     -1.0876290E-09
   29.88000     -2.3010716E-09
   29.94000     -3.6060674E-09
   30.00000     -4.9688955E-09
   30.06000     -6.3245857E-09
   30.12000     -7.5923090E-09
   30.18000     -8.6974712E-09
   30.24000     -9.5916510E-09
   30.30000     -1.0262768E-08
   30.36000     -1.0732242E-08
   30.42000     -1.1041317E-08
   30.48000     -1.1232880E-08
   30.54000     -1.1336345E-08
   30.60000     -1.1361228E-08
   30.66000     -1.1300919E-08
   30.72000     -1.1143854E-08
   30.78000     -1.0886429E-08
   30.84000     -1.0541927E-08
   30.90000     -1.0141945E-08
   30.96000     -9.7304076E-09
   31.02000     -9.3534105E-09
   31.08000     -9.0495025E-09
   31.14000     -8.8442693E-09
   31.20000     -8.7506606E-09
   31.26000     -8.7737888E-09
   31.32000     -8.9170875E-09
   31.38000     -9.1865555E-09
   31.44000     -9.5911519E-09
   31.50000     -1.0139487E-08
   31.56000     -1.0834744E-08
   31.62000     -1.1670497E-08
   31.68000     -1.2629647E-08
   31.74000     -1.3687189E-08
   31.80000     -1.4815885E-08
   31.86000     -1.5992541E-08
   31.92000     -1.7202359E-08
   31.98000     -1.8439469E-08
   32.04000     -1.9703370E-08
   32.10000     -2.0992768E-08
   32.16000     -2.2299458E-08
   32.22000     -2.3604901E-08
   32.28000     -2.4880999E-08
   32.34000     -2.6094526E-08
   32.40000     -2.7213046E-08
   32.46000     -2.8209563E-08
   32.52000     -2.9064006E-08
   32.58000     -2.9761630E-08
   32.64000     -3.0290185E-08
   32.70000     -3.0638493E-08
   32.76000     -3.0798049E-08
   32.82000     -3.0767406E-08
   32.88000     -3.0557036E-08
   32.94000     -3.0191451E-08
   33.00000     -2.9706623E-08
   33.06000     -2.9142598E-08
   33.12000     -2.8533927E-08
   33.18000     -2.7901645E-08
   33.24000     -2.7250238E-08
   33.30000     -2.6570900E-08
   33.36000     -2.5849838E-08
   33.42000     -2.5078117E-08
   33.48000     -2.4258963E-08
   33.54000     -2.3409257E-08
   33.60000     -2.2554415E-08
   33.66000     -2.1718471E-08
   33.72000     -2.0913319E-08
   33.78000     -2.0131729E-08
   33.84000     -1.9347494E-08
   33.90000     -1.8523398E-08
   33.96000     -1.7624412E-08
   34.02000     -1.6631105E-08
   34.08000     -1.5547865E-08
   34.14000     -1.4402393E-08
   34.20000     -1.3236544E-08
   34.26000     -1.2092364E-08
   34.32000     -1.0999272E-08
   34.38000     -9.9677537E-09
   34.44000     -8.9919121E-09
   34.50000     -8.0590095E-09
   34.56000     -7.1609922E-09
   34.62000     -6.3021752E-09
   34.68000     -5.4994302E-09
   34.74000     -4.7750479E-09
   34.80000     -4.1461257E-09
   34.86000     -3.6160508E-09
   34.92000     -3.1725120E-09
   34.98000     -2.7931837E-09
   35.04000     -2.4563371E-09
   35.10000     -2.1511399E-09
   35.16000     -1.8824373E-09
   35.22000     -1.6674092E-09
   35.28000     -1.5253742E-09
   35.34000     -1.4653556E-09
   35.40000     -1.4772517E-09
   35.46000     -1.5309750E-09
   35.52000     -1.5843934E-09
   35.58000     -1.5969568E-09
   35.64000     -1.5432818E-09
   35.70000     -1.4209193E-09
   35.76000     -1.2490562E-09
   35.82000     -1.0588745E-09
   35.88000     -8.7991880E-10
   35.94000     -7.2849987E-10
   36.00000     -6.0315225E-10
   36.06000     -4.8895676E-10
   36.12000     -3.6858544E-10
   36.18000     -2.3496888E-10
   36.24000     -9.9776395E-11
   36.30000      6.3088146E-12
   36.36000      4.2078382E-11
   36.42000     -3.0028625E-11
   36.48000     -2.2949823E-10
   36.54000     -5.4866783E-10
   36.60000     -9.5265085E-10
   36.66000     -1.3885962E-09
   36.72000     -1.8012085E-09
   36.78000     -2.1491360E-09
   36.84000     -2.4163769E-09
   36.90000     -2.6144549E-09
   36.96000     -2.7742850E-09
   37.02000     -2.9304144E-09
   37.08000     -3.1033645E-09
   37.14000     -3.2869538E-09
   37.20000     -3.4460337E-09
   37.26000     -3.5263386E-09
   37.32000     -3.4733765E-09
   37.38000     -3.2533596E-09
   37.44000     -2.8679432E-09
   37.50000     -2.3567237E-09
   37.56000     -1.7863739E-09
   37.62000     -1.2308552E-09
   37.68000     -7.5084566E-10
   37.74000     -3.8059586E-10
   37.80000     -1.2678508E-10
   37.86000      2.1671205E-11
   37.92000      7.8843682E-11
   37.98000      4.9904293E-11
   38.04000     -7.1973691E-11
   38.10000     -2.9878713E-10
   38.16000     -6.3491984E-10
   38.22000     -1.0653624E-09
   38.28000     -1.5513686E-09
   38.34000     -2.0363611E-09
   38.40000     -2.4599978E-09
   38.46000     -2.7745228E-09
   38.52000     -2.9565570E-09
   38.58000     -3.0096432E-09
   38.64000     -2.9570526E-09
   38.70000     -2.8285430E-09
   38.76000     -2.6471152E-09
   38.82000     -2.4213693E-09
   38.88000     -2.1461790E-09
   38.94000     -1.8105004E-09
   39.00000     -1.4080087E-09
   39.06000     -9.4523978E-10
   39.12000     -4.4334866E-10
   39.18000      6.7301310E-11
   39.24000      5.5722560E-10
   39.30000      1.0080826E-09
   39.36000      1.4186752E-09
   39.42000      1.8042117E-09
   39.48000      2.1892093E-09
   39.54000      2.5969356E-09
   39.60000      3.0394176E-09
   39.66000      3.5115628E-09
   39.72000      3.9911665E-09
   39.78000      4.4444066E-09
   39.84000      4.8346473E-09
   39.90000      5.1315197E-09
   39.96000      5.3174842E-09
   40.02000      5.3901017E-09
   40.08000      5.3596940E-09
   40.14000      5.2434865E-09
   40.20000      5.0583329E-09
   40.26000      4.8144790E-09
   40.32000      4.5124477E-09
   40.38000      4.1440917E-09
   40.44000      3.6974486E-09
   40.50000      3.1636422E-09
   40.56000      2.5432187E-09
   40.62000      1.8493079E-09
   40.68000      1.1060146E-09
   40.74000      3.4221828E-10
   40.80000     -4.1713444E-10
   40.86000     -1.1588464E-09
   40.92000     -1.8849826E-09
   40.98000     -2.6101181E-09
   41.04000     -3.3528691E-09
   41.10000     -4.1248391E-09
   41.16000     -4.9215942E-09
   41.22000     -5.7198433E-09
   41.28000     -6.4826504E-09
   41.34000     -7.1711534E-09
   41.40000     -7.7583477E-09
   41.46000     -8.2394287E-09
   41.52000     -8.6344878E-09
   41.58000     -8.9825285E-09
   41.64000     -9.3293151E-09
   41.70000     -9.7139896E-09
   41.76000     -1.0159533E-08
   41.82000     -1.0670113E-08
   41.88000     -1.1235272E-08
   41.94000     -1.1838124E-08
   42.00000     -1.2463568E-08
   42.06000     -1.3103277E-08
   42.12000     -1.3756282E-08
   42.18000     -1.4426237E-08
   42.24000     -1.5117761E-08
   42.30000     -1.5834235E-08
   42.36000     -1.6578086E-08
   42.42000     -1.7353065E-08
   42.48000     -1.8166787E-08
   42.54000     -1.9031781E-08
   42.60000     -1.9964094E-08
   42.66000     -2.0979822E-08
   42.72000     -2.2090962E-08
   42.78000     -2.3302212E-08
   42.84000     -2.4609850E-08
   42.90000     -2.6002846E-08
   42.96000     -2.7465399E-08
   43.02000     -2.8979761E-08
   43.08000     -3.0528398E-08
   43.14000     -3.2095056E-08
   43.20000     -3.3664996E-08
   43.26000     -3.5224804E-08
   43.32000     -3.6762319E-08
   43.38000     -3.8266965E-08
   43.44000     -3.9730416E-08
   43.50000     -4.1147601E-08
   43.56000     -4.2517833E-08
   43.62000     -4.3845883E-08
   43.68000     -4.5142428E-08
   43.74000     -4.6423306E-08
   43.80000     -4.7706880E-08
   43.86000     -4.9009380E-08
   43.92000     -5.0339040E-08
   43.98000     -5.1690840E-08
   44.04000     -5.3044335E-08
   44.10000     -5.4366339E-08
   44.16000     -5.5618788E-08
   44.22000     -5.6769640E-08
   44.28000     -5.7802747E-08
   44.34000     -5.8722385E-08
   44.40000     -5.9549627E-08
   44.46000     -6.0311265E-08
   44.52000     -6.1025347E-08
   44.58000     -6.1689470E-08
   44.64000     -6.2277060E-08
   44.70000     -6.2743453E-08
   44.76000     -6.3039018E-08
   44.82000     -6.3123544E-08
   44.88000     -6.2975587E-08
   44.94000     -6.2593358E-08
   45.00000     -6.1988395E-08
   45.06000     -6.1176564E-08
   45.12000     -6.0171949E-08
   45.18000     -5.8986924E-08
   45.24000     -5.7637518E-08
   45.30000     -5.6149815E-08
   45.36000     -5.4562467E-08
   45.42000     -5.2922342E-08
   45.48000     -5.1274430E-08
   45.54000     -4.9650133E-08
   45.60000     -4.8059313E-08
   45.66000     -4.6489610E-08
   45.72000     -4.4913278E-08
   45.78000     -4.3298524E-08
   45.84000     -4.1620876E-08
   45.90000     -3.9870599E-08
   45.96000     -3.8054306E-08
   46.02000     -3.6191484E-08
   46.08000     -3.4308254E-08
   46.14000     -3.2431338E-08
   46.20000     -3.0584417E-08
   46.26000     -2.8787660E-08
   46.32000     -2.7059803E-08
   46.38000     -2.5421025E-08
   46.44000     -2.3894675E-08
   46.50000     -2.2506395E-08
   46.56000     -2.1280453E-08
   46.62000     -2.0234326E-08
   46.68000     -1.9373587E-08
   46.74000     -1.8689061E-08
   46.80000     -1.8157449E-08
   46.86000     -1.7745146E-08
   46.92000     -1.7413774E-08
   46.98000     -1.7125314E-08
   47.04000     -1.6845160E-08
   47.10000     -1.6542293E-08
   47.16000     -1.6187069E-08
   47.22000     -1.5747835E-08
   47.28000     -1.5187789E-08
   47.34000     -1.4463120E-08
   47.40000     -1.3522710E-08
   47.46000     -1.2308896E-08
   47.52000     -1.0758265E-08
   47.58000     -8.8012033E-09
   47.64000     -6.3590990E-09
   47.70000     -3.3386875E-09
   47.76000      3.7603118E-10
   47.82000      4.9329181E-09
   47.88000      1.0519807E-08
   47.94000      1.7369722E-08
   48.00000      2.5762423E-08
   48.06000      3.6023479E-08
   48.12000      4.8523830E-08
   48.18000      6.3683778E-08
   48.24000      8.1984595E-08
   48.30000      1.0398872E-07
   48.36000      1.3036603E-07
   48.42000      1.6192205E-07
   48.48000      1.9962305E-07
   48.54000      2.4461553E-07
   48.60000      2.9824059E-07
   48.66000      3.6204764E-07
   48.72000      4.3781301E-07
   48.78000      5.2756764E-07
   48.84000      6.3363512E-07
   48.90000      7.5867877E-07
   48.96000      9.0575253E-07
   49.02000      1.0783539E-06
   49.08000      1.2804763E-06
   49.14000      1.5166647E-06
   49.20000      1.7920743E-06
   49.26000      2.1125402E-06
   49.32000      2.4846545E-06
   49.38000      2.9158532E-06
   49.44000      3.4145080E-06
   49.50000      3.9900228E-06
   49.56000      4.6529290E-06
   49.62000      5.4149900E-06
   49.68000      6.2893018E-06
   49.74000      7.2904068E-06
   49.80000      8.4344110E-06
   49.86000      9.7391066E-06
   49.92000      1.1224110E-05
   49.98000      1.2910977E-05
   50.04000      1.4823344E-05
   50.10000      1.6987042E-05
   50.16000      1.9430208E-05
   50.22000      2.2183416E-05
   50.28000      2.5279764E-05
   50.34000      2.8754992E-05
   50.40000      3.2647586E-05
   50.46000      3.6998863E-05
   50.52000      4.1853054E-05
   50.58000      4.7257367E-05
   50.64000      5.3262014E-05
   50.70000      5.9920207E-05
   50.76000      6.7288121E-05
   50.82000      7.5424861E-05
   50.88000      8.4392341E-05
   50.94000      9.4255221E-05
   51.00000      1.0508069E-04
   51.06000      1.1693833E-04
   51.12000      1.2989990E-04
   51.18000      1.4403903E-04
   51.24000      1.5943097E-04
   51.30000      1.7615213E-04
   51.36000      1.9427972E-04
   51.42000      2.1389133E-04
   51.48000      2.3506428E-04
   51.54000      2.5787522E-04
   51.60000      2.8239947E-04
   51.66000      3.0871041E-04
   51.72000      3.3687882E-04
   51.78000      3.6697226E-04
   51.84000      3.9905429E-04
   51.90000      4.3318383E-04
   51.96000      4.6941423E-04
   52.02000      5.0779263E-04
   52.08000      5.4835918E-04
   52.14000      5.9114618E-04
   52.20000      6.3617766E-04
   52.26000      6.8346842E-04
   52.32000      7.3302386E-04
   52.38000      7.8483886E-04
   52.44000      8.3889742E-04
   52.50000      8.9517242E-04
   52.56000      9.5362501E-04
   52.62000      1.0142043E-03
   52.68000      1.0768475E-03
   52.74000      1.1414795E-03
   52.80000      1.2080127E-03
   52.86000      1.2763481E-03
   52.92000      1.3463750E-03
   52.98000      1.4179708E-03
   53.04000      1.4910029E-03
   53.10000      1.5653281E-03
   53.16000      1.6407940E-03
   53.22000      1.7172395E-03
   53.28000      1.7944964E-03
   53.34000      1.8723902E-03
   53.40000      1.9507415E-03
   53.46000      2.0293673E-03
   53.52000      2.1080812E-03
   53.58000      2.1866974E-03
   53.64000      2.2650296E-03
   53.70000      2.3428930E-03
   53.76000      2.4201067E-03
   53.82000      2.4964947E-03
   53.88000      2.5718869E-03
   53.94000      2.6461212E-03
   54.00000      2.7190452E-03
   54.06000      2.7905160E-03
   54.12000      2.8604022E-03
   54.18000      2.9285846E-03
   54.24000      2.9949562E-03
   54.30000      3.0594249E-03
   54.36000      3.1219125E-03
   54.42000      3.1823553E-03
   54.48000      3.2407055E-03
   54.54000      3.2969282E-03
   54.60000      3.3510043E-03
   54.66000      3.4029284E-03
   54.72000      3.4527080E-03
   54.78000      3.5003643E-03
   54.84000      3.5459301E-03
   54.90000      3.5894492E-03
   54.96000      3.6309753E-03
   55.02000      3.6705697E-03
   55.08000      3.7083006E-03
   55.14000      3.7442415E-03
   55.20000      3.7784702E-03
   55.26000      3.8110658E-03
   55.32000      3.8421091E-03
   55.38000      3.8716798E-03
   55.44000      3.8998548E-03
   55.50000      3.9267070E-03
   55.56000      3.9523044E-03