  -2.400000      0.0000000E+00
  -2.340000      0.0000000E+00
  -2.280000      0.0000000E+00
  -2.220000      0.0000000E+00
  -2.160000      0.0000000E+00
  -2.100000      0.0000000E+00
  -2.040000      0.0000000E+00
  -1.980000      0.0000000E+00
  -1.920000     -6.5837690E-26
  -1.860000     -3.6331751E-25
  -1.800000      5.7628838E-25
  -1.740000      1.4011504E-23
  -1.680000      7.6690097E-23
  -1.620000      2.5138546E-22
  -1.560000      5.4976295E-22
  -1.500000      7.1621219E-22
  -1.440000     -5.2718309E-23
  -1.380000     -3.0952644E-21
  -1.320000     -9.4133663E-21
  -1.260000     -1.7688364E-20
  -1.200000     -2.2024734E-20
  -1.140000     -1.1681052E-20
  -1.080000      2.4577733E-20
  -1.020000      8.8982100E-20
 -0.9600000      1.6411584E-19
 -0.9000000      2.0945475E-19
 -0.8400000      1.7334787E-19
 -0.7800000      2.1621369E-20
 -0.7200000     -2.2812744E-19
 -0.6600000     -4.8794118E-19
 -0.6000000     -6.1921934E-19
 -0.5400000     -5.0147664E-19
 -0.4800000     -1.3737922E-19
 -0.4200000      2.4949422E-19
 -0.3600000      1.9930220E-19
 -0.3000000     -8.2444683E-19
 -0.2400000     -3.0370164E-18
 -0.1800000     -5.7517665E-18
 -0.1200000     -6.8926909E-18
 -5.9999999E-02 -3.1158231E-18
  0.0000000E+00  8.8950098E-18
  5.9999999E-02  2.9789484E-17
  0.1200000      5.4338540E-17
  0.1800000      6.9584438E-17
  0.2400000      5.6900014E-17
  0.3000000     -3.7533886E-19
  0.3600000     -1.0483348E-16
  0.4200000     -2.3340530E-16
  0.4800000     -3.3406310E-16
  0.5400000     -3.3774690E-16
  0.6000000     -1.8655444E-16
  0.6600000      1.3022247E-16
  0.7200000      5.4907683E-16
  0.7800000      9.3275829E-16
  0.8400000      1.1078904E-15
  0.9000000      9.3197098E-16
  0.9600000      3.6387829E-16
   1.020000     -4.9612292E-16
   1.080000     -1.4216651E-15
   1.140000     -2.1307256E-15
   1.200000     -2.3823456E-15
   1.260000     -2.0549379E-15
   1.320000     -1.1706598E-15
   1.380000      1.3758580E-16
   1.440000      1.6828717E-15
   1.500000      3.2544259E-15
   1.560000      4.5920087E-15
   1.620000      5.3281379E-15
   1.680000      4.9751276E-15
   1.740000      3.0446635E-15
   1.800000     -6.7167606E-16
   1.860000     -5.7487355E-15
   1.920000     -1.0902288E-14
   1.980000     -1.4122411E-14
   2.040000     -1.3285352E-14
   2.100000     -7.1276264E-15
   2.160000      3.7935434E-15
   2.220000      1.6663254E-14
   2.280000      2.6895620E-14
   2.340000      2.9585560E-14
   2.400000      2.1497379E-14
   2.460000      2.8117053E-15
   2.520000     -2.2173539E-14
   2.580000     -4.5838757E-14
   2.640000     -5.9396823E-14
   2.700000     -5.5721161E-14
   2.760000     -3.1915880E-14
   2.820000      9.1682490E-15
   2.880000      5.8880215E-14
   2.940000      1.0419039E-13
   3.000000      1.3036954E-13
   3.060000      1.2461176E-13
   3.120000      8.0129181E-14
   3.180000     -1.3406159E-16
   3.240000     -1.0151714E-13
   3.300000     -1.9892616E-13
   3.360000     -2.6231017E-13
   3.420000     -2.6568111E-13
   3.480000     -1.9701225E-13
   3.540000     -6.4987173E-14
   3.600000      1.0102907E-13
   3.660000      2.5892721E-13
   3.720000      3.6715013E-13
   3.780000      3.9786008E-13
   3.840000      3.4419291E-13
   3.900000      2.1878445E-13
   3.960000      4.5642669E-14
   4.020000     -1.4860286E-13
   4.080000     -3.3776771E-13
   4.140000     -4.9143242E-13
   4.200000     -5.6715326E-13
   4.260000     -5.0921826E-13
   4.320000     -2.6293724E-13
   4.380000      1.9411443E-13
   4.440000      8.1404870E-13
   4.500000      1.4535083E-12
   4.560000      1.8823667E-12
   4.620000      1.8373983E-12
   4.680000      1.1136423E-12
   4.740000     -3.3336013E-13
   4.800000     -2.3129205E-12
   4.860000     -4.3880056E-12
   4.920000     -5.9458545E-12
   4.980000     -6.3420649E-12
   5.040000     -5.0834948E-12
   5.100000     -1.9991407E-12
   5.160000      2.6518512E-12
   5.220000      8.1694495E-12
   5.280000      1.3505924E-11
   5.340000      1.7439545E-11
   5.400000      1.8782682E-11
   5.460000      1.6570386E-11
   5.520000      1.0185649E-11
   5.580000     -5.9754653E-13
   5.640000     -1.5641389E-11
   5.700000     -3.4504857E-11
   5.760000     -5.6493751E-11
   5.820000     -8.0670921E-11
   5.880000     -1.0583030E-10
   5.940000     -1.3047398E-10
   6.000000     -1.5285287E-10
   6.060000     -1.7112212E-10
   6.120000     -1.8362274E-10
   6.180000     -1.8924234E-10
   6.240000     -1.8775802E-10
   6.300000     -1.8004677E-10
   6.360000     -1.6807915E-10
   6.420000     -1.5467835E-10
   6.480000     -1.4310760E-10
   6.540000     -1.3660362E-10
   6.600000     -1.3798379E-10
   6.660000     -1.4941012E-10
   6.720000     -1.7232073E-10
   6.780000     -2.0747121E-10
   6.840000     -2.5499680E-10
   6.900000     -3.1442482E-10
   6.960000     -3.8462092E-10
   7.020000     -4.6371373E-10
   7.080000     -5.4907906E-10
   7.140000     -6.3745675E-10
   7.200000     -7.2522865E-10
   7.260000     -8.0882473E-10
   7.320000     -8.8517033E-10
   7.380000     -9.5207009E-10
   7.440000     -1.0084350E-09
   7.500000     -1.0543001E-09
   7.560000     -1.0906356E-09
   7.620000     -1.1189979E-09
   7.680000     -1.1411078E-09
   7.740000     -1.1584552E-09
   7.800000     -1.1720223E-09
   7.860000     -1.1821917E-09
   7.920000     -1.1888543E-09
   7.980000     -1.1916785E-09
   8.040000     -1.1904507E-09
   8.100000     -1.1853735E-09
   8.160000     -1.1772141E-09
   8.220000     -1.1672472E-09
   8.280000     -1.1570063E-09
   8.340000     -1.1479354E-09
   8.400000     -1.1410779E-09
   8.460000     -1.1369301E-09
   8.520000     -1.1355296E-09
   8.580000     -1.1367431E-09
   8.640000     -1.1406307E-09
   8.700000     -1.1477116E-09
   8.760000     -1.1589983E-09
   8.820000     -1.1757627E-09
   8.880000     -1.1991249E-09
   8.940000     -1.2296457E-09
   9.000000     -1.2671070E-09
   9.060000     -1.3105748E-09
   9.120000     -1.3587125E-09
   9.180000     -1.4101941E-09
   9.240000     -1.4640452E-09
   9.300000     -1.5197952E-09
   9.360000     -1.5774448E-09
   9.420000     -1.6373499E-09
   9.480000     -1.7001439E-09
   9.540000     -1.7667621E-09
   9.600000     -1.8385231E-09
   9.660000     -1.9171396E-09
   9.720000     -2.0045232E-09
   9.780000     -2.1023372E-09
   9.840000     -2.2113700E-09
   9.900000     -2.3309299E-09
   9.960000     -2.4584867E-09
   10.02000     -2.5897435E-09
   10.08000     -2.7191889E-09
   10.14000     -2.8410343E-09
   10.20000     -2.9503087E-09
   10.26000     -3.0438256E-09
   10.32000     -3.1207468E-09
   10.38000     -3.1825627E-09
   10.44000     -3.2324547E-09
   10.50000     -3.2741607E-09
   10.56000     -3.3106113E-09
   10.62000     -3.3426706E-09
   10.68000     -3.3683016E-09
   10.74000     -3.3823615E-09
   10.80000     -3.3770819E-09
   10.86000     -3.3431160E-09
   10.92000     -3.2709353E-09
   10.98000     -3.1523251E-09
   11.04000     -2.9817950E-09
   11.10000     -2.7578340E-09
   11.16000     -2.4840521E-09
   11.22000     -2.1703126E-09
   11.28000     -1.8339137E-09
   11.34000     -1.5007495E-09
   11.40000     -1.2061894E-09
   11.46000     -9.9524766E-10
   11.52000     -9.2156394E-10
   11.58000     -1.0448202E-09
   11.64000     -1.4264991E-09
   11.70000     -2.1242441E-09
   11.76000     -3.1854275E-09
   11.82000     -4.6407469E-09
   11.88000     -6.4987131E-09
   11.94000     -8.7417886E-09
   12.00000     -1.1324730E-08
   12.06000     -1.4175478E-08
   12.12000     -1.7198728E-08
   12.18000     -2.0282075E-08
   12.24000     -2.3304361E-08
   12.30000     -2.6145532E-08
   12.36000     -2.8696943E-08
   12.42000     -3.0870908E-08
   12.48000     -3.2608138E-08
   12.54000     -3.3882127E-08
   12.60000     -3.4699688E-08
   12.66000     -3.5097781E-08
   12.72000     -3.5137017E-08
   12.78000     -3.4892857E-08
   12.84000     -3.4445677E-08
   12.90000     -3.3871050E-08
   12.96000     -3.3231238E-08
   13.02000     -3.2568767E-08
   13.08000     -3.1902559E-08
   13.14000     -3.1226836E-08
   13.20000     -3.0513000E-08
   13.26000     -2.9714418E-08
   13.32000     -2.8774101E-08
   13.38000     -2.7634796E-08
   13.44000     -2.6250524E-08
   13.50000     -2.4597817E-08
   13.56000     -2.2684548E-08
   13.62000     -2.0554095E-08
   13.68000     -1.8283412E-08
   13.74000     -1.5974756E-08
   13.80000     -1.3742407E-08
   13.86000     -1.1696947E-08
   13.92000     -9.9302992E-09
   13.98000     -8.5044061E-09
   14.04000     -7.4454682E-09
   14.10000     -6.7442363E-09
   14.16000     -6.3614887E-09
   14.22000     -6.2368262E-09
   14.28000     -6.2985039E-09
   14.34000     -6.4722459E-09
   14.40000     -6.6877055E-09
   14.46000     -6.8822463E-09
   14.52000     -7.0027157E-09
   14.58000     -7.0064781E-09
   14.64000     -6.8630168E-09
   14.70000     -6.5567689E-09
   14.76000     -6.0908310E-09
   14.82000     -5.4901568E-09
   14.88000     -4.8023439E-09
   14.94000     -4.0944004E-09
   15.00000     -3.4449275E-09
   15.06000     -2.9326008E-09
   15.12000     -2.6231519E-09
   15.18000     -2.5577331E-09
   15.24000     -2.7453857E-09
   15.30000     -3.1614056E-09
   15.36000     -3.7520587E-09
   15.42000     -4.4447059E-09
   15.48000     -5.1613376E-09
   15.54000     -5.8328746E-09
   15.60000     -6.4114984E-09
   15.66000     -6.8785937E-09
   15.72000     -7.2466984E-09
   15.78000     -7.5549975E-09
   15.84000     -7.8592786E-09
   15.90000     -8.2185938E-09
   15.96000     -8.6818162E-09
   16.02000     -9.2774375E-09
   16.08000     -1.0009204E-08
   16.14000     -1.0858573E-08
   16.20000     -1.1792962E-08
   16.26000     -1.2777006E-08
   16.32000     -1.3783051E-08
   16.38000     -1.4797453E-08
   16.44000     -1.5820721E-08
   16.50000     -1.6861719E-08
   16.56000     -1.7928368E-08
   16.62000     -1.9018566E-08
   16.68000     -2.0115166E-08
   16.74000     -2.1187331E-08
   16.80000     -2.2198460E-08
   16.86000     -2.3118247E-08
   16.92000     -2.3934842E-08
   16.98000     -2.4662622E-08
   17.04000     -2.5342365E-08
   17.10000     -2.6032826E-08
   17.16000     -2.6795588E-08
   17.22000     -2.7677226E-08
   17.28000     -2.8693881E-08
   17.34000     -2.9822736E-08
   17.40000     -3.1003015E-08
   17.46000     -3.2146406E-08
   17.52000     -3.3154240E-08
   17.58000     -3.3936963E-08
   17.64000     -3.4431114E-08
   17.70000     -3.4609865E-08
   17.76000     -3.4485357E-08
   17.82000     -3.4103127E-08
   17.88000     -3.3531109E-08
   17.94000     -3.2846479E-08
   18.00000     -3.2123687E-08
   18.06000     -3.1425870E-08
   18.12000     -3.0800596E-08
   18.18000     -3.0279288E-08
   18.24000     -2.9879068E-08
   18.30000     -2.9605429E-08
   18.36000     -2.9454526E-08
   18.42000     -2.9414373E-08
   18.48000     -2.9465046E-08
   18.54000     -2.9578365E-08
   18.60000     -2.9717921E-08
   18.66000     -2.9840322E-08
   18.72000     -2.9898420E-08
   18.78000     -2.9846650E-08
   18.84000     -2.9647994E-08
   18.90000     -2.9281249E-08
   18.96000     -2.8746790E-08
   19.02000     -2.8069007E-08
   19.08000     -2.7294121E-08
   19.14000     -2.6483121E-08
   19.20000     -2.5700741E-08
   19.26000     -2.5002448E-08
   19.32000     -2.4422059E-08
   19.38000     -2.3962818E-08
   19.44000     -2.3594367E-08
   19.50000     -2.3257318E-08
   19.56000     -2.2875629E-08
   19.62000     -2.2375238E-08
   19.68000     -2.1705240E-08
   19.74000     -2.0856429E-08
   19.80000     -1.9871466E-08
   19.86000     -1.8842357E-08
   19.92000     -1.7893953E-08
   19.98000     -1.7156408E-08
   20.04000     -1.6733221E-08
   20.10000     -1.6673720E-08
   20.16000     -1.6958049E-08
   20.22000     -1.7499460E-08
   20.28000     -1.8163520E-08
   20.34000     -1.8798833E-08
   20.40000     -1.9270384E-08
   20.46000     -1.9486194E-08
   20.52000     -1.9410196E-08
   20.58000     -1.9058900E-08
   20.64000     -1.8484279E-08
   20.70000     -1.7749430E-08
   20.76000     -1.6905199E-08
   20.82000     -1.5975157E-08
   20.88000     -1.4953159E-08
   20.94000     -1.3813481E-08
   21.00000     -1.2529577E-08
   21.06000     -1.1094826E-08
   21.12000     -9.5381747E-09
   21.18000     -7.9292422E-09
   21.24000     -6.3706702E-09
   21.30000     -4.9793742E-09
   21.36000     -3.8617505E-09
   21.42000     -3.0898546E-09
   21.48000     -2.6855886E-09
   21.54000     -2.6178690E-09
   21.60000     -2.8141105E-09
   21.66000     -3.1830880E-09
   21.72000     -3.6426118E-09
   21.78000     -4.1436246E-09
   21.84000     -4.6831068E-09
   21.90000     -5.3014513E-09
   21.96000     -6.0648477E-09
   22.02000     -7.0381239E-09
   22.08000     -8.2567437E-09
   22.14000     -9.7071275E-09
   22.20000     -1.1321960E-08
   22.26000     -1.2992479E-08
   22.32000     -1.4594469E-08
   22.38000     -1.6020461E-08
   22.44000     -1.7208745E-08
   22.50000     -1.8160701E-08
   22.56000     -1.8941321E-08
   22.62000     -1.9662545E-08
   22.68000     -2.0453976E-08
   22.74000     -2.1429097E-08
   22.80000     -2.2656405E-08
   22.86000     -2.4143564E-08
   22.92000     -2.5838789E-08
   22.98000     -2.7648674E-08
   23.04000     -2.9466756E-08
   23.10000     -3.1203808E-08
   23.16000     -3.2810604E-08
   23.22000     -3.4286234E-08
   23.28000     -3.5669778E-08
   23.34000     -3.7018548E-08
   23.40000     -3.8380321E-08
   23.46000     -3.9768953E-08
   23.52000     -4.1151715E-08
   23.58000     -4.2452754E-08
   23.64000     -4.3572122E-08
   23.70000     -4.4414435E-08
   23.76000     -4.4918128E-08
   23.82000     -4.5075733E-08
   23.88000     -4.4938190E-08
   23.94000     -4.4601222E-08
   24.00000     -4.4177348E-08
   24.06000     -4.3761808E-08
   24.12000     -4.3402757E-08
   24.18000     -4.3084899E-08
   24.24000     -4.2731795E-08
   24.30000     -4.2226301E-08
   24.36000     -4.1443300E-08
   24.42000     -4.0285034E-08
   24.48000     -3.8708777E-08
   24.54000     -3.6738680E-08
   24.60000     -3.4458594E-08
   24.66000     -3.1988108E-08
   24.72000     -2.9449124E-08
   24.78000     -2.6933154E-08
   24.84000     -2.4479116E-08
   24.90000     -2.2068301E-08
   24.96000     -1.9637787E-08
   25.02000     -1.7107734E-08
   25.08000     -1.4413679E-08
   25.14000     -1.1533213E-08
   25.20000     -8.4983132E-09
   25.26000     -5.3893130E-09
   25.32000     -2.3125590E-09
   25.38000      6.3063954E-10
   25.44000      3.3731518E-09
   25.50000      5.8991385E-09
   25.56000      8.2429770E-09
   25.62000      1.0469930E-08
   25.68000      1.2644707E-08
   25.74000      1.4798264E-08
   25.80000      1.6903982E-08
   25.86000      1.8871425E-08
   25.92000      2.0560245E-08
   25.98000      2.1810422E-08
   26.04000      2.2479917E-08
   26.10000      2.2478732E-08
   26.16000      2.1789830E-08
   26.22000      2.0471635E-08
   26.28000      1.8642544E-08
   26.34000      1.6452971E-08
   26.40000      1.4053417E-08
   26.46000      1.1567225E-08
   26.52000      9.0742596E-09
   26.58000      6.6078032E-09
   26.64000      4.1629038E-09
   26.70000      1.7115480E-09
   26.76000     -7.8096490E-10
   26.82000     -3.3431800E-09
   26.88000     -5.9907070E-09
   26.94000     -8.7255145E-09
   27.00000     -1.1539314E-08
   27.06000     -1.4418217E-08
   27.12000     -1.7346260E-08
   27.18000     -2.0306748E-08
   27.24000     -2.3281848E-08
   27.30000     -2.6252023E-08
   27.36000     -2.9196924E-08
   27.42000     -3.2098441E-08
   27.48000     -3.4945160E-08
   27.54000     -3.7736172E-08
   27.60000     -4.0481879E-08
   27.66000     -4.3200384E-08
   27.72000     -4.5909964E-08
   27.78000     -4.8620048E-08
   27.84000     -5.1324367E-08
   27.90000     -5.3999219E-08
   27.96000     -5.6607995E-08
   28.02000     -5.9110320E-08
   28.08000     -6.1472228E-08
   28.14000     -6.3673149E-08
   28.20000     -6.5706907E-08
   28.26000     -6.7576416E-08
   28.32000     -6.9284283E-08
   28.38000     -7.0823411E-08
   28.44000     -7.2171694E-08
   28.50000     -7.3293307E-08
   28.56000     -7.4146840E-08
   28.62000     -7.4697979E-08
   28.68000     -7.4932721E-08
   28.74000     -7.4866641E-08
   28.80000     -7.4546520E-08
   28.86000     -7.4042994E-08
   28.92000     -7.3435494E-08
   28.98000     -7.2793348E-08
   29.04000     -7.2158841E-08
   29.10000     -7.1537471E-08
   29.16000     -7.0898857E-08
   29.22000     -7.0188442E-08
   29.28000     -6.9346278E-08
   29.34000     -6.8326926E-08
   29.40000     -6.7114073E-08
   29.46000     -6.5725345E-08
   29.52000     -6.4206091E-08
   29.58000     -6.2614816E-08
   29.64000     -6.1005537E-08
   29.70000     -5.9413292E-08
   29.76000     -5.7847672E-08
   29.82000     -5.6296482E-08
   29.88000     -5.4738088E-08
   29.94000     -5.3158001E-08
   30.00000     -5.1563671E-08
   30.06000     -4.9991900E-08
   30.12000     -4.8505509E-08
   30.18000     -4.7179455E-08
   30.24000     -4.6080260E-08
   30.30000     -4.5245237E-08
   30.36000     -4.4668617E-08
   30.42000     -4.4299846E-08
   30.48000     -4.4055774E-08
   30.54000     -4.3843734E-08
   30.60000     -4.3588681E-08
   30.66000     -4.3255710E-08
   30.72000     -4.2860314E-08
   30.78000     -4.2462524E-08
   30.84000     -4.2146670E-08
   30.90000     -4.1993605E-08
   30.96000     -4.2055159E-08
   31.02000     -4.2339934E-08
   31.08000     -4.2815316E-08
   31.14000     -4.3424446E-08
   31.20000     -4.4111079E-08
   31.26000     -4.4842260E-08
   31.32000     -4.5619959E-08
   31.38000     -4.6477176E-08
   31.44000     -4.7460535E-08
   31.50000     -4.8606612E-08
   31.56000     -4.9921589E-08
   31.62000     -5.1372471E-08
   31.68000     -5.2893505E-08
   31.74000     -5.4405849E-08
   31.80000     -5.5843422E-08
   31.86000     -5.7175612E-08
   31.92000     -5.8418291E-08
   31.98000     -5.9628498E-08
   32.04000     -6.0883686E-08
   32.10000     -6.2252070E-08
   32.16000     -6.3763871E-08
   32.22000     -6.5393884E-08
   32.28000     -6.7061748E-08
   32.34000     -6.8650778E-08
   32.40000     -7.0039263E-08
   32.46000     -7.1134046E-08
   32.52000     -7.1894995E-08
   32.58000     -7.2342630E-08
   32.64000     -7.2546712E-08
   32.70000     -7.2600471E-08
   32.76000     -7.2589309E-08
   32.82000     -7.2564376E-08
   32.88000     -7.2529346E-08
   32.94000     -7.2443854E-08
   33.00000     -7.2242088E-08
   33.06000     -7.1859759E-08
   33.12000     -7.1260537E-08
   33.18000     -7.0452927E-08
   33.24000     -6.9491641E-08
   33.30000     -6.8462597E-08
   33.36000     -6.7456050E-08
   33.42000     -6.6536956E-08
   33.48000     -6.5722404E-08
   33.54000     -6.4974330E-08
   33.60000     -6.4209893E-08
   33.66000     -6.3326226E-08
   33.72000     -6.2231052E-08
   33.78000     -6.0869205E-08
   33.84000     -5.9236879E-08
   33.90000     -5.7379868E-08
   33.96000     -5.5377562E-08
   34.02000     -5.3318566E-08
   34.08000     -5.1276029E-08
   34.14000     -4.9290104E-08
   34.20000     -4.7362285E-08
   34.26000     -4.5462652E-08
   34.32000     -4.3546880E-08
   34.38000     -4.1577021E-08
   34.44000     -3.9538790E-08
   34.50000     -3.7449304E-08
   34.56000     -3.5352475E-08
   34.62000     -3.3303820E-08
   34.68000     -3.1350393E-08
   34.74000     -2.9513579E-08
   34.80000     -2.7781407E-08
   34.86000     -2.6113398E-08
   34.92000     -2.4456119E-08
   34.98000     -2.2763510E-08
   35.04000     -2.1014440E-08
   35.10000     -1.9221247E-08
   35.16000     -1.7426620E-08
   35.22000     -1.5690528E-08
   35.28000     -1.4072342E-08
   35.34000     -1.2614585E-08
   35.40000     -1.1333779E-08
   35.46000     -1.0221045E-08
   35.52000     -9.2515222E-09
   35.58000     -8.3986658E-09
   35.64000     -7.6478877E-09
   35.70000     -7.0044632E-09
   35.76000     -6.4928254E-09
   35.82000     -6.1476984E-09
   35.88000     -6.0005814E-09
   35.94000     -6.0668226E-09
   36.00000     -6.3382086E-09
   36.06000     -6.7837167E-09
   36.12000     -7.3578801E-09
   36.18000     -8.0133526E-09
   36.24000     -8.7129104E-09
   36.30000     -9.4367421E-09
   36.36000     -1.0183034E-08
   36.42000     -1.0962560E-08
   36.48000     -1.1790084E-08
   36.54000     -1.2676209E-08
   36.60000     -1.3622647E-08
   36.66000     -1.4622254E-08
   36.72000     -1.5663252E-08
   36.78000     -1.6735539E-08
   36.84000     -1.7836307E-08
   36.90000     -1.8972544E-08
   36.96000     -2.0159149E-08
   37.02000     -2.1412973E-08
   37.08000     -2.2744688E-08
   37.14000     -2.4151319E-08
   37.20000     -2.5612238E-08
   37.26000     -2.7090492E-08
   37.32000     -2.8539539E-08
   37.38000     -2.9913725E-08
   37.44000     -3.1179471E-08
   37.50000     -3.2323921E-08
   37.56000     -3.3358383E-08
   37.62000     -3.4315693E-08
   37.68000     -3.5242106E-08
   37.74000     -3.6186012E-08
   37.80000     -3.7186346E-08
   37.86000     -3.8263618E-08
   37.92000     -3.9415550E-08
   37.98000     -4.0618087E-08
   38.04000     -4.1831122E-08
   38.10000     -4.3007230E-08
   38.16000     -4.4101039E-08
   38.22000     -4.5077172E-08
   38.28000     -4.5915119E-08
   38.34000     -4.6610545E-08
   38.40000     -4.7173334E-08
   38.46000     -4.7623363E-08
   38.52000     -4.7985164E-08
   38.58000     -4.8282647E-08
   38.64000     -4.8534854E-08
   38.70000     -4.8753332E-08
   38.76000     -4.8941526E-08
   38.82000     -4.9096066E-08
   38.88000     -4.9209405E-08
   38.94000     -4.9272906E-08
   39.00000     -4.9279326E-08
   39.06000     -4.9223932E-08
   39.12000     -4.9103996E-08
   39.18000     -4.8917197E-08
   39.24000     -4.8659750E-08
   39.30000     -4.8325248E-08
   39.36000     -4.7904788E-08
   39.42000     -4.7388337E-08
   39.48000     -4.6767017E-08
   39.54000     -4.6035655E-08
   39.60000     -4.5195314E-08
   39.66000     -4.4255472E-08
   39.72000     -4.3235737E-08
   39.78000     -4.2166739E-08
   39.84000     -4.1089493E-08
   39.90000     -4.0052562E-08
   39.96000     -3.9106400E-08
   40.02000     -3.8295290E-08
   40.08000     -3.7648082E-08
   40.14000     -3.7170050E-08
   40.20000     -3.6838603E-08
   40.26000     -3.6605158E-08
   40.32000     -3.6404202E-08
   40.38000     -3.6168462E-08
   40.44000     -3.5846952E-08
   40.50000     -3.5421010E-08
   40.56000     -3.4913171E-08
   40.62000     -3.4385170E-08
   40.68000     -3.3924270E-08
   40.74000     -3.3620779E-08
   40.80000     -3.3542896E-08
   40.86000     -3.3716358E-08
   40.92000     -3.4115484E-08
   40.98000     -3.4668915E-08
   41.04000     -3.5278884E-08
   41.10000     -3.5848586E-08
   41.16000     -3.6309608E-08
   41.22000     -3.6641342E-08
   41.28000     -3.6876795E-08
   41.34000     -3.7093084E-08
   41.40000     -3.7389405E-08
   41.46000     -3.7858648E-08
   41.52000     -3.8560593E-08
   41.58000     -3.9504254E-08
   41.64000     -4.0644391E-08
   41.70000     -4.1893593E-08
   41.76000     -4.3146684E-08
   41.82000     -4.4310781E-08
   41.88000     -4.5332097E-08
   41.94000     -4.6211387E-08
   42.00000     -4.7003102E-08
   42.06000     -4.7798324E-08
   42.12000     -4.8696648E-08
   42.18000     -4.9775718E-08
   42.24000     -5.1067659E-08
   42.30000     -5.2549243E-08
   42.36000     -5.4148099E-08
   42.42000     -5.5762278E-08
   42.48000     -5.7287075E-08
   42.54000     -5.8641223E-08
   42.60000     -5.9785734E-08
   42.66000     -6.0730770E-08
   42.72000     -6.1529370E-08
   42.78000     -6.2259822E-08
   42.84000     -6.3001295E-08
   42.90000     -6.3808940E-08
   42.96000     -6.4695243E-08
   43.02000     -6.5622920E-08
   43.08000     -6.6512243E-08
   43.14000     -6.7260920E-08
   43.20000     -6.7771502E-08
   43.26000     -6.7978242E-08
   43.32000     -6.7865649E-08
   43.38000     -6.7473472E-08
   43.44000     -6.6886905E-08
   43.50000     -6.6215534E-08
   43.56000     -6.5567043E-08
   43.62000     -6.5023229E-08
   43.68000     -6.4624189E-08
   43.74000     -6.4364059E-08
   43.80000     -6.4198701E-08
   43.86000     -6.4062398E-08
   43.92000     -6.3888905E-08
   43.98000     -6.3631248E-08
   44.04000     -6.3274882E-08
   44.10000     -6.2841004E-08
   44.16000     -6.2379264E-08
   44.22000     -6.1952306E-08
   44.28000     -6.1616987E-08
   44.34000     -6.1407910E-08
   44.40000     -6.1327846E-08
   44.46000     -6.1347585E-08
   44.52000     -6.1414362E-08
   44.58000     -6.1465698E-08
   44.64000     -6.1444254E-08
   44.70000     -6.1309251E-08
   44.76000     -6.1041710E-08
   44.82000     -6.0642662E-08
   44.88000     -6.0125664E-08
   44.94000     -5.9506473E-08
   45.00000     -5.8793411E-08
   45.06000     -5.7981595E-08
   45.12000     -5.7052670E-08
   45.18000     -5.5980145E-08
   45.24000     -5.4738280E-08
   45.30000     -5.3311588E-08
   45.36000     -5.1701917E-08
   45.42000     -4.9930907E-08
   45.48000     -4.8037357E-08
   45.54000     -4.6070383E-08
   45.60000     -4.4080718E-08
   45.66000     -4.2112742E-08
   45.72000     -4.0199748E-08
   45.78000     -3.8364039E-08
   45.84000     -3.6621927E-08
   45.90000     -3.4992034E-08
   45.96000     -3.3503753E-08
   46.02000     -3.2202038E-08
   46.08000     -3.1145426E-08
   46.14000     -3.0396581E-08
   46.20000     -3.0007556E-08
   46.26000     -3.0004720E-08
   46.32000     -3.0379081E-08
   46.38000     -3.1086195E-08
   46.44000     -3.2056473E-08
   46.50000     -3.3212633E-08
   46.56000     -3.4488423E-08
   46.62000     -3.5842270E-08
   46.68000     -3.7261518E-08
   46.74000     -3.8756411E-08
   46.80000     -4.0346436E-08
   46.86000     -4.2043997E-08
   46.92000     -4.3840892E-08
   46.98000     -4.5702063E-08
   47.04000     -4.7568580E-08
   47.10000     -4.9369124E-08
   47.16000     -5.1036498E-08
   47.22000     -5.2523916E-08
   47.28000     -5.3815690E-08
   47.34000     -5.4928528E-08
   47.40000     -5.5902778E-08
   47.46000     -5.6786636E-08
   47.52000     -5.7619005E-08
   47.58000     -5.8417434E-08
   47.64000     -5.9175875E-08
   47.70000     -5.9873592E-08
   47.76000     -6.0492809E-08
   47.82000     -6.1039778E-08
   47.88000     -6.1563036E-08
   47.94000     -6.2163537E-08
   48.00000     -6.2993678E-08
   48.06000     -6.4245548E-08
   48.12000     -6.6131605E-08
   48.18000     -6.8863727E-08
   48.24000     -7.2637320E-08
   48.30000     -7.7626375E-08
   48.36000     -8.3992205E-08
   48.42000     -9.1904390E-08
   48.48000     -1.0156826E-07
   48.54000     -1.1325110E-07
   48.60000     -1.2729998E-07
   48.66000     -1.4414786E-07
   48.72000     -1.6430927E-07
   48.78000     -1.8837146E-07
   48.84000     -2.1698781E-07
   48.90000     -2.5088016E-07
   48.96000     -2.9085240E-07
   49.02000     -3.3781481E-07
   49.08000     -3.9281545E-07
   49.14000     -4.5707262E-07
   49.20000     -5.3200347E-07
   49.26000     -6.1924368E-07
   49.32000     -7.2065785E-07
   49.38000     -8.3834203E-07
   49.44000     -9.7462453E-07
   49.50000     -1.1320740E-06
   49.56000     -1.3135209E-06
   49.62000     -1.5220974E-06
   49.68000     -1.7612897E-06
   49.74000     -2.0349985E-06
   49.80000     -2.3475923E-06
   49.86000     -2.7039496E-06
   49.92000     -3.1094839E-06
   49.98000     -3.5701582E-06
   50.04000     -4.0924942E-06
   50.10000     -4.6835839E-06
   50.16000     -5.3511112E-06
   50.22000     -6.1033825E-06
   50.28000     -6.9493694E-06
   50.34000     -7.8987505E-06
   50.40000     -8.9619643E-06
   50.46000     -1.0150254E-05
   50.52000     -1.1475700E-05
   50.58000     -1.2951238E-05
   50.64000     -1.4590653E-05
   50.70000     -1.6408556E-05
   50.76000     -1.8420349E-05
   50.82000     -2.0642203E-05
   50.88000     -2.3091008E-05
   50.94000     -2.5784377E-05
   51.00000     -2.8740600E-05
   51.06000     -3.1978630E-05
   51.12000     -3.5518002E-05
   51.18000     -3.9378796E-05
   51.24000     -4.3581498E-05
   51.30000     -4.8146940E-05
   51.36000     -5.3096093E-05
   51.42000     -5.8449983E-05
   51.48000     -6.4229491E-05
   51.54000     -7.0455200E-05
   51.60000     -7.7147262E-05
   51.66000     -8.4325206E-05
   51.72000     -9.2007824E-05
   51.78000     -1.0021294E-04
   51.84000     -1.0895726E-04
   51.90000     -1.1825611E-04
   51.96000     -1.2812323E-04
   52.02000     -1.3857050E-04
   52.08000     -1.4960769E-04
   52.14000     -1.6124237E-04
   52.20000     -1.7347952E-04
   52.26000     -1.8632150E-04
   52.32000     -1.9976783E-04
   52.38000     -2.1381497E-04
   52.44000     -2.2845625E-04
   52.50000     -2.4368164E-04
   52.56000     -2.5947773E-04
   52.62000     -2.7582762E-04
   52.68000     -2.9271090E-04
   52.74000     -3.1010350E-04
   52.80000     -3.2797782E-04
   52.86000     -3.4630270E-04
   52.92000     -3.6504338E-04
   52.98000     -3.8416180E-04
   53.04000     -4.0361675E-04
   53.10000     -4.2336402E-04
   53.16000     -4.4335675E-04
   53.22000     -4.6354544E-04
   53.28000     -4.8387854E-04
   53.34000     -5.0430250E-04
   53.40000     -5.2476238E-04
   53.46000     -5.4520223E-04
   53.52000     -5.6556537E-04
   53.58000     -5.8579486E-04
   53.64000     -6.0583389E-04
   53.70000     -6.2562648E-04
   53.76000     -6.4511748E-04
   53.82000     -6.6425360E-04
   53.88000     -6.8298343E-04
   53.94000     -7.0125831E-04
   54.00000     -7.1903219E-04
   54.06000     -7.3626242E-04
   54.12000     -7.5290992E-04
   54.18000     -7.6893973E-04
   54.24000     -7.8432134E-04
   54.30000     -7.9902873E-04
   54.36000     -8.1304077E-04
   54.42000     -8.2634122E-04
   54.48000     -8.3891884E-04
   54.54000     -8.5076760E-04
   54.60000     -8.6188602E-04
   54.66000     -8.7227789E-04
   54.72000     -8.8195200E-04
   54.78000     -8.9092168E-04
   54.84000     -8.9920475E-04
   54.90000     -9.0682309E-04
   54.96000     -9.1380248E-04
   55.02000     -9.2017191E-04
   55.08000     -9.2596340E-04
   55.14000     -9.3121134E-04
   55.20000     -9.3595206E-04
   55.26000     -9.4022352E-04
   55.32000     -9.4406452E-04
   55.38000     -9.4751432E-04
   55.44000     -9.5061195E-04
   55.50000     -9.5339597E-04
   55.56000     -9.5590361E-04