  -2.400000      0.0000000E+00
  -2.340000      0.0000000E+00
  -2.280000      0.0000000E+00
  -2.220000      0.0000000E+00
  -2.160000      0.0000000E+00
  -2.100000      0.0000000E+00
  -2.040000      0.0000000E+00
  -1.980000      0.0000000E+00
  -1.920000     -5.1577950E-25
  -1.860000     -5.0813166E-24
  -1.800000     -2.2564074E-23
  -1.740000     -5.0986015E-23
  -1.680000     -8.7664266E-24
  -1.620000      3.7483765E-22
  -1.560000      1.5209723E-21
  -1.500000      3.3987749E-21
  -1.440000      4.0698082E-21
  -1.380000     -1.8722991E-21
  -1.320000     -2.2292277E-20
  -1.260000     -6.0026701E-20
  -1.200000     -9.7623630E-20
  -1.140000     -8.1898532E-20
  -1.080000      7.1541921E-20
  -1.020000      4.2821925E-19
 -0.9600000      9.3105682E-19
 -0.9000000      1.2836631E-18
 -0.8400000      9.2485203E-19
 -0.7800000     -7.7209002E-19
 -0.7200000     -4.0108511E-18
 -0.6600000     -7.9275311E-18
 -0.6000000     -1.0189365E-17
 -0.5400000     -7.3969725E-18
 -0.4800000      3.3182826E-18
 -0.4200000      2.1732768E-17
 -0.3600000      4.2160082E-17
 -0.3000000      5.3150507E-17
 -0.2400000      4.0968297E-17
 -0.1800000     -2.9890738E-18
 -0.1200000     -7.3343180E-17
 -5.9999999E-02 -1.4556030E-16
  0.0000000E+00 -1.8014447E-16
  5.9999999E-02 -1.3887961E-16
  0.1200000     -9.1907029E-18
  0.1800000      1.7498016E-16
  0.2400000      3.3143089E-16
  0.3000000      3.5839007E-16
  0.3600000      1.9062204E-16
  0.4200000     -1.3997941E-16
  0.4800000     -4.7723811E-16
  0.5400000     -5.8238677E-16
  0.6000000     -2.5261627E-16
  0.6600000      5.2216574E-16
  0.7200000      1.4477486E-15
  0.7800000      1.9550048E-15
  0.8400000      1.4223247E-15
  0.9000000     -4.5517264E-16
  0.9600000     -3.3110980E-15
   1.020000     -5.9954707E-15
   1.080000     -6.8851624E-15
   1.140000     -4.6175328E-15
   1.200000      1.0097611E-15
   1.260000      8.4374265E-15
   1.320000      1.4516108E-14
   1.380000      1.5653813E-14
   1.440000      9.6461586E-15
   1.500000     -2.6095069E-15
   1.560000     -1.6533956E-14
   1.620000     -2.5141828E-14
   1.680000     -2.2084685E-14
   1.740000     -5.3515385E-15
   1.800000      2.0197465E-14
   1.860000      4.3200540E-14
   1.920000      4.9734881E-14
   1.980000      2.9772981E-14
   2.040000     -1.6504317E-14
   2.100000     -7.5786321E-14
   2.160000     -1.2437910E-13
   2.220000     -1.3654326E-13
   2.280000     -9.5567414E-14
   2.340000     -2.8787901E-15
   2.400000      1.1930993E-13
   2.460000      2.3386385E-13
   2.520000      3.0136413E-13
   2.580000      2.9443201E-13
   2.640000      2.0748363E-13
   2.700000      5.7528079E-14
   2.760000     -1.2411951E-13
   2.820000     -3.0466946E-13
   2.880000     -4.6006195E-13
   2.940000     -5.7646645E-13
   3.000000     -6.4176079E-13
   3.060000     -6.3207805E-13
   3.120000     -5.0332346E-13
   3.180000     -1.9780861E-13
   3.240000      3.2935848E-13
   3.300000      1.0692966E-12
   3.360000      1.9191948E-12
   3.420000      2.6642265E-12
   3.480000      3.0004471E-12
   3.540000      2.6061776E-12
   3.600000      1.2516660E-12
   3.660000     -1.0813238E-12
   3.720000     -4.1099398E-12
   3.780000     -7.2301813E-12
   3.840000     -9.5915238E-12
   3.900000     -1.0266195E-11
   3.960000     -8.4840772E-12
   4.020000     -3.8803669E-12
   4.080000      3.3076441E-12
   4.140000      1.2152173E-11
   4.200000      2.1090765E-11
   4.260000      2.8131192E-11
   4.320000      3.1178945E-11
   4.380000      2.8436834E-11
   4.440000      1.8814112E-11
   4.500000      2.2817432E-12
   4.560000     -1.9883453E-11
   4.620000     -4.5014766E-11
   4.680000     -6.9172980E-11
   4.740000     -8.7496579E-11
   4.800000     -9.4798162E-11
   4.860000     -8.6387307E-11
   4.920000     -5.9049592E-11
   4.980000     -1.2051109E-11
   5.040000      5.2016533E-11
   5.100000      1.2676191E-10
   5.160000      2.0207865E-10
   5.220000      2.6490005E-10
   5.280000      3.0060723E-10
   5.340000      2.9492939E-10
   5.400000      2.3604749E-10
   5.460000      1.1654087E-10
   5.520000     -6.5174449E-11
   5.580000     -3.0417666E-10
   5.640000     -5.8925098E-10
   5.700000     -9.0392882E-10
   5.760000     -1.2281564E-09
   5.820000     -1.5403104E-09
   5.880000     -1.8192653E-09
   5.940000     -2.0462620E-09
   6.000000     -2.2064133E-09
   6.060000     -2.2897613E-09
   6.120000     -2.2918776E-09
   6.180000     -2.2140283E-09
   6.240000     -2.0629505E-09
   6.300000     -1.8502859E-09
   6.360000     -1.5917332E-09
   6.420000     -1.3059778E-09
   6.480000     -1.0134826E-09
   6.540000     -7.3521483E-10
   6.600000     -4.9137533E-10
   6.660000     -3.0017494E-10
   6.720000     -1.7667563E-10
   6.780000     -1.3170627E-10
   6.840000     -1.7087654E-10
   6.900000     -2.9375263E-10
   6.960000     -4.9331417E-10
   7.020000     -7.5586143E-10
   7.080000     -1.0615598E-09
   7.140000     -1.3857679E-09
   7.200000     -1.7011954E-09
   7.260000     -1.9807678E-09
   7.320000     -2.2008895E-09
   7.380000     -2.3446254E-09
   7.440000     -2.4042333E-09
   7.500000     -2.3825253E-09
   7.560000     -2.2927098E-09
   7.620000     -2.1566662E-09
   7.680000     -2.0019360E-09
   7.740000     -1.8579824E-09
   7.800000     -1.7524041E-09
   7.860000     -1.7077383E-09
   7.920000     -1.7392808E-09
   7.980000     -1.8540645E-09
   8.040000     -2.0508764E-09
   8.100000     -2.3210447E-09
   8.160000     -2.6497131E-09
   8.220000     -3.0174105E-09
   8.280000     -3.4018410E-09
   8.340000     -3.7798715E-09
   8.400000     -4.1296531E-09
   8.460000     -4.4326827E-09
   8.520000     -4.6754840E-09
   8.580000     -4.8505391E-09
   8.640000     -4.9562017E-09
   8.700000     -4.9955569E-09
   8.760000     -4.9744946E-09
   8.820000     -4.8994804E-09
   8.880000     -4.7756048E-09
   8.940000     -4.6053463E-09
   9.000000     -4.3882333E-09
   9.060000     -4.1212678E-09
   9.120000     -3.7997645E-09
   9.180000     -3.4182126E-09
   9.240000     -2.9708991E-09
   9.300000     -2.4522560E-09
   9.360000     -1.8571140E-09
   9.420000     -1.1811198E-09
   9.480000     -4.2148568E-10
   9.540000      4.2197090E-10
   9.600000      1.3458065E-09
   9.660000      2.3424120E-09
   9.720000      3.4003922E-09
   9.780000      4.5060724E-09
   9.840000      5.6459530E-09
   9.900000      6.8095432E-09
   9.960000      7.9917326E-09
   10.02000      9.1938546E-09
   10.08000      1.0422878E-08
   10.14000      1.1688687E-08
   10.20000      1.3000032E-08
   10.26000      1.4360207E-08
   10.32000      1.5763755E-08
   10.38000      1.7195312E-08
   10.44000      1.8631141E-08
   10.50000      2.0043180E-08
   10.56000      2.1404626E-08
   10.62000      2.2695556E-08
   10.68000      2.3907038E-08
   10.74000      2.5042524E-08
   10.80000      2.6116071E-08
   10.86000      2.7147902E-08
   10.92000      2.8158562E-08
   10.98000      2.9163358E-08
   11.04000      3.0168611E-08
   11.10000      3.1170654E-08
   11.16000      3.2157651E-08
   11.22000      3.3113395E-08
   11.28000      3.4021767E-08
   11.34000      3.4870471E-08
   11.40000      3.5653077E-08
   11.46000      3.6369148E-08
   11.52000      3.7022865E-08
   11.58000      3.7620971E-08
   11.64000      3.8170871E-08
   11.70000      3.8679396E-08
   11.76000      3.9152201E-08
   11.82000      3.9593409E-08
   11.88000      4.0004988E-08
   11.94000      4.0385466E-08
   12.00000      4.0728171E-08
   12.06000      4.1019511E-08
   12.12000      4.1238220E-08
   12.18000      4.1356522E-08
   12.24000      4.1343704E-08
   12.30000      4.1171980E-08
   12.36000      4.0823647E-08
   12.42000      4.0297728E-08
   12.48000      3.9614108E-08
   12.54000      3.8813265E-08
   12.60000      3.7950723E-08
   12.66000      3.7086810E-08
   12.72000      3.6273754E-08
   12.78000      3.5543486E-08
   12.84000      3.4899632E-08
   12.90000      3.4316482E-08
   12.96000      3.3745803E-08
   13.02000      3.3130185E-08
   13.08000      3.2419379E-08
   13.14000      3.1585106E-08
   13.20000      3.0629998E-08
   13.26000      2.9587881E-08
   13.32000      2.8515142E-08
   13.38000      2.7475563E-08
   13.44000      2.6522812E-08
   13.50000      2.5685587E-08
   13.56000      2.4959565E-08
   13.62000      2.4308383E-08
   13.68000      2.3673310E-08
   13.74000      2.2988914E-08
   13.80000      2.2200359E-08
   13.86000      2.1277696E-08
   13.92000      2.0223299E-08
   13.98000      1.9070495E-08
   14.04000      1.7873793E-08
   14.10000      1.6693267E-08
   14.16000      1.5577223E-08
   14.22000      1.4547796E-08
   14.28000      1.3593465E-08
   14.34000      1.2670785E-08
   14.40000      1.1715302E-08
   14.46000      1.0659046E-08
   14.52000      9.4501234E-09
   14.58000      8.0689890E-09
   14.64000      6.5366481E-09
   14.70000      4.9120681E-09
   14.76000      3.2790426E-09
   14.82000      1.7258573E-09
   14.88000      3.2329536E-10
   14.94000     -8.9283414E-10
   15.00000     -1.9296824E-09
   15.06000     -2.8336591E-09
   15.12000     -3.6762495E-09
   15.18000     -4.5336086E-09
   15.24000     -5.4658975E-09
   15.30000     -6.5022085E-09
   15.36000     -7.6350419E-09
   15.42000     -8.8253245E-09
   15.48000     -1.0015806E-08
   15.54000     -1.1148371E-08
   15.60000     -1.2179984E-08
   15.66000     -1.3092817E-08
   15.72000     -1.3896264E-08
   15.78000     -1.4621176E-08
   15.84000     -1.5308986E-08
   15.90000     -1.5999630E-08
   15.96000     -1.6722105E-08
   16.02000     -1.7490208E-08
   16.08000     -1.8303991E-08
   16.14000     -1.9155614E-08
   16.20000     -2.0036925E-08
   16.26000     -2.0945849E-08
   16.32000     -2.1889386E-08
   16.38000     -2.2882370E-08
   16.44000     -2.3942693E-08
   16.50000     -2.5084802E-08
   16.56000     -2.6313717E-08
   16.62000     -2.7621500E-08
   16.68000     -2.8987131E-08
   16.74000     -3.0379674E-08
   16.80000     -3.1763609E-08
   16.86000     -3.3104776E-08
   16.92000     -3.4375404E-08
   16.98000     -3.5557154E-08
   17.04000     -3.6641786E-08
   17.10000     -3.7629693E-08
   17.16000     -3.8526949E-08
   17.22000     -3.9341785E-08
   17.28000     -4.0081328E-08
   17.34000     -4.0749299E-08
   17.40000     -4.1344968E-08
   17.46000     -4.1863391E-08
   17.52000     -4.2296676E-08
   17.58000     -4.2635708E-08
   17.64000     -4.2871786E-08
   17.70000     -4.2997808E-08
   17.76000     -4.3008750E-08
   17.82000     -4.2901679E-08
   17.88000     -4.2675641E-08
   17.94000     -4.2331866E-08
   18.00000     -4.1874429E-08
   18.06000     -4.1311353E-08
   18.12000     -4.0655443E-08
   18.18000     -3.9924345E-08
   18.24000     -3.9139103E-08
   18.30000     -3.8321343E-08
   18.36000     -3.7489645E-08
   18.42000     -3.6656381E-08
   18.48000     -3.5826368E-08
   18.54000     -3.4998020E-08
   18.60000     -3.4166888E-08
   18.66000     -3.3330117E-08
   18.72000     -3.2490060E-08
   18.78000     -3.1655350E-08
   18.84000     -3.0838777E-08
   18.90000     -3.0052853E-08
   18.96000     -2.9304752E-08
   19.02000     -2.8592925E-08
   19.08000     -2.7906777E-08
   19.14000     -2.7229641E-08
   19.20000     -2.6544004E-08
   19.26000     -2.5837032E-08
   19.32000     -2.5104507E-08
   19.38000     -2.4351831E-08
   19.44000     -2.3591758E-08
   19.50000     -2.2839510E-08
   19.56000     -2.2106638E-08
   19.62000     -2.1395499E-08
   19.68000     -2.0696149E-08
   19.74000     -1.9987004E-08
   19.80000     -1.9239639E-08
   19.86000     -1.8426741E-08
   19.92000     -1.7530898E-08
   19.98000     -1.6551230E-08
   20.04000     -1.5505245E-08
   20.10000     -1.4424693E-08
   20.16000     -1.3346478E-08
   20.22000     -1.2301594E-08
   20.28000     -1.1306028E-08
   20.34000     -1.0356994E-08
   20.40000     -9.4359578E-09
   20.46000     -8.5173761E-09
   20.52000     -7.5799838E-09
   20.58000     -6.6164891E-09
   20.64000     -5.6381282E-09
   20.70000     -4.6723017E-09
   20.76000     -3.7539234E-09
   20.82000     -2.9132459E-09
   20.88000     -2.1642175E-09
   20.94000     -1.4974312E-09
   21.00000     -8.8042995E-10
   21.06000     -2.6587768E-10
   21.12000      3.9443845E-10
   21.18000      1.1338825E-09
   21.24000      1.9584965E-09
   21.30000      2.8420515E-09
   21.36000      3.7307730E-09
   21.42000      4.5569446E-09
   21.48000      5.2578035E-09
   21.54000      5.7943685E-09
   21.60000      6.1646599E-09
   21.66000      6.4072387E-09
   21.72000      6.5936607E-09
   21.78000      6.8115673E-09
   21.84000      7.1428139E-09
   21.90000      7.6425657E-09
   21.96000      8.3251965E-09
   22.02000      9.1610053E-09
   22.08000      1.0084763E-08
   22.14000      1.1013615E-08
   22.20000      1.1869065E-08
   22.26000      1.2596483E-08
   22.32000      1.3176344E-08
   22.38000      1.3623990E-08
   22.44000      1.3978307E-08
   22.50000      1.4283170E-08
   22.56000      1.4567651E-08
   22.62000      1.4831297E-08
   22.68000      1.5039122E-08
   22.74000      1.5127936E-08
   22.80000      1.5022207E-08
   22.86000      1.4654781E-08
   22.92000      1.3986314E-08
   22.98000      1.3017688E-08
   23.04000      1.1791693E-08
   23.10000      1.0383549E-08
   23.16000      8.8831635E-09
   23.22000      7.3744557E-09
   23.28000      5.9178196E-09
   23.34000      4.5405795E-09
   23.40000      3.2376462E-09
   23.46000      1.9813728E-09
   23.52000      7.3699541E-10
   23.58000     -5.2127952E-10
   23.64000     -1.7981853E-09
   23.70000     -3.0723830E-09
   23.76000     -4.2993586E-09
   23.82000     -5.4208451E-09
   23.88000     -6.3777694E-09
   23.94000     -7.1230066E-09
   24.00000     -7.6305788E-09
   24.06000     -7.8991622E-09
   24.12000     -7.9495619E-09
   24.18000     -7.8176967E-09
   24.24000     -7.5458875E-09
   24.30000     -7.1755850E-09
   24.36000     -6.7438233E-09
   24.42000     -6.2840586E-09
   24.48000     -5.8302567E-09
   24.54000     -5.4217888E-09
   24.60000     -5.1064140E-09
   24.66000     -4.9393454E-09
   24.72000     -4.9778586E-09
   24.78000     -5.2724407E-09
   24.84000     -5.8567000E-09
   24.90000     -6.7386861E-09
   24.96000     -7.8959701E-09
   25.02000     -9.2758592E-09
   25.08000     -1.0800822E-08
   25.14000     -1.2377995E-08
   25.20000     -1.3910739E-08
   25.26000     -1.5310107E-08
   25.32000     -1.6504407E-08
   25.38000     -1.7445968E-08
   25.44000     -1.8114941E-08
   25.50000     -1.8520424E-08
   25.56000     -1.8699104E-08
   25.62000     -1.8711269E-08
   25.68000     -1.8633788E-08
   25.74000     -1.8550068E-08
   25.80000     -1.8537884E-08
   25.86000     -1.8657204E-08
   25.92000     -1.8940892E-08
   25.98000     -1.9391054E-08
   26.04000     -1.9982433E-08
   26.10000     -2.0672308E-08
   26.16000     -2.1414298E-08
   26.22000     -2.2172230E-08
   26.28000     -2.2930241E-08
   26.34000     -2.3696455E-08
   26.40000     -2.4499576E-08
   26.46000     -2.5379723E-08
   26.52000     -2.6376362E-08
   26.58000     -2.7516842E-08
   26.64000     -2.8808646E-08
   26.70000     -3.0237373E-08
   26.76000     -3.1770714E-08
   26.82000     -3.3367172E-08
   26.88000     -3.4986840E-08
   26.94000     -3.6601101E-08
   27.00000     -3.8198483E-08
   27.06000     -3.9785046E-08
   27.12000     -4.1379224E-08
   27.18000     -4.3002849E-08
   27.24000     -4.4670973E-08
   27.30000     -4.6383594E-08
   27.36000     -4.8121716E-08
   27.42000     -4.9848971E-08
   27.48000     -5.1518189E-08
   27.54000     -5.3080907E-08
   27.60000     -5.4496820E-08
   27.66000     -5.5740241E-08
   27.72000     -5.6801710E-08
   27.78000     -5.7684694E-08
   27.84000     -5.8399017E-08
   27.90000     -5.8953812E-08
   27.96000     -5.9352757E-08
   28.02000     -5.9593255E-08
   28.08000     -5.9669439E-08
   28.14000     -5.9577474E-08
   28.20000     -5.9320712E-08
   28.26000     -5.8912686E-08
   28.32000     -5.8376727E-08
   28.38000     -5.7742522E-08
   28.44000     -5.7040587E-08
   28.50000     -5.6296372E-08
   28.56000     -5.5525444E-08
   28.62000     -5.4731004E-08
   28.68000     -5.3904433E-08
   28.74000     -5.3028973E-08
   28.80000     -5.2085912E-08
   28.86000     -5.1061761E-08
   28.92000     -4.9954405E-08
   28.98000     -4.8775952E-08
   29.04000     -4.7551019E-08
   29.10000     -4.6310255E-08
   29.16000     -4.5080874E-08
   29.22000     -4.3876955E-08
   29.28000     -4.2692665E-08
   29.34000     -4.1500698E-08
   29.40000     -4.0256793E-08
   29.46000     -3.8909437E-08
   29.52000     -3.7412519E-08
   29.58000     -3.5738090E-08
   29.64000     -3.3886270E-08
   29.70000     -3.1889869E-08
   29.76000     -2.9812259E-08
   29.82000     -2.7738269E-08
   29.88000     -2.5759585E-08
   29.94000     -2.3957790E-08
   30.00000     -2.2389283E-08
   30.06000     -2.1076374E-08
   30.12000     -2.0007512E-08
   30.18000     -1.9146837E-08
   30.24000     -1.8450274E-08
   30.30000     -1.7882957E-08
   30.36000     -1.7432143E-08
   30.42000     -1.7111242E-08
   30.48000     -1.6953663E-08
   30.54000     -1.6998673E-08
   30.60000     -1.7274303E-08
   30.66000     -1.7783240E-08
   30.72000     -1.8496543E-08
   30.78000     -1.9357438E-08
   30.84000     -2.0294090E-08
   30.90000     -2.1237538E-08
   30.96000     -2.2139393E-08
   31.02000     -2.2984034E-08
   31.08000     -2.3791658E-08
   31.14000     -2.4611246E-08
   31.20000     -2.5505358E-08
   31.26000     -2.6531167E-08
   31.32000     -2.7723242E-08
   31.38000     -2.9083139E-08
   31.44000     -3.0578928E-08
   31.50000     -3.2154677E-08
   31.56000     -3.3746929E-08
   31.62000     -3.5302893E-08
   31.68000     -3.6794624E-08
   31.74000     -3.8224719E-08
   31.80000     -3.9621856E-08
   31.86000     -4.1027846E-08
   31.92000     -4.2480615E-08
   31.98000     -4.3998750E-08
   32.04000     -4.5572737E-08
   32.10000     -4.7165674E-08
   32.16000     -4.8723109E-08
   32.22000     -5.0188856E-08
   32.28000     -5.1521514E-08
   32.34000     -5.2706511E-08
   32.40000     -5.3759710E-08
   32.46000     -5.4721493E-08
   32.52000     -5.5642921E-08
   32.58000     -5.6568116E-08
   32.64000     -5.7518101E-08
   32.70000     -5.8480801E-08
   32.76000     -5.9410318E-08
   32.82000     -6.0235926E-08
   32.88000     -6.0878598E-08
   32.94000     -6.1270754E-08
   33.00000     -6.1374095E-08
   33.06000     -6.1190796E-08
   33.12000     -6.0764805E-08
   33.18000     -6.0172809E-08
   33.24000     -5.9506803E-08
   33.30000     -5.8852773E-08
   33.36000     -5.8270903E-08
   33.42000     -5.7782774E-08
   33.48000     -5.7369036E-08
   33.54000     -5.6978255E-08
   33.60000     -5.6544426E-08
   33.66000     -5.6007877E-08
   33.72000     -5.5333320E-08
   33.78000     -5.4519596E-08
   33.84000     -5.3598196E-08
   33.90000     -5.2621388E-08
   33.96000     -5.1643951E-08
   34.02000     -5.0704610E-08
   34.08000     -4.9813082E-08
   34.14000     -4.8946728E-08
   34.20000     -4.8057515E-08
   34.26000     -4.7086811E-08
   34.32000     -4.5983207E-08
   34.38000     -4.4717893E-08
   34.44000     -4.3293195E-08
   34.50000     -4.1741920E-08
   34.56000     -4.0118142E-08
   34.62000     -3.8482266E-08
   34.68000     -3.6884998E-08
   34.74000     -3.5354869E-08
   34.80000     -3.3892967E-08
   34.86000     -3.2476215E-08
   34.92000     -3.1067987E-08
   34.98000     -2.9632472E-08
   35.04000     -2.8148127E-08
   35.10000     -2.6615918E-08
   35.16000     -2.5059860E-08
   35.22000     -2.3520009E-08
   35.28000     -2.2040455E-08
   35.34000     -2.0656520E-08
   35.40000     -1.9385292E-08
   35.46000     -1.8222339E-08
   35.52000     -1.7145268E-08
   35.58000     -1.6122511E-08
   35.64000     -1.5124266E-08
   35.70000     -1.4132074E-08
   35.76000     -1.3144261E-08
   35.82000     -1.2176040E-08
   35.88000     -1.1254777E-08
   35.94000     -1.0412337E-08
   36.00000     -9.6769837E-09
   36.06000     -9.0671000E-09
   36.12000     -8.5879650E-09
   36.18000     -8.2317513E-09
   36.24000     -7.9799030E-09
   36.30000     -7.8067366E-09
   36.36000     -7.6832896E-09
   36.42000     -7.5809785E-09
   36.48000     -7.4750863E-09
   36.54000     -7.3481856E-09
   36.60000     -7.1932655E-09
   36.66000     -7.0158634E-09
   36.72000     -6.8342505E-09
   36.78000     -6.6770278E-09
   36.84000     -6.5783157E-09
   36.90000     -6.5716628E-09
   36.96000     -6.6844170E-09
   37.02000     -6.9341231E-09
   37.08000     -7.3276505E-09
   37.14000     -7.8626048E-09
   37.20000     -8.5297449E-09
   37.26000     -9.3150527E-09
   37.32000     -1.0200796E-08
   37.38000     -1.1165840E-08
   37.44000     -1.2186160E-08
   37.50000     -1.3236399E-08
   37.56000     -1.4292684E-08
   37.62000     -1.5336090E-08
   37.68000     -1.6355656E-08
   37.74000     -1.7350104E-08
   37.80000     -1.8327952E-08
   37.86000     -1.9306393E-08
   37.92000     -2.0309404E-08
   37.98000     -2.1365336E-08
   38.04000     -2.2503794E-08
   38.10000     -2.3751522E-08
   38.16000     -2.5127459E-08
   38.22000     -2.6637908E-08
   38.28000     -2.8273266E-08
   38.34000     -3.0007776E-08
   38.40000     -3.1802720E-08
   38.46000     -3.3612444E-08
   38.52000     -3.5391349E-08
   38.58000     -3.7099959E-08
   38.64000     -3.8708507E-08
   38.70000     -4.0197744E-08
   38.76000     -4.1557492E-08
   38.82000     -4.2784070E-08
   38.88000     -4.3877659E-08
   38.94000     -4.4840153E-08
   39.00000     -4.5673751E-08
   39.06000     -4.6380183E-08
   39.12000     -4.6960437E-08
   39.18000     -4.7414819E-08
   39.24000     -4.7743278E-08
   39.30000     -4.7945907E-08
   39.36000     -4.8023399E-08
   39.42000     -4.7977586E-08
   39.48000     -4.7811913E-08
   39.54000     -4.7531994E-08
   39.60000     -4.7146202E-08
   39.66000     -4.6665978E-08
   39.72000     -4.6105598E-08
   39.78000     -4.5481073E-08
   39.84000     -4.4808150E-08
   39.90000     -4.4099814E-08
   39.96000     -4.3363880E-08
   40.02000     -4.2601403E-08
   40.08000     -4.1806519E-08
   40.14000     -4.0967819E-08
   40.20000     -4.0071097E-08
   40.26000     -3.9102954E-08
   40.32000     -3.8054548E-08
   40.38000     -3.6924821E-08
   40.44000     -3.5722486E-08
   40.50000     -3.4466421E-08
   40.56000     -3.3184058E-08
   40.62000     -3.1907916E-08
   40.68000     -3.0670801E-08
   40.74000     -2.9500553E-08
   40.80000     -2.8415766E-08
   40.86000     -2.7423754E-08
   40.92000     -2.6521702E-08
   40.98000     -2.5700976E-08
   41.04000     -2.4953586E-08
   41.10000     -2.4278849E-08
   41.16000     -2.3687960E-08
   41.22000     -2.3204731E-08
   41.28000     -2.2861753E-08
   41.34000     -2.2692833E-08
   41.40000     -2.2723620E-08
   41.46000     -2.2963187E-08
   41.52000     -2.3398966E-08
   41.58000     -2.3996776E-08
   41.64000     -2.4706161E-08
   41.70000     -2.5470023E-08
   41.76000     -2.6236300E-08
   41.82000     -2.6968802E-08
   41.88000     -2.7654458E-08
   41.94000     -2.8305072E-08
   42.00000     -2.8953126E-08
   42.06000     -2.9642791E-08
   42.12000     -3.0418629E-08
   42.18000     -3.1314901E-08
   42.24000     -3.2348105E-08
   42.30000     -3.3514034E-08
   42.36000     -3.4789498E-08
   42.42000     -3.6137468E-08
   42.48000     -3.7514081E-08
   42.54000     -3.8875736E-08
   42.60000     -4.0184972E-08
   42.66000     -4.1414307E-08
   42.72000     -4.2547725E-08
   42.78000     -4.3579991E-08
   42.84000     -4.4514461E-08
   42.90000     -4.5360302E-08
   42.96000     -4.6129937E-08
   43.02000     -4.6837087E-08
   43.08000     -4.7495266E-08
   43.14000     -4.8115940E-08
   43.20000     -4.8705889E-08
   43.26000     -4.9263914E-08
   43.32000     -4.9777935E-08
   43.38000     -5.0224063E-08
   43.44000     -5.0569003E-08
   43.50000     -5.0775899E-08
   43.56000     -5.0812314E-08
   43.62000     -5.0657828E-08
   43.68000     -5.0308721E-08
   43.74000     -4.9778144E-08
   43.80000     -4.9091753E-08
   43.86000     -4.8280441E-08
   43.92000     -4.7372612E-08
   43.98000     -4.6388354E-08
   44.04000     -4.5337011E-08
   44.10000     -4.4218460E-08
   44.16000     -4.3027352E-08
   44.22000     -4.1758788E-08
   44.28000     -4.0413656E-08
   44.34000     -3.9002110E-08
   44.40000     -3.7544055E-08
   44.46000     -3.6066428E-08
   44.52000     -3.4597935E-08
   44.58000     -3.3162646E-08
   44.64000     -3.1774380E-08
   44.70000     -3.0433565E-08
   44.76000     -2.9127580E-08
   44.82000     -2.7834501E-08
   44.88000     -2.6529088E-08
   44.94000     -2.5189260E-08
   45.00000     -2.3801242E-08
   45.06000     -2.2362203E-08
   45.12000     -2.0880098E-08
   45.18000     -1.9371369E-08
   45.24000     -1.7857593E-08
   45.30000     -1.6362165E-08
   45.36000     -1.4907688E-08
   45.42000     -1.3514089E-08
   45.48000     -1.2197212E-08
   45.54000     -1.0967602E-08
   45.60000     -9.8295398E-09
   45.66000     -8.7807566E-09
   45.72000     -7.8133802E-09
   45.78000     -6.9163550E-09
   45.84000     -6.0789938E-09
   45.90000     -5.2946927E-09
   45.96000     -4.5636090E-09
   46.02000     -3.8933110E-09
   46.08000     -3.2970446E-09
   46.14000     -2.7900513E-09
   46.20000     -2.3849331E-09
   46.26000     -2.0873168E-09
   46.32000     -1.8929309E-09
   46.38000     -1.7868781E-09
   46.44000     -1.7454237E-09
   46.50000     -1.7401541E-09
   46.56000     -1.7438244E-09
   46.62000     -1.7367382E-09
   46.68000     -1.7121407E-09
   46.74000     -1.6790849E-09
   46.80000     -1.6616654E-09
   46.86000     -1.6943865E-09
   46.92000     -1.8144921E-09
   46.98000     -2.0530104E-09
   47.04000     -2.4267057E-09
   47.10000     -2.9329601E-09
   47.16000     -3.5489067E-09
   47.22000     -4.2351305E-09
   47.28000     -4.9432529E-09
   47.34000     -5.6259268E-09
   47.40000     -6.2472809E-09
   47.46000     -6.7917378E-09
   47.52000     -7.2693438E-09
   47.58000     -7.7163644E-09
   47.64000     -8.1908826E-09
   47.70000     -8.7643466E-09
   47.76000     -9.5112069E-09
   47.82000     -1.0499488E-08
   47.88000     -1.1785017E-08
   47.94000     -1.3410991E-08
   48.00000     -1.5412882E-08
   48.06000     -1.7827031E-08
   48.12000     -2.0700320E-08
   48.18000     -2.4098478E-08
   48.24000     -2.8111620E-08
   48.30000     -3.2857031E-08
   48.36000     -3.8480120E-08
   48.42000     -4.5154639E-08
   48.48000     -5.3082807E-08
   48.54000     -6.2495545E-08
   48.60000     -7.3653126E-08
   48.66000     -8.6847102E-08
   48.72000     -1.0240500E-07
   48.78000     -1.2069921E-07
   48.84000     -1.4216029E-07
   48.90000     -1.6729329E-07
   48.96000     -1.9669453E-07
   49.02000     -2.3106564E-07
   49.08000     -2.7122363E-07
   49.14000     -3.1810663E-07
   49.20000     -3.7277749E-07
   49.26000     -4.3642740E-07
   49.32000     -5.1038171E-07
   49.38000     -5.9611040E-07
   49.44000     -6.9524407E-07
   49.50000     -8.0959740E-07
   49.56000     -9.4120048E-07
   49.62000     -1.0923363E-06
   49.68000     -1.2655810E-06
   49.74000     -1.4638413E-06
   49.80000     -1.6903833E-06
   49.86000     -1.9488509E-06
   49.92000     -2.2432755E-06
   49.98000     -2.5780812E-06
   50.04000     -2.9580945E-06
   50.10000     -3.3885597E-06
   50.16000     -3.8751682E-06
   50.22000     -4.4240933E-06
   50.28000     -5.0420308E-06
   50.34000     -5.7362404E-06
   50.40000     -6.5145855E-06
   50.46000     -7.3855631E-06
   50.52000     -8.3583254E-06
   50.58000     -9.4426832E-06
   50.64000     -1.0649099E-05
   50.70000     -1.1988669E-05
   50.76000     -1.3473114E-05
   50.82000     -1.5114761E-05
   50.88000     -1.6926544E-05
   50.94000     -1.8922010E-05
   51.00000     -2.1115302E-05
   51.06000     -2.3521154E-05
   51.12000     -2.6154852E-05
   51.18000     -2.9032175E-05
   51.24000     -3.2169326E-05
   51.30000     -3.5582863E-05
   51.36000     -3.9289585E-05
   51.42000     -4.3306456E-05
   51.48000     -4.7650497E-05
   51.54000     -5.2338681E-05
   51.60000     -5.7387810E-05
   51.66000     -6.2814412E-05
   51.72000     -6.8634625E-05
   51.78000     -7.4864045E-05
   51.84000     -8.1517603E-05
   51.90000     -8.8609369E-05
   51.96000     -9.6152406E-05
   52.02000     -1.0415856E-04
   52.08000     -1.1263831E-04
   52.14000     -1.2160061E-04
   52.20000     -1.3105269E-04
   52.26000     -1.4100004E-04
   52.32000     -1.5144616E-04
   52.38000     -1.6239249E-04
   52.44000     -1.7383831E-04
   52.50000     -1.8578061E-04
   52.56000     -1.9821389E-04
   52.62000     -2.1113023E-04
   52.68000     -2.2451901E-04
   52.74000     -2.3836698E-04
   52.80000     -2.5265812E-04
   52.86000     -2.6737378E-04
   52.92000     -2.8249261E-04
   52.98000     -2.9799074E-04
   53.04000     -3.1384191E-04
   53.10000     -3.3001744E-04
   53.16000     -3.4648651E-04
   53.22000     -3.6321618E-04
   53.28000     -3.8017170E-04
   53.34000     -3.9731644E-04
   53.40000     -4.1461253E-04
   53.46000     -4.3202078E-04
   53.52000     -4.4950098E-04
   53.58000     -4.6701232E-04
   53.64000     -4.8451364E-04
   53.70000     -5.0196389E-04
   53.76000     -5.1932217E-04
   53.82000     -5.3654856E-04
   53.88000     -5.5360392E-04
   53.94000     -5.7045044E-04
   54.00000     -5.8705179E-04
   54.06000     -6.0337351E-04
   54.12000     -6.1938335E-04
   54.18000     -6.3505134E-04
   54.24000     -6.5035024E-04
   54.30000     -6.6525571E-04
   54.36000     -6.7974627E-04
   54.42000     -6.9380383E-04
   54.48000     -7.0741359E-04
   54.54000     -7.2056398E-04
   54.60000     -7.3324697E-04
   54.66000     -7.4545789E-04
   54.72000     -7.5719523E-04
   54.78000     -7.6846109E-04
   54.84000     -7.7926036E-04
   54.90000     -7.8960083E-04
   54.96000     -7.9949317E-04
   55.02000     -8.0895057E-04
   55.08000     -8.1798859E-04
   55.14000     -8.2662475E-04
   55.20000     -8.3487836E-04
   55.26000     -8.4277033E-04
   55.32000     -8.5032237E-04
   55.38000     -8.5755729E-04
   55.44000     -8.6449797E-04
   55.50000     -8.7116734E-04
   55.56000     -8.7758817E-04