  -2.400000      0.0000000E+00
  -2.340000      0.0000000E+00
  -2.280000      0.0000000E+00
  -2.220000      0.0000000E+00
  -2.160000      0.0000000E+00
  -2.100000      0.0000000E+00
  -2.040000      0.0000000E+00
  -1.980000      0.0000000E+00
  -1.920000     -3.4832227E-26
  -1.860000     -4.4445927E-25
  -1.800000     -2.9001562E-24
  -1.740000     -1.2837264E-23
  -1.680000     -4.3060263E-23
  -1.620000     -1.1540693E-22
  -1.560000     -2.5190974E-22
  -1.500000     -4.3965826E-22
  -1.440000     -5.4995056E-22
  -1.380000     -2.0896581E-22
  -1.320000      1.3163305E-21
  -1.260000      5.0196514E-21
  -1.200000      1.1507953E-20
  -1.140000      1.9535261E-20
  -1.080000      2.4025026E-20
  -1.020000      1.5067460E-20
 -0.9600000     -1.9460500E-20
 -0.9000000     -8.5414179E-20
 -0.8400000     -1.6950172E-19
 -0.7800000     -2.3031668E-19
 -0.7200000     -2.0734534E-19
 -0.6600000     -5.8508947E-20
 -0.6000000      1.8289268E-19
 -0.5400000      3.7305817E-19
 -0.4800000      3.0809229E-19
 -0.4200000     -9.8667835E-20
 -0.3600000     -5.6224723E-19
 -0.3000000     -2.8131019E-19
 -0.2400000      1.8198604E-18
 -0.1800000      6.2763065E-18
 -0.1200000      1.1864652E-17
 -5.9999999E-02  1.4690389E-17
  0.0000000E+00  8.6858506E-18
  5.9999999E-02 -1.1577167E-17
  0.1200000     -4.5973501E-17
  0.1800000     -8.3859829E-17
  0.2400000     -1.0275589E-16
  0.3000000     -7.4432961E-17
  0.3600000      2.0470419E-17
  0.4200000      1.7338494E-16
  0.4800000      3.3406990E-16
  0.5400000      4.1453597E-16
  0.6000000      3.1890849E-16
  0.6600000     -4.1704106E-18
  0.7200000     -5.0584929E-16
  0.7800000     -1.0095411E-15
  0.8400000     -1.2423587E-15
  0.9000000     -9.3713925E-16
  0.9600000      1.8094612E-17
   1.020000      1.4435868E-15
   1.080000      2.8242683E-15
   1.140000      3.4234745E-15
   1.200000      2.5617762E-15
   1.260000     -1.3970450E-17
   1.320000     -3.8216543E-15
   1.380000     -7.5722272E-15
   1.440000     -9.4606465E-15
   1.500000     -7.8133910E-15
   1.560000     -1.9136772E-15
   1.620000      7.3189017E-15
   1.680000      1.7156166E-14
   1.740000      2.3640966E-14
   1.800000      2.2897223E-14
   1.860000      1.2813382E-14
   1.920000     -5.5307681E-15
   1.980000     -2.7393040E-14
   2.040000     -4.5329280E-14
   2.100000     -5.1563009E-14
   2.160000     -4.1115061E-14
   2.220000     -1.4531325E-14
   2.280000      2.1091425E-14
   2.340000      5.3679412E-14
   2.400000      7.0338707E-14
   2.460000      6.2916543E-14
   2.520000      3.2828713E-14
   2.580000     -7.2568006E-15
   2.640000     -3.6558593E-14
   2.700000     -3.4134608E-14
   2.760000      1.0519685E-14
   2.820000      8.8206250E-14
   2.880000      1.6665448E-13
   2.940000      1.9640393E-13
   3.000000      1.2638470E-13
   3.060000     -7.4169227E-14
   3.120000     -3.9420450E-13
   3.180000     -7.6799884E-13
   3.240000     -1.0780762E-12
   3.300000     -1.1771561E-12
   3.360000     -9.2690590E-13
   3.420000     -2.4570672E-13
   3.480000      8.4636340E-13
   3.540000      2.1984831E-12
   3.600000      3.5275175E-12
   3.660000      4.4512111E-12
   3.720000      4.5571520E-12
   3.780000      3.5008676E-12
   3.840000      1.1180677E-12
   3.900000     -2.4718634E-12
   3.960000     -6.7997231E-12
   4.020000     -1.1047094E-11
   4.080000     -1.4136391E-11
   4.140000     -1.4917279E-11
   4.200000     -1.2432682E-11
   4.260000     -6.2202231E-12
   4.320000      3.4189268E-12
   4.380000      1.5263858E-11
   4.440000      2.7203765E-11
   4.500000      3.6498863E-11
   4.560000      4.0269555E-11
   4.620000      3.6151967E-11
   4.680000      2.3000223E-11
   4.740000      1.4740601E-12
   4.800000     -2.5660613E-11
   4.860000     -5.3661246E-11
   4.920000     -7.6438675E-11
   4.980000     -8.7650512E-11
   5.040000     -8.2097946E-11
   5.100000     -5.7157123E-11
   5.160000     -1.3914252E-11
   5.220000      4.2315592E-11
   5.280000      1.0231110E-10
   5.340000      1.5416768E-10
   5.400000      1.8527786E-10
   5.460000      1.8473803E-10
   5.520000      1.4572989E-10
   5.580000      6.7403881E-11
   5.640000     -4.4116849E-11
   5.700000     -1.7581520E-10
   5.760000     -3.0892286E-10
   5.820000     -4.2089901E-10
   5.880000     -4.8786702E-10
   5.940000     -4.8707322E-10
   6.000000     -3.9896833E-10
   6.060000     -2.0863201E-10
   6.120000      9.3570283E-11
   6.180000      5.1202975E-10
   6.240000      1.0464131E-09
   6.300000      1.6923499E-09
   6.360000      2.4419780E-09
   6.420000      3.2841279E-09
   6.480000      4.2040966E-09
   6.540000      5.1831535E-09
   6.600000      6.1980838E-09
   6.660000      7.2211574E-09
   6.720000      8.2208436E-09
   6.780000      9.1634096E-09
   6.840000      1.0015315E-08
   6.900000      1.0746011E-08
   6.960000      1.1330672E-08
   7.020000      1.1752332E-08
   7.080000      1.2003073E-08
   7.140000      1.2084191E-08
   7.200000      1.2005440E-08
   7.260000      1.1783706E-08
   7.320000      1.1441355E-08
   7.380000      1.1004484E-08
   7.440000      1.0501017E-08
   7.500000      9.9584971E-09
   7.560000      9.4014112E-09
   7.620000      8.8480636E-09
   7.680000      8.3073246E-09
   7.740000      7.7759221E-09
   7.800000      7.2371473E-09
   7.860000      6.6617969E-09
   7.920000      6.0118133E-09
   7.980000      5.2464726E-09
   8.040000      4.3302228E-09
   8.100000      3.2406713E-09
   8.160000      1.9749200E-09
   8.220000      5.5261418E-10
   8.280000     -9.8528286E-10
   8.340000     -2.5819857E-09
   8.400000     -4.1735837E-09
   8.460000     -5.6990035E-09
   8.520000     -7.1089339E-09
   8.580000     -8.3716207E-09
   8.640000     -9.4742596E-09
   8.700000     -1.0419879E-08
   8.760000     -1.1220828E-08
   8.820000     -1.1890886E-08
   8.880000     -1.2438388E-08
   8.940000     -1.2862399E-08
   9.000000     -1.3153111E-08
   9.060000     -1.3296324E-08
   9.120000     -1.3280736E-08
   9.180000     -1.3105881E-08
   9.240000     -1.2788410E-08
   9.300000     -1.2364825E-08
   9.360000     -1.1889839E-08
   9.420000     -1.1430712E-08
   9.480000     -1.1058952E-08
   9.540000     -1.0841362E-08
   9.600000     -1.0832347E-08
   9.660000     -1.1068798E-08
   9.720000     -1.1567994E-08
   9.780000     -1.2328039E-08
   9.840000     -1.3329881E-08
   9.900000     -1.4539779E-08
   9.960000     -1.5911526E-08
   10.02000     -1.7388286E-08
   10.08000     -1.8904490E-08
   10.14000     -2.0388534E-08
   10.20000     -2.1766915E-08
   10.26000     -2.2969980E-08
   10.32000     -2.3938673E-08
   10.38000     -2.4631145E-08
   10.44000     -2.5027539E-08
   10.50000     -2.5131532E-08
   10.56000     -2.4967800E-08
   10.62000     -2.4575630E-08
   10.68000     -2.4000093E-08
   10.74000     -2.3283059E-08
   10.80000     -2.2456677E-08
   10.86000     -2.1541245E-08
   10.92000     -2.0548258E-08
   10.98000     -1.9487599E-08
   11.04000     -1.8376337E-08
   11.10000     -1.7245796E-08
   11.16000     -1.6143860E-08
   11.22000     -1.5130835E-08
   11.28000     -1.4269386E-08
   11.34000     -1.3611076E-08
   11.40000     -1.3183512E-08
   11.46000     -1.2982166E-08
   11.52000     -1.2969698E-08
   11.58000     -1.3083397E-08
   11.64000     -1.3248825E-08
   11.70000     -1.3395759E-08
   11.76000     -1.3471782E-08
   11.82000     -1.3449506E-08
   11.88000     -1.3325388E-08
   11.94000     -1.3110710E-08
   12.00000     -1.2817789E-08
   12.06000     -1.2446133E-08
   12.12000     -1.1973401E-08
   12.18000     -1.1354722E-08
   12.24000     -1.0531429E-08
   12.30000     -9.4472776E-09
   12.36000     -8.0677713E-09
   12.42000     -6.3968995E-09
   12.48000     -4.4860382E-09
   12.54000     -2.4318123E-09
   12.60000     -3.6276918E-10
   12.66000      1.5820800E-09
   12.72000      3.2774592E-09
   12.78000      4.6325797E-09
   12.84000      5.6032539E-09
   12.90000      6.1926388E-09
   12.96000      6.4410628E-09
   13.02000      6.4083601E-09
   13.08000      6.1540910E-09
   13.14000      5.7213771E-09
   13.20000      5.1288294E-09
   13.26000      4.3725046E-09
   13.32000      3.4367631E-09
   13.38000      2.3101510E-09
   13.44000      1.0008685E-09
   13.50000     -4.5354837E-10
   13.56000     -1.9859101E-09
   13.62000     -3.5090093E-09
   13.68000     -4.9325113E-09
   13.74000     -6.1818803E-09
   13.80000     -7.2132771E-09
   13.86000     -8.0195131E-09
   13.92000     -8.6250047E-09
   13.98000     -9.0712851E-09
   14.04000     -9.3977919E-09
   14.10000     -9.6242738E-09
   14.16000     -9.7406501E-09
   14.22000     -9.7077288E-09
   14.28000     -9.4686303E-09
   14.34000     -8.9672616E-09
   14.40000     -8.1678957E-09
   14.46000     -7.0695205E-09
   14.52000     -5.7102514E-09
   14.58000     -4.1601562E-09
   14.64000     -2.5043985E-09
   14.70000     -8.2155854E-10
   14.76000      8.3654478E-10
   14.82000      2.4576241E-09
   14.88000      4.0705692E-09
   14.94000      5.7355081E-09
   15.00000      7.5252107E-09
   15.06000      9.5032160E-09
   15.12000      1.1704903E-08
   15.18000      1.4126679E-08
   15.24000      1.6725959E-08
   15.30000      1.9431349E-08
   15.36000      2.2159616E-08
   15.42000      2.4834350E-08
   15.48000      2.7401065E-08
   15.54000      2.9835096E-08
   15.60000      3.2140900E-08
   15.66000      3.4344030E-08
   15.72000      3.6478990E-08
   15.78000      3.8576943E-08
   15.84000      4.0656914E-08
   15.90000      4.2722725E-08
   15.96000      4.4765805E-08
   16.02000      4.6772296E-08
   16.08000      4.8731405E-08
   16.14000      5.0641589E-08
   16.20000      5.2511961E-08
   16.26000      5.4357855E-08
   16.32000      5.6191528E-08
   16.38000      5.8010993E-08
   16.44000      5.9790814E-08
   16.50000      6.1478737E-08
   16.56000      6.3000222E-08
   16.62000      6.4270807E-08
   16.68000      6.5213491E-08
   16.74000      6.5776682E-08
   16.80000      6.5947610E-08
   16.86000      6.5757334E-08
   16.92000      6.5275621E-08
   16.98000      6.4597174E-08
   17.04000      6.3822796E-08
   17.10000      6.3040538E-08
   17.16000      6.2311862E-08
   17.22000      6.1665901E-08
   17.28000      6.1102455E-08
   17.34000      6.0601934E-08
   17.40000      6.0138312E-08
   17.46000      5.9690962E-08
   17.52000      5.9251612E-08
   17.58000      5.8825048E-08
   17.64000      5.8423787E-08
   17.70000      5.8059381E-08
   17.76000      5.7733399E-08
   17.82000      5.7431375E-08
   17.88000      5.7121493E-08
   17.94000      5.6758356E-08
   18.00000      5.6290581E-08
   18.06000      5.5669911E-08
   18.12000      5.4859463E-08
   18.18000      5.3839099E-08
   18.24000      5.2607035E-08
   18.30000      5.1177739E-08
   18.36000      4.9577146E-08
   18.42000      4.7836597E-08
   18.48000      4.5986987E-08
   18.54000      4.4054158E-08
   18.60000      4.2056225E-08
   18.66000      4.0002785E-08
   18.72000      3.7895703E-08
   18.78000      3.5730917E-08
   18.84000      3.3500708E-08
   18.90000      3.1196070E-08
   18.96000      2.8808916E-08
   19.02000      2.6334007E-08
   19.08000      2.3770456E-08
   19.14000      2.1122725E-08
   19.20000      1.8400931E-08
   19.26000      1.5620481E-08
   19.32000      1.2801179E-08
   19.38000      9.9661621E-09
   19.44000      7.1410935E-09
   19.50000      4.3538675E-09
   19.56000      1.6347691E-09
   19.62000     -9.8339703E-10
   19.68000     -3.4659864E-09
   19.74000     -5.7787108E-09
   19.80000     -7.8916358E-09
   19.86000     -9.7845092E-09
   19.92000     -1.1452178E-08
   19.98000     -1.2908334E-08
   20.04000     -1.4185892E-08
   20.10000     -1.5332946E-08
   20.16000     -1.6404449E-08
   20.22000     -1.7451155E-08
   20.28000     -1.8508398E-08
   20.34000     -1.9587839E-08
   20.40000     -2.0674774E-08
   20.46000     -2.1732331E-08
   20.52000     -2.2711939E-08
   20.58000     -2.3567537E-08
   20.64000     -2.4269712E-08
   20.70000     -2.4815630E-08
   20.76000     -2.5231838E-08
   20.82000     -2.5568955E-08
   20.88000     -2.5889806E-08
   20.94000     -2.6254536E-08
   21.00000     -2.6707076E-08
   21.06000     -2.7266768E-08
   21.12000     -2.7927181E-08
   21.18000     -2.8661749E-08
   21.24000     -2.9433862E-08
   21.30000     -3.0207886E-08
   21.36000     -3.0957789E-08
   21.42000     -3.1671156E-08
   21.48000     -3.2348044E-08
   21.54000     -3.2995800E-08
   21.60000     -3.3621774E-08
   21.66000     -3.4226371E-08
   21.72000     -3.4798429E-08
   21.78000     -3.5314251E-08
   21.84000     -3.5740641E-08
   21.90000     -3.6041463E-08
   21.96000     -3.6186204E-08
   22.02000     -3.6158468E-08
   22.08000     -3.5961992E-08
   22.14000     -3.5622190E-08
   22.20000     -3.5182289E-08
   22.26000     -3.4694580E-08
   22.32000     -3.4209098E-08
   22.38000     -3.3762934E-08
   22.44000     -3.3373574E-08
   22.50000     -3.3038582E-08
   22.56000     -3.2741834E-08
   22.62000     -3.2464417E-08
   22.68000     -3.2196525E-08
   22.74000     -3.1946310E-08
   22.80000     -3.1742385E-08
   22.86000     -3.1628886E-08
   22.92000     -3.1654416E-08
   22.98000     -3.1858178E-08
   23.04000     -3.2257823E-08
   23.10000     -3.2842870E-08
   23.16000     -3.3576082E-08
   23.22000     -3.4402490E-08
   23.28000     -3.5263572E-08
   23.34000     -3.6112301E-08
   23.40000     -3.6924718E-08
   23.46000     -3.7704680E-08
   23.52000     -3.8480653E-08
   23.58000     -3.9295923E-08
   23.64000     -4.0195378E-08
   23.70000     -4.1212957E-08
   23.76000     -4.2363244E-08
   23.82000     -4.3639179E-08
   23.88000     -4.5015732E-08
   23.94000     -4.6457732E-08
   24.00000     -4.7928928E-08
   24.06000     -4.9399418E-08
   24.12000     -5.0849479E-08
   24.18000     -5.2269133E-08
   24.24000     -5.3654233E-08
   24.30000     -5.5000751E-08
   24.36000     -5.6299442E-08
   24.42000     -5.7532795E-08
   24.48000     -5.8675528E-08
   24.54000     -5.9698699E-08
   24.60000     -6.0576525E-08
   24.66000     -6.1293910E-08
   24.72000     -6.1852269E-08
   24.78000     -6.2271418E-08
   24.84000     -6.2586153E-08
   24.90000     -6.2837877E-08
   24.96000     -6.3063091E-08
   25.02000     -6.3282044E-08
   25.08000     -6.3491200E-08
   25.14000     -6.3662178E-08
   25.20000     -6.3748125E-08
   25.26000     -6.3695957E-08
   25.32000     -6.3460952E-08
   25.38000     -6.3019208E-08
   25.44000     -6.2374376E-08
   25.50000     -6.1556754E-08
   25.56000     -6.0615726E-08
   25.62000     -5.9608425E-08
   25.68000     -5.8588608E-08
   25.74000     -5.7599099E-08
   25.80000     -5.6669318E-08
   25.86000     -5.5817427E-08
   25.92000     -5.5054770E-08
   25.98000     -5.4389972E-08
   26.04000     -5.3830746E-08
   26.10000     -5.3382841E-08
   26.16000     -5.3047120E-08
   26.22000     -5.2816389E-08
   26.28000     -5.2673620E-08
   26.34000     -5.2592306E-08
   26.40000     -5.2538780E-08
   26.46000     -5.2475738E-08
   26.52000     -5.2366111E-08
   26.58000     -5.2176869E-08
   26.64000     -5.1882637E-08
   26.70000     -5.1469243E-08
   26.76000     -5.0936851E-08
   26.82000     -5.0301878E-08
   26.88000     -4.9596515E-08
   26.94000     -4.8865008E-08
   27.00000     -4.8156636E-08
   27.06000     -4.7516387E-08
   27.12000     -4.6975554E-08
   27.18000     -4.6544514E-08
   27.24000     -4.6209752E-08
   27.30000     -4.5935764E-08
   27.36000     -4.5671342E-08
   27.42000     -4.5358469E-08
   27.48000     -4.4941647E-08
   27.54000     -4.4375764E-08
   27.60000     -4.3631143E-08
   27.66000     -4.2695575E-08
   27.72000     -4.1573603E-08
   27.78000     -4.0283950E-08
   27.84000     -3.8855916E-08
   27.90000     -3.7325350E-08
   27.96000     -3.5730579E-08
   28.02000     -3.4108318E-08
   28.08000     -3.2489790E-08
   28.14000     -3.0897326E-08
   28.20000     -2.9341994E-08
   28.26000     -2.7823088E-08
   28.32000     -2.6329900E-08
   28.38000     -2.4845830E-08
   28.44000     -2.3353968E-08
   28.50000     -2.1842643E-08
   28.56000     -2.0309194E-08
   28.62000     -1.8760556E-08
   28.68000     -1.7210445E-08
   28.74000     -1.5674145E-08
   28.80000     -1.4162927E-08
   28.86000     -1.2680403E-08
   28.92000     -1.1222286E-08
   28.98000     -9.7796660E-09
   29.04000     -8.3443705E-09
   29.10000     -6.9141088E-09
   29.16000     -5.4952074E-09
   29.22000     -4.1019366E-09
   29.28000     -2.7529925E-09
   29.34000     -1.4670305E-09
   29.40000     -2.5954933E-10
   29.46000      8.5731794E-10
   29.52000      1.8720323E-09
   29.58000      2.7694194E-09
   29.64000      3.5274252E-09
   29.70000      4.1171107E-09
   29.76000      4.5069068E-09
   29.82000      4.6704178E-09
   29.88000      4.5954964E-09
   29.94000      4.2916142E-09
   30.00000      3.7928798E-09
   30.06000      3.1553129E-09
   30.12000      2.4486364E-09
   30.18000      1.7443824E-09
   30.24000      1.1030528E-09
   30.30000      5.6328836E-10
   30.36000      1.3544972E-10
   30.42000     -1.9905458E-10
   30.48000     -4.8271820E-10
   30.54000     -7.7254253E-10
   30.60000     -1.1286884E-09
   30.66000     -1.6039887E-09
   30.72000     -2.2367685E-09
   30.78000     -3.0483247E-09
   30.84000     -4.0448813E-09
   30.90000     -5.2223954E-09
   30.96000     -6.5717916E-09
   31.02000     -8.0823837E-09
   31.08000     -9.7423465E-09
   31.14000     -1.1536620E-08
   31.20000     -1.3443873E-08
   31.26000     -1.5434550E-08
   31.32000     -1.7471333E-08
   31.38000     -1.9512042E-08
   31.44000     -2.1513609E-08
   31.50000     -2.3435209E-08
   31.56000     -2.5239062E-08
   31.62000     -2.6888694E-08
   31.68000     -2.8345985E-08
   31.74000     -2.9569104E-08
   31.80000     -3.0513284E-08
   31.86000     -3.1135194E-08
   31.92000     -3.1400074E-08
   31.98000     -3.1289556E-08
   32.04000     -3.0807698E-08
   32.10000     -2.9983394E-08
   32.16000     -2.8868522E-08
   32.22000     -2.7532259E-08
   32.28000     -2.6052899E-08
   32.34000     -2.4508553E-08
   32.40000     -2.2968070E-08
   32.46000     -2.1483210E-08
   32.52000     -2.0083219E-08
   32.58000     -1.8772813E-08
   32.64000     -1.7534461E-08
   32.70000     -1.6335081E-08
   32.76000     -1.5136242E-08
   32.82000     -1.3905757E-08
   32.88000     -1.2627895E-08
   32.94000     -1.1309679E-08
   33.00000     -9.9817541E-09
   33.06000     -8.6939096E-09
   33.12000     -7.5068600E-09
   33.18000     -6.4826624E-09
   33.24000     -5.6761431E-09
   33.30000     -5.1289302E-09
   33.36000     -4.8666435E-09
   33.42000     -4.8988569E-09
   33.48000     -5.2209486E-09
   33.54000     -5.8168683E-09
   33.60000     -6.6620696E-09
   33.66000     -7.7261486E-09
   33.72000     -8.9750332E-09
   33.78000     -1.0372758E-08
   33.84000     -1.1882951E-08
   33.90000     -1.3470172E-08
   33.96000     -1.5101110E-08
   34.02000     -1.6745417E-08
   34.08000     -1.8375852E-08
   34.14000     -1.9967459E-08
   34.20000     -2.1495840E-08
   34.26000     -2.2935149E-08
   34.32000     -2.4256916E-08
   34.38000     -2.5430825E-08
   34.44000     -2.6427951E-08
   34.50000     -2.7225923E-08
   34.56000     -2.7814277E-08
   34.62000     -2.8197864E-08
   34.68000     -2.8396530E-08
   34.74000     -2.8440791E-08
   34.80000     -2.8364941E-08
   34.86000     -2.8200175E-08
   34.92000     -2.7970417E-08
   34.98000     -2.7692153E-08
   35.04000     -2.7377627E-08
   35.10000     -2.7039105E-08
   35.16000     -2.6691332E-08
   35.22000     -2.6350390E-08
   35.28000     -2.6029143E-08
   35.34000     -2.5731435E-08
   35.40000     -2.5448198E-08
   35.46000     -2.5158043E-08
   35.52000     -2.4832879E-08
   35.58000     -2.4447010E-08
   35.64000     -2.3986370E-08
   35.70000     -2.3454456E-08
   35.76000     -2.2872703E-08
   35.82000     -2.2275032E-08
   35.88000     -2.1698410E-08
   35.94000     -2.1172443E-08
   36.00000     -2.0711228E-08
   36.06000     -2.0309905E-08
   36.12000     -1.9946844E-08
   36.18000     -1.9590962E-08
   36.24000     -1.9212093E-08
   36.30000     -1.8791624E-08
   36.36000     -1.8330292E-08
   36.42000     -1.7850850E-08
   36.48000     -1.7394731E-08
   36.54000     -1.7013791E-08
   36.60000     -1.6759998E-08
   36.66000     -1.6676521E-08
   36.72000     -1.6793212E-08
   36.78000     -1.7127313E-08
   36.84000     -1.7687920E-08
   36.90000     -1.8480801E-08
   36.96000     -1.9509937E-08
   37.02000     -2.0773726E-08
   37.08000     -2.2256648E-08
   37.14000     -2.3919858E-08
   37.20000     -2.5695631E-08
   37.26000     -2.7489703E-08
   37.32000     -2.9192833E-08
   37.38000     -3.0699315E-08
   37.44000     -3.1927172E-08
   37.50000     -3.2833896E-08
   37.56000     -3.3422641E-08
   37.62000     -3.3737116E-08
   37.68000     -3.3846948E-08
   37.74000     -3.3828325E-08
   37.80000     -3.3745849E-08
   37.86000     -3.3640930E-08
   37.92000     -3.3529393E-08
   37.98000     -3.3408014E-08
   38.04000     -3.3266762E-08
   38.10000     -3.3101831E-08
   38.16000     -3.2924543E-08
   38.22000     -3.2762706E-08
   38.28000     -3.2653720E-08
   38.34000     -3.2631799E-08
   38.40000     -3.2713832E-08
   38.46000     -3.2889190E-08
   38.52000     -3.3117619E-08
   38.58000     -3.3336509E-08
   38.64000     -3.3475551E-08
   38.70000     -3.3473885E-08
   38.76000     -3.3293823E-08
   38.82000     -3.2926291E-08
   38.88000     -3.2386154E-08
   38.94000     -3.1699333E-08
   39.00000     -3.0886646E-08
   39.06000     -2.9950566E-08
   39.12000     -2.8870165E-08
   39.18000     -2.7606228E-08
   39.24000     -2.6115041E-08
   39.30000     -2.4365903E-08
   39.36000     -2.2356087E-08
   39.42000     -2.0117776E-08
   39.48000     -1.7714299E-08
   39.54000     -1.5226730E-08
   39.60000     -1.2735303E-08
   39.66000     -1.0302008E-08
   39.72000     -7.9602716E-09
   39.78000     -5.7153082E-09
   39.84000     -3.5549388E-09
   39.90000     -1.4670480E-09
   39.96000      5.4252275E-10
   40.02000      2.4381033E-09
   40.08000      4.1527923E-09
   40.14000      5.5984275E-09
   40.20000      6.6839680E-09
   40.26000      7.3365025E-09
   40.32000      7.5182385E-09
   40.38000      7.2342652E-09
   40.44000      6.5290124E-09
   40.50000      5.4731100E-09
   40.56000      4.1453765E-09
   40.62000      2.6159821E-09
   40.68000      9.3601893E-10
   40.74000     -8.6386653E-10
   40.80000     -2.7664686E-09
   40.86000     -4.7562163E-09
   40.92000     -6.8075665E-09
   40.98000     -8.8781480E-09
   41.04000     -1.0909123E-08
   41.10000     -1.2832448E-08
   41.16000     -1.4582236E-08
   41.22000     -1.6106213E-08
   41.28000     -1.7373539E-08
   41.34000     -1.8376964E-08
   41.40000     -1.9129352E-08
   41.46000     -1.9656545E-08
   41.52000     -1.9989299E-08
   41.58000     -2.0156802E-08
   41.64000     -2.0183194E-08
   41.70000     -2.0087084E-08
   41.76000     -1.9883158E-08
   41.82000     -1.9584453E-08
   41.88000     -1.9204178E-08
   41.94000     -1.8756431E-08
   42.00000     -1.8255722E-08
   42.06000     -1.7715537E-08
   42.12000     -1.7146389E-08
   42.18000     -1.6553864E-08
   42.24000     -1.5937283E-08
   42.30000     -1.5289594E-08
   42.36000     -1.4598984E-08
   42.42000     -1.3852211E-08
   42.48000     -1.3038956E-08
   42.54000     -1.2155860E-08
   42.60000     -1.1208630E-08
   42.66000     -1.0210941E-08
   42.72000     -9.1798222E-09
   42.78000     -8.1284641E-09
   42.84000     -7.0582460E-09
   42.90000     -5.9522391E-09
   42.96000     -4.7718816E-09
   43.02000     -3.4575576E-09
   43.08000     -1.9325446E-09
   43.14000     -1.0884008E-10
   43.20000      2.1070712E-09
   43.26000      4.8103117E-09
   43.32000      8.0967535E-09
   43.38000      1.2065653E-08
   43.44000      1.6825471E-08
   43.50000      2.2502126E-08
   43.56000      2.9248762E-08
   43.62000      3.7256189E-08
   43.68000      4.6763390E-08
   43.74000      5.8067663E-08
   43.80000      7.1534139E-08
   43.86000      8.7604434E-08
   43.92000      1.0680461E-07
   43.98000      1.2975268E-07
   44.04000      1.5716654E-07
   44.10000      1.8987379E-07
   44.16000      2.2882479E-07
   44.22000      2.7511058E-07
   44.28000      3.2998619E-07
   44.34000      3.9489979E-07
   44.40000      4.7152619E-07
   44.46000      5.6180426E-07
   44.52000      6.6797605E-07
   44.58000      7.9262765E-07
   44.64000      9.3873183E-07
   44.70000      1.1096929E-06
   44.76000      1.3093962E-06
   44.82000      1.5422634E-06
   44.88000      1.8133142E-06
   44.94000      2.1282349E-06
   45.00000      2.4934525E-06
   45.06000      2.9162125E-06
   45.12000      3.4046600E-06
   45.18000      3.9679230E-06
   45.24000      4.6161999E-06
   45.30000      5.3608501E-06
   45.36000      6.2144954E-06
   45.42000      7.1911290E-06
   45.48000      8.3062296E-06
   45.54000      9.5768828E-06
   45.60000      1.1021910E-05
   45.66000      1.2661987E-05
   45.72000      1.4519772E-05
   45.78000      1.6620012E-05
   45.84000      1.8989651E-05
   45.90000      2.1657917E-05
   45.96000      2.4656418E-05
   46.02000      2.8019202E-05
   46.08000      3.1782842E-05
   46.14000      3.5986475E-05
   46.20000      4.0671883E-05
   46.26000      4.5883509E-05
   46.32000      5.1668485E-05
   46.38000      5.8076603E-05
   46.44000      6.5160304E-05
   46.50000      7.2974566E-05
   46.56000      8.1576807E-05
   46.62000      9.1026748E-05
   46.68000      1.0138618E-04
   46.74000      1.1271874E-04
   46.80000      1.2508967E-04
   46.86000      1.3856543E-04
   46.92000      1.5321342E-04
   46.98000      1.6910151E-04
   47.04000      1.8629764E-04
   47.10000      2.0486931E-04
   47.16000      2.2488306E-04
   47.22000      2.4640386E-04
   47.28000      2.6949449E-04
   47.34000      2.9421487E-04
   47.40000      3.2062142E-04
   47.46000      3.4876619E-04
   47.52000      3.7869631E-04
   47.58000      4.1045304E-04
   47.64000      4.4407119E-04
   47.70000      4.7957830E-04
   47.76000      5.1699381E-04
   47.82000      5.5632857E-04
   47.88000      5.9758389E-04
   47.94000      6.4075098E-04
   48.00000      6.8581069E-04
   48.06000      7.3273247E-04
   48.12000      7.8147429E-04
   48.18000      8.3198218E-04
   48.24000      8.8419009E-04
   48.30000      9.3801960E-04
   48.36000      9.9337986E-04
   48.42000      1.0501678E-03
   48.48000      1.1082686E-03
   48.54000      1.1675553E-03
   48.60000      1.2278900E-03
   48.66000      1.2891244E-03
   48.72000      1.3511002E-03
   48.78000      1.4136502E-03
   48.84000      1.4766003E-03
   48.90000      1.5397692E-03
   48.96000      1.6029706E-03
   49.02000      1.6660145E-03
   49.08000      1.7287084E-03
   49.14000      1.7908596E-03
   49.20000      1.8522763E-03
   49.26000      1.9127694E-03
   49.32000      1.9721547E-03
   49.38000      2.0302543E-03
   49.44000      2.0868978E-03
   49.50000      2.1419255E-03
   49.56000      2.1951885E-03
   49.62000      2.2465510E-03
   49.68000      2.2958911E-03
   49.74000      2.3431028E-03
   49.80000      2.3880973E-03
   49.86000      2.4308036E-03
   49.92000      2.4711699E-03
   49.98000      2.5091630E-03
   50.04000      2.5447700E-03
   50.10000      2.5779982E-03
   50.16000      2.6088732E-03
   50.22000      2.6374408E-03
   50.28000      2.6637653E-03
   50.34000      2.6879294E-03
   50.40000      2.7100330E-03
   50.46000      2.7301915E-03
   50.52000      2.7485350E-03
   50.58000      2.7652064E-03
   50.64000      2.7803588E-03
   50.70000      2.7941547E-03
   50.76000      2.8067629E-03
   50.82000      2.8183572E-03
   50.88000      2.8291133E-03
   50.94000      2.8392067E-03
   51.00000      2.8488114E-03
   51.06000      2.8580972E-03
   51.12000      2.8672267E-03
   51.18000      2.8763530E-03
   51.24000      2.8856196E-03
   51.30000      2.8951566E-03
   51.36000      2.9050801E-03
   51.42000      2.9154902E-03
   51.48000      2.9264705E-03
   51.54000      2.9380869E-03
   51.60000      2.9503859E-03
   51.66000      2.9633956E-03
   51.72000      2.9771249E-03
   51.78000      2.9915641E-03
   51.84000      3.0066846E-03
   51.90000      3.0224393E-03
   51.96000      3.0387652E-03
   52.02000      3.0555832E-03
   52.08000      3.0727996E-03
   52.14000      3.0903080E-03
   52.20000      3.1079913E-03
   52.26000      3.1257228E-03
   52.32000      3.1433699E-03
   52.38000      3.1607966E-03
   52.44000      3.1778626E-03
   52.50000      3.1944292E-03
   52.56000      3.2103586E-03
   52.62000      3.2255179E-03
   52.68000      3.2397811E-03
   52.74000      3.2530301E-03
   52.80000      3.2651578E-03
   52.86000      3.2760696E-03
   52.92000      3.2856837E-03
   52.98000      3.2939338E-03
   53.04000      3.3007697E-03
   53.10000      3.3061572E-03
   53.16000      3.3100799E-03
   53.22000      3.3125379E-03
   53.28000      3.3135500E-03
   53.34000      3.3131507E-03
   53.40000      3.3113922E-03
   53.46000      3.3083414E-03
   53.52000      3.3040794E-03
   53.58000      3.2987010E-03
   53.64000      3.2923117E-03
   53.70000      3.2850271E-03
   53.76000      3.2769705E-03
   53.82000      3.2682717E-03
   53.88000      3.2590639E-03
   53.94000      3.2494818E-03
   54.00000      3.2396601E-03
   54.06000      3.2297301E-03
   54.12000      3.2198185E-03
   54.18000      3.2100449E-03
   54.24000      3.2005203E-03
   54.30000      3.1913454E-03
   54.36000      3.1826077E-03
   54.42000      3.1743832E-03
   54.48000      3.1667314E-03
   54.54000      3.1596962E-03
   54.60000      3.1533055E-03
   54.66000      3.1475695E-03
   54.72000      3.1424810E-03
   54.78000      3.1380162E-03
   54.84000      3.1341338E-03
   54.90000      3.1307763E-03
   54.96000      3.1278711E-03
   55.02000      3.1253302E-03
   55.08000      3.1230527E-03
   55.14000      3.1209250E-03
   55.20000      3.1188242E-03
   55.26000      3.1166172E-03
   55.32000      3.1141653E-03
   55.38000      3.1113238E-03
   55.44000      3.1079454E-03
   55.50000      3.1038823E-03
   55.56000      3.0989880E-03