  -2.400000      0.0000000E+00
  -2.340000      0.0000000E+00
  -2.280000      0.0000000E+00
  -2.220000      0.0000000E+00
  -2.160000      0.0000000E+00
  -2.100000      0.0000000E+00
  -2.040000      0.0000000E+00
  -1.980000      0.0000000E+00
  -1.920000     -9.3042407E-27
  -1.860000     -5.8362543E-26
  -1.800000      8.9925878E-26
  -1.740000      2.7736817E-24
  -1.680000      1.7856810E-23
  -1.620000      7.0523067E-23
  -1.560000      1.9699243E-22
  -1.500000      3.9255402E-22
  -1.440000      4.7309233E-22
  -1.380000     -1.2272962E-22
  -1.320000     -2.3943082E-21
  -1.260000     -7.3058191E-21
  -1.200000     -1.4390057E-20
  -1.140000     -1.9580834E-20
  -1.080000     -1.3589172E-20
  -1.020000      1.6611318E-20
 -0.9600000      8.0551662E-20
 -0.9000000      1.7113211E-19
 -0.8400000      2.5066928E-19
 -0.7800000      2.4700906E-19
 -0.7200000      7.2437938E-20
 -0.6600000     -3.2860998E-19
 -0.6000000     -9.1350198E-19
 -0.5400000     -1.4883407E-18
 -0.4800000     -1.7131412E-18
 -0.4200000     -1.2044102E-18
 -0.3600000      2.5995779E-19
 -0.3000000      2.4881301E-18
 -0.2400000      4.6971534E-18
 -0.1800000      5.5805442E-18
 -0.1200000      3.7720528E-18
 -5.9999999E-02 -1.2699097E-18
  0.0000000E+00 -8.1900211E-18
  5.9999999E-02 -1.3050058E-17
  0.1200000     -9.8685104E-18
  0.1800000      6.8591624E-18
  0.2400000      3.7621316E-17
  0.3000000      7.2708977E-17
  0.3600000      8.9471958E-17
  0.4200000      5.6081151E-17
  0.4800000     -5.5172609E-17
  0.5400000     -2.4598316E-16
  0.6000000     -4.6889790E-16
  0.6600000     -6.1667313E-16
  0.7200000     -5.3993644E-16
  0.7800000     -1.0263545E-16
  0.8400000      7.3148860E-16
  0.9000000      1.8105266E-15
  0.9600000      2.7521523E-15
   1.020000      2.9981709E-15
   1.080000      1.9927291E-15
   1.140000     -5.3985269E-16
   1.200000     -4.3058191E-15
   1.260000     -8.2795395E-15
   1.320000     -1.0809712E-14
   1.380000     -1.0070437E-14
   1.440000     -4.8013410E-15
   1.500000      4.8805454E-15
   1.560000      1.6938746E-14
   1.620000      2.7499192E-14
   1.680000      3.1761848E-14
   1.740000      2.5649567E-14
   1.800000      7.7386429E-15
   1.860000     -1.9264756E-14
   1.920000     -4.8279208E-14
   1.980000     -6.9316135E-14
   2.040000     -7.2545702E-14
   2.100000     -5.2125113E-14
   2.160000     -9.4046653E-15
   2.220000      4.5958195E-14
   2.280000      9.7909514E-14
   2.340000      1.2879349E-13
   2.400000      1.2563517E-13
   2.460000      8.5597667E-14
   2.520000      1.8207488E-14
   2.580000     -5.7105674E-14
   2.640000     -1.1781629E-13
   2.700000     -1.4712049E-13
   2.760000     -1.4108590E-13
   2.820000     -1.1053023E-13
   2.880000     -7.5791038E-14
   2.940000     -5.5579791E-14
   3.000000     -5.4305461E-14
   3.060000     -5.4168106E-14
   3.120000     -1.7758637E-14
   3.180000      9.6532876E-14
   3.240000      3.0949963E-13
   3.300000      5.9534972E-13
   3.360000      8.6740673E-13
   3.420000      9.8648498E-13
   3.480000      7.9703350E-13
   3.540000      1.8615217E-13
   3.600000     -8.5022142E-13
   3.660000     -2.1572143E-12
   3.720000     -3.4109840E-12
   3.780000     -4.1648737E-12
   3.840000     -3.9526529E-12
   3.900000     -2.4310237E-12
   3.960000      4.7288806E-13
   4.020000      4.4520503E-12
   4.080000      8.7883797E-12
   4.140000      1.2425943E-11
   4.200000      1.4151599E-11
   4.260000      1.2860144E-11
   4.320000      7.8579582E-12
   4.380000     -8.5607449E-13
   4.440000     -1.2398251E-11
   4.500000     -2.4955968E-11
   4.560000     -3.5935189E-11
   4.620000     -4.2317434E-11
   4.680000     -4.1210198E-11
   4.740000     -3.0532743E-11
   4.800000     -9.7321083E-12
   4.860000      1.9620295E-11
   4.920000      5.3529757E-11
   4.980000      8.5750324E-11
   5.040000      1.0854719E-10
   5.100000      1.1405883E-10
   5.160000      9.6113305E-11
   5.220000      5.2184118E-11
   5.280000     -1.4964653E-11
   5.340000     -9.6443971E-11
   5.400000     -1.7764148E-10
   5.460000     -2.4007438E-10
   5.520000     -2.6459490E-10
   5.580000     -2.3549857E-10
   5.640000     -1.4478758E-10
   5.700000      4.3146836E-12
   5.760000      1.9545980E-10
   5.820000      3.9949041E-10
   5.880000      5.7716942E-10
   5.940000      6.8402606E-10
   6.000000      6.7657330E-10
   6.060000      5.1884708E-10
   6.120000      1.8813157E-10
   6.180000     -3.2111855E-10
   6.240000     -9.9580266E-10
   6.300000     -1.8053330E-09
   6.360000     -2.7051499E-09
   6.420000     -3.6419394E-09
   6.480000     -4.5596922E-09
   6.540000     -5.4057070E-09
   6.600000     -6.1357963E-09
   6.660000     -6.7181785E-09
   6.720000     -7.1358359E-09
   6.780000     -7.3873521E-09
   6.840000     -7.4863893E-09
   6.900000     -7.4600184E-09
   6.960000     -7.3461117E-09
   7.020000     -7.1898811E-09
   7.080000     -7.0396591E-09
   7.140000     -6.9419932E-09
   7.200000     -6.9362587E-09
   7.260000     -7.0491857E-09
   7.320000     -7.2899349E-09
   7.380000     -7.6465483E-09
   7.440000     -8.0846361E-09
   7.500000     -8.5490033E-09
   7.560000     -8.9684953E-09
   7.620000     -9.2637604E-09
   7.680000     -9.3569819E-09
   7.740000     -9.1821217E-09
   7.800000     -8.6939815E-09
   7.860000     -7.8745375E-09
   7.920000     -6.7355264E-09
   7.980000     -5.3169966E-09
   8.040000     -3.6823105E-09
   8.100000     -1.9106512E-09
   8.160000     -8.8356690E-11
   8.220000      1.6997175E-09
   8.280000      3.3779406E-09
   8.340000      4.8863216E-09
   8.400000      6.1854726E-09
   8.460000      7.2601023E-09
   8.520000      8.1209004E-09
   8.580000      8.8044434E-09
   8.640000      9.3706136E-09
   8.700000      9.8970538E-09
   8.760000      1.0470596E-08
   8.820000      1.1176231E-08
   8.880000      1.2084898E-08
   8.940000      1.3242048E-08
   9.000000      1.4659126E-08
   9.060000      1.6309905E-08
   9.120000      1.8132777E-08
   9.180000      2.0039003E-08
   9.240000      2.1925629E-08
   9.300000      2.3690783E-08
   9.360000      2.5248548E-08
   9.420000      2.6540695E-08
   9.480000      2.7543273E-08
   9.540000      2.8267138E-08
   9.600000      2.8752760E-08
   9.660000      2.9060638E-08
   9.720000      2.9259400E-08
   9.780000      2.9413799E-08
   9.840000      2.9574627E-08
   9.900000      2.9771963E-08
   9.960000      3.0012437E-08
   10.02000      3.0280493E-08
   10.08000      3.0542914E-08
   10.14000      3.0755551E-08
   10.20000      3.0870940E-08
   10.26000      3.0845722E-08
   10.32000      3.0646881E-08
   10.38000      3.0256299E-08
   10.44000      2.9673290E-08
   10.50000      2.8915096E-08
   10.56000      2.8015171E-08
   10.62000      2.7019306E-08
   10.68000      2.5979737E-08
   10.74000      2.4947640E-08
   10.80000      2.3965068E-08
   10.86000      2.3057774E-08
   10.92000      2.2230704E-08
   10.98000      2.1467692E-08
   11.04000      2.0736048E-08
   11.10000      1.9995557E-08
   11.16000      1.9209990E-08
   11.22000      1.8358206E-08
   11.28000      1.7441780E-08
   11.34000      1.6486597E-08
   11.40000      1.5537466E-08
   11.46000      1.4646651E-08
   11.52000      1.3859046E-08
   11.58000      1.3197891E-08
   11.64000      1.2655080E-08
   11.70000      1.2189125E-08
   11.76000      1.1731967E-08
   11.82000      1.1203419E-08
   11.88000      1.0529864E-08
   11.94000      9.6624015E-09
   12.00000      8.5895016E-09
   12.06000      7.3405197E-09
   12.12000      5.9788108E-09
   12.18000      4.5861133E-09
   12.24000      3.2424445E-09
   12.30000      2.0071256E-09
   12.36000      9.0634333E-10
   12.42000     -6.9237109E-11
   12.48000     -9.5624175E-10
   12.54000     -1.8023119E-09
   12.60000     -2.6467379E-09
   12.66000     -3.5038339E-09
   12.72000     -4.3540309E-09
   12.78000     -5.1453743E-09
   12.84000     -5.8050373E-09
   12.90000     -6.2575904E-09
   12.96000     -6.4448065E-09
   13.02000     -6.3413803E-09
   13.08000     -5.9620926E-09
   13.14000     -5.3583995E-09
   13.20000     -4.6054565E-09
   13.26000     -3.7833292E-09
   13.32000     -2.9578742E-09
   13.38000     -2.1668685E-09
   13.44000     -1.4154840E-09
   13.50000     -6.8240041E-10
   13.56000      6.5336243E-11
   13.62000      8.5332164E-10
   13.68000      1.6826237E-09
   13.74000      2.5199662E-09
   13.80000      3.2986767E-09
   13.86000      3.9306225E-09
   13.92000      4.3260711E-09
   13.98000      4.4159734E-09
   14.04000      4.1703583E-09
   14.10000      3.6075378E-09
   14.16000      2.7913831E-09
   14.22000      1.8172867E-09
   14.28000      7.9057721E-10
   14.34000     -1.9677833E-10
   14.40000     -1.0849772E-09
   14.46000     -1.8558498E-09
   14.52000     -2.5308713E-09
   14.58000     -3.1587983E-09
   14.64000     -3.7967980E-09
   14.70000     -4.4904933E-09
   14.76000     -5.2582925E-09
   14.82000     -6.0838348E-09
   14.88000     -6.9178796E-09
   14.94000     -7.6883326E-09
   15.00000     -8.3150784E-09
   15.06000     -8.7253920E-09
   15.12000     -8.8660776E-09
   15.18000     -8.7098009E-09
   15.24000     -8.2549461E-09
   15.30000     -7.5200814E-09
   15.36000     -6.5353372E-09
   15.42000     -5.3335052E-09
   15.48000     -3.9433274E-09
   15.54000     -2.3865436E-09
   15.60000     -6.7902889E-10
   15.66000      1.1649105E-09
   15.72000      3.1269443E-09
   15.78000      5.1801154E-09
   15.84000      7.2872495E-09
   15.90000      9.4035011E-09
   15.96000      1.1482842E-08
   16.02000      1.3486931E-08
   16.08000      1.5393740E-08
   16.14000      1.7203091E-08
   16.20000      1.8936786E-08
   16.26000      2.0632482E-08
   16.32000      2.2332250E-08
   16.38000      2.4068434E-08
   16.44000      2.5850483E-08
   16.50000      2.7656439E-08
   16.56000      2.9431741E-08
   16.62000      3.1096228E-08
   16.68000      3.2558180E-08
   16.74000      3.3732405E-08
   16.80000      3.4558465E-08
   16.86000      3.5014978E-08
   16.92000      3.5126913E-08
   16.98000      3.4964241E-08
   17.04000      3.4632251E-08
   17.10000      3.4255411E-08
   17.16000      3.3957953E-08
   17.22000      3.3844792E-08
   17.28000      3.3986346E-08
   17.34000      3.4409666E-08
   17.40000      3.5097084E-08
   17.46000      3.5991839E-08
   17.52000      3.7008764E-08
   17.58000      3.8047272E-08
   17.64000      3.9003680E-08
   17.70000      3.9780680E-08
   17.76000      4.0292967E-08
   17.82000      4.0469544E-08
   17.88000      4.0254150E-08
   17.94000      3.9605752E-08
   18.00000      3.8500460E-08
   18.06000      3.6935155E-08
   18.12000      3.4931865E-08
   18.18000      3.2540978E-08
   18.24000      2.9841292E-08
   18.30000      2.6935593E-08
   18.36000      2.3941560E-08
   18.42000      2.0979414E-08
   18.48000      1.8158564E-08
   18.54000      1.5565981E-08
   18.60000      1.3258621E-08
   18.66000      1.1261263E-08
   18.72000      9.5698738E-09
   18.78000      8.1594065E-09
   18.84000      6.9940524E-09
   18.90000      6.0374710E-09
   18.96000      5.2606501E-09
   19.02000      4.6456248E-09
   19.08000      4.1843586E-09
   19.14000      3.8734091E-09
   19.20000      3.7062415E-09
   19.26000      3.6658800E-09
   19.32000      3.7206362E-09
   19.38000      3.8248036E-09
   19.44000      3.9246482E-09
   19.50000      3.9681463E-09
   19.56000      3.9154711E-09
   19.62000      3.7466203E-09
   19.68000      3.4632572E-09
   19.74000      3.0835254E-09
   19.80000      2.6309017E-09
   19.86000      2.1202060E-09
   19.92000      1.5451046E-09
   19.98000      8.7130381E-10
   20.04000      3.8190329E-11
   20.10000     -1.0307037E-09
   20.16000     -2.4106177E-09
   20.22000     -4.1561541E-09
   20.28000     -6.2847603E-09
   20.34000     -8.7677874E-09
   20.40000     -1.1531950E-08
   20.46000     -1.4471257E-08
   20.52000     -1.7466615E-08
   20.58000     -2.0408113E-08
   20.64000     -2.3214220E-08
   20.70000     -2.5842951E-08
   20.76000     -2.8292375E-08
   20.82000     -3.0590954E-08
   20.88000     -3.2781134E-08
   20.94000     -3.4901461E-08
   21.00000     -3.6972708E-08
   21.06000     -3.8991924E-08
   21.12000     -4.0935678E-08
   21.18000     -4.2770676E-08
   21.24000     -4.4467697E-08
   21.30000     -4.6013792E-08
   21.36000     -4.7418439E-08
   21.42000     -4.8711431E-08
   21.48000     -4.9932975E-08
   21.54000     -5.1119134E-08
   21.60000     -5.2287305E-08
   21.66000     -5.3426611E-08
   21.72000     -5.4496784E-08
   21.78000     -5.5436388E-08
   21.84000     -5.6178465E-08
   21.90000     -5.6669009E-08
   21.96000     -5.6882588E-08
   22.02000     -5.6829968E-08
   22.08000     -5.6555095E-08
   22.14000     -5.6122051E-08
   22.20000     -5.5595912E-08
   22.26000     -5.5023559E-08
   22.32000     -5.4420600E-08
   22.38000     -5.3768542E-08
   22.44000     -5.3023172E-08
   22.50000     -5.2131465E-08
   22.56000     -5.1051874E-08
   22.62000     -4.9771995E-08
   22.68000     -4.8318658E-08
   22.74000     -4.6757950E-08
   22.80000     -4.5185427E-08
   22.86000     -4.3709367E-08
   22.92000     -4.2431225E-08
   22.98000     -4.1427914E-08
   23.04000     -4.0739717E-08
   23.10000     -4.0366270E-08
   23.16000     -4.0271321E-08
   23.22000     -4.0395140E-08
   23.28000     -4.0671615E-08
   23.34000     -4.1046064E-08
   23.40000     -4.1489173E-08
   23.46000     -4.2003290E-08
   23.52000     -4.2619089E-08
   23.58000     -4.3383181E-08
   23.64000     -4.4340048E-08
   23.70000     -4.5513424E-08
   23.76000     -4.6892914E-08
   23.82000     -4.8430035E-08
   23.88000     -5.0045394E-08
   23.94000     -5.1645163E-08
   24.00000     -5.3142340E-08
   24.06000     -5.4476725E-08
   24.12000     -5.5628007E-08
   24.18000     -5.6618440E-08
   24.24000     -5.7504522E-08
   24.30000     -5.8360367E-08
   24.36000     -5.9257673E-08
   24.42000     -6.0247785E-08
   24.48000     -6.1350747E-08
   24.54000     -6.2553731E-08
   24.60000     -6.3818405E-08
   24.66000     -6.5094227E-08
   24.72000     -6.6332930E-08
   24.78000     -6.7499386E-08
   24.84000     -6.8575758E-08
   24.90000     -6.9558041E-08
   24.96000     -7.0447108E-08
   25.02000     -7.1238041E-08
   25.08000     -7.1912112E-08
   25.14000     -7.2434602E-08
   25.20000     -7.2759548E-08
   25.26000     -7.2839967E-08
   25.32000     -7.2640326E-08
   25.38000     -7.2147344E-08
   25.44000     -7.1375872E-08
   25.50000     -7.0368039E-08
   25.56000     -6.9186008E-08
   25.62000     -6.7900210E-08
   25.68000     -6.6576199E-08
   25.74000     -6.5263272E-08
   25.80000     -6.3987663E-08
   25.86000     -6.2751724E-08
   25.92000     -6.1538920E-08
   25.98000     -6.0323181E-08
   26.04000     -5.9079603E-08
   26.10000     -5.7793503E-08
   26.16000     -5.6465318E-08
   26.22000     -5.5110220E-08
   26.28000     -5.3753141E-08
   26.34000     -5.2421413E-08
   26.40000     -5.1137842E-08
   26.46000     -4.9916586E-08
   26.52000     -4.8762860E-08
   26.58000     -4.7675879E-08
   26.64000     -4.6653103E-08
   26.70000     -4.5693596E-08
   26.76000     -4.4798977E-08
   26.82000     -4.3971585E-08
   26.88000     -4.3210861E-08
   26.94000     -4.2509527E-08
   27.00000     -4.1851166E-08
   27.06000     -4.1210058E-08
   27.12000     -4.0553310E-08
   27.18000     -3.9844725E-08
   27.24000     -3.9049525E-08
   27.30000     -3.8139191E-08
   27.36000     -3.7095820E-08
   27.42000     -3.5915409E-08
   27.48000     -3.4609435E-08
   27.54000     -3.3203921E-08
   27.60000     -3.1735624E-08
   27.66000     -3.0245427E-08
   27.72000     -2.8770186E-08
   27.78000     -2.7334881E-08
   27.84000     -2.5947246E-08
   27.90000     -2.4596535E-08
   27.96000     -2.3256861E-08
   28.02000     -2.1894158E-08
   28.08000     -2.0474751E-08
   28.14000     -1.8973154E-08
   28.20000     -1.7377156E-08
   28.26000     -1.5689299E-08
   28.32000     -1.3924952E-08
   28.38000     -1.2107974E-08
   28.44000     -1.0265296E-08
   28.50000     -8.4216287E-09
   28.56000     -6.5951418E-09
   28.62000     -4.7946966E-09
   28.68000     -3.0190244E-09
   28.74000     -1.2580957E-09
   28.80000      5.0335253E-10
   28.86000      2.2806461E-09
   28.92000      4.0834718E-09
   28.98000      5.9112022E-09
   29.04000      7.7507734E-09
   29.10000      9.5779775E-09
   29.16000      1.1361928E-08
   29.22000      1.3071244E-08
   29.28000      1.4679811E-08
   29.34000      1.6170162E-08
   29.40000      1.7533480E-08
   29.46000      1.8766823E-08
   29.52000      1.9869312E-08
   29.58000      2.0839565E-08
   29.64000      2.1675902E-08
   29.70000      2.2379377E-08
   29.76000      2.2958076E-08
   29.82000      2.3430109E-08
   29.88000      2.3822951E-08
   29.94000      2.4168152E-08
   30.00000      2.4492417E-08
   30.06000      2.4807708E-08
   30.12000      2.5103725E-08
   30.18000      2.5345475E-08
   30.24000      2.5476997E-08
   30.30000      2.5430328E-08
   30.36000      2.5137384E-08
   30.42000      2.4541784E-08
   30.48000      2.3608239E-08
   30.54000      2.2328003E-08
   30.60000      2.0720046E-08
   30.66000      1.8828304E-08
   30.72000      1.6715704E-08
   30.78000      1.4455790E-08
   30.84000      1.2122908E-08
   30.90000      9.7822426E-09
   30.96000      7.4813231E-09
   31.02000      5.2447171E-09
   31.08000      3.0732441E-09
   31.14000      9.4810682E-10
   31.20000     -1.1609061E-09
   31.26000     -3.2851328E-09
   31.32000     -5.4472959E-09
   31.38000     -7.6548377E-09
   31.44000     -9.8980530E-09
   31.50000     -1.2153410E-08
   31.56000     -1.4391008E-08
   31.62000     -1.6583941E-08
   31.68000     -1.8716676E-08
   31.74000     -2.0789772E-08
   31.80000     -2.2819188E-08
   31.86000     -2.4830028E-08
   31.92000     -2.6846301E-08
   31.98000     -2.8879763E-08
   32.04000     -3.0921296E-08
   32.10000     -3.2937773E-08
   32.16000     -3.4875619E-08
   32.22000     -3.6670230E-08
   32.28000     -3.8258513E-08
   32.34000     -3.9591093E-08
   32.40000     -4.0640913E-08
   32.46000     -4.1406313E-08
   32.52000     -4.1908518E-08
   32.58000     -4.2184766E-08
   32.64000     -4.2279225E-08
   32.70000     -4.2233758E-08
   32.76000     -4.2080231E-08
   32.82000     -4.1835317E-08
   32.88000     -4.1498470E-08
   32.94000     -4.1053326E-08
   33.00000     -4.0472415E-08
   33.06000     -3.9724700E-08
   33.12000     -3.8784613E-08
   33.18000     -3.7640635E-08
   33.24000     -3.6301252E-08
   33.30000     -3.4796532E-08
   33.36000     -3.3174679E-08
   33.42000     -3.1494395E-08
   33.48000     -2.9815080E-08
   33.54000     -2.8187468E-08
   33.60000     -2.6646974E-08
   33.66000     -2.5210987E-08
   33.72000     -2.3880096E-08
   33.78000     -2.2642242E-08
   33.84000     -2.1478314E-08
   33.90000     -2.0367816E-08
   33.96000     -1.9293637E-08
   34.02000     -1.8245363E-08
   34.08000     -1.7220865E-08
   34.14000     -1.6226107E-08
   34.20000     -1.5273269E-08
   34.26000     -1.4377720E-08
   34.32000     -1.3554779E-08
   34.38000     -1.2817396E-08
   34.44000     -1.2175752E-08
   34.50000     -1.1638968E-08
   34.56000     -1.1218151E-08
   34.62000     -1.0929157E-08
   34.68000     -1.0793251E-08
   34.74000     -1.0834571E-08
   34.80000     -1.1074668E-08
   34.86000     -1.1525762E-08
   34.92000     -1.2185231E-08
   34.98000     -1.3033595E-08
   35.04000     -1.4036965E-08
   35.10000     -1.5153336E-08
   35.16000     -1.6340563E-08
   35.22000     -1.7563487E-08
   35.28000     -1.8798151E-08
   35.34000     -2.0032454E-08
   35.40000     -2.1264013E-08
   35.46000     -2.2496847E-08
   35.52000     -2.3738549E-08
   35.58000     -2.4998855E-08
   35.64000     -2.6289504E-08
   35.70000     -2.7624557E-08
   35.76000     -2.9020176E-08
   35.82000     -3.0493297E-08
   35.88000     -3.2059241E-08
   35.94000     -3.3728941E-08
   36.00000     -3.5506371E-08
   36.06000     -3.7386819E-08
   36.12000     -3.9356014E-08
   36.18000     -4.1390297E-08
   36.24000     -4.3457877E-08
   36.30000     -4.5521613E-08
   36.36000     -4.7543679E-08
   36.42000     -4.9492101E-08
   36.48000     -5.1348170E-08
   36.54000     -5.3112878E-08
   36.60000     -5.4809792E-08
   36.66000     -5.6482417E-08
   36.72000     -5.8185279E-08
   36.78000     -5.9970155E-08
   36.84000     -6.1870793E-08
   36.90000     -6.3890397E-08
   36.96000     -6.5996062E-08
   37.02000     -6.8122247E-08
   37.08000     -7.0182914E-08
   37.14000     -7.2089399E-08
   37.20000     -7.3769293E-08
   37.26000     -7.5181262E-08
   37.32000     -7.6322124E-08
   37.38000     -7.7224627E-08
   37.44000     -7.7947135E-08
   37.50000     -7.8558465E-08
   37.56000     -7.9122330E-08
   37.62000     -7.9685584E-08
   37.68000     -8.0272713E-08
   37.74000     -8.0886878E-08
   37.80000     -8.1515680E-08
   37.86000     -8.2138328E-08
   37.92000     -8.2731049E-08
   37.98000     -8.3268915E-08
   38.04000     -8.3724245E-08
   38.10000     -8.4063707E-08
   38.16000     -8.4246921E-08
   38.22000     -8.4228894E-08
   38.28000     -8.3966711E-08
   38.34000     -8.3428986E-08
   38.40000     -8.2604892E-08
   38.46000     -8.1509548E-08
   38.52000     -8.0183710E-08
   38.58000     -7.8687378E-08
   38.64000     -7.7089126E-08
   38.70000     -7.5453805E-08
   38.76000     -7.3831565E-08
   38.82000     -7.2250380E-08
   38.88000     -7.0713355E-08
   38.94000     -6.9201036E-08
   39.00000     -6.7678194E-08
   39.06000     -6.6103887E-08
   39.12000     -6.4442872E-08
   39.18000     -6.2675838E-08
   39.24000     -6.0805974E-08
   39.30000     -5.8859850E-08
   39.36000     -5.6881930E-08
   39.42000     -5.4924108E-08
   39.48000     -5.3033133E-08
   39.54000     -5.1239603E-08
   39.60000     -4.9551705E-08
   39.66000     -4.7955282E-08
   39.72000     -4.6419721E-08
   39.78000     -4.4907466E-08
   39.84000     -4.3384134E-08
   39.90000     -4.1826315E-08
   39.96000     -4.0225167E-08
   40.02000     -3.8585164E-08
   40.08000     -3.6918440E-08
   40.14000     -3.5236344E-08
   40.20000     -3.3540307E-08
   40.26000     -3.1814718E-08
   40.32000     -3.0024271E-08
   40.38000     -2.8117562E-08
   40.44000     -2.6037053E-08
   40.50000     -2.3733538E-08
   40.56000     -2.1181194E-08
   40.62000     -1.8388462E-08
   40.68000     -1.5400643E-08
   40.74000     -1.2292452E-08
   40.80000     -9.1520853E-09
   40.86000     -6.0612999E-09
   40.92000     -3.0776972E-09
   40.98000     -2.2471341E-10
   41.04000      2.5076017E-09
   41.10000      5.1515312E-09
   41.16000      7.7440854E-09
   41.22000      1.0308465E-08
   41.28000      1.2840174E-08
   41.34000      1.5301641E-08
   41.40000      1.7626586E-08
   41.46000      1.9732612E-08
   41.52000      2.1538403E-08
   41.58000      2.2981004E-08
   41.64000      2.4028719E-08
   41.70000      2.4686431E-08
   41.76000      2.4992087E-08
   41.82000      2.5005448E-08
   41.88000      2.4792286E-08
   41.94000      2.4408562E-08
   42.00000      2.3889251E-08
   42.06000      2.3244924E-08
   42.12000      2.2466866E-08
   42.18000      2.1538563E-08
   42.24000      2.0449274E-08
   42.30000      1.9204714E-08
   42.36000      1.7830937E-08
   42.42000      1.6369960E-08
   42.48000      1.4868615E-08
   42.54000      1.3364504E-08
   42.60000      1.1873944E-08
   42.66000      1.0386086E-08
   42.72000      8.8653254E-09
   42.78000      7.2613742E-09
   42.84000      5.5238685E-09
   42.90000      3.6169219E-09
   42.96000      1.5290360E-09
   43.02000     -7.2480461E-10
   43.08000     -3.1096137E-09
   43.14000     -5.5835869E-09
   43.20000     -8.1140472E-09
   43.26000     -1.0691362E-08
   43.32000     -1.3336742E-08
   43.38000     -1.6101779E-08
   43.44000     -1.9060327E-08
   43.50000     -2.2295733E-08
   43.56000     -2.5887903E-08
   43.62000     -2.9904513E-08
   43.68000     -3.4399022E-08
   43.74000     -3.9415760E-08
   43.80000     -4.4999858E-08
   43.86000     -5.1208591E-08
   43.92000     -5.8120801E-08
   43.98000     -6.5842578E-08
   44.04000     -7.4509565E-08
   44.10000     -8.4287826E-08
   44.16000     -9.5376052E-08
   44.22000     -1.0801094E-07
   44.28000     -1.2247608E-07
   44.34000     -1.3911298E-07
   44.40000     -1.5833186E-07
   44.46000     -1.8061994E-07
   44.52000     -2.0654618E-07
   44.58000     -2.3676292E-07
   44.64000     -2.7200647E-07
   44.70000     -3.1309952E-07
   44.76000     -3.6095693E-07
   44.82000     -4.1659712E-07
   44.88000     -4.8115862E-07
   44.94000     -5.5592136E-07
   45.00000     -6.4233063E-07
   45.06000     -7.4202353E-07
   45.12000     -8.5685525E-07
   45.18000     -9.8892428E-07
   45.24000     -1.1405964E-06
   45.30000     -1.3145246E-06
   45.36000     -1.5136677E-06
   45.42000     -1.7413048E-06
   45.48000     -2.0010498E-06
   45.54000     -2.2968677E-06
   45.60000     -2.6330954E-06
   45.66000     -3.0144708E-06
   45.72000     -3.4461686E-06
   45.78000     -3.9338406E-06
   45.84000     -4.4836565E-06
   45.90000     -5.1023449E-06
   45.96000     -5.7972197E-06
   46.02000     -6.5762033E-06
   46.08000     -7.4478389E-06
   46.14000     -8.4212916E-06
   46.20000     -9.5063460E-06
   46.26000     -1.0713406E-05
   46.32000     -1.2053491E-05
   46.38000     -1.3538236E-05
   46.44000     -1.5179895E-05
   46.50000     -1.6991338E-05
   46.56000     -1.8986038E-05
   46.62000     -2.1178055E-05
   46.68000     -2.3581988E-05
   46.74000     -2.6212925E-05
   46.80000     -2.9086370E-05
   46.86000     -3.2218148E-05
   46.92000     -3.5624329E-05
   46.98000     -3.9321098E-05
   47.04000     -4.3324693E-05
   47.10000     -4.7651291E-05
   47.16000     -5.2316900E-05
   47.22000     -5.7337274E-05
   47.28000     -6.2727770E-05
   47.34000     -6.8503214E-05
   47.40000     -7.4677737E-05
   47.46000     -8.1264625E-05
   47.52000     -8.8276116E-05
   47.58000     -9.5723211E-05
   47.64000     -1.0361553E-04
   47.70000     -1.1196108E-04
   47.76000     -1.2076610E-04
   47.82000     -1.3003491E-04
   47.88000     -1.3976982E-04
   47.94000     -1.4997089E-04
   48.00000     -1.6063596E-04
   48.06000     -1.7176043E-04
   48.12000     -1.8333725E-04
   48.18000     -1.9535678E-04
   48.24000     -2.0780676E-04
   48.30000     -2.2067220E-04
   48.36000     -2.3393537E-04
   48.42000     -2.4757587E-04
   48.48000     -2.6157056E-04
   48.54000     -2.7589369E-04
   48.60000     -2.9051703E-04
   48.66000     -3.0540998E-04
   48.72000     -3.2053972E-04
   48.78000     -3.3587147E-04
   48.84000     -3.5136862E-04
   48.90000     -3.6699299E-04
   48.96000     -3.8270516E-04
   49.02000     -3.9846468E-04
   49.08000     -4.1423051E-04
   49.14000     -4.2996136E-04
   49.20000     -4.4561611E-04
   49.26000     -4.6115395E-04
   49.32000     -4.7653497E-04
   49.38000     -4.9172022E-04
   49.44000     -5.0667231E-04
   49.50000     -5.2135583E-04
   49.56000     -5.3573737E-04
   49.62000     -5.4978626E-04
   49.68000     -5.6347455E-04
   49.74000     -5.7677733E-04
   49.80000     -5.8967323E-04
   49.86000     -6.0214446E-04
   49.92000     -6.1417697E-04
   49.98000     -6.2576053E-04
   50.04000     -6.3688890E-04
   50.10000     -6.4755982E-04
   50.16000     -6.5777515E-04
   50.22000     -6.6754059E-04
   50.28000     -6.7686563E-04
   50.34000     -6.8576355E-04
   50.40000     -6.9425063E-04
   50.46000     -7.0234650E-04
   50.52000     -7.1007339E-04
   50.58000     -7.1745610E-04
   50.64000     -7.2452164E-04
   50.70000     -7.3129882E-04
   50.76000     -7.3781767E-04
   50.82000     -7.4410893E-04
   50.88000     -7.5020356E-04
   50.94000     -7.5613224E-04
   51.00000     -7.6192524E-04
   51.06000     -7.6761149E-04
   51.12000     -7.7321869E-04
   51.18000     -7.7877281E-04
   51.24000     -7.8429712E-04
   51.30000     -7.8981236E-04
   51.36000     -7.9533597E-04
   51.42000     -8.0088194E-04
   51.48000     -8.0646056E-04
   51.54000     -8.1207877E-04
   51.60000     -8.1773964E-04
   51.66000     -8.2344236E-04
   51.72000     -8.2918233E-04
   51.78000     -8.3495071E-04
   51.84000     -8.4073498E-04
   51.90000     -8.4651884E-04
   51.96000     -8.5228280E-04
   52.02000     -8.5800432E-04
   52.08000     -8.6365832E-04
   52.14000     -8.6921768E-04
   52.20000     -8.7465328E-04
   52.26000     -8.7993470E-04
   52.32000     -8.8503025E-04
   52.38000     -8.8990794E-04
   52.44000     -8.9453539E-04
   52.50000     -8.9888094E-04
   52.56000     -9.0291392E-04
   52.62000     -9.0660539E-04
   52.68000     -9.0992829E-04
   52.74000     -9.1285806E-04
   52.80000     -9.1537292E-04
   52.86000     -9.1745431E-04
   52.92000     -9.1908686E-04
   52.98000     -9.2025922E-04
   53.04000     -9.2096371E-04
   53.10000     -9.2119677E-04
   53.16000     -9.2095888E-04
   53.22000     -9.2025485E-04
   53.28000     -9.1909320E-04
   53.34000     -9.1748673E-04
   53.40000     -9.1545185E-04
   53.46000     -9.1300881E-04
   53.52000     -9.1018103E-04
   53.58000     -9.0699492E-04
   53.64000     -9.0347958E-04
   53.70000     -8.9966628E-04
   53.76000     -8.9558779E-04
   53.82000     -8.9127815E-04
   53.88000     -8.8677229E-04
   53.94000     -8.8210526E-04
   54.00000     -8.7731204E-04
   54.06000     -8.7242707E-04
   54.12000     -8.6748379E-04
   54.18000     -8.6251402E-04
   54.24000     -8.5754768E-04
   54.30000     -8.5261225E-04
   54.36000     -8.4773282E-04
   54.42000     -8.4293127E-04
   54.48000     -8.3822617E-04
   54.54000     -8.3363277E-04
   54.60000     -8.2916248E-04
   54.66000     -8.2482339E-04
   54.72000     -8.2061981E-04
   54.78000     -8.1655284E-04
   54.84000     -8.1262004E-04
   54.90000     -8.0881570E-04
   54.96000     -8.0513099E-04
   55.02000     -8.0155395E-04
   55.08000     -7.9807005E-04
   55.14000     -7.9466210E-04
   55.20000     -7.9131115E-04
   55.26000     -7.8799686E-04
   55.32000     -7.8469771E-04
   55.38000     -7.8139157E-04
   55.44000     -7.7805598E-04
   55.50000     -7.7466841E-04
   55.56000     -7.7120669E-04