  -2.400000      0.0000000E+00
  -2.340000      0.0000000E+00
  -2.280000      0.0000000E+00
  -2.220000      0.0000000E+00
  -2.160000      0.0000000E+00
  -2.100000      0.0000000E+00
  -2.040000      0.0000000E+00
  -1.980000      0.0000000E+00
  -1.920000      2.0038845E-26
  -1.860000      2.1411549E-25
  -1.800000      1.0467396E-24
  -1.740000      2.6929694E-24
  -1.680000      1.1949254E-24
  -1.620000     -2.1065835E-23
  -1.560000     -1.0504718E-22
  -1.500000     -2.9870724E-22
  -1.440000     -5.6719331E-22
  -1.380000     -6.0292823E-22
  -1.320000      3.7082084E-22
  -1.260000      3.4897696E-21
  -1.200000      9.3587295E-21
  -1.140000      1.6146047E-20
  -1.080000      1.7369878E-20
  -1.020000      1.5614554E-21
 -0.9600000     -4.3065343E-20
 -0.9000000     -1.1717046E-19
 -0.8400000     -1.9520565E-19
 -0.7800000     -2.1700636E-19
 -0.7200000     -1.0084014E-19
 -0.6600000      2.1264558E-19
 -0.6000000      6.9521273E-19
 -0.5400000      1.1810051E-18
 -0.4800000      1.3840987E-18
 -0.4200000      1.0175056E-18
 -0.3600000     -1.5537866E-20
 -0.3000000     -1.4709153E-18
 -0.2400000     -2.8093330E-18
 -0.1800000     -3.5246497E-18
 -0.1200000     -3.6370859E-18
 -5.9999999E-02 -3.9790398E-18
  0.0000000E+00 -5.7910733E-18
  5.9999999E-02 -9.3951480E-18
  0.1200000     -1.2385263E-17
  0.1800000     -8.6197108E-18
  0.2400000      1.0267772E-17
  0.3000000      4.9768559E-17
  0.3600000      1.0475413E-16
  0.4200000      1.5283317E-16
  0.4800000      1.5461279E-16
  0.5400000      6.5987672E-17
  0.6000000     -1.3709235E-16
  0.6600000     -4.2885964E-16
  0.7200000     -7.1431506E-16
  0.7800000     -8.3821406E-16
  0.8400000     -6.3363988E-16
  0.9000000     -4.2651260E-18
  0.9600000      9.8764328E-16
   1.020000      2.0718909E-15
   1.080000      2.8032272E-15
   1.140000      2.6951131E-15
   1.200000      1.4285449E-15
   1.260000     -9.3746600E-16
   1.320000     -3.8538017E-15
   1.380000     -6.3527382E-15
   1.440000     -7.3268621E-15
   1.500000     -5.9488073E-15
   1.560000     -2.0826476E-15
   1.620000      3.4948317E-15
   1.680000      9.2004473E-15
   1.740000      1.3099381E-14
   1.800000      1.3581021E-14
   1.860000      1.0011082E-14
   1.920000      3.0873375E-15
   1.980000     -5.2865584E-15
   2.040000     -1.2615288E-14
   2.100000     -1.6715362E-14
   2.160000     -1.6563651E-14
   2.220000     -1.2728481E-14
   2.280000     -7.1512629E-15
   2.340000     -2.2902134E-15
   2.400000      8.8334002E-17
   2.460000     -1.7556930E-17
   2.520000     -4.4019768E-16
   2.580000      2.5294386E-15
   2.640000      1.2471474E-14
   2.700000      3.0579607E-14
   2.760000      5.3685219E-14
   2.820000      7.3608003E-14
   2.880000      7.8652938E-14
   2.940000      5.7398144E-14
   3.000000      3.9323805E-15
   3.060000     -7.7252434E-14
   3.120000     -1.6897033E-13
   3.180000     -2.4349641E-13
   3.240000     -2.6964048E-13
   3.300000     -2.2323908E-13
   3.360000     -9.7743713E-14
   3.420000      8.9217858E-14
   3.480000      2.9662828E-13
   3.540000      4.6919326E-13
   3.600000      5.5266322E-13
   3.660000      5.1064909E-13
   3.720000      3.3727703E-13
   3.780000      6.1243789E-14
   3.840000     -2.6021776E-13
   3.900000     -5.5548914E-13
   3.960000     -7.5628902E-13
   4.020000     -8.1371715E-13
   4.080000     -7.0859123E-13
   4.140000     -4.5443862E-13
   4.200000     -9.3879121E-14
   4.260000      3.0944193E-13
   4.320000      6.8107130E-13
   4.380000      9.4659079E-13
   4.440000      1.0425348E-12
   4.500000      9.2736322E-13
   4.560000      5.9223806E-13
   4.620000      7.0431840E-14
   4.680000     -5.5706763E-13
   4.740000     -1.1633094E-12
   4.800000     -1.5883642E-12
   4.860000     -1.6662248E-12
   4.920000     -1.2650062E-12
   4.980000     -3.3452627E-13
   5.040000      1.0506944E-12
   5.100000      2.6692353E-12
   5.160000      4.1670530E-12
   5.220000      5.1165170E-12
   5.280000      5.1148898E-12
   5.340000      3.9010206E-12
   5.400000      1.4571353E-12
   5.460000     -1.9392177E-12
   5.520000     -5.7369122E-12
   5.580000     -9.2090450E-12
   5.640000     -1.1604783E-11
   5.700000     -1.2315379E-11
   5.760000     -1.1010264E-11
   5.820000     -7.7098918E-12
   5.880000     -2.7824472E-12
   5.940000      3.1274915E-12
   6.000000      9.2173404E-12
   6.060000      1.4669472E-11
   6.120000      1.8802951E-11
   6.180000      2.1225412E-11
   6.240000      2.1976991E-11
   6.300000      2.1649377E-11
   6.360000      2.1451186E-11
   6.420000      2.3184286E-11
   6.480000      2.9105142E-11
   6.540000      4.1671697E-11
   6.600000      6.3212817E-11
   6.660000      9.5588849E-11
   6.720000      1.3992243E-10
   6.780000      1.9646075E-10
   6.840000      2.6458818E-10
   6.900000      3.4295752E-10
   6.960000      4.2967119E-10
   7.020000      5.2243554E-10
   7.080000      6.1863831E-10
   7.140000      7.1534756E-10
   7.200000      8.0928225E-10
   7.260000      8.9683538E-10
   7.320000      9.7422947E-10
   7.380000      1.0378447E-09
   7.440000      1.0847020E-09
   7.500000      1.1130238E-09
   7.560000      1.1227477E-09
   7.620000      1.1158614E-09
   7.680000      1.0964556E-09
   7.740000      1.0704485E-09
   7.800000      1.0450170E-09
   7.860000      1.0278385E-09
   7.920000      1.0262968E-09
   7.980000      1.0467973E-09
   8.040000      1.0942898E-09
   8.100000      1.1719971E-09
   8.160000      1.2812609E-09
   8.220000      1.4213489E-09
   8.280000      1.5890916E-09
   8.340000      1.7783086E-09
   8.400000      1.9791333E-09
   8.460000      2.1774855E-09
   8.520000      2.3550093E-09
   8.580000      2.4897409E-09
   8.640000      2.5576099E-09
   8.700000      2.5346538E-09
   8.760000      2.3996172E-09
   8.820000      2.1364999E-09
   8.880000      1.7366366E-09
   8.940000      1.2000321E-09
   9.000000      5.3585603E-10
   9.060000     -2.3781532E-10
   9.120000     -1.0948351E-09
   9.180000     -2.0021991E-09
   9.240000     -2.9214868E-09
   9.300000     -3.8104462E-09
   9.360000     -4.6246909E-09
   9.420000     -5.3195235E-09
   9.480000     -5.8519105E-09
   9.540000     -6.1826615E-09
   9.600000     -6.2788601E-09
   9.660000     -6.1165601E-09
   9.720000     -5.6836580E-09
   9.780000     -4.9826725E-09
   9.840000     -4.0329651E-09
   9.900000     -2.8717522E-09
   9.960000     -1.5532384E-09
   10.02000     -1.4537736E-10
   10.08000      1.2758500E-09
   10.14000      2.6341911E-09
   10.20000      3.8619064E-09
   10.26000      4.9081592E-09
   10.32000      5.7454677E-09
   10.38000      6.3729022E-09
   10.44000      6.8153088E-09
   10.50000      7.1185959E-09
   10.56000      7.3419555E-09
   10.62000      7.5484818E-09
   10.68000      7.7959514E-09
   10.74000      8.1293674E-09
   10.80000      8.5764063E-09
   10.86000      9.1461620E-09
   10.92000      9.8308748E-09
   10.98000      1.0609757E-08
   11.04000      1.1453782E-08
   11.10000      1.2330387E-08
   11.16000      1.3207369E-08
   11.22000      1.4055711E-08
   11.28000      1.4851484E-08
   11.34000      1.5577152E-08
   11.40000      1.6222643E-08
   11.46000      1.6786315E-08
   11.52000      1.7275639E-08
   11.58000      1.7707251E-08
   11.64000      1.8105819E-08
   11.70000      1.8501478E-08
   11.76000      1.8925730E-08
   11.82000      1.9406327E-08
   11.88000      1.9961949E-08
   11.94000      2.0597836E-08
   12.00000      2.1303553E-08
   12.06000      2.2053634E-08
   12.12000      2.2811413E-08
   12.18000      2.3535462E-08
   12.24000      2.4187356E-08
   12.30000      2.4739023E-08
   12.36000      2.5177792E-08
   12.42000      2.5507726E-08
   12.48000      2.5746639E-08
   12.54000      2.5919292E-08
   12.60000      2.6048347E-08
   12.66000      2.6145329E-08
   12.72000      2.6204052E-08
   12.78000      2.6198467E-08
   12.84000      2.6085905E-08
   12.90000      2.5815233E-08
   12.96000      2.5338217E-08
   13.02000      2.4621334E-08
   13.08000      2.3654954E-08
   13.14000      2.2457312E-08
   13.20000      2.1071926E-08
   13.26000      1.9558751E-08
   13.32000      1.7981181E-08
   13.38000      1.6392276E-08
   13.44000      1.4823973E-08
   13.50000      1.3282452E-08
   13.56000      1.1751146E-08
   13.62000      1.0200721E-08
   13.68000      8.6032816E-09
   13.74000      6.9466517E-09
   13.80000      5.2444111E-09
   13.86000      3.5384815E-09
   13.92000      1.8931587E-09
   13.98000      3.8199466E-10
   14.04000     -9.2892932E-10
   14.10000     -1.9966735E-09
   14.16000     -2.8116605E-09
   14.22000     -3.3996108E-09
   14.28000     -3.8147800E-09
   14.34000     -4.1265937E-09
   14.40000     -4.4036454E-09
   14.46000     -4.6996393E-09
   14.52000     -5.0450999E-09
   14.58000     -5.4467448E-09
   14.64000     -5.8940155E-09
   14.70000     -6.3700702E-09
   14.76000     -6.8633477E-09
   14.82000     -7.3758164E-09
   14.88000     -7.9253004E-09
   14.94000     -8.5412228E-09
   15.00000     -9.2551931E-09
   15.06000     -1.0089377E-08
   15.12000     -1.1046140E-08
   15.18000     -1.2102010E-08
   15.24000     -1.3207738E-08
   15.30000     -1.4294556E-08
   15.36000     -1.5285169E-08
   15.42000     -1.6106867E-08
   15.48000     -1.6703684E-08
   15.54000     -1.7044778E-08
   15.60000     -1.7127174E-08
   15.66000     -1.6972363E-08
   15.72000     -1.6617754E-08
   15.78000     -1.6105364E-08
   15.84000     -1.5470812E-08
   15.90000     -1.4735699E-08
   15.96000     -1.3905497E-08
   16.02000     -1.2973509E-08
   16.08000     -1.1929607E-08
   16.14000     -1.0770931E-08
   16.20000     -9.5110053E-09
   16.26000     -8.1840446E-09
   16.32000     -6.8426211E-09
   16.38000     -5.5488472E-09
   16.44000     -4.3612789E-09
   16.50000     -3.3211505E-09
   16.56000     -2.4419338E-09
   16.62000     -1.7054064E-09
   16.68000     -1.0656159E-09
   16.74000     -4.5991885E-10
   16.80000      1.7573661E-10
   16.86000      8.9135432E-10
   16.92000      1.7114045E-09
   16.98000      2.6303613E-09
   17.04000      3.6163568E-09
   17.10000      4.6217781E-09
   17.16000      5.5976903E-09
   17.22000      6.5079346E-09
   17.28000      7.3388966E-09
   17.34000      8.1022336E-09
   17.40000      8.8299155E-09
   17.46000      9.5631600E-09
   17.52000      1.0338559E-08
   17.58000      1.1175452E-08
   17.64000      1.2068160E-08
   17.70000      1.2985238E-08
   17.76000      1.3875857E-08
   17.82000      1.4681452E-08
   17.88000      1.5349372E-08
   17.94000      1.5844821E-08
   18.00000      1.6158070E-08
   18.06000      1.6305256E-08
   18.12000      1.6323003E-08
   18.18000      1.6258761E-08
   18.24000      1.6159804E-08
   18.30000      1.6064066E-08
   18.36000      1.5995276E-08
   18.42000      1.5963433E-08
   18.48000      1.5969920E-08
   18.54000      1.6015145E-08
   18.60000      1.6105664E-08
   18.66000      1.6257982E-08
   18.72000      1.6497239E-08
   18.78000      1.6850807E-08
   18.84000      1.7338650E-08
   18.90000      1.7963638E-08
   18.96000      1.8705313E-08
   19.02000      1.9519666E-08
   19.08000      2.0345627E-08
   19.14000      2.1116730E-08
   19.20000      2.1774582E-08
   19.26000      2.2280178E-08
   19.32000      2.2619592E-08
   19.38000      2.2802551E-08
   19.44000      2.2854536E-08
   19.50000      2.2805148E-08
   19.56000      2.2676479E-08
   19.62000      2.2475017E-08
   19.68000      2.2189298E-08
   19.74000      2.1793685E-08
   19.80000      2.1256815E-08
   19.86000      2.0551962E-08
   19.92000      1.9666325E-08
   19.98000      1.8606636E-08
   20.04000      1.7399691E-08
   20.10000      1.6087824E-08
   20.16000      1.4720671E-08
   20.22000      1.3345489E-08
   20.28000      1.1998643E-08
   20.34000      1.0700372E-08
   20.40000      9.4540082E-09
   20.46000      8.2494100E-09
   20.52000      7.0691049E-09
   20.58000      5.8948615E-09
   20.64000      4.7123527E-09
   20.70000      3.5123453E-09
   20.76000      2.2881257E-09
   20.82000      1.0302570E-09
   20.88000     -2.7924574E-10
   20.94000     -1.6709325E-09
   21.00000     -3.1882255E-09
   21.06000     -4.8831814E-09
   21.12000     -6.8081905E-09
   21.18000     -9.0052570E-09
   21.24000     -1.1495247E-08
   21.30000     -1.4269623E-08
   21.36000     -1.7286734E-08
   21.42000     -2.0473772E-08
   21.48000     -2.3734264E-08
   21.54000     -2.6959709E-08
   21.60000     -3.0042990E-08
   21.66000     -3.2890718E-08
   21.72000     -3.5432034E-08
   21.78000     -3.7622289E-08
   21.84000     -3.9441552E-08
   21.90000     -4.0889269E-08
   21.96000     -4.1977305E-08
   22.02000     -4.2723936E-08
   22.08000     -4.3150465E-08
   22.14000     -4.3281105E-08
   22.20000     -4.3145356E-08
   22.26000     -4.2781249E-08
   22.32000     -4.2237481E-08
   22.38000     -4.1572967E-08
   22.44000     -4.0853138E-08
   22.50000     -4.0143423E-08
   22.56000     -3.9501128E-08
   22.62000     -3.8967485E-08
   22.68000     -3.8561797E-08
   22.74000     -3.8279179E-08
   22.80000     -3.8092860E-08
   22.86000     -3.7961019E-08
   22.92000     -3.7836948E-08
   22.98000     -3.7680607E-08
   23.04000     -3.7468876E-08
   23.10000     -3.7202049E-08
   23.16000     -3.6905025E-08
   23.22000     -3.6622897E-08
   23.28000     -3.6412192E-08
   23.34000     -3.6330061E-08
   23.40000     -3.6424105E-08
   23.46000     -3.6724966E-08
   23.52000     -3.7242945E-08
   23.58000     -3.7968579E-08
   23.64000     -3.8876330E-08
   23.70000     -3.9929880E-08
   23.76000     -4.1087741E-08
   23.82000     -4.2308024E-08
   23.88000     -4.3551790E-08
   23.94000     -4.4784919E-08
   24.00000     -4.5978751E-08
   24.06000     -4.7110078E-08
   24.12000     -4.8161212E-08
   24.18000     -4.9120601E-08
   24.24000     -4.9984145E-08
   24.30000     -5.0756778E-08
   24.36000     -5.1453448E-08
   24.42000     -5.2098368E-08
   24.48000     -5.2721933E-08
   24.54000     -5.3355279E-08
   24.60000     -5.4023602E-08
   24.66000     -5.4739964E-08
   24.72000     -5.5501424E-08
   24.78000     -5.6288869E-08
   24.84000     -5.7070633E-08
   24.90000     -5.7809043E-08
   24.96000     -5.8468071E-08
   25.02000     -5.9020149E-08
   25.08000     -5.9450741E-08
   25.14000     -5.9760012E-08
   25.20000     -5.9961856E-08
   25.26000     -6.0081156E-08
   25.32000     -6.0150143E-08
   25.38000     -6.0204613E-08
   25.44000     -6.0280392E-08
   25.50000     -6.0410173E-08
   25.56000     -6.0620550E-08
   25.62000     -6.0929288E-08
   25.68000     -6.1342959E-08
   25.74000     -6.1855118E-08
   25.80000     -6.2445650E-08
   25.86000     -6.3081558E-08
   25.92000     -6.3719511E-08
   25.98000     -6.4310221E-08
   26.04000     -6.4804006E-08
   26.10000     -6.5156918E-08
   26.16000     -6.5336174E-08
   26.22000     -6.5323867E-08
   26.28000     -6.5118350E-08
   26.34000     -6.4732994E-08
   26.40000     -6.4192797E-08
   26.46000     -6.3529697E-08
   26.52000     -6.2777438E-08
   26.58000     -6.1966887E-08
   26.64000     -6.1122300E-08
   26.70000     -6.0258863E-08
   26.76000     -5.9381641E-08
   26.82000     -5.8485856E-08
   26.88000     -5.7558530E-08
   26.94000     -5.6580994E-08
   27.00000     -5.5531888E-08
   27.06000     -5.4390011E-08
   27.12000     -5.3136528E-08
   27.18000     -5.1756427E-08
   27.24000     -5.0239386E-08
   27.30000     -4.8580507E-08
   27.36000     -4.6781281E-08
   27.42000     -4.4850662E-08
   27.48000     -4.2805777E-08
   27.54000     -4.0671342E-08
   27.60000     -3.8477175E-08
   27.66000     -3.6253788E-08
   27.72000     -3.4026915E-08
   27.78000     -3.1812505E-08
   27.84000     -2.9613835E-08
   27.90000     -2.7421777E-08
   27.96000     -2.5218210E-08
   28.02000     -2.2981517E-08
   28.08000     -2.0692395E-08
   28.14000     -1.8338254E-08
   28.20000     -1.5915182E-08
   28.26000     -1.3427423E-08
   28.32000     -1.0885167E-08
   28.38000     -8.3019636E-09
   28.44000     -5.6928711E-09
   28.50000     -3.0739362E-09
   28.56000     -4.6291748E-10
   28.62000      2.1194246E-09
   28.68000      4.6483986E-09
   28.74000      7.0956392E-09
   28.80000      9.4309742E-09
   28.86000      1.1625803E-08
   28.92000      1.3657313E-08
   28.98000      1.5512537E-08
   29.04000      1.7191082E-08
   29.10000      1.8705645E-08
   29.16000      2.0079931E-08
   29.22000      2.1344334E-08
   29.28000      2.2530365E-08
   29.34000      2.3665205E-08
   29.40000      2.4767743E-08
   29.46000      2.5846939E-08
   29.52000      2.6902637E-08
   29.58000      2.7928206E-08
   29.64000      2.8913885E-08
   29.70000      2.9849687E-08
   29.76000      3.0726977E-08
   29.82000      3.1538548E-08
   29.88000      3.2277466E-08
   29.94000      3.2935500E-08
   30.00000      3.3501916E-08
   30.06000      3.3963367E-08
   30.12000      3.4305039E-08
   30.18000      3.4512908E-08
   30.24000      3.4576452E-08
   30.30000      3.4491062E-08
   30.36000      3.4259365E-08
   30.42000      3.3890899E-08
   30.48000      3.3400134E-08
   30.54000      3.2803108E-08
   30.60000      3.2113615E-08
   30.66000      3.1339955E-08
   30.72000      3.0483221E-08
   30.78000      2.9537716E-08
   30.84000      2.8493366E-08
   30.90000      2.7339549E-08
   30.96000      2.6069081E-08
   31.02000      2.4681230E-08
   31.08000      2.3182972E-08
   31.14000      2.1588290E-08
   31.20000      1.9916044E-08
   31.26000      1.8187302E-08
   31.32000      1.6423007E-08
   31.38000      1.4642476E-08
   31.44000      1.2862675E-08
   31.50000      1.1097813E-08
   31.56000      9.3586516E-09
   31.62000      7.6512690E-09
   31.68000      5.9754521E-09
   31.74000      4.3233710E-09
   31.80000      2.6793121E-09
   31.86000      1.0210295E-09
   31.92000     -6.7722250E-10
   31.98000     -2.4404760E-09
   32.04000     -4.2885366E-09
   32.10000     -6.2321033E-09
   32.16000     -8.2702289E-09
   32.22000     -1.0389451E-08
   32.28000     -1.2564541E-08
   32.34000     -1.4760586E-08
   32.40000     -1.6936010E-08
   32.46000     -1.9046103E-08
   32.52000     -2.1046594E-08
   32.58000     -2.2896815E-08
   32.64000     -2.4562025E-08
   32.70000     -2.6014600E-08
   32.76000     -2.7234124E-08
   32.82000     -2.8206701E-08
   32.88000     -2.8924086E-08
   32.94000     -2.9383218E-08
   33.00000     -2.9586515E-08
   33.06000     -2.9542800E-08
   33.12000     -2.9268364E-08
   33.18000     -2.8787401E-08
   33.24000     -2.8131270E-08
   33.30000     -2.7336371E-08
   33.36000     -2.6440972E-08
   33.42000     -2.5481661E-08
   33.48000     -2.4490260E-08
   33.54000     -2.3491749E-08
   33.60000     -2.2503558E-08
   33.66000     -2.1536174E-08
   33.72000     -2.0594875E-08
   33.78000     -1.9682398E-08
   33.84000     -1.8802199E-08
   33.90000     -1.7961938E-08
   33.96000     -1.7176495E-08
   34.02000     -1.6469711E-08
   34.08000     -1.5874026E-08
   34.14000     -1.5427558E-08
   34.20000     -1.5168972E-08
   34.26000     -1.5131157E-08
   34.32000     -1.5335370E-08
   34.38000     -1.5787560E-08
   34.44000     -1.6477935E-08
   34.50000     -1.7383989E-08
   34.56000     -1.8476074E-08
   34.62000     -1.9723934E-08
   34.68000     -2.1102476E-08
   34.74000     -2.2595328E-08
   34.80000     -2.4195504E-08
   34.86000     -2.5903232E-08
   34.92000     -2.7721615E-08
   34.98000     -2.9651309E-08
   35.04000     -3.1685406E-08
   35.10000     -3.3805822E-08
   35.16000     -3.5982087E-08
   35.22000     -3.8173106E-08
   35.28000     -4.0331617E-08
   35.34000     -4.2410608E-08
   35.40000     -4.4370154E-08
   35.46000     -4.6183132E-08
   35.52000     -4.7838366E-08
   35.58000     -4.9340468E-08
   35.64000     -5.0706525E-08
   35.70000     -5.1960516E-08
   35.76000     -5.3126815E-08
   35.82000     -5.4224348E-08
   35.88000     -5.5262575E-08
   35.94000     -5.6240136E-08
   36.00000     -5.7146295E-08
   36.06000     -5.7964762E-08
   36.12000     -5.8678921E-08
   36.18000     -5.9277095E-08
   36.24000     -5.9756559E-08
   36.30000     -6.0125330E-08
   36.36000     -6.0401476E-08
   36.42000     -6.0610603E-08
   36.48000     -6.0782519E-08
   36.54000     -6.0948331E-08
   36.60000     -6.1138543E-08
   36.66000     -6.1381940E-08
   36.72000     -6.1704405E-08
   36.78000     -6.2126851E-08
   36.84000     -6.2661918E-08
   36.90000     -6.3310317E-08
   36.96000     -6.4058469E-08
   37.02000     -6.4878947E-08
   37.08000     -6.5734589E-08
   37.14000     -6.6585500E-08
   37.20000     -6.7396869E-08
   37.26000     -6.8144949E-08
   37.32000     -6.8819162E-08
   37.38000     -6.9419883E-08
   37.44000     -6.9953103E-08
   37.50000     -7.0424399E-08
   37.56000     -7.0834531E-08
   37.62000     -7.1178320E-08
   37.68000     -7.1446792E-08
   37.74000     -7.1631469E-08
   37.80000     -7.1728991E-08
   37.86000     -7.1744417E-08
   37.92000     -7.1692057E-08
   37.98000     -7.1593526E-08
   38.04000     -7.1473224E-08
   38.10000     -7.1352062E-08
   38.16000     -7.1240606E-08
   38.22000     -7.1133265E-08
   38.28000     -7.1005367E-08
   38.34000     -7.0814572E-08
   38.40000     -7.0507312E-08
   38.46000     -7.0029138E-08
   38.52000     -6.9336657E-08
   38.58000     -6.8407417E-08
   38.64000     -6.7244727E-08
   38.70000     -6.5875639E-08
   38.76000     -6.4342593E-08
   38.82000     -6.2691498E-08
   38.88000     -6.0960147E-08
   38.94000     -5.9170404E-08
   39.00000     -5.7326250E-08
   39.06000     -5.5417445E-08
   39.12000     -5.3426785E-08
   39.18000     -5.1338105E-08
   39.24000     -4.9142340E-08
   39.30000     -4.6840182E-08
   39.36000     -4.4441201E-08
   39.42000     -4.1960309E-08
   39.48000     -3.9413134E-08
   39.54000     -3.6811770E-08
   39.60000     -3.4162159E-08
   39.66000     -3.1463870E-08
   39.72000     -2.8712414E-08
   39.78000     -2.5903676E-08
   39.84000     -2.3039259E-08
   39.90000     -2.0131070E-08
   39.96000     -1.7203419E-08
   40.02000     -1.4291532E-08
   40.08000     -1.1436473E-08
   40.14000     -8.6779002E-09
   40.20000     -6.0469736E-09
   40.26000     -3.5619308E-09
   40.32000     -1.2279142E-09
   40.38000      9.5884545E-10
   40.44000      3.0040124E-09
   40.50000      4.9077920E-09
   40.56000      6.6597696E-09
   40.62000      8.2375866E-09
   40.68000      9.6097370E-09
   40.74000      1.0741434E-08
   40.80000      1.1601712E-08
   40.86000      1.2169725E-08
   40.92000      1.2438636E-08
   40.98000      1.2416155E-08
   41.04000      1.2121675E-08
   41.10000      1.1580733E-08
   41.16000      1.0818268E-08
   41.22000      9.8525739E-09
   41.28000      8.6918739E-09
   41.34000      7.3348372E-09
   41.40000      5.7752190E-09
   41.46000      4.0093306E-09
   41.52000      2.0439248E-09
   41.58000     -9.8374489E-11
   41.64000     -2.3782429E-09
   41.70000     -4.7440558E-09
   41.76000     -7.1402693E-09
   41.82000     -9.5171577E-09
   41.88000     -1.1838913E-08
   41.94000     -1.4087846E-08
   42.00000     -1.6263929E-08
   42.06000     -1.8380421E-08
   42.12000     -2.0457348E-08
   42.18000     -2.2514795E-08
   42.24000     -2.4567486E-08
   42.30000     -2.6621441E-08
   42.36000     -2.8672860E-08
   42.42000     -3.0709042E-08
   42.48000     -3.2711021E-08
   42.54000     -3.4657347E-08
   42.60000     -3.6528323E-08
   42.66000     -3.8309611E-08
   42.72000     -3.9994216E-08
   42.78000     -4.1582268E-08
   42.84000     -4.3078789E-08
   42.90000     -4.4490491E-08
   42.96000     -4.5823167E-08
   43.02000     -4.7080945E-08
   43.08000     -4.8267950E-08
   43.14000     -4.9391698E-08
   43.20000     -5.0466870E-08
   43.26000     -5.1517919E-08
   43.32000     -5.2579491E-08
   43.38000     -5.3694773E-08
   43.44000     -5.4912562E-08
   43.50000     -5.6284374E-08
   43.56000     -5.7862536E-08
   43.62000     -5.9699708E-08
   43.68000     -6.1849725E-08
   43.74000     -6.4369445E-08
   43.80000     -6.7321388E-08
   43.86000     -7.0777077E-08
   43.92000     -7.4821081E-08
   43.98000     -7.9555456E-08
   44.04000     -8.5104091E-08
   44.10000     -9.1616180E-08
   44.16000     -9.9268654E-08
   44.22000     -1.0826790E-07
   44.28000     -1.1885164E-07
   44.34000     -1.3129238E-07
   44.40000     -1.4590289E-07
   44.46000     -1.6304378E-07
   44.52000     -1.8313203E-07
   44.58000     -2.0664918E-07
   44.64000     -2.3414829E-07
   44.70000     -2.6625992E-07
   44.76000     -3.0369802E-07
   44.82000     -3.4726793E-07
   44.88000     -3.9787787E-07
   44.94000     -4.5655472E-07
   45.00000     -5.2446410E-07
   45.06000     -6.0293274E-07
   45.12000     -6.9347209E-07
   45.18000     -7.9780011E-07
   45.24000     -9.1786058E-07
   45.30000     -1.0558387E-06
   45.36000     -1.2141728E-06
   45.42000     -1.3955641E-06
   45.48000     -1.6029858E-06
   45.54000     -1.8396937E-06
   45.60000     -2.1092433E-06
   45.66000     -2.4155095E-06
   45.72000     -2.7627148E-06
   45.78000     -3.1554591E-06
   45.84000     -3.5987532E-06
   45.90000     -4.0980467E-06
   45.96000     -4.6592527E-06
   46.02000     -5.2887644E-06
   46.08000     -5.9934646E-06
   46.14000     -6.7807314E-06
   46.20000     -7.6584329E-06
   46.26000     -8.6349346E-06
   46.32000     -9.7190868E-06
   46.38000     -1.0920232E-05
   46.44000     -1.2248192E-05
   46.50000     -1.3713258E-05
   46.56000     -1.5326183E-05
   46.62000     -1.7098137E-05
   46.68000     -1.9040697E-05
   46.74000     -2.1165799E-05
   46.80000     -2.3485680E-05
   46.86000     -2.6012825E-05
   46.92000     -2.8759896E-05
   46.98000     -3.1739652E-05
   47.04000     -3.4964865E-05
   47.10000     -3.8448226E-05
   47.16000     -4.2202235E-05
   47.22000     -4.6239118E-05
   47.28000     -5.0570681E-05
   47.34000     -5.5208220E-05
   47.40000     -6.0162376E-05
   47.46000     -6.5443004E-05
   47.52000     -7.1059068E-05
   47.58000     -7.7018449E-05
   47.64000     -8.3327854E-05
   47.70000     -8.9992660E-05
   47.76000     -9.7016782E-05
   47.82000     -1.0440253E-04
   47.88000     -1.1215053E-04
   47.94000     -1.2025950E-04
   48.00000     -1.2872631E-04
   48.06000     -1.3754574E-04
   48.12000     -1.4671049E-04
   48.18000     -1.5621104E-04
   48.24000     -1.6603571E-04
   48.30000     -1.7617049E-04
   48.36000     -1.8659915E-04
   48.42000     -1.9730323E-04
   48.48000     -2.0826212E-04
   48.54000     -2.1945305E-04
   48.60000     -2.3085126E-04
   48.66000     -2.4243015E-04
   48.72000     -2.5416136E-04
   48.78000     -2.6601498E-04
   48.84000     -2.7795968E-04
   48.90000     -2.8996295E-04
   48.96000     -3.0199136E-04
   49.02000     -3.1401074E-04
   49.08000     -3.2598662E-04
   49.14000     -3.3788432E-04
   49.20000     -3.4966951E-04
   49.26000     -3.6130831E-04
   49.32000     -3.7276765E-04
   49.38000     -3.8401570E-04
   49.44000     -3.9502201E-04
   49.50000     -4.0575798E-04
   49.56000     -4.1619709E-04
   49.62000     -4.2631518E-04
   49.68000     -4.3609069E-04
   49.74000     -4.4550496E-04
   49.80000     -4.5454229E-04
   49.86000     -4.6319014E-04
   49.92000     -4.7143950E-04
   49.98000     -4.7928473E-04
   50.04000     -4.8672376E-04
   50.10000     -4.9375824E-04
   50.16000     -5.0039333E-04
   50.22000     -5.0663768E-04
   50.28000     -5.1250326E-04
   50.34000     -5.1800528E-04
   50.40000     -5.2316207E-04
   50.46000     -5.2799442E-04
   50.52000     -5.3252594E-04
   50.58000     -5.3678232E-04
   50.64000     -5.4079102E-04
   50.70000     -5.4458115E-04
   50.76000     -5.4818287E-04
   50.82000     -5.5162678E-04
   50.88000     -5.5494410E-04
   50.94000     -5.5816566E-04
   51.00000     -5.6132191E-04
   51.06000     -5.6444231E-04
   51.12000     -5.6755479E-04
   51.18000     -5.7068578E-04
   51.24000     -5.7385926E-04
   51.30000     -5.7709677E-04
   51.36000     -5.8041682E-04
   51.42000     -5.8383512E-04
   51.48000     -5.8736390E-04
   51.54000     -5.9101201E-04
   51.60000     -5.9478485E-04
   51.66000     -5.9868395E-04
   51.72000     -6.0270727E-04
   51.78000     -6.0684892E-04
   51.84000     -6.1109953E-04
   51.90000     -6.1544630E-04
   51.96000     -6.1987294E-04
   52.02000     -6.2436052E-04
   52.08000     -6.2888709E-04
   52.14000     -6.3342857E-04
   52.20000     -6.3795852E-04
   52.26000     -6.4244919E-04
   52.32000     -6.4687128E-04
   52.38000     -6.5119483E-04
   52.44000     -6.5538945E-04
   52.50000     -6.5942475E-04
   52.56000     -6.6327117E-04
   52.62000     -6.6689978E-04
   52.68000     -6.7028310E-04
   52.74000     -6.7339523E-04
   52.80000     -6.7621231E-04
   52.86000     -6.7871279E-04
   52.92000     -6.8087806E-04
   52.98000     -6.8269268E-04
   53.04000     -6.8414421E-04
   53.10000     -6.8522390E-04
   53.16000     -6.8592629E-04
   53.22000     -6.8624929E-04
   53.28000     -6.8619428E-04
   53.34000     -6.8576616E-04
   53.40000     -6.8497314E-04
   53.46000     -6.8382663E-04
   53.52000     -6.8234093E-04
   53.58000     -6.8053330E-04
   53.64000     -6.7842321E-04
   53.70000     -6.7603221E-04
   53.76000     -6.7338347E-04
   53.82000     -6.7050138E-04
   53.88000     -6.6741143E-04
   53.94000     -6.6413975E-04
   54.00000     -6.6071283E-04
   54.06000     -6.5715663E-04
   54.12000     -6.5349665E-04
   54.18000     -6.4975698E-04
   54.24000     -6.4596051E-04
   54.30000     -6.4212800E-04
   54.36000     -6.3827843E-04
   54.42000     -6.3442840E-04
   54.48000     -6.3059229E-04
   54.54000     -6.2678155E-04
   54.60000     -6.2300498E-04
   54.66000     -6.1926804E-04
   54.72000     -6.1557355E-04
   54.78000     -6.1192084E-04
   54.84000     -6.0830661E-04
   54.90000     -6.0472451E-04
   54.96000     -6.0116564E-04
   55.02000     -5.9761858E-04
   55.08000     -5.9406954E-04
   55.14000     -5.9050281E-04
   55.20000     -5.8690086E-04
   55.26000     -5.8324484E-04
   55.32000     -5.7951495E-04
   55.38000     -5.7569041E-04
   55.44000     -5.7175005E-04
   55.50000     -5.6767248E-04
   55.56000     -5.6343648E-04