  -2.400000      0.0000000E+00
  -2.340000      0.0000000E+00
  -2.280000      0.0000000E+00
  -2.220000      0.0000000E+00
  -2.160000      1.1124699E-18
  -2.100000      7.6067604E-18
  -2.040000      2.7119153E-17
  -1.980000      6.5674733E-17
  -1.920000      1.1732607E-16
  -1.860000      1.5342833E-16
  -1.800000      1.1974425E-16
  -1.740000     -5.2475309E-17
  -1.680000     -4.2180134E-16
  -1.620000     -1.0050222E-15
  -1.560000     -1.7467473E-15
  -1.500000     -2.4950399E-15
  -1.440000     -2.9863157E-15
  -1.380000     -2.8503550E-15
  -1.320000     -1.6620036E-15
  -1.260000      9.2553024E-16
  -1.200000      4.9534787E-15
  -1.140000      9.8894451E-15
  -1.080000      1.4457865E-14
  -1.020000      1.6756780E-14
 -0.9600000      1.4790634E-14
 -0.9000000      7.3585420E-15
 -0.8400000     -5.0218313E-15
 -0.7800000     -1.9655267E-14
 -0.7200000     -3.2114932E-14
 -0.6600000     -3.7670025E-14
 -0.6000000     -3.3230539E-14
 -0.5400000     -1.8918564E-14
 -0.4800000      1.6182371E-15
 -0.4200000      2.2474671E-14
 -0.3600000      3.7766356E-14
 -0.3000000      4.3638463E-14
 -0.2400000      3.8748735E-14
 -0.1800000      2.2916625E-14
 -0.1200000     -4.9061377E-15
 -5.9999999E-02 -4.7137058E-14
  0.0000000E+00 -1.0464183E-13
  5.9999999E-02 -1.7049907E-13
  0.1200000     -2.2350719E-13
  0.1800000     -2.2669360E-13
  0.2400000     -1.3571391E-13
  0.3000000      8.1773028E-14
  0.3600000      4.2089352E-13
  0.4200000      8.1949204E-13
  0.4800000      1.1561288E-12
  0.5400000      1.2747419E-12
  0.6000000      1.0343941E-12
  0.6600000      3.7011762E-13
  0.7200000     -6.5808811E-13
  0.7800000     -1.8514378E-12
  0.8400000     -2.9069824E-12
  0.9000000     -3.4962450E-12
  0.9600000     -3.3650413E-12
   1.020000     -2.4205883E-12
   1.080000     -7.7385711E-13
   1.140000      1.2799629E-12
   1.200000      3.3376869E-12
   1.260000      4.9951718E-12
   1.320000      5.9488868E-12
   1.380000      6.0595756E-12
   1.440000      5.3615497E-12
   1.500000      4.0219213E-12
   1.560000      2.2708001E-12
   1.620000      3.2967653E-13
   1.680000     -1.6404041E-12
   1.740000     -3.5627170E-12
   1.800000     -5.4471185E-12
   1.860000     -7.3857066E-12
   1.920000     -9.5565292E-12
   1.980000     -1.2241497E-11
   2.040000     -1.5852254E-11
   2.100000     -2.0947636E-11
   2.160000     -2.8223106E-11
   2.220000     -3.8459493E-11
   2.280000     -5.2432836E-11
   2.340000     -7.0806000E-11
   2.400000     -9.4037417E-11
   2.460000     -1.2234633E-10
   2.520000     -1.5576195E-10
   2.580000     -1.9425737E-10
   2.640000     -2.3793392E-10
   2.700000     -2.8719022E-10
   2.760000     -3.4279815E-10
   2.820000     -4.0582374E-10
   2.880000     -4.7737364E-10
   2.940000     -5.5821309E-10
   3.000000     -6.4835948E-10
   3.060000     -7.4678885E-10
   3.120000     -8.5138241E-10
   3.180000     -9.5917785E-10
   3.240000     -1.0668992E-09
   3.300000     -1.1716422E-09
   3.360000     -1.2715257E-09
   3.420000     -1.3661188E-09
   3.480000     -1.4565104E-09
   3.540000     -1.5449946E-09
   3.600000     -1.6344635E-09
   3.660000     -1.7276818E-09
   3.720000     -1.8266403E-09
   3.780000     -1.9321413E-09
   3.840000     -2.0436877E-09
   3.900000     -2.1596496E-09
   3.960000     -2.2776214E-09
   4.020000     -2.3948550E-09
   4.080000     -2.5086737E-09
   4.140000     -2.6168043E-09
   4.200000     -2.7175941E-09
   4.260000     -2.8101068E-09
   4.320000     -2.8940867E-09
   4.380000     -2.9698020E-09
   4.440000     -3.0377720E-09
   4.500000     -3.0984102E-09
   4.560000     -3.1515950E-09
   4.620000     -3.1961767E-09
   4.680000     -3.2293992E-09
   4.740000     -3.2462164E-09
   4.800000     -3.2385241E-09
   4.860000     -3.1944238E-09
   4.920000     -3.0977372E-09
   4.980000     -2.9280698E-09
   5.040000     -2.6616771E-09
   5.100000     -2.2732292E-09
   5.160000     -1.7382989E-09
   5.220000     -1.0361262E-09
   5.280000     -1.5205046E-10
   5.340000      9.2095992E-10
   5.400000      2.1820121E-09
   5.460000      3.6231749E-09
   5.520000      5.2311346E-09
   5.580000      6.9890080E-09
   5.640000      8.8777146E-09
   5.700000      1.0876577E-08
   5.760000      1.2963126E-08
   5.820000      1.5112429E-08
   5.880000      1.7296356E-08
   5.940000      1.9483210E-08
   6.000000      2.1637904E-08
   6.060000      2.3722784E-08
   6.120000      2.5698936E-08
   6.180000      2.7527859E-08
   6.240000      2.9173323E-08
   6.300000      3.0603267E-08
   6.360000      3.1791501E-08
   6.420000      3.2718916E-08
   6.480000      3.3373933E-08
   6.540000      3.3752006E-08
   6.600000      3.3854221E-08
   6.660000      3.3685410E-08
   6.720000      3.3252373E-08
   6.780000      3.2562813E-08
   6.840000      3.1625387E-08
   6.900000      3.0450845E-08
   6.960000      2.9053712E-08
   7.020000      2.7453847E-08
   7.080000      2.5677116E-08
   7.140000      2.3754858E-08
   7.200000      2.1722119E-08
   7.260000      1.9615129E-08
   7.320000      1.7468560E-08
   7.380000      1.5313050E-08
   7.440000      1.3173303E-08
   7.500000      1.1066803E-08
   7.560000      9.0031529E-09
   7.620000      6.9840898E-09
   7.680000      5.0042508E-09
   7.740000      3.0528049E-09
   7.800000      1.1158623E-09
   7.860000     -8.2064305E-10
   7.920000     -2.7681537E-09
   7.980000     -4.7333337E-09
   8.040000     -6.7169492E-09
   8.100000     -8.7138226E-09
   8.160000     -1.0713586E-08
   8.220000     -1.2701822E-08
   8.280000     -1.4661231E-08
   8.340000     -1.6572788E-08
   8.400000     -1.8416959E-08
   8.460000     -2.0175181E-08
   8.520000     -2.1831569E-08
   8.580000     -2.3374520E-08
   8.640000     -2.4797673E-08
   8.700000     -2.6099755E-08
   8.760000     -2.7283114E-08
   8.820000     -2.8351320E-08
   8.880000     -2.9306520E-08
   8.940000     -3.0147458E-08
   9.000000     -3.0868769E-08
   9.060000     -3.1461678E-08
   9.120000     -3.1915828E-08
   9.180000     -3.2221525E-08
   9.240000     -3.2371950E-08
   9.300000     -3.2364877E-08
   9.360000     -3.2203960E-08
   9.420000     -3.1899646E-08
   9.480000     -3.1469810E-08
   9.540000     -3.0939994E-08
   9.600000     -3.0342932E-08
   9.660000     -2.9717143E-08
   9.720000     -2.9104564E-08
   9.780000     -2.8547445E-08
   9.840000     -2.8085093E-08
   9.900000     -2.7750984E-08
   9.960000     -2.7570628E-08
   10.02000     -2.7560233E-08
   10.08000     -2.7725928E-08
   10.14000     -2.8063289E-08
   10.20000     -2.8556968E-08
   10.26000     -2.9180498E-08
   10.32000     -2.9896512E-08
   10.38000     -3.0657695E-08
   10.44000     -3.1408618E-08
   10.50000     -3.2088405E-08
   10.56000     -3.2634034E-08
   10.62000     -3.2984079E-08
   10.68000     -3.3082582E-08
   10.74000     -3.2883083E-08
   10.80000     -3.2352538E-08
   10.86000     -3.1475050E-08
   10.92000     -3.0254768E-08
   10.98000     -2.8717526E-08
   11.04000     -2.6910522E-08
   11.10000     -2.4899716E-08
   11.16000     -2.2764951E-08
   11.22000     -2.0593271E-08
   11.28000     -1.8471246E-08
   11.34000     -1.6477216E-08
   11.40000     -1.4674407E-08
   11.46000     -1.3105633E-08
   11.52000     -1.1790124E-08
   11.58000     -1.0722746E-08
   11.64000     -9.8756638E-09
   11.70000     -9.2022390E-09
   11.76000     -8.6426981E-09
   11.82000     -8.1309013E-09
   11.88000     -7.6013826E-09
   11.94000     -6.9958617E-09
   12.00000     -6.2685834E-09
   12.06000     -5.3900608E-09
   12.12000     -4.3490251E-09
   12.18000     -3.1525560E-09
   12.24000     -1.8244097E-09
   12.30000     -4.0162904E-10
   12.36000      1.0703974E-09
   12.42000      2.5440308E-09
   12.48000      3.9759454E-09
   12.54000      5.3331961E-09
   12.60000      6.5977210E-09
   12.66000      7.7683859E-09
   12.72000      8.8601215E-09
   12.78000      9.9003223E-09
   12.84000      1.0923266E-08
   12.90000      1.1963751E-08
   12.96000      1.3051202E-08
   13.02000      1.4205320E-08
   13.08000      1.5433910E-08
   13.14000      1.6733003E-08
   13.20000      1.8088897E-08
   13.26000      1.9481456E-08
   13.32000      2.0887713E-08
   13.38000      2.2285031E-08
   13.44000      2.3653158E-08
   13.50000      2.4974893E-08
   13.56000      2.6235623E-08
   13.62000      2.7422182E-08
   13.68000      2.8521869E-08
   13.74000      2.9522280E-08
   13.80000      3.0412348E-08
   13.86000      3.1184456E-08
   13.92000      3.1837004E-08
   13.98000      3.2376491E-08
   14.04000      3.2818118E-08
   14.10000      3.3184431E-08
   14.16000      3.3501806E-08
   14.22000      3.3795633E-08
   14.28000      3.4085144E-08
   14.34000      3.4379251E-08
   14.40000      3.4674535E-08
   14.46000      3.4955978E-08
   14.52000      3.5200422E-08
   14.58000      3.5382044E-08
   14.64000      3.5478600E-08
   14.70000      3.5476937E-08
   14.76000      3.5376502E-08
   14.82000      3.5189963E-08
   14.88000      3.4940793E-08
   14.94000      3.4658445E-08
   15.00000      3.4372444E-08
   15.06000      3.4106858E-08
   15.12000      3.3876574E-08
   15.18000      3.3686216E-08
   15.24000      3.3531730E-08
   15.30000      3.3403786E-08
   15.36000      3.3291865E-08
   15.42000      3.3187519E-08
   15.48000      3.3085968E-08
   15.54000      3.2985657E-08
   15.60000      3.2886270E-08
   15.66000      3.2786144E-08
   15.72000      3.2680227E-08
   15.78000      3.2559559E-08
   15.84000      3.2412522E-08
   15.90000      3.2227693E-08
   15.96000      3.1997381E-08
   16.02000      3.1720795E-08
   16.08000      3.1405708E-08
   16.14000      3.1067916E-08
   16.20000      3.0728390E-08
   16.26000      3.0408614E-08
   16.32000      3.0125189E-08
   16.38000      2.9885097E-08
   16.44000      2.9682923E-08
   16.50000      2.9500914E-08
   16.56000      2.9312000E-08
   16.62000      2.9085161E-08
   16.68000      2.8791733E-08
   16.74000      2.8411113E-08
   16.80000      2.7934302E-08
   16.86000      2.7364445E-08
   16.92000      2.6714361E-08
   16.98000      2.6001858E-08
   17.04000      2.5244338E-08
   17.10000      2.4454209E-08
   17.16000      2.3636460E-08
   17.22000      2.2788921E-08
   17.28000      2.1904972E-08
   17.34000      2.0977662E-08
   17.40000      2.0003817E-08
   17.46000      1.8986718E-08
   17.52000      1.7936362E-08
   17.58000      1.6867121E-08
   17.64000      1.5793399E-08
   17.70000      1.4724457E-08
   17.76000      1.3659959E-08
   17.82000      1.2587461E-08
   17.88000      1.1482612E-08
   17.94000      1.0311997E-08
   18.00000      9.0378993E-09
   18.06000      7.6238145E-09
   18.12000      6.0394396E-09
   18.18000      4.2641868E-09
   18.24000      2.2887425E-09
   18.30000      1.1476160E-10
   18.36000     -2.2467970E-09
   18.42000     -4.7779727E-09
   18.48000     -7.4560553E-09
   18.54000     -1.0255315E-08
   18.60000     -1.3148041E-08
   18.66000     -1.6105028E-08
   18.72000     -1.9095843E-08
   18.78000     -2.2089250E-08
   18.84000     -2.5054124E-08
   18.90000     -2.7960889E-08
   18.96000     -3.0783312E-08
   19.02000     -3.3500218E-08
   19.08000     -3.6096605E-08
   19.14000     -3.8563769E-08
   19.20000     -4.0898318E-08
   19.26000     -4.3100300E-08
   19.32000     -4.5170999E-08
   19.38000     -4.7111183E-08
   19.44000     -4.8920310E-08
   19.50000     -5.0597066E-08
   19.56000     -5.2141019E-08
   19.62000     -5.3554768E-08
   19.68000     -5.4845867E-08
   19.74000     -5.6027673E-08
   19.80000     -5.7118754E-08
   19.86000     -5.8140774E-08
   19.92000     -5.9115475E-08
   19.98000     -6.0061431E-08
   20.04000     -6.0991304E-08
   20.10000     -6.1910278E-08
   20.16000     -6.2815602E-08
   20.22000     -6.3696923E-08
   20.28000     -6.4536898E-08
   20.34000     -6.5311376E-08
   20.40000     -6.5989056E-08
   20.46000     -6.6530724E-08
   20.52000     -6.6888951E-08
   20.58000     -6.7009104E-08
   20.64000     -6.6832520E-08
   20.70000     -6.6302128E-08
   20.76000     -6.5369939E-08
   20.82000     -6.4005320E-08
   20.88000     -6.2202197E-08
   20.94000     -5.9983506E-08
   21.00000     -5.7401568E-08
   21.06000     -5.4533899E-08
   21.12000     -5.1474949E-08
   21.18000     -4.8325049E-08
   21.24000     -4.5178659E-08
   21.30000     -4.2113911E-08
   21.36000     -3.9185476E-08
   21.42000     -3.6421753E-08
   21.48000     -3.3826822E-08
   21.54000     -3.1386289E-08
   21.60000     -2.9075487E-08
   21.66000     -2.6868108E-08
   21.72000     -2.4743281E-08
   21.78000     -2.2689850E-08
   21.84000     -2.0707400E-08
   21.90000     -1.8804593E-08
   21.96000     -1.6996024E-08
   22.02000     -1.5299042E-08
   22.08000     -1.3731690E-08
   22.14000     -1.2312237E-08
   22.20000     -1.1060076E-08
   22.26000     -9.9971098E-09
   22.32000     -9.1486463E-09
   22.38000     -8.5429397E-09
   22.44000     -8.2090654E-09
   22.50000     -8.1733935E-09
   22.56000     -8.4553884E-09
   22.62000     -9.0637258E-09
   22.68000     -9.9936788E-09
   22.74000     -1.1226411E-08
   22.80000     -1.2730424E-08
   22.86000     -1.4464905E-08
   22.92000     -1.6384361E-08
   22.98000     -1.8443632E-08
   23.04000     -2.0602425E-08
   23.10000     -2.2828521E-08
   23.16000     -2.5099320E-08
   23.22000     -2.7401573E-08
   23.28000     -2.9729723E-08
   23.34000     -3.2083395E-08
   23.40000     -3.4464716E-08
   23.46000     -3.6876003E-08
   23.52000     -3.9318195E-08
   23.58000     -4.1790035E-08
   23.64000     -4.4287827E-08
   23.70000     -4.6805429E-08
   23.76000     -4.9334201E-08
   23.82000     -5.1862578E-08
   23.88000     -5.4375345E-08
   23.94000     -5.6852802E-08
   24.00000     -5.9270121E-08
   24.06000     -6.1597447E-08
   24.12000     -6.3801039E-08
   24.18000     -6.5845654E-08
   24.24000     -6.7697847E-08
   24.30000     -6.9329701E-08
   24.36000     -7.0722024E-08
   24.42000     -7.1866147E-08
   24.48000     -7.2763683E-08
   24.54000     -7.3424012E-08
   24.60000     -7.3860022E-08
   24.66000     -7.4083104E-08
   24.72000     -7.4098537E-08
   24.78000     -7.3902733E-08
   24.84000     -7.3482795E-08
   24.90000     -7.2818736E-08
   24.96000     -7.1887669E-08
   25.02000     -7.0668996E-08
   25.08000     -6.9149344E-08
   25.14000     -6.7326283E-08
   25.20000     -6.5210124E-08
   25.26000     -6.2823631E-08
   25.32000     -6.0199959E-08
   25.38000     -5.7379371E-08
   25.44000     -5.4405312E-08
   25.50000     -5.1320669E-08
   25.56000     -4.8164548E-08
   25.62000     -4.4970108E-08
   25.68000     -4.1763489E-08
   25.74000     -3.8563890E-08
   25.80000     -3.5384513E-08
   25.86000     -3.2234016E-08
   25.92000     -2.9118139E-08
   25.98000     -2.6040995E-08
   26.04000     -2.3006026E-08
   26.10000     -2.0016467E-08
   26.16000     -1.7075555E-08
   26.22000     -1.4186735E-08
   26.28000     -1.1354090E-08
   26.34000     -8.5830765E-09
   26.40000     -5.8815139E-09
   26.46000     -3.2606355E-09
   26.52000     -7.3589407E-10
   26.58000      1.6726843E-09
   26.64000      3.9407735E-09
   26.70000      6.0406928E-09
   26.76000      7.9429956E-09
   26.82000      9.6186241E-09
   26.88000      1.1041517E-08
   26.94000      1.2191514E-08
   27.00000      1.3057307E-08
   27.06000      1.3639050E-08
   27.12000      1.3950077E-08
   27.18000      1.4017198E-08
   27.24000      1.3879061E-08
   27.30000      1.3582397E-08
   27.36000      1.3176418E-08
   27.42000      1.2706094E-08
   27.48000      1.2205521E-08
   27.54000      1.1692760E-08
   27.60000      1.1167378E-08
   27.66000      1.0611490E-08
   27.72000      9.9943485E-09
   27.78000      9.2797121E-09
   27.84000      8.4345597E-09
   27.90000      7.4373383E-09
   27.96000      6.2839827E-09
   28.02000      4.9904285E-09
   28.08000      3.5910956E-09
   28.14000      2.1337201E-09
   28.20000      6.7168981E-10
   28.26000     -7.4445827E-10
   28.32000     -2.0745992E-09
   28.38000     -3.2941325E-09
   28.44000     -4.3957376E-09
   28.50000     -5.3876295E-09
   28.56000     -6.2889507E-09
   28.62000     -7.1235546E-09
   28.68000     -7.9137168E-09
   28.74000     -8.6752729E-09
   28.80000     -9.4152117E-09
   28.86000     -1.0132082E-08
   28.92000     -1.0818785E-08
   28.98000     -1.1466706E-08
   29.04000     -1.2069779E-08
   29.10000     -1.2627217E-08
   29.16000     -1.3144032E-08
   29.22000     -1.3629205E-08
   29.28000     -1.4092122E-08
   29.34000     -1.4538332E-08
   29.40000     -1.4966041E-08
   29.46000     -1.5364460E-08
   29.52000     -1.5714695E-08
   29.58000     -1.5993180E-08
   29.64000     -1.6176914E-08
   29.70000     -1.6249288E-08
   29.76000     -1.6205068E-08
   29.82000     -1.6053178E-08
   29.88000     -1.5816545E-08
   29.94000     -1.5528855E-08
   30.00000     -1.5228945E-08
   30.06000     -1.4954098E-08
   30.12000     -1.4733826E-08
   30.18000     -1.4585535E-08
   30.24000     -1.4513000E-08
   30.30000     -1.4507727E-08
   30.36000     -1.4552618E-08
   30.42000     -1.4626740E-08
   30.48000     -1.4709946E-08
   30.54000     -1.4786239E-08
   30.60000     -1.4845372E-08
   30.66000     -1.4882723E-08
   30.72000     -1.4897984E-08
   30.78000     -1.4893400E-08
   30.84000     -1.4872216E-08
   30.90000     -1.4837735E-08
   30.96000     -1.4793009E-08
   31.02000     -1.4740936E-08
   31.08000     -1.4684394E-08
   31.14000     -1.4626103E-08
   31.20000     -1.4568100E-08
   31.26000     -1.4510859E-08
   31.32000     -1.4452347E-08
   31.38000     -1.4387300E-08
   31.44000     -1.4307058E-08
   31.50000     -1.4200118E-08
   31.56000     -1.4053443E-08
   31.62000     -1.3854357E-08
   31.68000     -1.3592725E-08
   31.74000     -1.3262998E-08
   31.80000     -1.2865702E-08
   31.86000     -1.2408059E-08
   31.92000     -1.1903535E-08
   31.98000     -1.1370375E-08
   32.04000     -1.0829360E-08
   32.10000     -1.0301217E-08
   32.16000     -9.8041859E-09
   32.22000     -9.3522408E-09
   32.28000     -8.9543049E-09
   32.34000     -8.6146086E-09
   32.40000     -8.3340437E-09
   32.46000     -8.1121323E-09
   32.52000     -7.9490565E-09
   32.58000     -7.8471620E-09
   32.64000     -7.8114972E-09
   32.70000     -7.8491862E-09
   32.76000     -7.9678051E-09
   32.82000     -8.1732114E-09
   32.88000     -8.4674676E-09
   32.94000     -8.8474961E-09
   33.00000     -9.3049000E-09
   33.06000     -9.8270609E-09
   33.12000     -1.0399292E-08
   33.18000     -1.1007512E-08
   33.24000     -1.1640798E-08
   33.30000     -1.2293219E-08
   33.36000     -1.2964506E-08
   33.42000     -1.3659428E-08
   33.48000     -1.4385980E-08
   33.54000     -1.5152771E-08
   33.60000     -1.5966123E-08
   33.66000     -1.6827533E-08
   33.72000     -1.7732045E-08
   33.78000     -1.8667970E-08
   33.84000     -1.9618197E-08
   33.90000     -2.0562897E-08
   33.96000     -2.1483217E-08
   34.02000     -2.2365123E-08
   34.08000     -2.3202594E-08
   34.14000     -2.3999268E-08
   34.20000     -2.4768111E-08
   34.26000     -2.5528930E-08
   34.32000     -2.6304201E-08
   34.38000     -2.7113924E-08
   34.44000     -2.7970524E-08
   34.50000     -2.8874828E-08
   34.56000     -2.9814000E-08
   34.62000     -3.0761996E-08
   34.68000     -3.1682777E-08
   34.74000     -3.2535926E-08
   34.80000     -3.3283932E-08
   34.86000     -3.3899820E-08
   34.92000     -3.4373642E-08
   34.98000     -3.4716098E-08
   35.04000     -3.4958219E-08
   35.10000     -3.5146609E-08
   35.16000     -3.5334910E-08
   35.22000     -3.5573244E-08
   35.28000     -3.5897994E-08
   35.34000     -3.6324511E-08
   35.40000     -3.6844661E-08
   35.46000     -3.7429896E-08
   35.52000     -3.8039143E-08
   35.58000     -3.8629445E-08
   35.64000     -3.9166544E-08
   35.70000     -3.9632809E-08
   35.76000     -4.0030592E-08
   35.82000     -4.0380453E-08
   35.88000     -4.0715125E-08
   35.94000     -4.1071026E-08
   36.00000     -4.1479630E-08
   36.06000     -4.1960799E-08
   36.12000     -4.2519297E-08
   36.18000     -4.3144897E-08
   36.24000     -4.3815430E-08
   36.30000     -4.4501544E-08
   36.36000     -4.5171888E-08
   36.42000     -4.5797485E-08
   36.48000     -4.6354788E-08
   36.54000     -4.6827250E-08
   36.60000     -4.7205848E-08
   36.66000     -4.7488907E-08
   36.72000     -4.7681741E-08
   36.78000     -4.7796103E-08
   36.84000     -4.7849312E-08
   36.90000     -4.7862926E-08
   36.96000     -4.7860659E-08
   37.02000     -4.7865772E-08
   37.08000     -4.7898137E-08
   37.14000     -4.7971540E-08
   37.20000     -4.8091625E-08
   37.26000     -4.8254762E-08
   37.32000     -4.8447962E-08
   37.38000     -4.8649724E-08
   37.44000     -4.8831723E-08
   37.50000     -4.8961294E-08
   37.56000     -4.9004509E-08
   37.62000     -4.8929746E-08
   37.68000     -4.8711222E-08
   37.74000     -4.8331980E-08
   37.80000     -4.7785512E-08
   37.86000     -4.7075574E-08
   37.92000     -4.6214094E-08
   37.98000     -4.5217551E-08
   38.04000     -4.4102787E-08
   38.10000     -4.2883151E-08
   38.16000     -4.1565883E-08
   38.22000     -4.0151040E-08
   38.28000     -3.8631804E-08
   38.34000     -3.6995747E-08
   38.40000     -3.5226513E-08
   38.46000     -3.3305660E-08
   38.52000     -3.1214629E-08
   38.58000     -2.8937061E-08
   38.64000     -2.6461459E-08
   38.70000     -2.3784073E-08
   38.76000     -2.0911418E-08
   38.82000     -1.7861728E-08
   38.88000     -1.4664790E-08
   38.94000     -1.1359959E-08
   39.00000     -7.9927034E-09
   39.06000     -4.6104924E-09
   39.12000     -1.2589448E-09
   39.18000      2.0209456E-09
   39.24000      5.1941305E-09
   39.30000      8.2314369E-09
   39.36000      1.1108535E-08
   39.42000      1.3804514E-08
   39.48000      1.6300572E-08
   39.54000      1.8579138E-08
   39.60000      2.0623533E-08
   39.66000      2.2418076E-08
   39.72000      2.3948543E-08
   39.78000      2.5202748E-08
   39.84000      2.6171211E-08
   39.90000      2.6847770E-08
   39.96000      2.7230213E-08
   40.02000      2.7320889E-08
   40.08000      2.7127339E-08
   40.14000      2.6662839E-08
   40.20000      2.5946640E-08
   40.26000      2.5003610E-08
   40.32000      2.3862963E-08
   40.38000      2.2556010E-08
   40.44000      2.1113230E-08
   40.50000      1.9561313E-08
   40.56000      1.7921137E-08
   40.62000      1.6207498E-08
   40.68000      1.4430960E-08
   40.74000      1.2601440E-08
   40.80000      1.0732385E-08
   40.86000      8.8440659E-09
   40.92000      6.9645818E-09
   40.98000      5.1278901E-09
   41.04000      3.3691816E-09
   41.10000      1.7187936E-09
   41.16000      1.9636535E-10
   41.22000     -1.1931637E-09
   41.28000     -2.4607334E-09
   41.34000     -3.6313985E-09
   41.40000     -4.7402855E-09
   41.46000     -5.8273755E-09
   41.52000     -6.9322845E-09
   41.58000     -8.0899447E-09
   41.64000     -9.3277315E-09
   41.70000     -1.0664214E-08
   41.76000     -1.2109467E-08
   41.82000     -1.3666679E-08
   41.88000     -1.5334660E-08
   41.94000     -1.7110690E-08
   42.00000     -1.8993070E-08
   42.06000     -2.0982815E-08
   42.12000     -2.3084143E-08
   42.18000     -2.5303818E-08
   42.24000     -2.7649767E-08
   42.30000     -3.0129605E-08
   42.36000     -3.2749696E-08
   42.42000     -3.5515008E-08
   42.48000     -3.8429665E-08
   42.54000     -4.1497724E-08
   42.60000     -4.4723659E-08
   42.66000     -4.8112206E-08
   42.72000     -5.1667687E-08
   42.78000     -5.5393322E-08
   42.84000     -5.9291228E-08
   42.90000     -6.3363636E-08
   42.96000     -6.7615609E-08
   43.02000     -7.2058803E-08
   43.08000     -7.6715459E-08
   43.14000     -8.1621735E-08
   43.20000     -8.6829644E-08
   43.26000     -9.2407468E-08
   43.32000     -9.8439180E-08
   43.38000     -1.0502397E-07
   43.44000     -1.1227736E-07
   43.50000     -1.2033470E-07
   43.56000     -1.2935786E-07
   43.62000     -1.3954414E-07
   43.68000     -1.5113649E-07
   43.74000     -1.6443288E-07
   43.80000     -1.7979326E-07
   43.86000     -1.9764316E-07
   43.92000     -2.1847413E-07
   43.98000     -2.4284236E-07
   44.04000     -2.7136792E-07
   44.10000     -3.0473714E-07
   44.16000     -3.4370984E-07
   44.22000     -3.8913245E-07
   44.28000     -4.4195602E-07
   44.34000     -5.0325770E-07
   44.40000     -5.7426280E-07
   44.46000     -6.5636544E-07
   44.52000     -7.5114650E-07
   44.58000     -8.6038773E-07
   44.64000     -9.8608416E-07
   44.70000     -1.1304548E-06
   44.76000     -1.2959531E-06
   44.82000     -1.4852811E-06
   44.88000     -1.7014052E-06
   44.94000     -1.9475744E-06
   45.00000     -2.2273437E-06
   45.06000     -2.5445975E-06
   45.12000     -2.9035746E-06
   45.18000     -3.3088927E-06
   45.24000     -3.7655714E-06
   45.30000     -4.2790493E-06
   45.36000     -4.8552033E-06
   45.42000     -5.5003597E-06
   45.48000     -6.2213089E-06
   45.54000     -7.0253100E-06
   45.60000     -7.9201000E-06
   45.66000     -8.9138975E-06
   45.72000     -1.0015401E-05
   45.78000     -1.1233786E-05
   45.84000     -1.2578694E-05
   45.90000     -1.4060213E-05
   45.96000     -1.5688864E-05
   46.02000     -1.7475553E-05
   46.08000     -1.9431553E-05
   46.14000     -2.1568445E-05
   46.20000     -2.3898085E-05
   46.26000     -2.6432535E-05
   46.32000     -2.9184013E-05
   46.38000     -3.2164819E-05
   46.44000     -3.5387257E-05
   46.50000     -3.8863560E-05
   46.56000     -4.2605789E-05
   46.62000     -4.6625726E-05
   46.68000     -5.0934781E-05
   46.74000     -5.5543864E-05
   46.80000     -6.0463259E-05
   46.86000     -6.5702538E-05
   46.92000     -7.1270399E-05
   46.98000     -7.7174547E-05
   47.04000     -8.3421597E-05
   47.10000     -9.0016903E-05
   47.16000     -9.6964475E-05
   47.22000     -1.0426683E-04
   47.28000     -1.1192491E-04
   47.34000     -1.1993792E-04
   47.40000     -1.2830333E-04
   47.46000     -1.3701672E-04
   47.52000     -1.4607172E-04
   47.58000     -1.5545994E-04
   47.64000     -1.6517102E-04
   47.70000     -1.7519250E-04
   47.76000     -1.8550993E-04
   47.82000     -1.9610679E-04
   47.88000     -2.0696469E-04
   47.94000     -2.1806323E-04
   48.00000     -2.2938025E-04
   48.06000     -2.4089190E-04
   48.12000     -2.5257270E-04
   48.18000     -2.6439576E-04
   48.24000     -2.7633298E-04
   48.30000     -2.8835525E-04
   48.36000     -3.0043256E-04
   48.42000     -3.1253442E-04
   48.48000     -3.2463006E-04
   48.54000     -3.3668856E-04
   48.60000     -3.4867920E-04
   48.66000     -3.6057181E-04
   48.72000     -3.7233697E-04
   48.78000     -3.8394626E-04
   48.84000     -3.9537260E-04
   48.90000     -4.0659058E-04
   48.96000     -4.1757664E-04
   49.02000     -4.2830926E-04
   49.08000     -4.3876929E-04
   49.14000     -4.4894015E-04
   49.20000     -4.5880786E-04
   49.26000     -4.6836140E-04
   49.32000     -4.7759252E-04
   49.38000     -4.8649617E-04
   49.44000     -4.9507018E-04
   49.50000     -5.0331565E-04
   49.56000     -5.1123637E-04
   49.62000     -5.1883946E-04
   49.68000     -5.2613462E-04
   49.74000     -5.3313427E-04
   49.80000     -5.3985330E-04
   49.86000     -5.4630870E-04
   49.92000     -5.5251963E-04
   49.98000     -5.5850681E-04
   50.04000     -5.6429248E-04
   50.10000     -5.6989980E-04
   50.16000     -5.7535263E-04
   50.22000     -5.8067514E-04
   50.28000     -5.8589131E-04
   50.34000     -5.9102452E-04
   50.40000     -5.9609726E-04
   50.46000     -6.0113095E-04
   50.52000     -6.0614519E-04
   50.58000     -6.1115780E-04
   50.64000     -6.1618432E-04
   50.70000     -6.2123797E-04
   50.76000     -6.2632881E-04
   50.82000     -6.3146400E-04
   50.88000     -6.3664728E-04
   50.94000     -6.4187939E-04
   51.00000     -6.4715743E-04
   51.06000     -6.5247540E-04
   51.12000     -6.5782369E-04
   51.18000     -6.6318957E-04
   51.24000     -6.6855701E-04
   51.30000     -6.7390705E-04
   51.36000     -6.7921798E-04
   51.42000     -6.8446546E-04
   51.48000     -6.8962312E-04
   51.54000     -6.9466280E-04
   51.60000     -6.9955469E-04
   51.66000     -7.0426817E-04
   51.72000     -7.0877210E-04
   51.78000     -7.1303500E-04
   51.84000     -7.1702577E-04
   51.90000     -7.2071404E-04
   51.96000     -7.2407076E-04
   52.02000     -7.2706840E-04
   52.08000     -7.2968152E-04
   52.14000     -7.3188730E-04
   52.20000     -7.3366577E-04
   52.26000     -7.3500036E-04
   52.32000     -7.3587790E-04
   52.38000     -7.3628890E-04
   52.44000     -7.3622772E-04
   52.50000     -7.3569280E-04
   52.56000     -7.3468656E-04
   52.62000     -7.3321542E-04
   52.68000     -7.3128997E-04
   52.74000     -7.2892493E-04
   52.80000     -7.2613882E-04
   52.86000     -7.2295382E-04
   52.92000     -7.1939547E-04
   52.98000     -7.1549241E-04
   53.04000     -7.1127573E-04
   53.10000     -7.0677913E-04
   53.16000     -7.0203800E-04
   53.22000     -6.9708907E-04
   53.28000     -6.9197023E-04
   53.34000     -6.8671978E-04
   53.40000     -6.8137614E-04
   53.46000     -6.7597697E-04
   53.52000     -6.7055895E-04
   53.58000     -6.6515716E-04
   53.64000     -6.5980473E-04
   53.70000     -6.5453240E-04
   53.76000     -6.4936833E-04
   53.82000     -6.4433727E-04
   53.88000     -6.3946086E-04
   53.94000     -6.3475705E-04
   54.00000     -6.3023978E-04
   54.06000     -6.2591897E-04
   54.12000     -6.2180054E-04
   54.18000     -6.1788602E-04
   54.24000     -6.1417307E-04
   54.30000     -6.1065512E-04
   54.36000     -6.0732180E-04
   54.42000     -6.0415897E-04
   54.48000     -6.0114893E-04
   54.54000     -5.9827080E-04
   54.60000     -5.9550063E-04
   54.66000     -5.9281202E-04
   54.72000     -5.9017638E-04
   54.78000     -5.8756355E-04
   54.84000     -5.8494235E-04
   54.90000     -5.8228074E-04
   54.96000     -5.7954626E-04
   55.02000     -5.7670666E-04
   55.08000     -5.7372998E-04
   55.14000     -5.7058537E-04
   55.20000     -5.6724314E-04
   55.26000     -5.6367565E-04
   55.32000     -5.5985735E-04
   55.38000     -5.5576535E-04
   55.44000     -5.5137975E-04
   55.50000     -5.4668350E-04
   55.56000     -5.4166280E-04