  -2.400000      0.0000000E+00
  -2.340000      0.0000000E+00
  -2.280000      0.0000000E+00
  -2.220000      0.0000000E+00
  -2.160000      3.3891287E-18
  -2.100000      2.3360763E-17
  -2.040000      8.3062903E-17
  -1.980000      1.9554687E-16
  -1.920000      3.1885539E-16
  -1.860000      3.0661693E-16
  -1.800000     -9.6683345E-17
  -1.740000     -1.1580495E-15
  -1.680000     -2.9337444E-15
  -1.620000     -4.9835281E-15
  -1.560000     -6.1819654E-15
  -1.500000     -4.8403804E-15
  -1.440000      7.0638096E-16
  -1.380000      1.1091047E-14
  -1.320000      2.4808153E-14
  -1.260000      3.7577326E-14
  -1.200000      4.2782787E-14
  -1.140000      3.3330940E-14
  -1.080000      4.7132297E-15
  -1.020000     -4.1611842E-14
 -0.9600000     -9.5915253E-14
 -0.9000000     -1.4043496E-13
 -0.8400000     -1.5307178E-13
 -0.7800000     -1.1436201E-13
 -0.7200000     -1.6188248E-14
 -0.6600000      1.3046347E-13
 -0.6000000      2.9185950E-13
 -0.5400000      4.1460693E-13
 -0.4800000      4.3652766E-13
 -0.4200000      3.0411725E-13
 -0.3600000     -6.9292708E-15
 -0.3000000     -4.7330895E-13
 -0.2400000     -1.0134723E-12
 -0.1800000     -1.4894993E-12
 -0.1200000     -1.7242032E-12
 -5.9999999E-02 -1.5335632E-12
  0.0000000E+00 -7.7191172E-13
  5.9999999E-02  6.1522461E-13
  0.1200000      2.5382970E-12
  0.1800000      4.7215352E-12
  0.2400000      6.6853177E-12
  0.3000000      7.7697709E-12
  0.3600000      7.2162966E-12
  0.4200000      4.3181977E-12
  0.4800000     -1.3618833E-12
  0.5400000     -9.7318369E-12
  0.6000000     -1.9918692E-11
  0.6600000     -3.0103267E-11
  0.7200000     -3.7532935E-11
  0.7800000     -3.8798003E-11
  0.8400000     -3.0421447E-11
  0.9000000     -9.7459679E-12
  0.9600000      2.3986257E-11
   1.020000      6.8560768E-11
   1.080000      1.1800129E-10
   1.140000      1.6237288E-10
   1.200000      1.8845325E-10
   1.260000      1.8143631E-10
   1.320000      1.2764832E-10
   1.380000      1.8028174E-11
   1.440000     -1.4810680E-10
   1.500000     -3.5966494E-10
   1.560000     -5.9147998E-10
   1.620000     -8.0375939E-10
   1.680000     -9.4371344E-10
   1.740000     -9.4945440E-10
   1.800000     -7.5585532E-10
   1.860000     -3.0168190E-10
   1.920000      4.6296092E-10
   1.980000      1.5699277E-09
   2.040000      3.0280460E-09
   2.100000      4.8205444E-09
   2.160000      6.9052173E-09
   2.220000      9.2172110E-09
   2.280000      1.1673952E-08
   2.340000      1.4181472E-08
   2.400000      1.6641287E-08
   2.460000      1.8957037E-08
   2.520000      2.1040300E-08
   2.580000      2.2815231E-08
   2.640000      2.4221919E-08
   2.700000      2.5218570E-08
   2.760000      2.5782676E-08
   2.820000      2.5911325E-08
   2.880000      2.5620707E-08
   2.940000      2.4944812E-08
   3.000000      2.3933195E-08
   3.060000      2.2647811E-08
   3.120000      2.1158986E-08
   3.180000      1.9540790E-08
   3.240000      1.7866281E-08
   3.300000      1.6203103E-08
   3.360000      1.4610023E-08
   3.420000      1.3134698E-08
   3.480000      1.1812806E-08
   3.540000      1.0668368E-08
   3.600000      9.7148600E-09
   3.660000      8.9566701E-09
   3.720000      8.3904572E-09
   3.780000      8.0062339E-09
   3.840000      7.7882278E-09
   3.900000      7.7158218E-09
   3.960000      7.7649718E-09
   4.020000      7.9103986E-09
   4.080000      8.1285441E-09
   4.140000      8.4008462E-09
   4.200000      8.7165191E-09
   4.260000      9.0737791E-09
   4.320000      9.4786650E-09
   4.380000      9.9410826E-09
   4.440000      1.0468514E-08
   4.500000      1.1058722E-08
   4.560000      1.1693403E-08
   4.620000      1.2334863E-08
   4.680000      1.2927341E-08
   4.740000      1.3403479E-08
   4.800000      1.3695078E-08
   4.860000      1.3745876E-08
   4.920000      1.3523259E-08
   4.980000      1.3025675E-08
   5.040000      1.2283357E-08
   5.100000      1.1351488E-08
   5.160000      1.0296863E-08
   5.220000      9.1809405E-09
   5.280000      8.0433384E-09
   5.340000      6.8900770E-09
   5.400000      5.6899681E-09
   5.460000      4.3807402E-09
   5.520000      2.8840772E-09
   5.580000      1.1264366E-09
   5.640000     -9.3919494E-10
   5.700000     -3.3160317E-09
   5.760000     -5.9553305E-09
   5.820000     -8.7599537E-09
   5.880000     -1.1599436E-08
   5.940000     -1.4333449E-08
   6.000000     -1.6838257E-08
   6.060000     -1.9029887E-08
   6.120000     -2.0878320E-08
   6.180000     -2.2409170E-08
   6.240000     -2.3692476E-08
   6.300000     -2.4821425E-08
   6.360000     -2.5886468E-08
   6.420000     -2.6951396E-08
   6.480000     -2.8037435E-08
   6.540000     -2.9119322E-08
   6.600000     -3.0134153E-08
   6.660000     -3.1000539E-08
   6.720000     -3.1642976E-08
   6.780000     -3.2015151E-08
   6.840000     -3.2116152E-08
   6.900000     -3.1995622E-08
   6.960000     -3.1746662E-08
   7.020000     -3.1488380E-08
   7.080000     -3.1342406E-08
   7.140000     -3.1409073E-08
   7.200000     -3.1748698E-08
   7.260000     -3.2371950E-08
   7.320000     -3.3241008E-08
   7.380000     -3.4280529E-08
   7.440000     -3.5395445E-08
   7.500000     -3.6491265E-08
   7.560000     -3.7492377E-08
   7.620000     -3.8354745E-08
   7.680000     -3.9070880E-08
   7.740000     -3.9666737E-08
   7.800000     -4.0192027E-08
   7.860000     -4.0706357E-08
   7.920000     -4.1264475E-08
   7.980000     -4.1903458E-08
   8.040000     -4.2634333E-08
   8.100000     -4.3439218E-08
   8.160000     -4.4274174E-08
   8.220000     -4.5076671E-08
   8.280000     -4.5775828E-08
   8.340000     -4.6303207E-08
   8.400000     -4.6602004E-08
   8.460000     -4.6633058E-08
   8.520000     -4.6376840E-08
   8.580000     -4.5831651E-08
   8.640000     -4.5009003E-08
   8.700000     -4.3927873E-08
   8.760000     -4.2609429E-08
   8.820000     -4.1073726E-08
   8.880000     -3.9339000E-08
   8.940000     -3.7423380E-08
   9.000000     -3.5348137E-08
   9.060000     -3.3141017E-08
   9.120000     -3.0838269E-08
   9.180000     -2.8484365E-08
   9.240000     -2.6129030E-08
   9.300000     -2.3822079E-08
   9.360000     -2.1607073E-08
   9.420000     -1.9515152E-08
   9.480000     -1.7560460E-08
   9.540000     -1.5738156E-08
   9.600000     -1.4025566E-08
   9.660000     -1.2386328E-08
   9.720000     -1.0776899E-08
   9.780000     -9.1542622E-09
   9.840000     -7.4834912E-09
   9.900000     -5.7438885E-09
   9.960000     -3.9326573E-09
   10.02000     -2.0656281E-09
   10.08000     -1.7509282E-10
   10.14000      1.6946791E-09
   10.20000      3.4933614E-09
   10.26000      5.1710054E-09
   10.32000      6.6842092E-09
   10.38000      8.0015106E-09
   10.44000      9.1077110E-09
   10.50000      1.0006912E-08
   10.56000      1.0723982E-08
   10.62000      1.1304027E-08
   10.68000      1.1809385E-08
   10.74000      1.2313780E-08
   10.80000      1.2893741E-08
   10.86000      1.3617979E-08
   10.92000      1.4536186E-08
   10.98000      1.5669304E-08
   11.04000      1.7003471E-08
   11.10000      1.8489553E-08
   11.16000      2.0049267E-08
   11.22000      2.1587452E-08
   11.28000      2.3008681E-08
   11.34000      2.4234996E-08
   11.40000      2.5221070E-08
   11.46000      2.5963322E-08
   11.52000      2.6500764E-08
   11.58000      2.6907205E-08
   11.64000      2.7276634E-08
   11.70000      2.7705083E-08
   11.76000      2.8273224E-08
   11.82000      2.9033437E-08
   11.88000      3.0003807E-08
   11.94000      3.1169503E-08
   12.00000      3.2490107E-08
   12.06000      3.3910140E-08
   12.12000      3.5369830E-08
   12.18000      3.6813606E-08
   12.24000      3.8195289E-08
   12.30000      3.9480216E-08
   12.36000      4.0645425E-08
   12.42000      4.1679474E-08
   12.48000      4.2582759E-08
   12.54000      4.3368281E-08
   12.60000      4.4062098E-08
   12.66000      4.4701970E-08
   12.72000      4.5333298E-08
   12.78000      4.6002093E-08
   12.84000      4.6746244E-08
   12.90000      4.7587040E-08
   12.96000      4.8523528E-08
   13.02000      4.9531625E-08
   13.08000      5.0568673E-08
   13.14000      5.1582528E-08
   13.20000      5.2522921E-08
   13.26000      5.3351965E-08
   13.32000      5.4051110E-08
   13.38000      5.4622749E-08
   13.44000      5.5086307E-08
   13.50000      5.5470274E-08
   13.56000      5.5802701E-08
   13.62000      5.6102959E-08
   13.68000      5.6377100E-08
   13.74000      5.6617903E-08
   13.80000      5.6809302E-08
   13.86000      5.6933636E-08
   13.92000      5.6979324E-08
   13.98000      5.6946558E-08
   14.04000      5.6849235E-08
   14.10000      5.6712434E-08
   14.16000      5.6566094E-08
   14.22000      5.6436598E-08
   14.28000      5.6338710E-08
   14.34000      5.6270171E-08
   14.40000      5.6210649E-08
   14.46000      5.6125565E-08
   14.52000      5.5974034E-08
   14.58000      5.5718896E-08
   14.64000      5.5336315E-08
   14.70000      5.4822348E-08
   14.76000      5.4194743E-08
   14.82000      5.3489401E-08
   14.88000      5.2752540E-08
   14.94000      5.2030661E-08
   15.00000      5.1361059E-08
   15.06000      5.0765536E-08
   15.12000      5.0248673E-08
   15.18000      4.9800953E-08
   15.24000      4.9405276E-08
   15.30000      4.9044512E-08
   15.36000      4.8707623E-08
   15.42000      4.8392408E-08
   15.48000      4.8104202E-08
   15.54000      4.7851348E-08
   15.60000      4.7639237E-08
   15.66000      4.7465274E-08
   15.72000      4.7316586E-08
   15.78000      4.7171493E-08
   15.84000      4.7004345E-08
   15.90000      4.6792177E-08
   15.96000      4.6521205E-08
   16.02000      4.6190916E-08
   16.08000      4.5814577E-08
   16.14000      4.5415710E-08
   16.20000      4.5021608E-08
   16.26000      4.4655589E-08
   16.32000      4.4330186E-08
   16.38000      4.4043137E-08
   16.44000      4.3777341E-08
   16.50000      4.3504627E-08
   16.56000      4.3192447E-08
   16.62000      4.2811553E-08
   16.68000      4.2342752E-08
   16.74000      4.1780989E-08
   16.80000      4.1135806E-08
   16.86000      4.0428120E-08
   16.92000      3.9684224E-08
   16.98000      3.8928384E-08
   17.04000      3.8175877E-08
   17.10000      3.7428034E-08
   17.16000      3.6670507E-08
   17.22000      3.5875178E-08
   17.28000      3.5005293E-08
   17.34000      3.4022758E-08
   17.40000      3.2895780E-08
   17.46000      3.1605079E-08
   17.52000      3.0147071E-08
   17.58000      2.8533188E-08
   17.64000      2.6785548E-08
   17.70000      2.4930067E-08
   17.76000      2.2988878E-08
   17.82000      2.0974015E-08
   17.88000      1.8883902E-08
   17.94000      1.6703398E-08
   18.00000      1.4407061E-08
   18.06000      1.1964568E-08
   18.12000      9.3467456E-09
   18.18000      6.5308208E-09
   18.24000      3.5039631E-09
   18.30000      2.6486785E-10
   18.36000     -3.1763232E-09
   18.42000     -6.7991963E-09
   18.48000     -1.0574803E-08
   18.54000     -1.4467695E-08
   18.60000     -1.8438241E-08
   18.66000     -2.2445416E-08
   18.72000     -2.6450065E-08
   18.78000     -3.0418466E-08
   18.84000     -3.4325669E-08
   18.90000     -3.8157928E-08
   18.96000     -4.1913548E-08
   19.02000     -4.5601841E-08
   19.08000     -4.9240146E-08
   19.14000     -5.2849476E-08
   19.20000     -5.6449416E-08
   19.26000     -6.0053061E-08
   19.32000     -6.3662810E-08
   19.38000     -6.7267543E-08
   19.44000     -7.0841665E-08
   19.50000     -7.4346389E-08
   19.56000     -7.7733468E-08
   19.62000     -8.0951210E-08
   19.68000     -8.3952251E-08
   19.74000     -8.6701988E-08
   19.80000     -8.9186024E-08
   19.86000     -9.1414840E-08
   19.92000     -9.3424326E-08
   19.98000     -9.5271311E-08
   20.04000     -9.7024547E-08
   20.10000     -9.8752679E-08
   20.16000     -1.0051149E-07
   20.22000     -1.0233294E-07
   20.28000     -1.0421785E-07
   20.34000     -1.0613358E-07
   20.40000     -1.0801621E-07
   20.46000     -1.0977648E-07
   20.52000     -1.1130756E-07
   20.58000     -1.1249342E-07
   20.64000     -1.1321642E-07
   20.70000     -1.1336423E-07
   20.76000     -1.1283605E-07
   20.82000     -1.1154873E-07
   20.88000     -1.0944329E-07
   20.94000     -1.0649137E-07
   21.00000     -1.0270091E-07
   21.06000     -9.8119671E-08
   21.12000     -9.2835208E-08
   21.18000     -8.6970424E-08
   21.24000     -8.0674631E-08
   21.30000     -7.4110979E-08
   21.36000     -6.7442166E-08
   21.42000     -6.0816475E-08
   21.48000     -5.4356470E-08
   21.54000     -4.8151961E-08
   21.60000     -4.2258080E-08
   21.66000     -3.6698452E-08
   21.72000     -3.1472538E-08
   21.78000     -2.6565695E-08
   21.84000     -2.1960121E-08
   21.90000     -1.7644895E-08
   21.96000     -1.3623540E-08
   22.02000     -9.9180308E-09
   22.08000     -6.5687980E-09
   22.14000     -3.6309382E-09
   22.20000     -1.1674711E-09
   22.26000      7.5911705E-10
   22.32000      2.0956392E-09
   22.38000      2.8059932E-09
   22.44000      2.8769744E-09
   22.50000      2.3215074E-09
   22.56000      1.1790436E-09
   22.62000     -4.8683202E-10
   22.68000     -2.5933271E-09
   22.74000     -5.0454556E-09
   22.80000     -7.7444646E-09
   22.86000     -1.0596790E-08
   22.92000     -1.3522477E-08
   22.98000     -1.6461952E-08
   23.04000     -1.9380238E-08
   23.10000     -2.2268019E-08
   23.16000     -2.5139485E-08
   23.22000     -2.8027374E-08
   23.28000     -3.0976008E-08
   23.34000     -3.4033373E-08
   23.40000     -3.7243286E-08
   23.46000     -4.0638660E-08
   23.52000     -4.4236550E-08
   23.58000     -4.8035574E-08
   23.64000     -5.2015771E-08
   23.70000     -5.6140756E-08
   23.76000     -6.0361558E-08
   23.82000     -6.4621346E-08
   23.88000     -6.8860246E-08
   23.94000     -7.3019272E-08
   24.00000     -7.7043275E-08
   24.06000     -8.0882515E-08
   24.12000     -8.4493351E-08
   24.18000     -8.7838387E-08
   24.24000     -9.0886338E-08
   24.30000     -9.3612037E-08
   24.36000     -9.5996349E-08
   24.42000     -9.8026135E-08
   24.48000     -9.9693935E-08
   24.54000     -1.0099745E-07
   24.60000     -1.0193882E-07
   24.66000     -1.0252359E-07
   24.72000     -1.0275958E-07
   24.78000     -1.0265567E-07
   24.84000     -1.0222040E-07
   24.90000     -1.0146086E-07
   24.96000     -1.0038178E-07
   25.02000     -9.8985389E-08
   25.08000     -9.7271730E-08
   25.14000     -9.5239805E-08
   25.20000     -9.2888875E-08
   25.26000     -9.0219636E-08
   25.32000     -8.7234895E-08
   25.38000     -8.3939653E-08
   25.44000     -8.0340854E-08
   25.50000     -7.6447357E-08
   25.56000     -7.2270431E-08
   25.62000     -6.7825262E-08
   25.68000     -6.3133086E-08
   25.74000     -5.8223357E-08
   25.80000     -5.3135057E-08
   25.86000     -4.7916373E-08
   25.92000     -4.2622478E-08
   25.98000     -3.7311633E-08
   26.04000     -3.2040521E-08
   26.10000     -2.6859846E-08
   26.16000     -2.1811267E-08
   26.22000     -1.6926240E-08
   26.28000     -1.2226820E-08
   26.34000     -7.7279676E-09
   26.40000     -3.4405816E-09
   26.46000      6.2553263E-10
   26.52000      4.4593826E-09
   26.58000      8.0475138E-09
   26.64000      1.1373793E-08
   26.70000      1.4420150E-08
   26.76000      1.7168091E-08
   26.82000      1.9600847E-08
   26.88000      2.1705926E-08
   26.94000      2.3477840E-08
   27.00000      2.4920514E-08
   27.06000      2.6048857E-08
   27.12000      2.6888856E-08
   27.18000      2.7475762E-08
   27.24000      2.7850341E-08
   27.30000      2.8053604E-08
   27.36000      2.8121061E-08
   27.42000      2.8077734E-08
   27.48000      2.7935235E-08
   27.54000      2.7691740E-08
   27.60000      2.7335039E-08
   27.66000      2.6847964E-08
   27.72000      2.6214865E-08
   27.78000      2.5427500E-08
   27.84000      2.4488839E-08
   27.90000      2.3413939E-08
   27.96000      2.2227860E-08
   28.02000      2.0961432E-08
   28.08000      1.9646183E-08
   28.14000      1.8309860E-08
   28.20000      1.6973553E-08
   28.26000      1.5650860E-08
   28.32000      1.4348776E-08
   28.38000      1.3069636E-08
   28.44000      1.1813224E-08
   28.50000      1.0578518E-08
   28.56000      9.3648138E-09
   28.62000      8.1724192E-09
   28.68000      7.0032127E-09
   28.74000      5.8612679E-09
   28.80000      4.7535105E-09
   28.86000      3.6900902E-09
   28.92000      2.6841116E-09
   28.98000      1.7504860E-09
   29.04000      9.0400465E-10
   29.10000      1.5705531E-10
   29.16000     -4.8240401E-10
   29.22000     -1.0120538E-09
   29.28000     -1.4353123E-09
   29.34000     -1.7604022E-09
   29.40000     -1.9987860E-09
   29.46000     -2.1635289E-09
   29.52000     -2.2680882E-09
   29.58000     -2.3258344E-09
   29.64000     -2.3503151E-09
   29.70000     -2.3560609E-09
   29.76000     -2.3595987E-09
   29.82000     -2.3803159E-09
   29.88000     -2.4409064E-09
   29.94000     -2.5671980E-09
   30.00000     -2.7872700E-09
   30.06000     -3.1298142E-09
   30.12000     -3.6217871E-09
   30.18000     -4.2854844E-09
   30.24000     -5.1353424E-09
   30.30000     -6.1749450E-09
   30.36000     -7.3948607E-09
   30.42000     -8.7719423E-09
   30.48000     -1.0270560E-08
   30.54000     -1.1845834E-08
   30.60000     -1.3448461E-08
   30.66000     -1.5030270E-08
   30.72000     -1.6549366E-08
   30.78000     -1.7973829E-08
   30.84000     -1.9283378E-08
   30.90000     -2.0468987E-08
   30.96000     -2.1531045E-08
   31.02000     -2.2477007E-08
   31.08000     -2.3319368E-08
   31.14000     -2.4074406E-08
   31.20000     -2.4761503E-08
   31.26000     -2.5402406E-08
   31.32000     -2.6019674E-08
   31.38000     -2.6633872E-08
   31.44000     -2.7259746E-08
   31.50000     -2.7902331E-08
   31.56000     -2.8554403E-08
   31.62000     -2.9196611E-08
   31.68000     -2.9800910E-08
   31.74000     -3.0337045E-08
   31.80000     -3.0780622E-08
   31.86000     -3.1120752E-08
   31.92000     -3.1364998E-08
   31.98000     -3.1540221E-08
   32.04000     -3.1688703E-08
   32.10000     -3.1860392E-08
   32.16000     -3.2103021E-08
   32.22000     -3.2452427E-08
   32.28000     -3.2925186E-08
   32.34000     -3.3515150E-08
   32.40000     -3.4194375E-08
   32.46000     -3.4918120E-08
   32.52000     -3.5632628E-08
   32.58000     -3.6284245E-08
   32.64000     -3.6828126E-08
   32.70000     -3.7235218E-08
   32.76000     -3.7496527E-08
   32.82000     -3.7624122E-08
   32.88000     -3.7648832E-08
   32.94000     -3.7615031E-08
   33.00000     -3.7573365E-08
   33.06000     -3.7572647E-08
   33.12000     -3.7652427E-08
   33.18000     -3.7837680E-08
   33.24000     -3.8136715E-08
   33.30000     -3.8542701E-08
   33.36000     -3.9038206E-08
   33.42000     -3.9601364E-08
   33.48000     -4.0211795E-08
   33.54000     -4.0854538E-08
   33.60000     -4.1520860E-08
   33.66000     -4.2206036E-08
   33.72000     -4.2905185E-08
   33.78000     -4.3608953E-08
   33.84000     -4.4300879E-08
   33.90000     -4.4957549E-08
   33.96000     -4.5551786E-08
   34.02000     -4.6057831E-08
   34.08000     -4.6457117E-08
   34.14000     -4.6742816E-08
   34.20000     -4.6922121E-08
   34.26000     -4.7015636E-08
   34.32000     -4.7054222E-08
   34.38000     -4.7074007E-08
   34.44000     -4.7110525E-08
   34.50000     -4.7192920E-08
   34.56000     -4.7339014E-08
   34.62000     -4.7552078E-08
   34.68000     -4.7819832E-08
   34.74000     -4.8116242E-08
   34.80000     -4.8406029E-08
   34.86000     -4.8651426E-08
   34.92000     -4.8819821E-08
   34.98000     -4.8890691E-08
   35.04000     -4.8860016E-08
   35.10000     -4.8741050E-08
   35.16000     -4.8561201E-08
   35.22000     -4.8356011E-08
   35.28000     -4.8161915E-08
   35.34000     -4.8009802E-08
   35.40000     -4.7920906E-08
   35.46000     -4.7905576E-08
   35.52000     -4.7964502E-08
   35.58000     -4.8091149E-08
   35.64000     -4.8274032E-08
   35.70000     -4.8497945E-08
   35.76000     -4.8743964E-08
   35.82000     -4.8989101E-08
   35.88000     -4.9206541E-08
   35.94000     -4.9367596E-08
   36.00000     -4.9445411E-08
   36.06000     -4.9419942E-08
   36.12000     -4.9282541E-08
   36.18000     -4.9038587E-08
   36.24000     -4.8706795E-08
   36.30000     -4.8314970E-08
   36.36000     -4.7893067E-08
   36.42000     -4.7465548E-08
   36.48000     -4.7045255E-08
   36.54000     -4.6630785E-08
   36.60000     -4.6208132E-08
   36.66000     -4.5756206E-08
   36.72000     -4.5254406E-08
   36.78000     -4.4689951E-08
   36.84000     -4.4062727E-08
   36.90000     -4.3386137E-08
   36.96000     -4.2683865E-08
   37.02000     -4.1983487E-08
   37.08000     -4.1308741E-08
   37.14000     -4.0672699E-08
   37.20000     -4.0073477E-08
   37.26000     -3.9493642E-08
   37.32000     -3.8903419E-08
   37.38000     -3.8266940E-08
   37.44000     -3.7550148E-08
   37.50000     -3.6728593E-08
   37.56000     -3.5793317E-08
   37.62000     -3.4753334E-08
   37.68000     -3.3633906E-08
   37.74000     -3.2470606E-08
   37.80000     -3.1300370E-08
   37.86000     -3.0151369E-08
   37.92000     -2.9034251E-08
   37.98000     -2.7937007E-08
   38.04000     -2.6825061E-08
   38.10000     -2.5646861E-08
   38.16000     -2.4343738E-08
   38.22000     -2.2861760E-08
   38.28000     -2.1162545E-08
   38.34000     -1.9230404E-08
   38.40000     -1.7074118E-08
   38.46000     -1.4723175E-08
   38.52000     -1.2219695E-08
   38.58000     -9.6084039E-09
   38.64000     -6.9273098E-09
   38.70000     -4.2013504E-09
   38.76000     -1.4402951E-09
   38.82000      1.3590628E-09
   38.88000      4.2074486E-09
   38.94000      7.1161126E-09
   39.00000      1.0090148E-08
   39.06000      1.3123632E-08
   39.12000      1.6197452E-08
   39.18000      1.9279993E-08
   39.24000      2.2330219E-08
   39.30000      2.5302375E-08
   39.36000      2.8151286E-08
   39.42000      3.0837327E-08
   39.48000      3.3330149E-08
   39.54000      3.5610487E-08
   39.60000      3.7669704E-08
   39.66000      3.9507103E-08
   39.72000      4.1125553E-08
   39.78000      4.2526530E-08
   39.84000      4.3705850E-08
   39.90000      4.4651497E-08
   39.96000      4.5344329E-08
   40.02000      4.5761741E-08
   40.08000      4.5883500E-08
   40.14000      4.5698144E-08
   40.20000      4.5208207E-08
   40.26000      4.4432735E-08
   40.32000      4.3406342E-08
   40.38000      4.2175063E-08
   40.44000      4.0789988E-08
   40.50000      3.9300268E-08
   40.56000      3.7747036E-08
   40.62000      3.6159328E-08
   40.68000      3.4552684E-08
   40.74000      3.2930163E-08
   40.80000      3.1285417E-08
   40.86000      2.9606856E-08
   40.92000      2.7882084E-08
   40.98000      2.6101771E-08
   41.04000      2.4262299E-08
   41.10000      2.2366725E-08
   41.16000      2.0424045E-08
   41.22000      1.8446920E-08
   41.28000      1.6448499E-08
   41.34000      1.4439030E-08
   41.40000      1.2423035E-08
   41.46000      1.0397576E-08
   41.52000      8.3518916E-09
   41.58000      6.2683161E-09
   41.64000      4.1242707E-09
   41.70000      1.8949868E-09
   41.76000     -4.4331344E-10
   41.82000     -2.9100957E-09
   41.88000     -5.5174327E-09
   41.94000     -8.2677358E-09
   42.00000     -1.1153008E-08
   42.06000     -1.4156263E-08
   42.12000     -1.7255367E-08
   42.18000     -2.0428923E-08
   42.24000     -2.3662949E-08
   42.30000     -2.6956604E-08
   42.36000     -3.0325022E-08
   42.42000     -3.3797946E-08
   42.48000     -3.7414015E-08
   42.54000     -4.1211880E-08
   42.60000     -4.5220620E-08
   42.66000     -4.9452403E-08
   42.72000     -5.3899956E-08
   42.78000     -5.8540213E-08
   42.84000     -6.3343634E-08
   42.90000     -6.8287179E-08
   42.96000     -7.3367538E-08
   43.02000     -7.8611173E-08
   43.08000     -8.4078657E-08
   43.14000     -8.9862240E-08
   43.20000     -9.6077798E-08
   43.26000     -1.0285390E-07
   43.32000     -1.1032163E-07
   43.38000     -1.1860888E-07
   43.44000     -1.2784140E-07
   43.50000     -1.3815146E-07
   43.56000     -1.4969272E-07
   43.62000     -1.6265867E-07
   43.68000     -1.7730068E-07
   43.74000     -1.9394265E-07
   43.80000     -2.1298948E-07
   43.86000     -2.3492856E-07
   43.92000     -2.6032609E-07
   43.98000     -2.8982052E-07
   44.04000     -3.2411737E-07
   44.10000     -3.6398916E-07
   44.16000     -4.1028403E-07
   44.22000     -4.6394331E-07
   44.28000     -5.2602820E-07
   44.34000     -5.9775090E-07
   44.40000     -6.8050673E-07
   44.46000     -7.7590187E-07
   44.52000     -8.8577247E-07
   44.58000     -1.0121950E-06
   44.64000     -1.1574890E-06
   44.70000     -1.3242168E-06
   44.76000     -1.5151846E-06
   44.82000     -1.7334518E-06
   44.88000     -1.9823497E-06
   44.94000     -2.2655101E-06
   45.00000     -2.5869017E-06
   45.06000     -2.9508660E-06
   45.12000     -3.3621529E-06
   45.18000     -3.8259459E-06
   45.24000     -4.3478803E-06
   45.30000     -4.9340529E-06
   45.36000     -5.5910295E-06
   45.42000     -6.3258476E-06
   45.48000     -7.1460222E-06
   45.54000     -8.0595555E-06
   45.60000     -9.0749454E-06
   45.66000     -1.0201195E-05
   45.72000     -1.1447815E-05
   45.78000     -1.2824825E-05
   45.84000     -1.4342732E-05
   45.90000     -1.6012524E-05
   45.96000     -1.7845621E-05
   46.02000     -1.9853846E-05
   46.08000     -2.2049373E-05
   46.14000     -2.4444675E-05
   46.20000     -2.7052465E-05
   46.26000     -2.9885630E-05
   46.32000     -3.2957163E-05
   46.38000     -3.6280093E-05
   46.44000     -3.9867406E-05
   46.50000     -4.3731961E-05
   46.56000     -4.7886384E-05
   46.62000     -5.2342963E-05
   46.68000     -5.7113506E-05
   46.74000     -6.2209219E-05
   46.80000     -6.7640562E-05
   46.86000     -7.3417097E-05
   46.92000     -7.9547382E-05
   46.98000     -8.6038810E-05
   47.04000     -9.2897477E-05
   47.10000     -1.0012811E-04
   47.16000     -1.0773391E-04
   47.22000     -1.1571645E-04
   47.28000     -1.2407558E-04
   47.34000     -1.3280932E-04
   47.40000     -1.4191376E-04
   47.46000     -1.5138290E-04
   47.52000     -1.6120879E-04
   47.58000     -1.7138124E-04
   47.64000     -1.8188791E-04
   47.70000     -1.9271430E-04
   47.76000     -2.0384375E-04
   47.82000     -2.1525759E-04
   47.88000     -2.2693499E-04
   47.94000     -2.3885330E-04
   48.00000     -2.5098800E-04
   48.06000     -2.6331286E-04
   48.12000     -2.7580024E-04
   48.18000     -2.8842100E-04
   48.24000     -3.0114499E-04
   48.30000     -3.1394095E-04
   48.36000     -3.2677720E-04
   48.42000     -3.3962142E-04
   48.48000     -3.5244133E-04
   48.54000     -3.6520473E-04
   48.60000     -3.7787989E-04
   48.66000     -3.9043589E-04
   48.72000     -4.0284279E-04
   48.78000     -4.1507214E-04
   48.84000     -4.2709697E-04
   48.90000     -4.3889240E-04
   48.96000     -4.5043556E-04
   49.02000     -4.6170605E-04
   49.08000     -4.7268622E-04
   49.14000     -4.8336119E-04
   49.20000     -4.9371907E-04
   49.26000     -5.0375127E-04
   49.32000     -5.1345234E-04
   49.38000     -5.2282022E-04
   49.44000     -5.3185609E-04
   49.50000     -5.4056465E-04
   49.56000     -5.4895360E-04
   49.62000     -5.5703399E-04
   49.68000     -5.6481967E-04
   49.74000     -5.7232729E-04
   49.80000     -5.7957630E-04
   49.86000     -5.8658828E-04
   49.92000     -5.9338717E-04
   49.98000     -5.9999852E-04
   50.04000     -6.0644944E-04
   50.10000     -6.1276782E-04
   50.16000     -6.1898259E-04
   50.22000     -6.2512257E-04
   50.28000     -6.3121662E-04
   50.34000     -6.3729280E-04
   50.40000     -6.4337841E-04
   50.46000     -6.4949936E-04
   50.52000     -6.5567985E-04
   50.58000     -6.6194189E-04
   50.64000     -6.6830538E-04
   50.70000     -6.7478733E-04
   50.76000     -6.8140170E-04
   50.82000     -6.8815972E-04
   50.88000     -6.9506891E-04
   50.94000     -7.0213375E-04
   51.00000     -7.0935499E-04
   51.06000     -7.1672985E-04
   51.12000     -7.2425220E-04
   51.18000     -7.3191233E-04
   51.24000     -7.3969719E-04
   51.30000     -7.4759079E-04
   51.36000     -7.5557415E-04
   51.42000     -7.6362566E-04
   51.48000     -7.7172136E-04
   51.54000     -7.7983533E-04
   51.60000     -7.8794005E-04
   51.66000     -7.9600664E-04
   51.72000     -8.0400531E-04
   51.78000     -8.1190577E-04
   51.84000     -8.1967766E-04
   51.90000     -8.2729111E-04
   51.96000     -8.3471677E-04
   52.02000     -8.4192655E-04
   52.08000     -8.4889389E-04
   52.14000     -8.5559388E-04
   52.20000     -8.6200412E-04
   52.26000     -8.6810440E-04
   52.32000     -8.7387726E-04
   52.38000     -8.7930792E-04
   52.44000     -8.8438473E-04
   52.50000     -8.8909914E-04
   52.56000     -8.9344563E-04
   52.62000     -8.9742168E-04
   52.68000     -9.0102782E-04
   52.74000     -9.0426748E-04
   52.80000     -9.0714678E-04
   52.86000     -9.0967445E-04
   52.92000     -9.1186148E-04
   52.98000     -9.1372116E-04
   53.04000     -9.1526826E-04
   53.10000     -9.1651914E-04
   53.16000     -9.1749133E-04
   53.22000     -9.1820286E-04
   53.28000     -9.1867236E-04
   53.34000     -9.1891841E-04
   53.40000     -9.1895921E-04
   53.46000     -9.1881247E-04
   53.52000     -9.1849489E-04
   53.58000     -9.1802189E-04
   53.64000     -9.1740716E-04
   53.70000     -9.1666268E-04
   53.76000     -9.1579824E-04
   53.82000     -9.1482134E-04
   53.88000     -9.1373728E-04
   53.94000     -9.1254897E-04
   54.00000     -9.1125706E-04
   54.06000     -9.0985978E-04
   54.12000     -9.0835331E-04
   54.18000     -9.0673123E-04
   54.24000     -9.0498530E-04
   54.30000     -9.0310542E-04
   54.36000     -9.0107968E-04
   54.42000     -8.9889503E-04
   54.48000     -8.9653715E-04
   54.54000     -8.9399115E-04
   54.60000     -8.9124136E-04
   54.66000     -8.8827196E-04
   54.72000     -8.8506727E-04
   54.78000     -8.8161195E-04
   54.84000     -8.7789138E-04
   54.90000     -8.7389204E-04
   54.96000     -8.6960208E-04
   55.02000     -8.6501113E-04
   55.08000     -8.6011080E-04
   55.14000     -8.5489487E-04
   55.20000     -8.4935920E-04
   55.26000     -8.4350212E-04
   55.32000     -8.3732436E-04
   55.38000     -8.3082909E-04
   55.44000     -8.2402211E-04
   55.50000     -8.1691163E-04
   55.56000     -8.0950832E-04