  -2.400000      0.0000000E+00
  -2.340000      0.0000000E+00
  -2.280000      0.0000000E+00
  -2.220000      0.0000000E+00
  -2.160000     -2.3545996E-18
  -2.100000     -1.2567243E-17
  -2.040000     -2.7132793E-17
  -1.980000     -4.3329160E-18
  -1.920000      1.6082784E-16
  -1.860000      6.1217263E-16
  -1.800000      1.4199515E-15
  -1.740000      2.3955398E-15
  -1.680000      2.9285988E-15
  -1.620000      1.9984266E-15
  -1.560000     -1.5097313E-15
  -1.500000     -8.1709203E-15
  -1.440000     -1.7239636E-14
  -1.380000     -2.6064034E-14
  -1.320000     -3.0111774E-14
  -1.260000     -2.3938376E-14
  -1.200000     -3.1649668E-15
  -1.140000      3.2875693E-14
  -1.080000      7.8626897E-14
  -1.020000      1.2109209E-13
 -0.9600000      1.4113514E-13
 -0.9000000      1.1807092E-13
 -0.8400000      3.7288176E-14
 -0.7800000     -1.0081436E-13
 -0.7200000     -2.7371389E-13
 -0.6600000     -4.3527654E-13
 -0.6000000     -5.2295652E-13
 -0.5400000     -4.7431552E-13
 -0.4800000     -2.4985111E-13
 -0.4200000      1.4452938E-13
 -0.3600000      6.4407594E-13
 -0.3000000      1.1284988E-12
 -0.2400000      1.4452880E-12
 -0.1800000      1.4495206E-12
 -0.1200000      1.0497663E-12
 -5.9999999E-02  2.4569512E-13
  0.0000000E+00 -8.5594167E-13
  5.9999999E-02 -2.0537183E-12
  0.1200000     -3.0890544E-12
  0.1800000     -3.6961133E-12
  0.2400000     -3.6470922E-12
  0.3000000     -2.7799349E-12
  0.3600000     -1.0073988E-12
  0.4200000      1.6786127E-12
  0.4800000      5.1834153E-12
  0.5400000      9.2456078E-12
  0.6000000      1.3332253E-11
  0.6600000      1.6527031E-11
  0.7200000      1.7481518E-11
  0.7800000      1.4519472E-11
  0.8400000      5.9693535E-12
  0.9000000     -9.2578402E-12
  0.9600000     -3.0922858E-11
   1.020000     -5.6727650E-11
   1.080000     -8.1861781E-11
   1.140000     -9.9100242E-11
   1.200000     -9.9649664E-11
   1.260000     -7.4774936E-11
   1.320000     -1.8021161E-11
   1.380000      7.2364094E-11
   1.440000      1.9133876E-10
   1.500000      3.2584396E-10
   1.560000      4.5485615E-10
   1.620000      5.5086630E-10
   1.680000      5.8263250E-10
   1.740000      5.1877402E-10
   1.800000      3.3160275E-10
   1.860000      5.6054689E-13
   1.920000     -4.8524440E-10
   1.980000     -1.1256843E-09
   2.040000     -1.9094615E-09
   2.100000     -2.8149636E-09
   2.160000     -3.8118073E-09
   2.220000     -4.8627431E-09
   2.280000     -5.9256893E-09
   2.340000     -6.9557875E-09
   2.400000     -7.9074907E-09
   2.460000     -8.7367322E-09
   2.520000     -9.4031840E-09
   2.580000     -9.8725002E-09
   2.640000     -1.0118311E-08
   2.700000     -1.0123649E-08
   2.760000     -9.8814725E-09
   2.820000     -9.3941193E-09
   2.880000     -8.6717140E-09
   2.940000     -7.7298230E-09
   3.000000     -6.5868684E-09
   3.060000     -5.2619016E-09
   3.120000     -3.7732724E-09
   3.180000     -2.1384552E-09
   3.240000     -3.7498857E-10
   3.300000      1.4979068E-09
   3.360000      3.4576908E-09
   3.420000      5.4775602E-09
   3.480000      7.5267286E-09
   3.540000      9.5720845E-09
   3.600000      1.1580915E-08
   3.660000      1.3523981E-08
   3.720000      1.5378056E-08
   3.780000      1.7127061E-08
   3.840000      1.8761366E-08
   3.900000      2.0275314E-08
   3.960000      2.1663631E-08
   4.020000      2.2917799E-08
   4.080000      2.4023581E-08
   4.140000      2.4960610E-08
   4.200000      2.5704423E-08
   4.260000      2.6230659E-08
   4.320000      2.6520347E-08
   4.380000      2.6565058E-08
   4.440000      2.6370454E-08
   4.500000      2.5957354E-08
   4.560000      2.5359951E-08
   4.620000      2.4621675E-08
   4.680000      2.3789687E-08
   4.740000      2.2909285E-08
   4.800000      2.2019476E-08
   4.860000      2.1150393E-08
   4.920000      2.0322830E-08
   4.980000      1.9549518E-08
   5.040000      1.8837461E-08
   5.100000      1.8190521E-08
   5.160000      1.7611573E-08
   5.220000      1.7103796E-08
   5.280000      1.6670979E-08
   5.340000      1.6316982E-08
   5.400000      1.6044597E-08
   5.460000      1.5854342E-08
   5.520000      1.5743520E-08
   5.580000      1.5706048E-08
   5.640000      1.5733288E-08
   5.700000      1.5815921E-08
   5.760000      1.5946561E-08
   5.820000      1.6122513E-08
   5.880000      1.6347819E-08
   5.940000      1.6633800E-08
   6.000000      1.6997500E-08
   6.060000      1.7457999E-08
   6.120000      1.8031091E-08
   6.180000      1.8723410E-08
   6.240000      1.9527382E-08
   6.300000      2.0418359E-08
   6.360000      2.1354852E-08
   6.420000      2.2282148E-08
   6.480000      2.3138757E-08
   6.540000      2.3864427E-08
   6.600000      2.4408038E-08
   6.660000      2.4733689E-08
   6.720000      2.4823716E-08
   6.780000      2.4678174E-08
   6.840000      2.4311076E-08
   6.900000      2.3744505E-08
   6.960000      2.3001945E-08
   7.020000      2.2102261E-08
   7.080000      2.1055337E-08
   7.140000      1.9859886E-08
   7.200000      1.8503554E-08
   7.260000      1.6965080E-08
   7.320000      1.5218207E-08
   7.380000      1.3236887E-08
   7.440000      1.1001213E-08
   7.500000      8.5032106E-09
   7.560000      5.7513816E-09
   7.620000      2.7728033E-09
   7.680000     -3.8816930E-10
   7.740000     -3.6748460E-09
   7.800000     -7.0260722E-09
   7.860000     -1.0385366E-08
   7.920000     -1.3709074E-08
   7.980000     -1.6971407E-08
   8.040000     -2.0164993E-08
   8.100000     -2.3296890E-08
   8.160000     -2.6381288E-08
   8.220000     -2.9431135E-08
   8.280000     -3.2451030E-08
   8.340000     -3.5433249E-08
   8.400000     -3.8357545E-08
   8.460000     -4.1194177E-08
   8.520000     -4.3908802E-08
   8.580000     -4.6467420E-08
   8.640000     -4.8840185E-08
   8.700000     -5.1003500E-08
   8.760000     -5.2940717E-08
   8.820000     -5.4642147E-08
   8.880000     -5.6104980E-08
   8.940000     -5.7333303E-08
   9.000000     -5.8337722E-08
   9.060000     -5.9134042E-08
   9.120000     -5.9740387E-08
   9.180000     -6.0173072E-08
   9.240000     -6.0442119E-08
   9.300000     -6.0548139E-08
   9.360000     -6.0481760E-08
   9.420000     -6.0226576E-08
   9.480000     -5.9764879E-08
   9.540000     -5.9084794E-08
   9.600000     -5.8186373E-08
   9.660000     -5.7084858E-08
   9.720000     -5.5809807E-08
   9.780000     -5.4400399E-08
   9.840000     -5.2898304E-08
   9.900000     -5.1340287E-08
   9.960000     -4.9752625E-08
   10.02000     -4.8148710E-08
   10.08000     -4.6530346E-08
   10.14000     -4.4891983E-08
   10.20000     -4.3226571E-08
   10.26000     -4.1531557E-08
   10.32000     -3.9813628E-08
   10.38000     -3.8091397E-08
   10.44000     -3.6395882E-08
   10.50000     -3.4768885E-08
   10.56000     -3.3259809E-08
   10.62000     -3.1921342E-08
   10.68000     -3.0804451E-08
   10.74000     -2.9953000E-08
   10.80000     -2.9398420E-08
   10.86000     -2.9154959E-08
   10.92000     -2.9216217E-08
   10.98000     -2.9553734E-08
   11.04000     -3.0118191E-08
   11.10000     -3.0843321E-08
   11.16000     -3.1651961E-08
   11.22000     -3.2463159E-08
   11.28000     -3.3198926E-08
   11.34000     -3.3789458E-08
   11.40000     -3.4176253E-08
   11.46000     -3.4313235E-08
   11.52000     -3.4166820E-08
   11.58000     -3.3715921E-08
   11.64000     -3.2952528E-08
   11.70000     -3.1882941E-08
   11.76000     -3.0528717E-08
   11.82000     -2.8926168E-08
   11.88000     -2.7123301E-08
   11.94000     -2.5173978E-08
   12.00000     -2.3130209E-08
   12.06000     -2.1034408E-08
   12.12000     -1.8913894E-08
   12.18000     -1.6779399E-08
   12.24000     -1.4628173E-08
   12.30000     -1.2450831E-08
   12.36000     -1.0239845E-08
   12.42000     -7.9970777E-09
   12.48000     -5.7381477E-09
   12.54000     -3.4925700E-09
   12.60000     -1.2999642E-09
   12.66000      7.9617418E-10
   12.72000      2.7551517E-09
   12.78000      4.5444177E-09
   12.84000      6.1425478E-09
   12.90000      7.5397786E-09
   12.96000      8.7367118E-09
   13.02000      9.7421244E-09
   13.08000      1.0570656E-08
   13.14000      1.1240856E-08
   13.20000      1.1773670E-08
   13.26000      1.2191304E-08
   13.32000      1.2516394E-08
   13.38000      1.2771486E-08
   13.44000      1.2978856E-08
   13.50000      1.3160617E-08
   13.56000      1.3338880E-08
   13.62000      1.3535660E-08
   13.68000      1.3772222E-08
   13.74000      1.4067826E-08
   13.80000      1.4438086E-08
   13.86000      1.4893452E-08
   13.92000      1.5438316E-08
   13.98000      1.6071068E-08
   14.04000      1.6785082E-08
   14.10000      1.7570269E-08
   14.16000      1.8414696E-08
   14.22000      1.9305824E-08
   14.28000      2.0231175E-08
   14.34000      2.1178529E-08
   14.40000      2.2135923E-08
   14.46000      2.3091799E-08
   14.52000      2.4035419E-08
   14.58000      2.4957560E-08
   14.64000      2.5851204E-08
   14.70000      2.6711986E-08
   14.76000      2.7538160E-08
   14.82000      2.8330037E-08
   14.88000      2.9089025E-08
   14.94000      2.9816544E-08
   15.00000      3.0513139E-08
   15.06000      3.1178008E-08
   15.12000      3.1809094E-08
   15.18000      3.2403662E-08
   15.24000      3.2959029E-08
   15.30000      3.3473214E-08
   15.36000      3.3945135E-08
   15.42000      3.4374345E-08
   15.48000      3.4760337E-08
   15.54000      3.5101934E-08
   15.60000      3.5397139E-08
   15.66000      3.5643779E-08
   15.72000      3.5840973E-08
   15.78000      3.5991011E-08
   15.84000      3.6100857E-08
   15.90000      3.6182623E-08
   15.96000      3.6252430E-08
   16.02000      3.6327879E-08
   16.08000      3.6424783E-08
   16.14000      3.6554368E-08
   16.20000      3.6721957E-08
   16.26000      3.6927737E-08
   16.32000      3.7169233E-08
   16.38000      3.7444341E-08
   16.44000      3.7753377E-08
   16.50000      3.8098886E-08
   16.56000      3.8482924E-08
   16.62000      3.8902691E-08
   16.68000      3.9346514E-08
   16.74000      3.9792198E-08
   16.80000      4.0209258E-08
   16.86000      4.0564831E-08
   16.92000      4.0831644E-08
   16.98000      4.0994998E-08
   17.04000      4.1056055E-08
   17.10000      4.1029708E-08
   17.16000      4.0937433E-08
   17.22000      4.0797477E-08
   17.28000      4.0616086E-08
   17.34000      4.0383050E-08
   17.40000      4.0073591E-08
   17.46000      3.9656054E-08
   17.52000      3.9102883E-08
   17.58000      3.8400909E-08
   17.64000      3.7557346E-08
   17.70000      3.6599218E-08
   17.76000      3.5566341E-08
   17.82000      3.4500122E-08
   17.88000      3.3431750E-08
   17.94000      3.2373570E-08
   18.00000      3.1316208E-08
   18.06000      3.0232165E-08
   18.12000      2.9084642E-08
   18.18000      2.7838841E-08
   18.24000      2.6472405E-08
   18.30000      2.4982153E-08
   18.36000      2.3385388E-08
   18.42000      2.1715781E-08
   18.48000      2.0015195E-08
   18.54000      1.8323895E-08
   18.60000      1.6671821E-08
   18.66000      1.5073180E-08
   18.72000      1.3525596E-08
   18.78000      1.2013724E-08
   18.84000      1.0516066E-08
   18.90000      9.0127887E-09
   18.96000      7.4921811E-09
   19.02000      5.9537997E-09
   19.08000      4.4073891E-09
   19.14000      2.8680236E-09
   19.20000      1.3491942E-09
   19.26000     -1.4367767E-10
   19.32000     -1.6168408E-09
   19.38000     -3.0873710E-09
   19.44000     -4.5778807E-09
   19.50000     -6.1084608E-09
   19.56000     -7.6887838E-09
   19.62000     -9.3135579E-09
   19.68000     -1.0963594E-08
   19.74000     -1.2612893E-08
   19.80000     -1.4239881E-08
   19.86000     -1.5839206E-08
   19.92000     -1.7429862E-08
   19.98000     -1.9056307E-08
   20.04000     -2.0781401E-08
   20.10000     -2.2672696E-08
   20.16000     -2.4785901E-08
   20.22000     -2.7150469E-08
   20.28000     -2.9761505E-08
   20.34000     -3.2580168E-08
   20.40000     -3.5541881E-08
   20.46000     -3.8569087E-08
   20.52000     -4.1583998E-08
   20.58000     -4.4517154E-08
   20.64000     -4.7309520E-08
   20.70000     -4.9908525E-08
   20.76000     -5.2261075E-08
   20.82000     -5.4307712E-08
   20.88000     -5.5981904E-08
   20.94000     -5.7216468E-08
   21.00000     -5.7956360E-08
   21.06000     -5.8174422E-08
   21.12000     -5.7885099E-08
   21.18000     -5.7151144E-08
   21.24000     -5.6080328E-08
   21.30000     -5.4811789E-08
   21.36000     -5.3494965E-08
   21.42000     -5.2266170E-08
   21.48000     -5.1228643E-08
   21.54000     -5.0440867E-08
   21.60000     -4.9915446E-08
   21.66000     -4.9627779E-08
   21.72000     -4.9531128E-08
   21.78000     -4.9573156E-08
   21.84000     -4.9709101E-08
   21.90000     -4.9908497E-08
   21.96000     -5.0154611E-08
   22.02000     -5.0438477E-08
   22.08000     -5.0750781E-08
   22.14000     -5.1075478E-08
   22.20000     -5.1387797E-08
   22.26000     -5.1657516E-08
   22.32000     -5.1856293E-08
   22.38000     -5.1966225E-08
   22.44000     -5.1986348E-08
   22.50000     -5.1934474E-08
   22.56000     -5.1843358E-08
   22.62000     -5.1752099E-08
   22.68000     -5.1695451E-08
   22.74000     -5.1694407E-08
   22.80000     -5.1751098E-08
   22.86000     -5.1849756E-08
   22.92000     -5.1963379E-08
   22.98000     -5.2063911E-08
   23.04000     -5.2132588E-08
   23.10000     -5.2166786E-08
   23.16000     -5.2181100E-08
   23.22000     -5.2202108E-08
   23.28000     -5.2258510E-08
   23.34000     -5.2370027E-08
   23.40000     -5.2538738E-08
   23.46000     -5.2746017E-08
   23.52000     -5.2956057E-08
   23.58000     -5.3124875E-08
   23.64000     -5.3211810E-08
   23.70000     -5.3189645E-08
   23.76000     -5.3050062E-08
   23.82000     -5.2802928E-08
   23.88000     -5.2470032E-08
   23.94000     -5.2075944E-08
   24.00000     -5.1639613E-08
   24.06000     -5.1169849E-08
   24.12000     -5.0666227E-08
   24.18000     -5.0124875E-08
   24.24000     -4.9546436E-08
   24.30000     -4.8942720E-08
   24.36000     -4.8338887E-08
   24.42000     -4.7769614E-08
   24.48000     -4.7270099E-08
   24.54000     -4.6864688E-08
   24.60000     -4.6557048E-08
   24.66000     -4.6325400E-08
   24.72000     -4.6124804E-08
   24.78000     -4.5895970E-08
   24.84000     -4.5578126E-08
   24.90000     -4.5122015E-08
   24.96000     -4.4499245E-08
   25.02000     -4.3705633E-08
   25.08000     -4.2757978E-08
   25.14000     -4.1686082E-08
   25.20000     -4.0522863E-08
   25.26000     -3.9295895E-08
   25.32000     -3.8022705E-08
   25.38000     -3.6710826E-08
   25.44000     -3.5361882E-08
   25.50000     -3.3977710E-08
   25.56000     -3.2566064E-08
   25.62000     -3.1143774E-08
   25.68000     -2.9736105E-08
   25.74000     -2.8372435E-08
   25.80000     -2.7079567E-08
   25.86000     -2.5874867E-08
   25.92000     -2.4761581E-08
   25.98000     -2.3728171E-08
   26.04000     -2.2752337E-08
   26.10000     -2.1808871E-08
   26.16000     -2.0879147E-08
   26.22000     -1.9959179E-08
   26.28000     -1.9063448E-08
   26.34000     -1.8222783E-08
   26.40000     -1.7476648E-08
   26.46000     -1.6862035E-08
   26.52000     -1.6402687E-08
   26.58000     -1.6102312E-08
   26.64000     -1.5944304E-08
   26.70000     -1.5898054E-08
   26.76000     -1.5929562E-08
   26.82000     -1.6012310E-08
   26.88000     -1.6134299E-08
   26.94000     -1.6298520E-08
   27.00000     -1.6516777E-08
   27.06000     -1.6799413E-08
   27.12000     -1.7145178E-08
   27.18000     -1.7535498E-08
   27.24000     -1.7935772E-08
   27.30000     -1.8303584E-08
   27.36000     -1.8601032E-08
   27.42000     -1.8806736E-08
   27.48000     -1.8923062E-08
   27.54000     -1.8975776E-08
   27.60000     -1.9005938E-08
   27.66000     -1.9056591E-08
   27.72000     -1.9158513E-08
   27.78000     -1.9319641E-08
   27.84000     -1.9521554E-08
   27.90000     -1.9724057E-08
   27.96000     -1.9876348E-08
   28.02000     -1.9931175E-08
   28.08000     -1.9857536E-08
   28.14000     -1.9647979E-08
   28.20000     -1.9318437E-08
   28.26000     -1.8900881E-08
   28.32000     -1.8431500E-08
   28.38000     -1.7938426E-08
   28.44000     -1.7433202E-08
   28.50000     -1.6908741E-08
   28.56000     -1.6344272E-08
   28.62000     -1.5715282E-08
   28.68000     -1.5004726E-08
   28.74000     -1.4211330E-08
   28.80000     -1.3351936E-08
   28.86000     -1.2457074E-08
   28.92000     -1.1561399E-08
   28.98000     -1.0692553E-08
   29.04000     -9.8625694E-09
   29.10000     -9.0649355E-09
   29.16000     -8.2783673E-09
   29.22000     -7.4759114E-09
   29.28000     -6.6360637E-09
   29.34000     -5.7519745E-09
   29.40000     -4.8355520E-09
   29.46000     -3.9151371E-09
   29.52000     -3.0276834E-09
   29.58000     -2.2082358E-09
   29.64000     -1.4803165E-09
   29.70000     -8.5039920E-10
   29.76000     -3.0816602E-10
   29.82000      1.6774260E-10
   29.88000      6.0059158E-10
   29.94000      1.0061926E-09
   30.00000      1.3864956E-09
   30.06000      1.7282802E-09
   30.12000      2.0073998E-09
   30.18000      2.1971978E-09
   30.24000      2.2783071E-09
   30.30000      2.2465041E-09
   30.36000      2.1158244E-09
   30.42000      1.9155899E-09
   30.48000      1.6819707E-09
   30.54000      1.4465630E-09
   30.60000      1.2256114E-09
   30.66000      1.0134816E-09
   30.72000      7.8276657E-10
   30.78000      4.9129095E-10
   30.84000      9.3981774E-11
   30.90000     -4.4413098E-10
   30.96000     -1.1379833E-09
   31.02000     -1.9788438E-09
   31.08000     -2.9380944E-09
   31.14000     -3.9770236E-09
   31.20000     -5.0591984E-09
   31.26000     -6.1611507E-09
   31.32000     -7.2778117E-09
   31.38000     -8.4210123E-09
   31.44000     -9.6118606E-09
   31.50000     -1.0869904E-08
   31.56000     -1.2203079E-08
   31.62000     -1.3602070E-08
   31.68000     -1.5041111E-08
   31.74000     -1.6484993E-08
   31.80000     -1.7899804E-08
   31.86000     -1.9263704E-08
   31.92000     -2.0573932E-08
   31.98000     -2.1847564E-08
   32.04000     -2.3115712E-08
   32.10000     -2.4413078E-08
   32.16000     -2.5766521E-08
   32.22000     -2.7186594E-08
   32.28000     -2.8665005E-08
   32.34000     -3.0178832E-08
   32.40000     -3.1699912E-08
   32.46000     -3.3205790E-08
   32.52000     -3.4688195E-08
   32.58000     -3.6155740E-08
   32.64000     -3.7629800E-08
   32.70000     -3.9135138E-08
   32.76000     -4.0688768E-08
   32.82000     -4.2291383E-08
   32.88000     -4.3924661E-08
   32.94000     -4.5555659E-08
   33.00000     -4.7146820E-08
   33.06000     -4.8667960E-08
   33.12000     -5.0105886E-08
   33.18000     -5.1467996E-08
   33.24000     -5.2778532E-08
   33.30000     -5.4068629E-08
   33.36000     -5.5363760E-08
   33.42000     -5.6672956E-08
   33.48000     -5.7983723E-08
   33.54000     -5.9264458E-08
   33.60000     -6.0473631E-08
   33.66000     -6.1572443E-08
   33.72000     -6.2536635E-08
   33.78000     -6.3363380E-08
   33.84000     -6.4070832E-08
   33.90000     -6.4690610E-08
   33.96000     -6.5256039E-08
   34.02000     -6.5790069E-08
   34.08000     -6.6297112E-08
   34.14000     -6.6761409E-08
   34.20000     -6.7152158E-08
   34.26000     -6.7433334E-08
   34.32000     -6.7574703E-08
   34.38000     -6.7560265E-08
   34.44000     -6.7391561E-08
   34.50000     -6.7085445E-08
   34.56000     -6.6667582E-08
   34.62000     -6.6164652E-08
   34.68000     -6.5598044E-08
   34.74000     -6.4981130E-08
   34.80000     -6.4320503E-08
   34.86000     -6.3620064E-08
   34.92000     -6.2885903E-08
   34.98000     -6.2129864E-08
   35.04000     -6.1370400E-08
   35.10000     -6.0630519E-08
   35.16000     -5.9933782E-08
   35.22000     -5.9299740E-08
   35.28000     -5.8740472E-08
   35.34000     -5.8258941E-08
   35.40000     -5.7849366E-08
   35.46000     -5.7498941E-08
   35.52000     -5.7189919E-08
   35.58000     -5.6901118E-08
   35.64000     -5.6608418E-08
   35.70000     -5.6284385E-08
   35.76000     -5.5897836E-08
   35.82000     -5.5414294E-08
   35.88000     -5.4798278E-08
   35.94000     -5.4017789E-08
   36.00000     -5.3050570E-08
   36.06000     -5.1890908E-08
   36.12000     -5.0555130E-08
   36.18000     -4.9083869E-08
   36.24000     -4.7539707E-08
   36.30000     -4.5999826E-08
   36.36000     -4.4544862E-08
   36.42000     -4.3246214E-08
   36.48000     -4.2154973E-08
   36.54000     -4.1295287E-08
   36.60000     -4.0663924E-08
   36.66000     -4.0235935E-08
   36.72000     -3.9974317E-08
   36.78000     -3.9840405E-08
   36.84000     -3.9801272E-08
   36.90000     -3.9831679E-08
   36.96000     -3.9909999E-08
   37.02000     -4.0009983E-08
   37.08000     -4.0091962E-08
   37.14000     -4.0097589E-08
   37.20000     -3.9951171E-08
   37.26000     -3.9568320E-08
   37.32000     -3.8869924E-08
   37.38000     -3.7797303E-08
   37.44000     -3.6323627E-08
   37.50000     -3.4457837E-08
   37.56000     -3.2239690E-08
   37.62000     -2.9727609E-08
   37.68000     -2.6983427E-08
   37.74000     -2.4059155E-08
   37.80000     -2.0989809E-08
   37.86000     -1.7794223E-08
   37.92000     -1.4482655E-08
   37.98000     -1.1067794E-08
   38.04000     -7.5747240E-09
   38.10000     -4.0461883E-09
   38.16000     -5.4147747E-10
   38.22000      2.8702389E-09
   38.28000      6.1193615E-09
   38.34000      9.1445553E-09
   38.40000      1.1897792E-08
   38.46000      1.4344476E-08
   38.52000      1.6459403E-08
   38.58000      1.8220794E-08
   38.64000      1.9605277E-08
   38.70000      2.0586116E-08
   38.76000      2.1135667E-08
   38.82000      2.1231394E-08
   38.88000      2.0863402E-08
   38.94000      2.0040916E-08
   39.00000      1.8795399E-08
   39.06000      1.7179090E-08
   39.12000      1.5259340E-08
   39.18000      1.3110321E-08
   39.24000      1.0804633E-08
   39.30000      8.4072331E-09
   39.36000      5.9732823E-09
   39.42000      3.5501595E-09
   39.48000      1.1824357E-09
   39.54000     -1.0824229E-09
   39.60000     -3.1901040E-09
   39.66000     -5.0792073E-09
   39.72000     -6.6854131E-09
   39.78000     -7.9493354E-09
   39.84000     -8.8260608E-09
   39.90000     -9.2937258E-09
   39.96000     -9.3585895E-09
   40.02000     -9.0549399E-09
   40.08000     -8.4394873E-09
   40.14000     -7.5814075E-09
   40.20000     -6.5503887E-09
   40.26000     -5.4056102E-09
   40.32000     -4.1883976E-09
   40.38000     -2.9202512E-09
   40.44000     -1.6064177E-09
   40.50000     -2.4350641E-10
   40.56000      1.1715621E-09
   40.62000      2.6343423E-09
   40.68000      4.1297632E-09
   40.74000      5.6339649E-09
   40.80000      7.1200525E-09
   40.86000      8.5652667E-09
   40.92000      9.9565867E-09
   40.98000      1.1292476E-08
   41.04000      1.2580124E-08
   41.10000      1.3829403E-08
   41.16000      1.5046163E-08
   41.22000      1.6227697E-08
   41.28000      1.7362250E-08
   41.34000      1.8432686E-08
   41.40000      1.9422567E-08
   41.46000      2.0321894E-08
   41.52000      2.1129960E-08
   41.58000      2.1854035E-08
   41.64000      2.2504512E-08
   41.70000      2.3088816E-08
   41.76000      2.3606971E-08
   41.82000      2.4051106E-08
   41.88000      2.4409637E-08
   41.94000      2.4674817E-08
   42.00000      2.4850996E-08
   42.06000      2.4960457E-08
   42.12000      2.5044640E-08
   42.18000      2.5160212E-08
   42.24000      2.5371419E-08
   42.30000      2.5741514E-08
   42.36000      2.6326383E-08
   42.42000      2.7172689E-08
   42.48000      2.8321228E-08
   42.54000      2.9814448E-08
   42.60000      3.1705817E-08
   42.66000      3.4068300E-08
   42.72000      3.7000035E-08
   42.78000      4.0626471E-08
   42.84000      4.5100069E-08
   42.90000      5.0599667E-08
   42.96000      5.7331967E-08
   43.02000      6.5537037E-08
   43.08000      7.5498335E-08
   43.14000      8.7556174E-08
   43.20000      1.0212243E-07
   43.26000      1.1969394E-07
   43.32000      1.4086267E-07
   43.38000      1.6632262E-07
   43.44000      1.9687482E-07
   43.50000      2.3343379E-07
   43.56000      2.7703899E-07
   43.62000      3.2887434E-07
   43.68000      3.9029717E-07
   43.74000      4.6287522E-07
   43.80000      5.4842872E-07
   43.86000      6.4907420E-07
   43.92000      7.6726701E-07
   43.98000      9.0584103E-07
   44.04000      1.0680468E-06
   44.10000      1.2575912E-06
   44.16000      1.4786825E-06
   44.22000      1.7360829E-06
   44.28000      2.0351708E-06
   44.34000      2.3820116E-06
   44.40000      2.7834328E-06
   44.46000      3.2471053E-06
   44.52000      3.7816235E-06
   44.58000      4.3965888E-06
   44.64000      5.1026946E-06
   44.70000      5.9118179E-06
   44.76000      6.8371173E-06
   44.82000      7.8931416E-06
   44.88000      9.0959447E-06
   44.94000      1.0463204E-05
   45.00000      1.2014340E-05
   45.06000      1.3770630E-05
   45.12000      1.5755310E-05
   45.18000      1.7993672E-05
   45.24000      2.0513162E-05
   45.30000      2.3343448E-05
   45.36000      2.6516511E-05
   45.42000      3.0066718E-05
   45.48000      3.4030887E-05
   45.54000      3.8448343E-05
   45.60000      4.3360964E-05
   45.66000      4.8813185E-05
   45.72000      5.4852004E-05
   45.78000      6.1526938E-05
   45.84000      6.8889945E-05
   45.90000      7.6995333E-05
   45.96000      8.5899635E-05
   46.02000      9.5661439E-05
   46.08000      1.0634121E-04
   46.14000      1.1800103E-04
   46.20000      1.3070437E-04
   46.26000      1.4451578E-04
   46.32000      1.5950047E-04
   46.38000      1.7572404E-04
   46.44000      1.9325181E-04
   46.50000      2.1214853E-04
   46.56000      2.3247780E-04
   46.62000      2.5430144E-04
   46.68000      2.7767901E-04
   46.74000      3.0266700E-04
   46.80000      3.2931849E-04
   46.86000      3.5768221E-04
   46.92000      3.8780191E-04
   46.98000      4.1971577E-04
   47.04000      4.5345558E-04
   47.10000      4.8904616E-04
   47.16000      5.2650447E-04
   47.22000      5.6583935E-04
   47.28000      6.0705055E-04
   47.34000      6.5012829E-04
   47.40000      6.9505285E-04
   47.46000      7.4179418E-04
   47.52000      7.9031137E-04
   47.58000      8.4055233E-04
   47.64000      8.9245389E-04
   47.70000      9.4594137E-04
   47.76000      1.0009287E-03
   47.82000      1.0573189E-03
   47.88000      1.1150036E-03
   47.94000      1.1738646E-03
   48.00000      1.2337731E-03
   48.06000      1.2945911E-03
   48.12000      1.3561724E-03
   48.18000      1.4183624E-03
   48.24000      1.4810001E-03
   48.30000      1.5439190E-03
   48.36000      1.6069482E-03
   48.42000      1.6699138E-03
   48.48000      1.7326399E-03
   48.54000      1.7949508E-03
   48.60000      1.8566721E-03
   48.66000      1.9176321E-03
   48.72000      1.9776640E-03
   48.78000      2.0366064E-03
   48.84000      2.0943056E-03
   48.90000      2.1506171E-03
   48.96000      2.2054056E-03
   49.02000      2.2585492E-03
   49.08000      2.3099380E-03
   49.14000      2.3594764E-03
   49.20000      2.4070838E-03
   49.26000      2.4526950E-03
   49.32000      2.4962618E-03
   49.38000      2.5377520E-03
   49.44000      2.5771509E-03
   49.50000      2.6144607E-03
   49.56000      2.6497003E-03
   49.62000      2.6829052E-03
   49.68000      2.7141273E-03
   49.74000      2.7434328E-03
   49.80000      2.7709026E-03
   49.86000      2.7966297E-03
   49.92000      2.8207193E-03
   49.98000      2.8432859E-03
   50.04000      2.8644528E-03
   50.10000      2.8843489E-03
   50.16000      2.9031092E-03
   50.22000      2.9208707E-03
   50.28000      2.9377709E-03
   50.34000      2.9539461E-03
   50.40000      2.9695292E-03
   50.46000      2.9846481E-03
   50.52000      2.9994233E-03
   50.58000      3.0139671E-03
   50.64000      3.0283816E-03
   50.70000      3.0427563E-03
   50.76000      3.0571683E-03
   50.82000      3.0716800E-03
   50.88000      3.0863388E-03
   50.94000      3.1011752E-03
   51.00000      3.1162046E-03
   51.06000      3.1314259E-03
   51.12000      3.1468212E-03
   51.18000      3.1623568E-03
   51.24000      3.1779839E-03
   51.30000      3.1936392E-03
   51.36000      3.2092454E-03
   51.42000      3.2247133E-03
   51.48000      3.2399420E-03
   51.54000      3.2548222E-03
   51.60000      3.2692363E-03
   51.66000      3.2830611E-03
   51.72000      3.2961706E-03
   51.78000      3.3084368E-03
   51.84000      3.3197328E-03
   51.90000      3.3299339E-03
   51.96000      3.3389200E-03
   52.02000      3.3465773E-03
   52.08000      3.3528011E-03
   52.14000      3.3574963E-03
   52.20000      3.3605802E-03
   52.26000      3.3619830E-03
   52.32000      3.3616507E-03
   52.38000      3.3595441E-03
   52.44000      3.3556402E-03
   52.50000      3.3499340E-03
   52.56000      3.3424369E-03
   52.62000      3.3331781E-03
   52.68000      3.3222034E-03
   52.74000      3.3095763E-03
   52.80000      3.2953750E-03
   52.86000      3.2796941E-03
   52.92000      3.2626418E-03
   52.98000      3.2443383E-03
   53.04000      3.2249154E-03
   53.10000      3.2045133E-03
   53.16000      3.1832801E-03
   53.22000      3.1613698E-03
   53.28000      3.1389385E-03
   53.34000      3.1161453E-03
   53.40000      3.0931472E-03
   53.46000      3.0700995E-03
   53.52000      3.0471520E-03
   53.58000      3.0244482E-03
   53.64000      3.0021218E-03
   53.70000      2.9802972E-03
   53.76000      2.9590859E-03
   53.82000      2.9385865E-03
   53.88000      2.9188830E-03
   53.94000      2.9000447E-03
   54.00000      2.8821228E-03
   54.06000      2.8651534E-03
   54.12000      2.8491544E-03
   54.18000      2.8341271E-03
   54.24000      2.8200541E-03
   54.30000      2.8069026E-03
   54.36000      2.7946231E-03
   54.42000      2.7831506E-03
   54.48000      2.7724062E-03
   54.54000      2.7622979E-03
   54.60000      2.7527222E-03
   54.66000      2.7435664E-03
   54.72000      2.7347084E-03
   54.78000      2.7260196E-03
   54.84000      2.7173664E-03
   54.90000      2.7086115E-03
   54.96000      2.6996166E-03
   55.02000      2.6902442E-03
   55.08000      2.6803592E-03
   55.14000      2.6698310E-03
   55.20000      2.6585348E-03
   55.26000      2.6463538E-03
   55.32000      2.6331800E-03
   55.38000      2.6189147E-03
   55.44000      2.6034713E-03
   55.50000      2.5867743E-03
   55.56000      2.5687623E-03