  -2.400000      0.0000000E+00
  -2.340000      0.0000000E+00
  -2.280000      0.0000000E+00
  -2.220000      0.0000000E+00
  -2.160000      0.0000000E+00
  -2.100000      3.7098595E-20
  -2.040000      2.7712476E-19
  -1.980000      9.9108004E-19
  -1.920000      2.0342727E-18
  -1.860000      1.6656102E-18
  -1.800000     -4.4511751E-18
  -1.740000     -2.1899805E-17
  -1.680000     -5.1564014E-17
  -1.620000     -7.9669808E-17
  -1.560000     -7.0033776E-17
  -1.500000      3.0345366E-17
  -1.440000      2.6280219E-16
  -1.380000      6.0813445E-16
  -1.320000      9.3949580E-16
  -1.260000      1.0150825E-15
  -1.200000      5.4589373E-16
  -1.140000     -6.5596068E-16
  -1.080000     -2.4927059E-15
  -1.020000     -4.4507012E-15
 -0.9600000     -5.6281163E-15
 -0.9000000     -4.9835311E-15
 -0.8400000     -1.7779342E-15
 -0.7800000      3.9277964E-15
 -0.7200000      1.0940065E-14
 -0.6600000      1.6989228E-14
 -0.6000000      1.9297918E-14
 -0.5400000      1.5582099E-14
 -0.4800000      5.1671187E-15
 -0.4200000     -1.0266970E-14
 -0.3600000     -2.6773100E-14
 -0.3000000     -3.9239218E-14
 -0.2400000     -4.3207842E-14
 -0.1800000     -3.6652749E-14
 -0.1200000     -2.0795409E-14
 -5.9999999E-02  6.0153045E-16
  0.0000000E+00  2.3219253E-14
  5.9999999E-02  4.4330743E-14
  0.1200000      6.3627834E-14
  0.1800000      8.1786689E-14
  0.2400000      9.7204593E-14
  0.3000000      1.0286906E-13
  0.3600000      8.6022694E-14
  0.4200000      3.2444991E-14
  0.4800000     -6.5136610E-14
  0.5400000     -1.9775754E-13
  0.6000000     -3.3500711E-13
  0.6600000     -4.2830038E-13
  0.7200000     -4.2404700E-13
  0.7800000     -2.8379743E-13
  0.8400000     -4.6218946E-15
  0.9000000      3.6858491E-13
  0.9600000      7.4559407E-13
   1.020000      1.0104750E-12
   1.080000      1.0548787E-12
   1.140000      8.1598834E-13
   1.200000      3.0681103E-13
   1.260000     -3.7326706E-13
   1.320000     -1.0552545E-12
   1.380000     -1.5439924E-12
   1.440000     -1.6776915E-12
   1.500000     -1.3849678E-12
   1.560000     -7.1848007E-13
   1.620000      1.4996431E-13
   1.680000      9.7505077E-13
   1.740000      1.5111474E-12
   1.800000      1.5885007E-12
   1.860000      1.1661036E-12
   1.920000      3.4382669E-13
   1.980000     -6.6788729E-13
   2.040000     -1.6072491E-12
   2.100000     -2.2275706E-12
   2.160000     -2.3507025E-12
   2.220000     -1.8959025E-12
   2.280000     -8.8311254E-13
   2.340000      5.8256470E-13
   2.400000      2.3350388E-12
   2.460000      4.1697366E-12
   2.520000      5.8556580E-12
   2.580000      7.1315323E-12
   2.640000      7.6874982E-12
   2.700000      7.1445900E-12
   2.760000      5.0555029E-12
   2.820000      9.5425978E-13
   2.880000     -5.5280121E-12
   2.940000     -1.4489907E-11
   3.000000     -2.5570364E-11
   3.060000     -3.7808038E-11
   3.120000     -4.9612980E-11
   3.180000     -5.8884869E-11
   3.240000     -6.3263207E-11
   3.300000     -6.0447987E-11
   3.360000     -4.8504277E-11
   3.420000     -2.6071565E-11
   3.480000      7.5653693E-12
   3.540000      5.2537998E-11
   3.600000      1.0853586E-10
   3.660000      1.7494818E-10
   3.720000      2.5092273E-10
   3.780000      3.3528683E-10
   3.840000      4.2633100E-10
   3.900000      5.2153093E-10
   3.960000      6.1734767E-10
   4.020000      7.0926998E-10
   4.080000      7.9221335E-10
   4.140000      8.6126684E-10
   4.200000      9.1261992E-10
   4.260000      9.4438268E-10
   4.320000      9.5700026E-10
   4.380000      9.5308583E-10
   4.440000      9.3671948E-10
   4.500000      9.1247188E-10
   4.560000      8.8451818E-10
   4.620000      8.5614232E-10
   4.680000      8.2972601E-10
   4.740000      8.0707929E-10
   4.800000      7.8982004E-10
   4.860000      7.7952478E-10
   4.920000      7.7753604E-10
   4.980000      7.8453199E-10
   5.040000      8.0011775E-10
   5.100000      8.2270868E-10
   5.160000      8.4984531E-10
   5.220000      8.7887697E-10
   5.280000      9.0778191E-10
   5.340000      9.3582886E-10
   5.400000      9.6384667E-10
   5.460000      9.9401409E-10
   5.520000      1.0292441E-09
   5.580000      1.0723488E-09
   5.640000      1.1252121E-09
   5.700000      1.1881641E-09
   5.760000      1.2596829E-09
   5.820000      1.3364730E-09
   5.880000      1.4139043E-09
   5.940000      1.4867236E-09
   6.000000      1.5499025E-09
   6.060000      1.5994291E-09
   6.120000      1.6328491E-09
   6.180000      1.6494227E-09
   6.240000      1.6499084E-09
   6.300000      1.6361595E-09
   6.360000      1.6108356E-09
   6.420000      1.5774878E-09
   6.480000      1.5410624E-09
   6.540000      1.5085537E-09
   6.600000      1.4893107E-09
   6.660000      1.4945379E-09
   6.720000      1.5358647E-09
   6.780000      1.6233735E-09
   6.840000      1.7638934E-09
   6.900000      1.9604096E-09
   6.960000      2.2130406E-09
   7.020000      2.5213303E-09
   7.080000      2.8869489E-09
   7.140000      3.3156409E-09
   7.200000      3.8175130E-09
   7.260000      4.4054529E-09
   7.320000      5.0922098E-09
   7.380000      5.8871756E-09
   7.440000      6.7939374E-09
   7.500000      7.8092848E-09
   7.560000      8.9237675E-09
   7.620000      1.0123371E-08
   7.680000      1.1391550E-08
   7.740000      1.2710881E-08
   7.800000      1.4063859E-08
   7.860000      1.5432784E-08
   7.920000      1.6799127E-08
   7.980000      1.8143021E-08
   8.040000      1.9443450E-08
   8.100000      2.0679352E-08
   8.160000      2.1831317E-08
   8.220000      2.2883112E-08
   8.280000      2.3822222E-08
   8.340000      2.4639032E-08
   8.400000      2.5324924E-08
   8.460000      2.5870129E-08
   8.520000      2.6262347E-08
   8.580000      2.6486752E-08
   8.640000      2.6527349E-08
   8.700000      2.6369154E-08
   8.760000      2.6000505E-08
   8.820000      2.5415099E-08
   8.880000      2.4613737E-08
   8.940000      2.3605910E-08
   9.000000      2.2411282E-08
   9.060000      2.1060730E-08
   9.120000      1.9596413E-08
   9.180000      1.8070404E-08
   9.240000      1.6541810E-08
   9.300000      1.5072718E-08
   9.360000      1.3723480E-08
   9.420000      1.2547798E-08
   9.480000      1.1587854E-08
   9.540000      1.0869658E-08
   9.600000      1.0398887E-08
   9.660000      1.0157814E-08
   9.720000      1.0103996E-08
   9.780000      1.0171335E-08
   9.840000      1.0273707E-08
   9.900000      1.0310934E-08
   9.960000      1.0176601E-08
   10.02000      9.7670938E-09
   10.08000      8.9911598E-09
   10.14000      7.7790894E-09
   10.20000      6.0903664E-09
   10.26000      3.9185015E-09
   10.32000      1.2920498E-09
   10.38000     -1.7285070E-09
   10.44000     -5.0573905E-09
   10.50000     -8.5923935E-09
   10.56000     -1.2224536E-08
   10.62000     -1.5847432E-08
   10.68000     -1.9365745E-08
   10.74000     -2.2702395E-08
   10.80000     -2.5804002E-08
   10.86000     -2.8643708E-08
   10.92000     -3.1220520E-08
   10.98000     -3.3554780E-08
   11.04000     -3.5680380E-08
   11.10000     -3.7635253E-08
   11.16000     -3.9452189E-08
   11.22000     -4.1151733E-08
   11.28000     -4.2738030E-08
   11.34000     -4.4197687E-08
   11.40000     -4.5501167E-08
   11.46000     -4.6606146E-08
   11.52000     -4.7462482E-08
   11.58000     -4.8018411E-08
   11.64000     -4.8227463E-08
   11.70000     -4.8055227E-08
   11.76000     -4.7484978E-08
   11.82000     -4.6521251E-08
   11.88000     -4.5191044E-08
   11.94000     -4.3542560E-08
   12.00000     -4.1641751E-08
   12.06000     -3.9566817E-08
   12.12000     -3.7400923E-08
   12.18000     -3.5223358E-08
   12.24000     -3.3100161E-08
   12.30000     -3.1075604E-08
   12.36000     -2.9166443E-08
   12.42000     -2.7360521E-08
   12.48000     -2.5620588E-08
   12.54000     -2.3893014E-08
   12.60000     -2.2119899E-08
   12.66000     -2.0252330E-08
   12.72000     -1.8262163E-08
   12.78000     -1.6149949E-08
   12.84000     -1.3947287E-08
   12.90000     -1.1712919E-08
   12.96000     -9.5232169E-09
   13.02000     -7.4590201E-09
   13.08000     -5.5917222E-09
   13.14000     -3.9717656E-09
   13.20000     -2.6219502E-09
   13.26000     -1.5365745E-09
   13.32000     -6.8565259E-10
   13.38000     -2.2180913E-11
   13.44000      5.1003474E-10
   13.50000      9.6993635E-10
   13.56000      1.4149253E-09
   13.62000      1.8983157E-09
   13.68000      2.4674685E-09
   13.74000      3.1616898E-09
   13.80000      4.0096921E-09
   13.86000      5.0272142E-09
   13.92000      6.2157897E-09
   13.98000      7.5633428E-09
   14.04000      9.0465075E-09
   14.10000      1.0633710E-08
   14.16000      1.2287703E-08
   14.22000      1.3966570E-08
   14.28000      1.5623137E-08
   14.34000      1.7203826E-08
   14.40000      1.8648525E-08
   14.46000      1.9892978E-08
   14.52000      2.0874296E-08
   14.58000      2.1538966E-08
   14.64000      2.1851649E-08
   14.70000      2.1802581E-08
   14.76000      2.1411552E-08
   14.82000      2.0727272E-08
   14.88000      1.9822082E-08
   14.94000      1.8782988E-08
   15.00000      1.7700957E-08
   15.06000      1.6660586E-08
   15.12000      1.5732123E-08
   15.18000      1.4967034E-08
   15.24000      1.4397227E-08
   15.30000      1.4037155E-08
   15.36000      1.3887278E-08
   15.42000      1.3937476E-08
   15.48000      1.4169452E-08
   15.54000      1.4557969E-08
   15.60000      1.5071411E-08
   15.66000      1.5672342E-08
   15.72000      1.6318578E-08
   15.78000      1.6964858E-08
   15.84000      1.7564886E-08
   15.90000      1.8073576E-08
   15.96000      1.8449514E-08
   16.02000      1.8657969E-08
   16.08000      1.8674710E-08
   16.14000      1.8490455E-08
   16.20000      1.8115173E-08
   16.26000      1.7580783E-08
   16.32000      1.6940740E-08
   16.38000      1.6265355E-08
   16.44000      1.5632825E-08
   16.50000      1.5117188E-08
   16.56000      1.4775660E-08
   16.62000      1.4638386E-08
   16.68000      1.4703398E-08
   16.74000      1.4938468E-08
   16.80000      1.5289746E-08
   16.86000      1.5695166E-08
   16.92000      1.6099165E-08
   16.98000      1.6464750E-08
   17.04000      1.6779726E-08
   17.10000      1.7055529E-08
   17.16000      1.7319330E-08
   17.22000      1.7602078E-08
   17.28000      1.7926311E-08
   17.34000      1.8297547E-08
   17.40000      1.8701977E-08
   17.46000      1.9111129E-08
   17.52000      1.9491907E-08
   17.58000      1.9818561E-08
   17.64000      2.0082316E-08
   17.70000      2.0295026E-08
   17.76000      2.0485267E-08
   17.82000      2.0687974E-08
   17.88000      2.0931251E-08
   17.94000      2.1225222E-08
   18.00000      2.1557014E-08
   18.06000      2.1893726E-08
   18.12000      2.2192117E-08
   18.18000      2.2411209E-08
   18.24000      2.2523128E-08
   18.30000      2.2518501E-08
   18.36000      2.2405048E-08
   18.42000      2.2200684E-08
   18.48000      2.1924238E-08
   18.54000      2.1587313E-08
   18.60000      2.1189937E-08
   18.66000      2.0720927E-08
   18.72000      2.0162229E-08
   18.78000      1.9495330E-08
   18.84000      1.8707322E-08
   18.90000      1.7794687E-08
   18.96000      1.6763583E-08
   19.02000      1.5626682E-08
   19.08000      1.4397695E-08
   19.14000      1.3085542E-08
   19.20000      1.1690386E-08
   19.26000      1.0203215E-08
   19.32000      8.6095353E-09
   19.38000      6.8963648E-09
   19.44000      5.0604059E-09
   19.50000      3.1146306E-09
   19.56000      1.0906832E-09
   19.62000     -9.6443686E-10
   19.68000     -2.9972465E-09
   19.74000     -4.9601510E-09
   19.80000     -6.8237771E-09
   19.86000     -8.5852285E-09
   19.92000     -1.0269124E-08
   19.98000     -1.1920439E-08
   20.04000     -1.3591023E-08
   20.10000     -1.5324149E-08
   20.16000     -1.7142485E-08
   20.22000     -1.9043865E-08
   20.28000     -2.1006510E-08
   20.34000     -2.3001730E-08
   20.40000     -2.5009374E-08
   20.46000     -2.7030193E-08
   20.52000     -2.9090460E-08
   20.58000     -3.1237121E-08
   20.64000     -3.3525051E-08
   20.70000     -3.6000763E-08
   20.76000     -3.8687951E-08
   20.82000     -4.1579671E-08
   20.88000     -4.4639677E-08
   20.94000     -4.7812623E-08
   21.00000     -5.1040011E-08
   21.06000     -5.4276772E-08
   21.12000     -5.7503048E-08
   21.18000     -6.0727011E-08
   21.24000     -6.3977339E-08
   21.30000     -6.7287516E-08
   21.36000     -7.0676712E-08
   21.42000     -7.4133695E-08
   21.48000     -7.7609037E-08
   21.54000     -8.1018463E-08
   21.60000     -8.4256577E-08
   21.66000     -8.7217096E-08
   21.72000     -8.9813902E-08
   21.78000     -9.1997194E-08
   21.84000     -9.3760541E-08
   21.90000     -9.5137629E-08
   21.96000     -9.6189737E-08
   22.02000     -9.6988124E-08
   22.08000     -9.7596399E-08
   22.14000     -9.8057875E-08
   22.20000     -9.8391126E-08
   22.26000     -9.8594192E-08
   22.32000     -9.8654716E-08
   22.38000     -9.8561628E-08
   22.44000     -9.8313429E-08
   22.50000     -9.7919951E-08
   22.56000     -9.7397447E-08
   22.62000     -9.6759322E-08
   22.68000     -9.6006744E-08
   22.74000     -9.5123042E-08
   22.80000     -9.4074409E-08
   22.86000     -9.2817096E-08
   22.92000     -9.1309104E-08
   22.98000     -8.9523070E-08
   23.04000     -8.7456442E-08
   23.10000     -8.5135738E-08
   23.16000     -8.2612900E-08
   23.22000     -7.9954056E-08
   23.28000     -7.7223056E-08
   23.34000     -7.4464403E-08
   23.40000     -7.1690671E-08
   23.46000     -6.8878769E-08
   23.52000     -6.5976863E-08
   23.58000     -6.2920527E-08
   23.64000     -5.9653850E-08
   23.70000     -5.6149275E-08
   23.76000     -5.2420933E-08
   23.82000     -4.8527507E-08
   23.88000     -4.4564054E-08
   23.94000     -4.0644895E-08
   24.00000     -3.6882042E-08
   24.06000     -3.3364522E-08
   24.12000     -3.0143706E-08
   24.18000     -2.7227960E-08
   24.24000     -2.4587454E-08
   24.30000     -2.2166921E-08
   24.36000     -1.9902243E-08
   24.42000     -1.7735813E-08
   24.48000     -1.5626696E-08
   24.54000     -1.3553923E-08
   24.60000     -1.1513631E-08
   24.66000     -9.5127426E-09
   24.72000     -7.5621047E-09
   24.78000     -5.6713279E-09
   24.84000     -3.8461812E-09
   24.90000     -2.0883100E-09
   24.96000     -3.9658471E-10
   25.02000      1.2305601E-09
   25.08000      2.7922931E-09
   25.14000      4.2826516E-09
   25.20000      5.6887761E-09
   25.26000      6.9910691E-09
   25.32000      8.1658325E-09
   25.38000      9.1899803E-09
   25.44000      1.0046357E-08
   25.50000      1.0727639E-08
   25.56000      1.1237075E-08
   25.62000      1.1585513E-08
   25.68000      1.1785608E-08
   25.74000      1.1845305E-08
   25.80000      1.1762960E-08
   25.86000      1.1525923E-08
   25.92000      1.1113196E-08
   25.98000      1.0501405E-08
   26.04000      9.6723332E-09
   26.10000      8.6197387E-09
   26.16000      7.3533886E-09
   26.22000      5.8989840E-09
   26.28000      4.2938186E-09
   26.34000      2.5793010E-09
   26.40000      7.9246643E-10
   26.46000     -1.0409907E-09
   26.52000     -2.9100566E-09
   26.58000     -4.8171178E-09
   26.64000     -6.7725545E-09
   26.70000     -8.7870040E-09
   26.76000     -1.0863758E-08
   26.82000     -1.2993645E-08
   26.88000     -1.5153862E-08
   26.94000     -1.7310979E-08
   27.00000     -1.9427178E-08
   27.06000     -2.1467805E-08
   27.12000     -2.3408143E-08
   27.18000     -2.5237453E-08
   27.24000     -2.6959190E-08
   27.30000     -2.8587426E-08
   27.36000     -3.0140562E-08
   27.42000     -3.1634372E-08
   27.48000     -3.3076578E-08
   27.54000     -3.4464644E-08
   27.60000     -3.5787405E-08
   27.66000     -3.7029743E-08
   27.72000     -3.8178491E-08
   27.78000     -3.9227391E-08
   27.84000     -4.0179280E-08
   27.90000     -4.1044984E-08
   27.96000     -4.1839463E-08
   28.02000     -4.2576946E-08
   28.08000     -4.3266819E-08
   28.14000     -4.3911836E-08
   28.20000     -4.4509019E-08
   28.26000     -4.5052719E-08
   28.32000     -4.5538400E-08
   28.38000     -4.5965560E-08
   28.44000     -4.6338691E-08
   28.50000     -4.6665832E-08
   28.56000     -4.6955417E-08
   28.62000     -4.7212627E-08
   28.68000     -4.7436703E-08
   28.74000     -4.7620365E-08
   28.80000     -4.7751520E-08
   28.86000     -4.7816808E-08
   28.92000     -4.7805571E-08
   28.98000     -4.7712717E-08
   29.04000     -4.7539181E-08
   29.10000     -4.7289440E-08
   29.16000     -4.6966687E-08
   29.22000     -4.6567251E-08
   29.28000     -4.6076501E-08
   29.34000     -4.5468362E-08
   29.40000     -4.4709601E-08
   29.46000     -4.3768381E-08
   29.52000     -4.2624922E-08
   29.58000     -4.1280931E-08
   29.64000     -3.9764590E-08
   29.70000     -3.8129027E-08
   29.76000     -3.6444415E-08
   29.82000     -3.4785838E-08
   29.88000     -3.3220324E-08
   29.94000     -3.1796464E-08
   30.00000     -3.0538917E-08
   30.06000     -2.9448511E-08
   30.12000     -2.8507319E-08
   30.18000     -2.7687051E-08
   30.24000     -2.6959039E-08
   30.30000     -2.6303820E-08
   30.36000     -2.5718554E-08
   30.42000     -2.5220604E-08
   30.48000     -2.4846090E-08
   30.54000     -2.4643279E-08
   30.60000     -2.4662079E-08
   30.66000     -2.4942237E-08
   30.72000     -2.5503496E-08
   30.78000     -2.6340514E-08
   30.84000     -2.7423942E-08
   30.90000     -2.8707142E-08
   30.96000     -3.0136405E-08
   31.02000     -3.1661774E-08
   31.08000     -3.3245616E-08
   31.14000     -3.4867103E-08
   31.20000     -3.6521801E-08
   31.26000     -3.8216960E-08
   31.32000     -3.9963972E-08
   31.38000     -4.1770083E-08
   31.44000     -4.3631655E-08
   31.50000     -4.5530836E-08
   31.56000     -4.7436451E-08
   31.62000     -4.9308738E-08
   31.68000     -5.1106397E-08
   31.74000     -5.2793819E-08
   31.80000     -5.4346764E-08
   31.86000     -5.5755393E-08
   31.92000     -5.7024675E-08
   31.98000     -5.8172606E-08
   32.04000     -5.9226750E-08
   32.10000     -6.0219364E-08
   32.16000     -6.1181083E-08
   32.22000     -6.2133729E-08
   32.28000     -6.3083419E-08
   32.34000     -6.4015907E-08
   32.40000     -6.4896348E-08
   32.46000     -6.5674428E-08
   32.52000     -6.6294277E-08
   32.58000     -6.6706562E-08
   32.64000     -6.6879132E-08
   32.70000     -6.6802841E-08
   32.76000     -6.6490713E-08
   32.82000     -6.5971150E-08
   32.88000     -6.5277703E-08
   32.94000     -6.4439071E-08
   33.00000     -6.3472541E-08
   33.06000     -6.2382348E-08
   33.12000     -6.1162595E-08
   33.18000     -5.9802851E-08
   33.24000     -5.8294138E-08
   33.30000     -5.6633432E-08
   33.36000     -5.4825946E-08
   33.42000     -5.2885483E-08
   33.48000     -5.0833187E-08
   33.54000     -4.8695199E-08
   33.60000     -4.6498943E-08
   33.66000     -4.4268081E-08
   33.72000     -4.2016559E-08
   33.78000     -3.9743409E-08
   33.84000     -3.7430475E-08
   33.90000     -3.5045289E-08
   33.96000     -3.2549536E-08
   34.02000     -2.9911558E-08
   34.08000     -2.7119269E-08
   34.14000     -2.4188974E-08
   34.20000     -2.1166734E-08
   34.26000     -1.8121142E-08
   34.32000     -1.5129288E-08
   34.38000     -1.2259857E-08
   34.44000     -9.5580281E-09
   34.50000     -7.0362098E-09
   34.56000     -4.6728967E-09
   34.62000     -2.4198912E-09
   34.68000     -2.1615650E-10
   34.74000      1.9949278E-09
   34.80000      4.2491113E-09
   34.86000      6.5499468E-09
   34.92000      8.8659657E-09
   34.98000      1.1137614E-08
   35.04000      1.3292293E-08
   35.10000      1.5263026E-08
   35.16000      1.7004760E-08
   35.22000      1.8502794E-08
   35.28000      1.9770653E-08
   35.34000      2.0838542E-08
   35.40000      2.1737193E-08
   35.46000      2.2483530E-08
   35.52000      2.3073657E-08
   35.58000      2.3485580E-08
   35.64000      2.3689930E-08
   35.70000      2.3663953E-08
   35.76000      2.3402867E-08
   35.82000      2.2924283E-08
   35.88000      2.2264373E-08
   35.94000      2.1467779E-08
   36.00000      2.0575493E-08
   36.06000      1.9615131E-08
   36.12000      1.8596511E-08
   36.18000      1.7513248E-08
   36.24000      1.6348933E-08
   36.30000      1.5085471E-08
   36.36000      1.3711047E-08
   36.42000      1.2225853E-08
   36.48000      1.0644460E-08
   36.54000      8.9943937E-09
   36.60000      7.3111135E-09
   36.66000      5.6304748E-09
   36.72000      3.9807344E-09
   36.78000      2.3767812E-09
   36.84000      8.1901969E-10
   36.90000     -7.0219058E-10
   36.96000     -2.1979472E-09
   37.02000     -3.6716044E-09
   37.08000     -5.1132205E-09
   37.14000     -6.5006609E-09
   37.20000     -7.8075297E-09
   37.26000     -9.0149417E-09
   37.32000     -1.0122165E-08
   37.38000     -1.1151355E-08
   37.44000     -1.2143791E-08
   37.50000     -1.3148373E-08
   37.56000     -1.4206075E-08
   37.62000     -1.5335614E-08
   37.68000     -1.6525258E-08
   37.74000     -1.7733790E-08
   37.80000     -1.8900810E-08
   37.86000     -1.9963780E-08
   37.92000     -2.0876941E-08
   37.98000     -2.1626516E-08
   38.04000     -2.2237295E-08
   38.10000     -2.2768079E-08
   38.16000     -2.3296762E-08
   38.22000     -2.3899208E-08
   38.28000     -2.4628143E-08
   38.34000     -2.5498627E-08
   38.40000     -2.6484562E-08
   38.46000     -2.7527351E-08
   38.52000     -2.8553945E-08
   38.58000     -2.9498732E-08
   38.64000     -3.0322596E-08
   38.70000     -3.1023443E-08
   38.76000     -3.1635210E-08
   38.82000     -3.2215731E-08
   38.88000     -3.2827344E-08
   38.94000     -3.3516201E-08
   39.00000     -3.4296669E-08
   39.06000     -3.5145668E-08
   39.12000     -3.6008540E-08
   39.18000     -3.6814445E-08
   39.24000     -3.7496232E-08
   39.30000     -3.8008547E-08
   39.36000     -3.8338754E-08
   39.42000     -3.8507824E-08
   39.48000     -3.8561488E-08
   39.54000     -3.8554887E-08
   39.60000     -3.8535486E-08
   39.66000     -3.8529137E-08
   39.72000     -3.8533038E-08
   39.78000     -3.8517289E-08
   39.84000     -3.8434536E-08
   39.90000     -3.8234926E-08
   39.96000     -3.7882117E-08
   40.02000     -3.7365478E-08
   40.08000     -3.6704687E-08
   40.14000     -3.5944833E-08
   40.20000     -3.5143426E-08
   40.26000     -3.4353409E-08
   40.32000     -3.3607741E-08
   40.38000     -3.2910812E-08
   40.44000     -3.2239370E-08
   40.50000     -3.1552307E-08
   40.56000     -3.0805467E-08
   40.62000     -2.9966184E-08
   40.68000     -2.9022745E-08
   40.74000     -2.7986330E-08
   40.80000     -2.6885875E-08
   40.86000     -2.5758538E-08
   40.92000     -2.4639489E-08
   40.98000     -2.3554080E-08
   41.04000     -2.2514181E-08
   41.10000     -2.1518796E-08
   41.16000     -2.0558035E-08
   41.22000     -1.9618842E-08
   41.28000     -1.8690715E-08
   41.34000     -1.7769816E-08
   41.40000     -1.6860231E-08
   41.46000     -1.5971937E-08
   41.52000     -1.5116132E-08
   41.58000     -1.4299752E-08
   41.64000     -1.3521467E-08
   41.70000     -1.2771115E-08
   41.76000     -1.2033079E-08
   41.82000     -1.1292387E-08
   41.88000     -1.0541096E-08
   41.94000     -9.7824282E-09
   42.00000     -9.0312149E-09
   42.06000     -8.3108560E-09
   42.12000     -7.6482278E-09
   42.18000     -7.0682864E-09
   42.24000     -6.5895041E-09
   42.30000     -6.2204628E-09
   42.36000     -5.9574830E-09
   42.42000     -5.7834804E-09
   42.48000     -5.6688387E-09
   42.54000     -5.5753588E-09
   42.60000     -5.4637272E-09
   42.66000     -5.3035598E-09
   42.72000     -5.0835065E-09
   42.78000     -4.8180953E-09
   42.84000     -4.5484536E-09
   42.90000     -4.3357620E-09
   42.96000     -4.2486263E-09
   43.02000     -4.3476298E-09
   43.08000     -4.6713544E-09
   43.14000     -5.2278524E-09
   43.20000     -5.9939764E-09
   43.26000     -6.9227197E-09
   43.32000     -7.9563875E-09
   43.38000     -9.0418286E-09
   43.44000     -1.0143509E-08
   43.50000     -1.1251037E-08
   43.56000     -1.2379537E-08
   43.62000     -1.3563365E-08
   43.68000     -1.4845410E-08
   43.74000     -1.6265178E-08
   43.80000     -1.7848949E-08
   43.86000     -1.9604711E-08
   43.92000     -2.1523384E-08
   43.98000     -2.3586285E-08
   44.04000     -2.5776924E-08
   44.10000     -2.8093410E-08
   44.16000     -3.0556922E-08
   44.22000     -3.3212302E-08
   44.28000     -3.6119616E-08
   44.34000     -3.9339188E-08
   44.40000     -4.2916064E-08
   44.46000     -4.6870984E-08
   44.52000     -5.1202750E-08
   44.58000     -5.5902571E-08
   44.64000     -6.0975836E-08
   44.70000     -6.6464132E-08
   44.76000     -7.2460423E-08
   44.82000     -7.9114102E-08
   44.88000     -8.6626429E-08
   44.94000     -9.5240310E-08
   45.00000     -1.0522874E-07
   45.06000     -1.1688545E-07
   45.12000     -1.3051920E-07
   45.18000     -1.4645316E-07
   45.24000     -1.6503046E-07
   45.30000     -1.8662763E-07
   45.36000     -2.1167664E-07
   45.42000     -2.4069288E-07
   45.48000     -2.7430428E-07
   45.54000     -3.1327400E-07
   45.60000     -3.5851193E-07
   45.66000     -4.1107398E-07
   45.72000     -4.7215482E-07
   45.78000     -5.4308299E-07
   45.84000     -6.2532695E-07
   45.90000     -7.2051779E-07
   45.96000     -8.3048468E-07
   46.02000     -9.5729763E-07
   46.08000     -1.1033064E-06
   46.14000     -1.2711706E-06
   46.20000     -1.4638759E-06
   46.26000     -1.6847434E-06
   46.32000     -1.9374345E-06
   46.38000     -2.2259640E-06
   46.44000     -2.5547199E-06
   46.50000     -2.9284950E-06
   46.56000     -3.3525246E-06
   46.62000     -3.8325293E-06
   46.68000     -4.3747559E-06
   46.74000     -4.9860141E-06
   46.80000     -5.6737076E-06
   46.86000     -6.4458595E-06
   46.92000     -7.3111305E-06
   46.98000     -8.2788365E-06
   47.04000     -9.3589479E-06
   47.10000     -1.0562095E-05
   47.16000     -1.1899561E-05
   47.22000     -1.3383277E-05
   47.28000     -1.5025811E-05
   47.34000     -1.6840353E-05
   47.40000     -1.8840710E-05
   47.46000     -2.1041280E-05
   47.52000     -2.3457018E-05
   47.58000     -2.6103400E-05
   47.64000     -2.8996365E-05
   47.70000     -3.2152235E-05
   47.76000     -3.5587636E-05
   47.82000     -3.9319413E-05
   47.88000     -4.3364504E-05
   47.94000     -4.7739846E-05
   48.00000     -5.2462259E-05
   48.06000     -5.7548281E-05
   48.12000     -6.3014042E-05
   48.18000     -6.8875110E-05
   48.24000     -7.5146323E-05
   48.30000     -8.1841652E-05
   48.36000     -8.8974011E-05
   48.42000     -9.6555093E-05
   48.48000     -1.0459519E-04
   48.54000     -1.1310300E-04
   48.60000     -1.2208546E-04
   48.66000     -1.3154754E-04
   48.72000     -1.4149214E-04
   48.78000     -1.5191986E-04
   48.84000     -1.6282887E-04
   48.90000     -1.7421485E-04
   48.96000     -1.8607071E-04
   49.02000     -1.9838671E-04
   49.08000     -2.1115025E-04
   49.14000     -2.2434589E-04
   49.20000     -2.3795520E-04
   49.26000     -2.5195690E-04
   49.32000     -2.6632677E-04
   49.38000     -2.8103770E-04
   49.44000     -2.9605988E-04
   49.50000     -3.1136084E-04
   49.56000     -3.2690560E-04
   49.62000     -3.4265700E-04
   49.68000     -3.5857581E-04
   49.74000     -3.7462104E-04
   49.80000     -3.9075027E-04
   49.86000     -4.0691975E-04
   49.92000     -4.2308486E-04
   49.98000     -4.3920049E-04
   50.04000     -4.5522136E-04
   50.10000     -4.7110260E-04
   50.16000     -4.8679995E-04
   50.22000     -5.0227012E-04
   50.28000     -5.1747152E-04
   50.34000     -5.3236418E-04
   50.40000     -5.4691057E-04
   50.46000     -5.6107587E-04
   50.52000     -5.7482824E-04
   50.58000     -5.8813911E-04
   50.64000     -6.0098351E-04
   50.70000     -6.1334041E-04
   50.76000     -6.2519294E-04
   50.82000     -6.3652848E-04
   50.88000     -6.4733886E-04
   50.94000     -6.5762049E-04
   51.00000     -6.6737446E-04
   51.06000     -6.7660637E-04
   51.12000     -6.8532617E-04
   51.18000     -6.9354847E-04
   51.24000     -7.0129160E-04
   51.30000     -7.0857810E-04
   51.36000     -7.1543397E-04
   51.42000     -7.2188844E-04
   51.48000     -7.2797359E-04
   51.54000     -7.3372392E-04
   51.60000     -7.3917612E-04
   51.66000     -7.4436847E-04
   51.72000     -7.4934022E-04
   51.78000     -7.5413112E-04
   51.84000     -7.5878075E-04
   51.90000     -7.6332840E-04
   51.96000     -7.6781190E-04
   52.02000     -7.7226770E-04
   52.08000     -7.7673007E-04
   52.14000     -7.8123104E-04
   52.20000     -7.8579958E-04
   52.26000     -7.9046126E-04
   52.32000     -7.9523824E-04
   52.38000     -8.0014835E-04
   52.44000     -8.0520549E-04
   52.50000     -8.1041927E-04
   52.56000     -8.1579486E-04
   52.62000     -8.2133303E-04
   52.68000     -8.2703022E-04
   52.74000     -8.3287811E-04
   52.80000     -8.3886407E-04
   52.86000     -8.4497157E-04
   52.92000     -8.5118035E-04
   52.98000     -8.5746712E-04
   53.04000     -8.6380582E-04
   53.10000     -8.7016769E-04
   53.16000     -8.7652192E-04
   53.22000     -8.8283588E-04
   53.28000     -8.8907563E-04
   53.34000     -8.9520658E-04
   53.40000     -9.0119400E-04
   53.46000     -9.0700376E-04
   53.52000     -9.1260270E-04
   53.58000     -9.1795897E-04
   53.64000     -9.2304259E-04
   53.70000     -9.2782598E-04
   53.76000     -9.3228417E-04
   53.82000     -9.3639543E-04
   53.88000     -9.4014115E-04
   53.94000     -9.4350660E-04
   54.00000     -9.4648055E-04
   54.06000     -9.4905577E-04
   54.12000     -9.5122895E-04
   54.18000     -9.5300091E-04
   54.24000     -9.5437630E-04
   54.30000     -9.5536356E-04
   54.36000     -9.5597492E-04
   54.42000     -9.5622585E-04
   54.48000     -9.5613493E-04
   54.54000     -9.5572328E-04
   54.60000     -9.5501443E-04
   54.66000     -9.5403363E-04
   54.72000     -9.5280784E-04
   54.78000     -9.5136493E-04
   54.84000     -9.4973337E-04
   54.90000     -9.4794185E-04
   54.96000     -9.4601861E-04
   55.02000     -9.4399089E-04
   55.08000     -9.4188482E-04
   55.14000     -9.3972473E-04
   55.20000     -9.3753298E-04
   55.26000     -9.3532953E-04
   55.32000     -9.3313167E-04
   55.38000     -9.3095348E-04
   55.44000     -9.2880585E-04
   55.50000     -9.2669640E-04
   55.56000     -9.2462916E-04