  -2.400000      0.0000000E+00
  -2.340000      0.0000000E+00
  -2.280000      0.0000000E+00
  -2.220000      0.0000000E+00
  -2.160000      0.0000000E+00
  -2.100000      3.4042150E-19
  -2.040000      2.1530560E-18
  -1.980000      6.0128098E-18
  -1.920000      7.3657423E-18
  -1.860000     -6.9961348E-18
  -1.800000     -5.0558540E-17
  -1.740000     -1.1045413E-16
  -1.680000     -1.1890748E-16
  -1.620000      3.4023355E-17
  -1.560000      4.0681166E-16
  -1.500000      8.5365442E-16
  -1.440000      9.3247020E-16
  -1.380000      4.7049332E-17
  -1.320000     -2.0918349E-15
  -1.260000     -4.8524641E-15
  -1.200000     -6.3676875E-15
  -1.140000     -4.0491656E-15
  -1.080000      3.8792279E-15
  -1.020000      1.6357655E-14
 -0.9600000      2.8230831E-14
 -0.9000000      3.1165991E-14
 -0.8400000      1.7341363E-14
 -0.7800000     -1.5162432E-14
 -0.7200000     -5.8023620E-14
 -0.6600000     -9.2702769E-14
 -0.6000000     -9.6736184E-14
 -0.5400000     -5.5045236E-14
 -0.4800000      2.8514243E-14
 -0.4200000      1.2596518E-13
 -0.3600000      1.9153011E-13
 -0.3000000      1.7980664E-13
 -0.2400000      6.9853777E-14
 -0.1800000     -1.1548598E-13
 -0.1200000     -3.0609657E-13
 -5.9999999E-02 -4.0304676E-13
  0.0000000E+00 -3.1628151E-13
  5.9999999E-02 -9.5417042E-15
  0.1200000      4.6529615E-13
  0.1800000      9.6175422E-13
  0.2400000      1.2699798E-12
  0.3000000      1.1827958E-12
  0.3600000      5.7946421E-13
  0.4200000     -5.0104436E-13
  0.4800000     -1.8287286E-12
  0.5400000     -3.0166286E-12
  0.6000000     -3.6241019E-12
  0.6600000     -3.3060460E-12
  0.7200000     -1.9593897E-12
  0.7800000      1.9363883E-13
  0.8400000      2.6342242E-12
  0.9000000      4.6990940E-12
  0.9600000      5.8147211E-12
   1.020000      5.7251760E-12
   1.080000      4.6085679E-12
   1.140000      3.0073212E-12
   1.200000      1.5719134E-12
   1.260000      7.1003945E-13
   1.320000      3.0177973E-13
   1.380000     -3.5391487E-13
   1.440000     -2.2729635E-12
   1.500000     -6.2511936E-12
   1.560000     -1.2259790E-11
   1.620000     -1.9056133E-11
   1.680000     -2.4262826E-11
   1.740000     -2.5006630E-11
   1.800000     -1.8968053E-11
   1.860000     -5.4690362E-12
   1.920000      1.3870426E-11
   1.980000      3.5274630E-11
   2.040000      5.3831172E-11
   2.100000      6.5084341E-11
   2.160000      6.6592364E-11
   2.220000      5.8756854E-11
   2.280000      4.4459301E-11
   2.340000      2.7520907E-11
   2.400000      1.0562719E-11
   2.460000     -6.7627405E-12
   2.520000     -2.8174863E-11
   2.580000     -5.9230974E-11
   2.640000     -1.0403021E-10
   2.700000     -1.6112771E-10
   2.760000     -2.2014653E-10
   2.820000     -2.6055672E-10
   2.880000     -2.5348726E-10
   2.940000     -1.6643724E-10
   3.000000      3.0282572E-11
   3.060000      3.5721731E-10
   3.120000      8.2140744E-10
   3.180000      1.4152217E-09
   3.240000      2.1185194E-09
   3.300000      2.9031679E-09
   3.360000      3.7382426E-09
   3.420000      4.5941979E-09
   3.480000      5.4449321E-09
   3.540000      6.2677095E-09
   3.600000      7.0418702E-09
   3.660000      7.7477678E-09
   3.720000      8.3671914E-09
   3.780000      8.8856966E-09
   3.840000      9.2961701E-09
   3.900000      9.6021227E-09
   3.960000      9.8189261E-09
   4.020000      9.9718198E-09
   4.080000      1.0090677E-08
   4.140000      1.0202848E-08
   4.200000      1.0326286E-08
   4.260000      1.0465192E-08
   4.320000      1.0609577E-08
   4.380000      1.0738668E-08
   4.440000      1.0826636E-08
   4.500000      1.0848382E-08
   4.560000      1.0783252E-08
   4.620000      1.0615821E-08
   4.680000      1.0334364E-08
   4.740000      9.9290061E-09
   4.800000      9.3918189E-09
   4.860000      8.7202734E-09
   4.920000      7.9236067E-09
   4.980000      7.0297070E-09
   5.040000      6.0889382E-09
   5.100000      5.1716320E-09
   5.160000      4.3579123E-09
   5.220000      3.7214429E-09
   5.280000      3.3115193E-09
   5.340000      3.1393665E-09
   5.400000      3.1738476E-09
   5.460000      3.3489524E-09
   5.520000      3.5814434E-09
   5.580000      3.7932857E-09
   5.640000      3.9315569E-09
   5.700000      3.9792423E-09
   5.760000      3.9535459E-09
   5.820000      3.8929353E-09
   5.880000      3.8382946E-09
   5.940000      3.8157051E-09
   6.000000      3.8275694E-09
   6.060000      3.8553618E-09
   6.120000      3.8725347E-09
   6.180000      3.8619383E-09
   6.240000      3.8301584E-09
   6.300000      3.8122745E-09
   6.360000      3.8642520E-09
   6.420000      4.0450931E-09
   6.480000      4.3950155E-09
   6.540000      4.9177284E-09
   6.600000      5.5735634E-09
   6.660000      6.2863497E-09
   6.720000      6.9619746E-09
   6.780000      7.5124476E-09
   6.840000      7.8775253E-09
   6.900000      8.0371780E-09
   6.960000      8.0117486E-09
   7.020000      7.8511055E-09
   7.080000      7.6177153E-09
   7.140000      7.3698958E-09
   7.200000      7.1503670E-09
   7.260000      6.9822388E-09
   7.320000      6.8712089E-09
   7.380000      6.8105592E-09
   7.440000      6.7853465E-09
   7.500000      6.7738934E-09
   7.560000      6.7472503E-09
   7.620000      6.6692336E-09
   7.680000      6.4998797E-09
   7.740000      6.2033991E-09
   7.800000      5.7588938E-09
   7.860000      5.1696420E-09
   7.920000      4.4661617E-09
   7.980000      3.7000747E-09
   8.040000      2.9294736E-09
   8.100000      2.2003586E-09
   8.160000      1.5310059E-09
   8.220000      9.0556340E-10
   8.280000      2.7985866E-10
   8.340000     -4.0230713E-10
   8.400000     -1.1882305E-09
   8.460000     -2.0983539E-09
   8.520000     -3.1176419E-09
   8.580000     -4.1989878E-09
   8.640000     -5.2769447E-09
   8.700000     -6.2866348E-09
   8.760000     -7.1814368E-09
   8.820000     -7.9441094E-09
   8.880000     -8.5886098E-09
   8.940000     -9.1529007E-09
   9.000000     -9.6854782E-09
   9.060000     -1.0229706E-08
   9.120000     -1.0810174E-08
   9.180000     -1.1424620E-08
   9.240000     -1.2043535E-08
   9.300000     -1.2617717E-08
   9.360000     -1.3092071E-08
   9.420000     -1.3422069E-08
   9.480000     -1.3588303E-08
   9.540000     -1.3604782E-08
   9.600000     -1.3518249E-08
   9.660000     -1.3398516E-08
   9.720000     -1.3322637E-08
   9.780000     -1.3357633E-08
   9.840000     -1.3546770E-08
   9.900000     -1.3902893E-08
   9.960000     -1.4409784E-08
   10.02000     -1.5029935E-08
   10.08000     -1.5715637E-08
   10.14000     -1.6420037E-08
   10.20000     -1.7105863E-08
   10.26000     -1.7750782E-08
   10.32000     -1.8349343E-08
   10.38000     -1.8911745E-08
   10.44000     -1.9459462E-08
   10.50000     -2.0017879E-08
   10.56000     -2.0606771E-08
   10.62000     -2.1230679E-08
   10.68000     -2.1872323E-08
   10.74000     -2.2492227E-08
   10.80000     -2.3036044E-08
   10.86000     -2.3448187E-08
   10.92000     -2.3687422E-08
   10.98000     -2.3738441E-08
   11.04000     -2.3614588E-08
   11.10000     -2.3350156E-08
   11.16000     -2.2985253E-08
   11.22000     -2.2549475E-08
   11.28000     -2.2051328E-08
   11.34000     -2.1477671E-08
   11.40000     -2.0802901E-08
   11.46000     -2.0003124E-08
   11.52000     -1.9068560E-08
   11.58000     -1.8008610E-08
   11.64000     -1.6848011E-08
   11.70000     -1.5616775E-08
   11.76000     -1.4339394E-08
   11.82000     -1.3028370E-08
   11.88000     -1.1684246E-08
   11.94000     -1.0300469E-08
   12.00000     -8.8691019E-09
   12.06000     -7.3835347E-09
   12.12000     -5.8370428E-09
   12.18000     -4.2192654E-09
   12.24000     -2.5146070E-09
   12.30000     -7.0582562E-10
   12.36000      1.2169918E-09
   12.42000      3.2455256E-09
   12.48000      5.3459792E-09
   12.54000      7.4603079E-09
   12.60000      9.5172554E-09
   12.66000      1.1449999E-08
   12.72000      1.3213977E-08
   12.78000      1.4798020E-08
   12.84000      1.6224670E-08
   12.90000      1.7539975E-08
   12.96000      1.8797154E-08
   13.02000      2.0040376E-08
   13.08000      2.1294012E-08
   13.14000      2.2559684E-08
   13.20000      2.3820103E-08
   13.26000      2.5046550E-08
   13.32000      2.6206710E-08
   13.38000      2.7271057E-08
   13.44000      2.8217585E-08
   13.50000      2.9035668E-08
   13.56000      2.9729296E-08
   13.62000      3.0318706E-08
   13.68000      3.0838738E-08
   13.74000      3.1332757E-08
   13.80000      3.1843012E-08
   13.86000      3.2400500E-08
   13.92000      3.3018530E-08
   13.98000      3.3692896E-08
   14.04000      3.4408622E-08
   14.10000      3.5149746E-08
   14.16000      3.5906822E-08
   14.22000      3.6678031E-08
   14.28000      3.7463341E-08
   14.34000      3.8255216E-08
   14.40000      3.9031754E-08
   14.46000      3.9757033E-08
   14.52000      4.0389679E-08
   14.58000      4.0896044E-08
   14.64000      4.1261703E-08
   14.70000      4.1495728E-08
   14.76000      4.1625690E-08
   14.82000      4.1686199E-08
   14.88000      4.1706461E-08
   14.94000      4.1702325E-08
   15.00000      4.1675435E-08
   15.06000      4.1618073E-08
   15.12000      4.1519893E-08
   15.18000      4.1372541E-08
   15.24000      4.1170431E-08
   15.30000      4.0908674E-08
   15.36000      4.0580819E-08
   15.42000      4.0178765E-08
   15.48000      3.9695308E-08
   15.54000      3.9127599E-08
   15.60000      3.8479033E-08
   15.66000      3.7757864E-08
   15.72000      3.6972953E-08
   15.78000      3.6128981E-08
   15.84000      3.5224044E-08
   15.90000      3.4251418E-08
   15.96000      3.3204810E-08
   16.02000      3.2084458E-08
   16.08000      3.0900623E-08
   16.14000      2.9672517E-08
   16.20000      2.8423097E-08
   16.26000      2.7172579E-08
   16.32000      2.5934272E-08
   16.38000      2.4714934E-08
   16.44000      2.3519062E-08
   16.50000      2.2353978E-08
   16.56000      2.1231797E-08
   16.62000      2.0166091E-08
   16.68000      1.9164396E-08
   16.74000      1.8220657E-08
   16.80000      1.7312624E-08
   16.86000      1.6407126E-08
   16.92000      1.5472125E-08
   16.98000      1.4490591E-08
   17.04000      1.3469820E-08
   17.10000      1.2441564E-08
   17.16000      1.1452610E-08
   17.22000      1.0549734E-08
   17.28000      9.7653192E-09
   17.34000      9.1090024E-09
   17.40000      8.5675032E-09
   17.46000      8.1109857E-09
   17.52000      7.7021234E-09
   17.58000      7.3041613E-09
   17.64000      6.8862516E-09
   17.70000      6.4265433E-09
   17.76000      5.9144321E-09
   17.82000      5.3526938E-09
   17.88000      4.7586255E-09
   17.94000      4.1622155E-09
   18.00000      3.5998824E-09
   18.06000      3.1043237E-09
   18.12000      2.6935008E-09
   18.18000      2.3632105E-09
   18.24000      2.0869817E-09
   18.30000      1.8243475E-09
   18.36000      1.5350740E-09
   18.42000      1.1942953E-09
   18.48000      8.0302343E-10
   18.54000      3.9029077E-10
   18.60000      6.3885659E-12
   18.66000     -2.9020927E-10
   18.72000     -4.4786808E-10
   18.78000     -4.3441878E-10
   18.84000     -2.4447822E-10
   18.90000      9.9570310E-11
   18.96000      5.5246524E-10
   19.02000      1.0555281E-09
   19.08000      1.5489828E-09
   19.14000      1.9849444E-09
   19.20000      2.3382543E-09
   19.26000      2.6119544E-09
   19.32000      2.8348193E-09
   19.38000      3.0504166E-09
   19.44000      3.3002969E-09
   19.50000      3.6067498E-09
   19.56000      3.9615187E-09
   19.62000      4.3249586E-09
   19.68000      4.6358171E-09
   19.74000      4.8270805E-09
   19.80000      4.8406283E-09
   19.86000      4.6343658E-09
   19.92000      4.1798214E-09
   19.98000      3.4535916E-09
   20.04000      2.4294859E-09
   20.10000      1.0776340E-09
   20.16000     -6.2760841E-10
   20.22000     -2.6949423E-09
   20.28000     -5.1063269E-09
   20.34000     -7.8171105E-09
   20.40000     -1.0768033E-08
   20.46000     -1.3904426E-08
   20.52000     -1.7193447E-08
   20.58000     -2.0630571E-08
   20.64000     -2.4231777E-08
   20.70000     -2.8015057E-08
   20.76000     -3.1980221E-08
   20.82000     -3.6096512E-08
   20.88000     -4.0303227E-08
   20.94000     -4.4521894E-08
   21.00000     -4.8673026E-08
   21.06000     -5.2689394E-08
   21.12000     -5.6520559E-08
   21.18000     -6.0128968E-08
   21.24000     -6.3482048E-08
   21.30000     -6.6546221E-08
   21.36000     -6.9286372E-08
   21.42000     -7.1670605E-08
   21.48000     -7.3677036E-08
   21.54000     -7.5298722E-08
   21.60000     -7.6544588E-08
   21.66000     -7.7436972E-08
   21.72000     -7.8008092E-08
   21.78000     -7.8297425E-08
   21.84000     -7.8350425E-08
   21.90000     -7.8216843E-08
   21.96000     -7.7946460E-08
   22.02000     -7.7581376E-08
   22.08000     -7.7146368E-08
   22.14000     -7.6641015E-08
   22.20000     -7.6037892E-08
   22.26000     -7.5288753E-08
   22.32000     -7.4338097E-08
   22.38000     -7.3139837E-08
   22.44000     -7.1671607E-08
   22.50000     -6.9942075E-08
   22.56000     -6.7989212E-08
   22.62000     -6.5870729E-08
   22.68000     -6.3650155E-08
   22.74000     -6.1382927E-08
   22.80000     -5.9105695E-08
   22.86000     -5.6830913E-08
   22.92000     -5.4547087E-08
   22.98000     -5.2224230E-08
   23.04000     -4.9823527E-08
   23.10000     -4.7309577E-08
   23.16000     -4.4662603E-08
   23.22000     -4.1887166E-08
   23.28000     -3.9013905E-08
   23.34000     -3.6092480E-08
   23.40000     -3.3177002E-08
   23.46000     -3.0308730E-08
   23.52000     -2.7502972E-08
   23.58000     -2.4746306E-08
   23.64000     -2.2006324E-08
   23.70000     -1.9250740E-08
   23.76000     -1.6467981E-08
   23.82000     -1.3680173E-08
   23.88000     -1.0942236E-08
   23.94000     -8.3267464E-09
   24.00000     -5.9003464E-09
   24.06000     -3.7012449E-09
   24.12000     -1.7267445E-09
   24.18000      6.4524025E-11
   24.24000      1.7369610E-09
   24.30000      3.3552046E-09
   24.36000      4.9624438E-09
   24.42000      6.5667654E-09
   24.48000      8.1389286E-09
   24.54000      9.6209627E-09
   24.60000      1.0942031E-08
   24.66000      1.2036730E-08
   24.72000      1.2861191E-08
   24.78000      1.3403437E-08
   24.84000      1.3685849E-08
   24.90000      1.3759329E-08
   24.96000      1.3690563E-08
   25.02000      1.3545582E-08
   25.08000      1.3374081E-08
   25.14000      1.3198963E-08
   25.20000      1.3013910E-08
   25.26000      1.2789032E-08
   25.32000      1.2481691E-08
   25.38000      1.2047856E-08
   25.44000      1.1449750E-08
   25.50000      1.0657921E-08
   25.56000      9.6489421E-09
   25.62000      8.4022327E-09
   25.68000      6.8995565E-09
   25.74000      5.1288374E-09
   25.80000      3.0909082E-09
   25.86000      8.0576651E-10
   25.92000     -1.6851169E-09
   25.98000     -4.3217283E-09
   26.04000     -7.0320136E-09
   26.10000     -9.7384030E-09
   26.16000     -1.2361276E-08
   26.22000     -1.4818915E-08
   26.28000     -1.7026689E-08
   26.34000     -1.8899705E-08
   26.40000     -2.0361892E-08
   26.46000     -2.1360675E-08
   26.52000     -2.1882176E-08
   26.58000     -2.1959869E-08
   26.64000     -2.1671205E-08
   26.70000     -2.1121505E-08
   26.76000     -2.0419947E-08
   26.82000     -1.9656014E-08
   26.88000     -1.8884286E-08
   26.94000     -1.8121348E-08
   27.00000     -1.7353178E-08
   27.06000     -1.6547341E-08
   27.12000     -1.5663936E-08
   27.18000     -1.4662040E-08
   27.24000     -1.3502592E-08
   27.30000     -1.2151350E-08
   27.36000     -1.0585229E-08
   27.42000     -8.8020187E-09
   27.48000     -6.8295236E-09
   27.54000     -4.7281659E-09
   27.60000     -2.5827602E-09
   27.66000     -4.8397397E-10
   27.72000      1.4944275E-09
   27.78000      3.3132697E-09
   27.84000      4.9725726E-09
   27.90000      6.5004979E-09
   27.96000      7.9312086E-09
   28.02000      9.2815364E-09
   28.08000      1.0537081E-08
   28.14000      1.1654119E-08
   28.20000      1.2576433E-08
   28.26000      1.3259470E-08
   28.32000      1.3691144E-08
   28.38000      1.3900502E-08
   28.44000      1.3950967E-08
   28.50000      1.3921399E-08
   28.56000      1.3882516E-08
   28.62000      1.3877043E-08
   28.68000      1.3909287E-08
   28.74000      1.3945885E-08
   28.80000      1.3925863E-08
   28.86000      1.3776500E-08
   28.92000      1.3431245E-08
   28.98000      1.2846532E-08
   29.04000      1.2014519E-08
   29.10000      1.0968822E-08
   29.16000      9.7805977E-09
   29.22000      8.5441227E-09
   29.28000      7.3541924E-09
   29.34000      6.2812955E-09
   29.40000      5.3527680E-09
   29.46000      4.5472066E-09
   29.52000      3.8050376E-09
   29.58000      3.0518814E-09
   29.64000      2.2259148E-09
   29.70000      1.2986194E-09
   29.76000      2.8118799E-10
   29.82000     -7.8481233E-10
   29.88000     -1.8470966E-09
   29.94000     -2.8632767E-09
   30.00000     -3.8137800E-09
   30.06000     -4.7031627E-09
   30.12000     -5.5519642E-09
   30.18000     -6.3853451E-09
   30.24000     -7.2249318E-09
   30.30000     -8.0868725E-09
   30.36000     -8.9845509E-09
   30.42000     -9.9315072E-09
   30.48000     -1.0940720E-08
   30.54000     -1.2019697E-08
   30.60000     -1.3164679E-08
   30.66000     -1.4358839E-08
   30.72000     -1.5577553E-08
   30.78000     -1.6799532E-08
   30.84000     -1.8018614E-08
   30.90000     -1.9249764E-08
   30.96000     -2.0525444E-08
   31.02000     -2.1883483E-08
   31.08000     -2.3352259E-08
   31.14000     -2.4940379E-08
   31.20000     -2.6635590E-08
   31.26000     -2.8412474E-08
   31.32000     -3.0243733E-08
   31.38000     -3.2108208E-08
   31.44000     -3.3991029E-08
   31.50000     -3.5876223E-08
   31.56000     -3.7736875E-08
   31.62000     -3.9529741E-08
   31.68000     -4.1199062E-08
   31.74000     -4.2689514E-08
   31.80000     -4.3962903E-08
   31.86000     -4.5011006E-08
   31.92000     -4.5858208E-08
   31.98000     -4.6552390E-08
   32.04000     -4.7147868E-08
   32.10000     -4.7687735E-08
   32.16000     -4.8192739E-08
   32.22000     -4.8660358E-08
   32.28000     -4.9072746E-08
   32.34000     -4.9408357E-08
   32.40000     -4.9651547E-08
   32.46000     -4.9796427E-08
   32.52000     -4.9845287E-08
   32.58000     -4.9804679E-08
   32.64000     -4.9682569E-08
   32.70000     -4.9488246E-08
   32.76000     -4.9233574E-08
   32.82000     -4.8932730E-08
   32.88000     -4.8598416E-08
   32.94000     -4.8235297E-08
   33.00000     -4.7834373E-08
   33.06000     -4.7372460E-08
   33.12000     -4.6818901E-08
   33.18000     -4.6147203E-08
   33.24000     -4.5345811E-08
   33.30000     -4.4421800E-08
   33.36000     -4.3394454E-08
   33.42000     -4.2281403E-08
   33.48000     -4.1084423E-08
   33.54000     -3.9783085E-08
   33.60000     -3.8340584E-08
   33.66000     -3.6719847E-08
   33.72000     -3.4902431E-08
   33.78000     -3.2900939E-08
   33.84000     -3.0758983E-08
   33.90000     -2.8539072E-08
   33.96000     -2.6304654E-08
   34.02000     -2.4105072E-08
   34.08000     -2.1969557E-08
   34.14000     -1.9911040E-08
   34.20000     -1.7935028E-08
   34.26000     -1.6046748E-08
   34.32000     -1.4251857E-08
   34.38000     -1.2551029E-08
   34.44000     -1.0933212E-08
   34.50000     -9.3736947E-09
   34.56000     -7.8403311E-09
   34.62000     -6.3060965E-09
   34.68000     -4.7618172E-09
   34.74000     -3.2220688E-09
   34.80000     -1.7207265E-09
   34.86000     -2.9831909E-10
   34.92000      1.0120139E-09
   34.98000      2.1924687E-09
   35.04000      3.2386291E-09
   35.10000      4.1498107E-09
   35.16000      4.9185571E-09
   35.22000      5.5266729E-09
   35.28000      5.9511347E-09
   35.34000      6.1770464E-09
   35.40000      6.2100969E-09
   35.46000      6.0807546E-09
   35.52000      5.8367871E-09
   35.58000      5.5272547E-09
   35.64000      5.1859570E-09
   35.70000      4.8226863E-09
   35.76000      4.4262976E-09
   35.82000      3.9771479E-09
   35.88000      3.4615288E-09
   35.94000      2.8800988E-09
   36.00000      2.2461148E-09
   36.06000      1.5751800E-09
   36.12000      8.7281654E-10
   36.18000      1.2701423E-10
   36.24000     -6.9019884E-10
   36.30000     -1.6131364E-09
   36.36000     -2.6698113E-09
   36.42000     -3.8722727E-09
   36.48000     -5.2136890E-09
   36.54000     -6.6720975E-09
   36.60000     -8.2176177E-09
   36.66000     -9.8190851E-09
   36.72000     -1.1447650E-08
   36.78000     -1.3077483E-08
   36.84000     -1.4685675E-08
   36.90000     -1.6253468E-08
   36.96000     -1.7769327E-08
   37.02000     -1.9232235E-08
   37.08000     -2.0652463E-08
   37.14000     -2.2047846E-08
   37.20000     -2.3435925E-08
   37.26000     -2.4824862E-08
   37.32000     -2.6207376E-08
   37.38000     -2.7561025E-08
   37.44000     -2.8855359E-08
   37.50000     -3.0063173E-08
   37.56000     -3.1170913E-08
   37.62000     -3.2183483E-08
   37.68000     -3.3121299E-08
   37.74000     -3.4010924E-08
   37.80000     -3.4873647E-08
   37.86000     -3.5717079E-08
   37.92000     -3.6533301E-08
   37.98000     -3.7303895E-08
   38.04000     -3.8009233E-08
   38.10000     -3.8637793E-08
   38.16000     -3.9191761E-08
   38.22000     -3.9687261E-08
   38.28000     -4.0149740E-08
   38.34000     -4.0606775E-08
   38.40000     -4.1080860E-08
   38.46000     -4.1584109E-08
   38.52000     -4.2115904E-08
   38.58000     -4.2663753E-08
   38.64000     -4.3207159E-08
   38.70000     -4.3723883E-08
   38.76000     -4.4197421E-08
   38.82000     -4.4623814E-08
   38.88000     -4.5015579E-08
   38.94000     -4.5400895E-08
   39.00000     -4.5817558E-08
   39.06000     -4.6302922E-08
   39.12000     -4.6882793E-08
   39.18000     -4.7562555E-08
   39.24000     -4.8323319E-08
   39.30000     -4.9124129E-08
   39.36000     -4.9909421E-08
   39.42000     -5.0619512E-08
   39.48000     -5.1201383E-08
   39.54000     -5.1617256E-08
   39.60000     -5.1849280E-08
   39.66000     -5.1899768E-08
   39.72000     -5.1787318E-08
   39.78000     -5.1540216E-08
   39.84000     -5.1188994E-08
   39.90000     -5.0760185E-08
   39.96000     -5.0272913E-08
   40.02000     -4.9738837E-08
   40.08000     -4.9164925E-08
   40.14000     -4.8557474E-08
   40.20000     -4.7925525E-08
   40.26000     -4.7282104E-08
   40.32000     -4.6642725E-08
   40.38000     -4.6021732E-08
   40.44000     -4.5427758E-08
   40.50000     -4.4860190E-08
   40.56000     -4.4308120E-08
   40.62000     -4.3752557E-08
   40.68000     -4.3171429E-08
   40.74000     -4.2545814E-08
   40.80000     -4.1865164E-08
   40.86000     -4.1129422E-08
   40.92000     -4.0347256E-08
   40.98000     -3.9531113E-08
   41.04000     -3.8691368E-08
   41.10000     -3.7832095E-08
   41.16000     -3.6950336E-08
   41.22000     -3.6038760E-08
   41.28000     -3.5090224E-08
   41.34000     -3.4101788E-08
   41.40000     -3.3076457E-08
   41.46000     -3.2022268E-08
   41.52000     -3.0949693E-08
   41.58000     -2.9869081E-08
   41.64000     -2.8789195E-08
   41.70000     -2.7717114E-08
   41.76000     -2.6658897E-08
   41.82000     -2.5620277E-08
   41.88000     -2.4607099E-08
   41.94000     -2.3625757E-08
   42.00000     -2.2683954E-08
   42.06000     -2.1791646E-08
   42.12000     -2.0961490E-08
   42.18000     -2.0207903E-08
   42.24000     -1.9544348E-08
   42.30000     -1.8979534E-08
   42.36000     -1.8513942E-08
   42.42000     -1.8138362E-08
   42.48000     -1.7835326E-08
   42.54000     -1.7583236E-08
   42.60000     -1.7361781E-08
   42.66000     -1.7156953E-08
   42.72000     -1.6964062E-08
   42.78000     -1.6788025E-08
   42.84000     -1.6640936E-08
   42.90000     -1.6537751E-08
   42.96000     -1.6491349E-08
   43.02000     -1.6508501E-08
   43.08000     -1.6588100E-08
   43.14000     -1.6722421E-08
   43.20000     -1.6901103E-08
   43.26000     -1.7116371E-08
   43.32000     -1.7367356E-08
   43.38000     -1.7661547E-08
   43.44000     -1.8012635E-08
   43.50000     -1.8435607E-08
   43.56000     -1.8941329E-08
   43.62000     -1.9533006E-08
   43.68000     -2.0206064E-08
   43.74000     -2.0951349E-08
   43.80000     -2.1760162E-08
   43.86000     -2.2629179E-08
   43.92000     -2.3563594E-08
   43.98000     -2.4577917E-08
   44.04000     -2.5694556E-08
   44.10000     -2.6940764E-08
   44.16000     -2.8344477E-08
   44.22000     -2.9929673E-08
   44.28000     -3.1712126E-08
   44.34000     -3.3697074E-08
   44.40000     -3.5880312E-08
   44.46000     -3.8253837E-08
   44.52000     -4.0815419E-08
   44.58000     -4.3579799E-08
   44.64000     -4.6587875E-08
   44.70000     -4.9910366E-08
   44.76000     -5.3644193E-08
   44.82000     -5.7902607E-08
   44.88000     -6.2802734E-08
   44.94000     -6.8455556E-08
   45.00000     -7.4963168E-08
   45.06000     -8.2425629E-08
   45.12000     -9.0956739E-08
   45.18000     -1.0070488E-07
   45.24000     -1.1187311E-07
   45.30000     -1.2473302E-07
   45.36000     -1.3962877E-07
   45.42000     -1.5697137E-07
   45.48000     -1.7722724E-07
   45.54000     -2.0090715E-07
   45.60000     -2.2856169E-07
   45.66000     -2.6078720E-07
   45.72000     -2.9824244E-07
   45.78000     -3.4167169E-07
   45.84000     -3.9192932E-07
   45.90000     -4.5000107E-07
   45.96000     -5.1701875E-07
   46.02000     -5.9426947E-07
   46.08000     -6.8320094E-07
   46.14000     -7.8542604E-07
   46.20000     -9.0272806E-07
   46.26000     -1.0370688E-06
   46.32000     -1.1906013E-06
   46.38000     -1.3656868E-06
   46.44000     -1.5649193E-06
   46.50000     -1.7911551E-06
   46.56000     -2.0475447E-06
   46.62000     -2.3375637E-06
   46.68000     -2.6650323E-06
   46.74000     -3.0341248E-06
   46.80000     -3.4493655E-06
   46.86000     -3.9156184E-06
   46.92000     -4.4380781E-06
   46.98000     -5.0222670E-06
   47.04000     -5.6740500E-06
   47.10000     -6.3996554E-06
   47.16000     -7.2057014E-06
   47.22000     -8.0992195E-06
   47.28000     -9.0876656E-06
   47.34000     -1.0178911E-05
   47.40000     -1.1381216E-05
   47.46000     -1.2703192E-05
   47.52000     -1.4153759E-05
   47.58000     -1.5742102E-05
   47.64000     -1.7477616E-05
   47.70000     -1.9369872E-05
   47.76000     -2.1428577E-05
   47.82000     -2.3663519E-05
   47.88000     -2.6084519E-05
   47.94000     -2.8701386E-05
   48.00000     -3.1523839E-05
   48.06000     -3.4561432E-05
   48.12000     -3.7823462E-05
   48.18000     -4.1318868E-05
   48.24000     -4.5056127E-05
   48.30000     -4.9043134E-05
   48.36000     -5.3287091E-05
   48.42000     -5.7794419E-05
   48.48000     -6.2570638E-05
   48.54000     -6.7620284E-05
   48.60000     -7.2946816E-05
   48.66000     -7.8552526E-05
   48.72000     -8.4438398E-05
   48.78000     -9.0604051E-05
   48.84000     -9.7047603E-05
   48.90000     -1.0376560E-04
   48.96000     -1.1075294E-04
   49.02000     -1.1800279E-04
   49.08000     -1.2550665E-04
   49.14000     -1.3325425E-04
   49.20000     -1.4123354E-04
   49.26000     -1.4943087E-04
   49.32000     -1.5783074E-04
   49.38000     -1.6641608E-04
   49.44000     -1.7516821E-04
   49.50000     -1.8406690E-04
   49.56000     -1.9309051E-04
   49.62000     -2.0221614E-04
   49.68000     -2.1141962E-04
   49.74000     -2.2067589E-04
   49.80000     -2.2995894E-04
   49.86000     -2.3924232E-04
   49.92000     -2.4849916E-04
   49.98000     -2.5770254E-04
   50.04000     -2.6682566E-04
   50.10000     -2.7584197E-04
   50.16000     -2.8472548E-04
   50.22000     -2.9345104E-04
   50.28000     -3.0199453E-04
   50.34000     -3.1033318E-04
   50.40000     -3.1844588E-04
   50.46000     -3.2631322E-04
   50.52000     -3.3391800E-04
   50.58000     -3.4124524E-04
   50.64000     -3.4828240E-04
   50.70000     -3.5501941E-04
   50.76000     -3.6144906E-04
   50.82000     -3.6756683E-04
   50.88000     -3.7337106E-04
   50.94000     -3.7886304E-04
   51.00000     -3.8404690E-04
   51.06000     -3.8892974E-04
   51.12000     -3.9352148E-04
   51.18000     -3.9783475E-04
   51.24000     -4.0188467E-04
   51.30000     -4.0568877E-04
   51.36000     -4.0926668E-04
   51.42000     -4.1264019E-04
   51.48000     -4.1583265E-04
   51.54000     -4.1886893E-04
   51.60000     -4.2177495E-04
   51.66000     -4.2457721E-04
   51.72000     -4.2730258E-04
   51.78000     -4.2997801E-04
   51.84000     -4.3263013E-04
   51.90000     -4.3528495E-04
   51.96000     -4.3796757E-04
   52.02000     -4.4070161E-04
   52.08000     -4.4350894E-04
   52.14000     -4.4640928E-04
   52.20000     -4.4941998E-04
   52.26000     -4.5255586E-04
   52.32000     -4.5582914E-04
   52.38000     -4.5924899E-04
   52.44000     -4.6282168E-04
   52.50000     -4.6655012E-04
   52.56000     -4.7043394E-04
   52.62000     -4.7446927E-04
   52.68000     -4.7864925E-04
   52.74000     -4.8296369E-04
   52.80000     -4.8739943E-04
   52.86000     -4.9194036E-04
   52.92000     -4.9656769E-04
   52.98000     -5.0126016E-04
   53.04000     -5.0599442E-04
   53.10000     -5.1074527E-04
   53.16000     -5.1548600E-04
   53.22000     -5.2018877E-04
   53.28000     -5.2482489E-04
   53.34000     -5.2936532E-04
   53.40000     -5.3378078E-04
   53.46000     -5.3804269E-04
   53.52000     -5.4212305E-04
   53.58000     -5.4599525E-04
   53.64000     -5.4963434E-04
   53.70000     -5.5301737E-04
   53.76000     -5.5612338E-04
   53.82000     -5.5893406E-04
   53.88000     -5.6143355E-04
   53.94000     -5.6360895E-04
   54.00000     -5.6545046E-04
   54.06000     -5.6695146E-04
   54.12000     -5.6810875E-04
   54.18000     -5.6892243E-04
   54.24000     -5.6939578E-04
   54.30000     -5.6953524E-04
   54.36000     -5.6935026E-04
   54.42000     -5.6885311E-04
   54.48000     -5.6805887E-04
   54.54000     -5.6698528E-04
   54.60000     -5.6565239E-04
   54.66000     -5.6408212E-04
   54.72000     -5.6229765E-04
   54.78000     -5.6032336E-04
   54.84000     -5.5818411E-04
   54.90000     -5.5590534E-04
   54.96000     -5.5351271E-04
   55.02000     -5.5103167E-04
   55.08000     -5.4848701E-04
   55.14000     -5.4590253E-04
   55.20000     -5.4330047E-04
   55.26000     -5.4070138E-04
   55.32000     -5.3812348E-04
   55.38000     -5.3558295E-04
   55.44000     -5.3309376E-04
   55.50000     -5.3066708E-04
   55.56000     -5.2831165E-04