  -2.400000      0.0000000E+00
  -2.340000      0.0000000E+00
  -2.280000      0.0000000E+00
  -2.220000      0.0000000E+00
  -2.160000      0.0000000E+00
  -2.100000      6.3344194E-19
  -2.040000      4.8207333E-18
  -1.980000      1.8239423E-17
  -1.920000      4.3511636E-17
  -1.860000      6.5222530E-17
  -1.800000      3.3822188E-17
  -1.740000     -1.2894064E-16
  -1.680000     -4.7759984E-16
  -1.620000     -9.4371710E-16
  -1.560000     -1.2435274E-15
  -1.500000     -8.9603709E-16
  -1.440000      5.5421398E-16
  -1.380000      3.1251461E-15
  -1.320000      5.9967836E-15
  -1.260000      7.4713532E-15
  -1.200000      5.5949148E-15
  -1.140000     -5.9181684E-16
  -1.080000     -9.7279167E-15
  -1.020000     -1.7687915E-14
 -0.9600000     -1.8871679E-14
 -0.9000000     -9.2823359E-15
 -0.8400000      9.8089922E-15
 -0.7800000      2.9836803E-14
 -0.7200000      3.6748840E-14
 -0.6600000      1.7331783E-14
 -0.6000000     -3.1847958E-14
 -0.5400000     -9.7198725E-14
 -0.4800000     -1.4753800E-13
 -0.4200000     -1.4317448E-13
 -0.3600000     -5.3286006E-14
 -0.3000000      1.2457556E-13
 -0.2400000      3.5185581E-13
 -0.1800000      5.5123506E-13
 -0.1200000      6.2669265E-13
 -5.9999999E-02  4.9712356E-13
  0.0000000E+00  1.3278557E-13
  5.9999999E-02 -4.1902850E-13
  0.1200000     -1.0307420E-12
  0.1800000     -1.5191124E-12
  0.2400000     -1.6947003E-12
  0.3000000     -1.4247354E-12
  0.3600000     -6.9145937E-13
  0.4200000      3.7488898E-13
  0.4800000      1.5069747E-12
  0.5400000      2.3644480E-12
  0.6000000      2.6437617E-12
  0.6600000      2.2047193E-12
  0.7200000      1.1658359E-12
  0.7800000     -8.4607688E-14
  0.8400000     -9.9638440E-13
  0.9000000     -1.0744809E-12
  0.9600000     -1.3840806E-13
   1.020000      1.4894005E-12
   1.080000      2.9837758E-12
   1.140000      3.2684543E-12
   1.200000      1.4761226E-12
   1.260000     -2.5443018E-12
   1.320000     -7.9064299E-12
   1.380000     -1.2759759E-11
   1.440000     -1.4831221E-11
   1.500000     -1.2303694E-11
   1.560000     -4.7118377E-12
   1.620000      6.5399977E-12
   1.680000      1.8337266E-11
   1.740000      2.6740563E-11
   1.800000      2.8333785E-11
   1.860000      2.1537841E-11
   1.920000      7.3529533E-12
   1.980000     -1.0814379E-11
   2.040000     -2.8225592E-11
   2.100000     -4.0396082E-11
   2.160000     -4.4576048E-11
   2.220000     -4.0534295E-11
   2.280000     -3.0328264E-11
   2.340000     -1.7158974E-11
   2.400000     -3.7963638E-12
   2.460000      8.7363233E-12
   2.520000      2.1592832E-11
   2.580000      3.7331176E-11
   2.640000      5.8072745E-11
   2.700000      8.3174495E-11
   2.760000      1.0728778E-10
   2.820000      1.1970408E-10
   2.880000      1.0559858E-10
   2.940000      4.9216901E-11
   3.000000     -6.1663272E-11
   3.060000     -2.3129638E-10
   3.120000     -4.5314627E-10
   3.180000     -7.0999523E-10
   3.240000     -9.7743402E-10
   3.300000     -1.2299308E-09
   3.360000     -1.4474913E-09
   3.420000     -1.6203617E-09
   3.480000     -1.7496701E-09
   3.540000     -1.8433793E-09
   3.600000     -1.9089279E-09
   3.660000     -1.9456363E-09
   3.720000     -1.9404811E-09
   3.780000     -1.8697439E-09
   3.840000     -1.7066005E-09
   3.900000     -1.4318969E-09
   3.960000     -1.0434728E-09
   4.020000     -5.5948718E-10
   4.080000     -1.3450413E-11
   4.140000      5.5773458E-10
   4.200000      1.1280633E-09
   4.260000      1.6929284E-09
   4.320000      2.2709661E-09
   4.380000      2.8960354E-09
   4.440000      3.6025434E-09
   4.500000      4.4105093E-09
   4.560000      5.3170872E-09
   4.620000      6.2984533E-09
   4.680000      7.3212010E-09
   4.740000      8.3578602E-09
   4.800000      9.3990549E-09
   4.860000      1.0456158E-08
   4.920000      1.1552625E-08
   4.980000      1.2707485E-08
   5.040000      1.3918294E-08
   5.100000      1.5151455E-08
   5.160000      1.6344805E-08
   5.220000      1.7422174E-08
   5.280000      1.8314491E-08
   5.340000      1.8979236E-08
   5.400000      1.9410836E-08
   5.460000      1.9638362E-08
   5.520000      1.9712083E-08
   5.580000      1.9684727E-08
   5.640000      1.9594992E-08
   5.700000      1.9459394E-08
   5.760000      1.9274815E-08
   5.820000      1.9029706E-08
   5.880000      1.8718554E-08
   5.940000      1.8353232E-08
   6.000000      1.7966334E-08
   6.060000      1.7604808E-08
   6.120000      1.7316165E-08
   6.180000      1.7132454E-08
   6.240000      1.7058449E-08
   6.300000      1.7069270E-08
   6.360000      1.7119511E-08
   6.420000      1.7161447E-08
   6.480000      1.7166025E-08
   6.540000      1.7138198E-08
   6.600000      1.7119367E-08
   6.660000      1.7174006E-08
   6.720000      1.7363831E-08
   6.780000      1.7718785E-08
   6.840000      1.8216706E-08
   6.900000      1.8781542E-08
   6.960000      1.9303100E-08
   7.020000      1.9672601E-08
   7.080000      1.9820883E-08
   7.140000      1.9744103E-08
   7.200000      1.9506027E-08
   7.260000      1.9215410E-08
   7.320000      1.8987420E-08
   7.380000      1.8904826E-08
   7.440000      1.8994612E-08
   7.500000      1.9228695E-08
   7.560000      1.9546556E-08
   7.620000      1.9887940E-08
   7.680000      2.0219810E-08
   7.740000      2.0545228E-08
   7.800000      2.0891070E-08
   7.860000      2.1282048E-08
   7.920000      2.1715211E-08
   7.980000      2.2148914E-08
   8.040000      2.2512953E-08
   8.100000      2.2736034E-08
   8.160000      2.2777796E-08
   8.220000      2.2649724E-08
   8.280000      2.2413973E-08
   8.340000      2.2159174E-08
   8.400000      2.1963016E-08
   8.460000      2.1857701E-08
   8.520000      2.1813317E-08
   8.580000      2.1746116E-08
   8.640000      2.1547809E-08
   8.700000      2.1123064E-08
   8.760000      2.0419744E-08
   8.820000      1.9440771E-08
   8.880000      1.8235449E-08
   8.940000      1.6876916E-08
   9.000000      1.5437237E-08
   9.060000      1.3970426E-08
   9.120000      1.2508139E-08
   9.180000      1.1065900E-08
   9.240000      9.6534505E-09
   9.300000      8.2825409E-09
   9.360000      6.9686070E-09
   9.420000      5.7269935E-09
   9.480000      4.5670761E-09
   9.540000      3.4878143E-09
   9.600000      2.4764384E-09
   9.660000      1.5097967E-09
   9.720000      5.5685068E-10
   9.780000     -4.1882431E-10
   9.840000     -1.4565733E-09
   9.900000     -2.5956433E-09
   9.960000     -3.8713934E-09
   10.02000     -5.3116005E-09
   10.08000     -6.9344028E-09
   10.14000     -8.7489767E-09
   10.20000     -1.0758431E-08
   10.26000     -1.2962711E-08
   10.32000     -1.5358745E-08
   10.38000     -1.7936362E-08
   10.44000     -2.0671120E-08
   10.50000     -2.3517675E-08
   10.56000     -2.6408010E-08
   10.62000     -2.9257203E-08
   10.68000     -3.1975844E-08
   10.74000     -3.4484888E-08
   10.80000     -3.6727275E-08
   10.86000     -3.8672049E-08
   10.92000     -4.0310514E-08
   10.98000     -4.1647954E-08
   11.04000     -4.2696605E-08
   11.10000     -4.3474387E-08
   11.16000     -4.4010239E-08
   11.22000     -4.4352170E-08
   11.28000     -4.4571372E-08
   11.34000     -4.4756668E-08
   11.40000     -4.4997783E-08
   11.46000     -4.5362089E-08
   11.52000     -4.5873719E-08
   11.58000     -4.6504585E-08
   11.64000     -4.7182450E-08
   11.70000     -4.7813987E-08
   11.76000     -4.8313971E-08
   11.82000     -4.8628674E-08
   11.88000     -4.8744127E-08
   11.94000     -4.8676949E-08
   12.00000     -4.8453479E-08
   12.06000     -4.8088474E-08
   12.12000     -4.7574119E-08
   12.18000     -4.6884661E-08
   12.24000     -4.5993573E-08
   12.30000     -4.4893724E-08
   12.36000     -4.3609386E-08
   12.42000     -4.2193253E-08
   12.48000     -4.0709342E-08
   12.54000     -3.9209983E-08
   12.60000     -3.7718298E-08
   12.66000     -3.6224787E-08
   12.72000     -3.4699788E-08
   12.78000     -3.3115722E-08
   12.84000     -3.1468332E-08
   12.90000     -2.9786520E-08
   12.96000     -2.8125832E-08
   13.02000     -2.6548033E-08
   13.08000     -2.5095579E-08
   13.14000     -2.3771936E-08
   13.20000     -2.2536211E-08
   13.26000     -2.1314595E-08
   13.32000     -2.0024396E-08
   13.38000     -1.8601735E-08
   13.44000     -1.7022938E-08
   13.50000     -1.5312576E-08
   13.56000     -1.3536420E-08
   13.62000     -1.1783171E-08
   13.68000     -1.0142448E-08
   13.74000     -8.6868770E-09
   13.80000     -7.4633819E-09
   13.86000     -6.4942065E-09
   13.92000     -5.7840150E-09
   13.98000     -5.3273657E-09
   14.04000     -5.1116924E-09
   14.10000     -5.1142024E-09
   14.16000     -5.2949245E-09
   14.22000     -5.5908163E-09
   14.28000     -5.9159428E-09
   14.34000     -6.1703633E-09
   14.40000     -6.2565504E-09
   14.46000     -6.0986545E-09
   14.52000     -5.6583032E-09
   14.58000     -4.9414508E-09
   14.64000     -3.9938697E-09
   14.70000     -2.8868774E-09
   14.76000     -1.6983722E-09
   14.82000     -4.9583132E-10
   14.88000      6.7304629E-10
   14.94000      1.7795744E-09
   15.00000      2.8049489E-09
   15.06000      3.7280574E-09
   15.12000      4.5167998E-09
   15.18000      5.1278581E-09
   15.24000      5.5158802E-09
   15.30000      5.6485279E-09
   15.36000      5.5209397E-09
   15.42000      5.1631877E-09
   15.48000      4.6373119E-09
   15.54000      4.0250137E-09
   15.60000      3.4107923E-09
   15.66000      2.8666796E-09
   15.72000      2.4432070E-09
   15.78000      2.1680493E-09
   15.84000      2.0505899E-09
   15.90000      2.0889850E-09
   15.96000      2.2765607E-09
   16.02000      2.6059053E-09
   16.08000      3.0706528E-09
   16.14000      3.6658125E-09
   16.20000      4.3874482E-09
   16.26000      5.2319762E-09
   16.32000      6.1949841E-09
   16.38000      7.2694997E-09
   16.44000      8.4439806E-09
   16.50000      9.7004982E-09
   16.56000      1.1013566E-08
   16.62000      1.2349824E-08
   16.68000      1.3668688E-08
   16.74000      1.4924129E-08
   16.80000      1.6067949E-08
   16.86000      1.7054683E-08
   16.92000      1.7847636E-08
   16.98000      1.8424577E-08
   17.04000      1.8780971E-08
   17.10000      1.8928839E-08
   17.16000      1.8890836E-08
   17.22000      1.8691031E-08
   17.28000      1.8345711E-08
   17.34000      1.7857953E-08
   17.40000      1.7218689E-08
   17.46000      1.6414466E-08
   17.52000      1.5439479E-08
   17.58000      1.4307457E-08
   17.64000      1.3058693E-08
   17.70000      1.1758947E-08
   17.76000      1.0489785E-08
   17.82000      9.3330161E-09
   17.88000      8.3542284E-09
   17.94000      7.5910673E-09
   18.00000      7.0502670E-09
   18.06000      6.7142656E-09
   18.12000      6.5543975E-09
   18.18000      6.5449681E-09
   18.24000      6.6721855E-09
   18.30000      6.9343313E-09
   18.36000      7.3337256E-09
   18.42000      7.8650375E-09
   18.48000      8.5063077E-09
   18.54000      9.2176666E-09
   18.60000      9.9487218E-09
   18.66000      1.0651100E-08
   18.72000      1.1289899E-08
   18.78000      1.1848527E-08
   18.84000      1.2325009E-08
   18.90000      1.2722559E-08
   18.96000      1.3040238E-08
   19.02000      1.3269216E-08
   19.08000      1.3396649E-08
   19.14000      1.3414469E-08
   19.20000      1.3327182E-08
   19.26000      1.3153030E-08
   19.32000      1.2916590E-08
   19.38000      1.2636040E-08
   19.44000      1.2312011E-08
   19.50000      1.1924899E-08
   19.56000      1.1443584E-08
   19.62000      1.0842543E-08
   19.68000      1.0119596E-08
   19.74000      9.3054915E-09
   19.80000      8.4600789E-09
   19.86000      7.6560971E-09
   19.92000      6.9575927E-09
   19.98000      6.4024945E-09
   20.04000      5.9966903E-09
   20.10000      5.7212728E-09
   20.16000      5.5482983E-09
   20.22000      5.4567346E-09
   20.28000      5.4410032E-09
   20.34000      5.5089964E-09
   20.40000      5.6721641E-09
   20.46000      5.9341065E-09
   20.52000      6.2841847E-09
   20.58000      6.6991723E-09
   20.64000      7.1511037E-09
   20.70000      7.6160633E-09
   20.76000      8.0784925E-09
   20.82000      8.5286587E-09
   20.88000      8.9552747E-09
   20.94000      9.3383017E-09
   21.00000      9.6469188E-09
   21.06000      9.8446726E-09
   21.12000      9.8995070E-09
   21.18000      9.7934247E-09
   21.24000      9.5264321E-09
   21.30000      9.1124841E-09
   21.36000      8.5695380E-09
   21.42000      7.9092359E-09
   21.48000      7.1322761E-09
   21.54000      6.2327166E-09
   21.60000      5.2097446E-09
   21.66000      4.0811270E-09
   21.72000      2.8909402E-09
   21.78000      1.7061659E-09
   21.84000      6.0160282E-10
   21.90000     -3.6190567E-10
   21.96000     -1.1573512E-09
   22.02000     -1.8010915E-09
   22.08000     -2.3475435E-09
   22.14000     -2.8706857E-09
   22.20000     -3.4395407E-09
   22.26000     -4.0972408E-09
   22.32000     -4.8514672E-09
   22.38000     -5.6788934E-09
   22.44000     -6.5401355E-09
   22.50000     -7.3975102E-09
   22.56000     -8.2274294E-09
   22.62000     -9.0225916E-09
   22.68000     -9.7843085E-09
   22.74000     -1.0509937E-08
   22.80000     -1.1182171E-08
   22.86000     -1.1765528E-08
   22.92000     -1.2211716E-08
   22.98000     -1.2471697E-08
   23.04000     -1.2509942E-08
   23.10000     -1.2316193E-08
   23.16000     -1.1911546E-08
   23.22000     -1.1347722E-08
   23.28000     -1.0699973E-08
   23.34000     -1.0055074E-08
   23.40000     -9.4964800E-09
   23.46000     -9.0894146E-09
   23.52000     -8.8692937E-09
   23.58000     -8.8369454E-09
   23.64000     -8.9628021E-09
   23.70000     -9.1995727E-09
   23.76000     -9.4996642E-09
   23.82000     -9.8312487E-09
   23.88000     -1.0186883E-08
   23.94000     -1.0581250E-08
   24.00000     -1.1039052E-08
   24.06000     -1.1578355E-08
   24.12000     -1.2196669E-08
   24.18000     -1.2865809E-08
   24.24000     -1.3537652E-08
   24.30000     -1.4158109E-08
   24.36000     -1.4683348E-08
   24.42000     -1.5091828E-08
   24.48000     -1.5388235E-08
   24.54000     -1.5599298E-08
   24.60000     -1.5764865E-08
   24.66000     -1.5928855E-08
   24.72000     -1.6133406E-08
   24.78000     -1.6416871E-08
   24.84000     -1.6813717E-08
   24.90000     -1.7353583E-08
   24.96000     -1.8057939E-08
   25.02000     -1.8935143E-08
   25.08000     -1.9976797E-08
   25.14000     -2.1158614E-08
   25.20000     -2.2447185E-08
   25.26000     -2.3811030E-08
   25.32000     -2.5231673E-08
   25.38000     -2.6709895E-08
   25.44000     -2.8264127E-08
   25.50000     -2.9921640E-08
   25.56000     -3.1706520E-08
   25.62000     -3.3629959E-08
   25.68000     -3.5687030E-08
   25.74000     -3.7860357E-08
   25.80000     -4.0127489E-08
   25.86000     -4.2466613E-08
   25.92000     -4.4856225E-08
   25.98000     -4.7268124E-08
   26.04000     -4.9657274E-08
   26.10000     -5.1954700E-08
   26.16000     -5.4068977E-08
   26.22000     -5.5897981E-08
   26.28000     -5.7347702E-08
   26.34000     -5.8351048E-08
   26.40000     -5.8879479E-08
   26.46000     -5.8943137E-08
   26.52000     -5.8580781E-08
   26.58000     -5.7844851E-08
   26.64000     -5.6788917E-08
   26.70000     -5.5462394E-08
   26.76000     -5.3913137E-08
   26.82000     -5.2193915E-08
   26.88000     -5.0366832E-08
   26.94000     -4.8501075E-08
   27.00000     -4.6663175E-08
   27.06000     -4.4903352E-08
   27.12000     -4.3243681E-08
   27.18000     -4.1673232E-08
   27.24000     -4.0152241E-08
   27.30000     -3.8623512E-08
   27.36000     -3.7026751E-08
   27.42000     -3.5311349E-08
   27.48000     -3.3444824E-08
   27.54000     -3.1416619E-08
   27.60000     -2.9238205E-08
   27.66000     -2.6940771E-08
   27.72000     -2.4570754E-08
   27.78000     -2.2183061E-08
   27.84000     -1.9832305E-08
   27.90000     -1.7564021E-08
   27.96000     -1.5409141E-08
   28.02000     -1.3384762E-08
   28.08000     -1.1501953E-08
   28.14000     -9.7774162E-09
   28.20000     -8.2429326E-09
   28.26000     -6.9461801E-09
   28.32000     -5.9399028E-09
   28.38000     -5.2622320E-09
   28.44000     -4.9163225E-09
   28.50000     -4.8594297E-09
   28.56000     -5.0084101E-09
   28.62000     -5.2615050E-09
   28.68000     -5.5283489E-09
   28.74000     -5.7555090E-09
   28.80000     -5.9360956E-09
   28.86000     -6.0988881E-09
   28.92000     -6.2818497E-09
   28.98000     -6.5023080E-09
   29.04000     -6.7377020E-09
   29.10000     -6.9258603E-09
   29.16000     -6.9845667E-09
   29.22000     -6.8413004E-09
   29.28000     -6.4597372E-09
   29.34000     -5.8518004E-09
   29.40000     -5.0713824E-09
   29.46000     -4.1943529E-09
   29.52000     -3.2949512E-09
   29.58000     -2.4286892E-09
   29.64000     -1.6270718E-09
   29.70000     -9.0280755E-10
   29.76000     -2.5945368E-10
   29.82000      3.0119129E-10
   29.88000      7.7737977E-10
   29.94000      1.1701848E-09
   30.00000      1.4864666E-09
   30.06000      1.7380037E-09
   30.12000      1.9358755E-09
   30.18000      2.0829445E-09
   30.24000      2.1691853E-09
   30.30000      2.1733866E-09
   30.36000      2.0711504E-09
   30.42000      1.8453966E-09
   30.48000      1.4940166E-09
   30.54000      1.0308745E-09
   30.60000      4.8011789E-10
   30.66000     -1.3257340E-10
   30.72000     -7.8672058E-10
   30.78000     -1.4682630E-09
   30.84000     -2.1653372E-09
   30.90000     -2.8620526E-09
   30.96000     -3.5348373E-09
   31.02000     -4.1542019E-09
   31.08000     -4.6913611E-09
   31.14000     -5.1261799E-09
   31.20000     -5.4522484E-09
   31.26000     -5.6769012E-09
   31.32000     -5.8172871E-09
   31.38000     -5.8959793E-09
   31.44000     -5.9393819E-09
   31.50000     -5.9793912E-09
   31.56000     -6.0552283E-09
   31.62000     -6.2106462E-09
   31.68000     -6.4835186E-09
   31.74000     -6.8895498E-09
   31.80000     -7.4070243E-09
   31.86000     -7.9716651E-09
   31.92000     -8.4878362E-09
   31.98000     -8.8550776E-09
   32.04000     -9.0007903E-09
   32.10000     -8.9051939E-09
   32.16000     -8.6065421E-09
   32.22000     -8.1827940E-09
   32.28000     -7.7168272E-09
   32.34000     -7.2604300E-09
   32.40000     -6.8133845E-09
   32.46000     -6.3271286E-09
   32.52000     -5.7308527E-09
   32.58000     -4.9672106E-09
   32.64000     -4.0203973E-09
   32.70000     -2.9234111E-09
   32.76000     -1.7417703E-09
   32.82000     -5.4256299E-10
   32.88000      6.3533528E-10
   32.94000      1.7950614E-09
   33.00000      2.9730913E-09
   33.06000      4.2128727E-09
   33.12000      5.5341123E-09
   33.18000      6.9128494E-09
   33.24000      8.2817895E-09
   33.30000      9.5504387E-09
   33.36000      1.0635369E-08
   33.42000      1.1486858E-08
   33.48000      1.2100833E-08
   33.54000      1.2512593E-08
   33.60000      1.2777162E-08
   33.66000      1.2946314E-08
   33.72000      1.3052087E-08
   33.78000      1.3101988E-08
   33.84000      1.3084992E-08
   33.90000      1.2983008E-08
   33.96000      1.2781696E-08
   34.02000      1.2476786E-08
   34.08000      1.2075403E-08
   34.14000      1.1594112E-08
   34.20000      1.1055564E-08
   34.26000      1.0484388E-08
   34.32000      9.9019957E-09
   34.38000      9.3203667E-09
   34.44000      8.7365306E-09
   34.50000      8.1308764E-09
   34.56000      7.4719457E-09
   34.62000      6.7275634E-09
   34.68000      5.8782375E-09
   34.74000      4.9263211E-09
   34.80000      3.8952899E-09
   34.86000      2.8180742E-09
   34.92000      1.7193308E-09
   34.98000      6.0060684E-10
   35.04000     -5.6323696E-10
   35.10000     -1.8133265E-09
   35.16000     -3.1863308E-09
   35.22000     -4.6944053E-09
   35.28000     -6.3160357E-09
   35.34000     -8.0029716E-09
   35.40000     -9.7000976E-09
   35.46000     -1.1368289E-08
   35.52000     -1.2998713E-08
   35.58000     -1.4611703E-08
   35.64000     -1.6241550E-08
   35.70000     -1.7915909E-08
   35.76000     -1.9640893E-08
   35.82000     -2.1399098E-08
   35.88000     -2.3160101E-08
   35.94000     -2.4895840E-08
   36.00000     -2.6590870E-08
   36.06000     -2.8241118E-08
   36.12000     -2.9842365E-08
   36.18000     -3.1376612E-08
   36.24000     -3.2806575E-08
   36.30000     -3.4084426E-08
   36.36000     -3.5172338E-08
   36.42000     -3.6064893E-08
   36.48000     -3.6800682E-08
   36.54000     -3.7454946E-08
   36.60000     -3.8114546E-08
   36.66000     -3.8845581E-08
   36.72000     -3.9668524E-08
   36.78000     -4.0552187E-08
   36.84000     -4.1429061E-08
   36.90000     -4.2224496E-08
   36.96000     -4.2885997E-08
   37.02000     -4.3400082E-08
   37.08000     -4.3790671E-08
   37.14000     -4.4102038E-08
   37.20000     -4.4375607E-08
   37.26000     -4.4631044E-08
   37.32000     -4.4858361E-08
   37.38000     -4.5022009E-08
   37.44000     -4.5073232E-08
   37.50000     -4.4965525E-08
   37.56000     -4.4669022E-08
   37.62000     -4.4181370E-08
   37.68000     -4.3533266E-08
   37.74000     -4.2786812E-08
   37.80000     -4.2024411E-08
   37.86000     -4.1328281E-08
   37.92000     -4.0754802E-08
   37.98000     -4.0312511E-08
   38.04000     -3.9954482E-08
   38.10000     -3.9592088E-08
   38.16000     -3.9128366E-08
   38.22000     -3.8499184E-08
   38.28000     -3.7704076E-08
   38.34000     -3.6810984E-08
   38.40000     -3.5929769E-08
   38.46000     -3.5164202E-08
   38.52000     -3.4563691E-08
   38.58000     -3.4097756E-08
   38.64000     -3.3666648E-08
   38.70000     -3.3144609E-08
   38.76000     -3.2436287E-08
   38.82000     -3.1520035E-08
   38.88000     -3.0457795E-08
   38.94000     -2.9367305E-08
   39.00000     -2.8370298E-08
   39.06000     -2.7541248E-08
   39.12000     -2.6880143E-08
   39.18000     -2.6320006E-08
   39.24000     -2.5763079E-08
   39.30000     -2.5126623E-08
   39.36000     -2.4376682E-08
   39.42000     -2.3536083E-08
   39.48000     -2.2666683E-08
   39.54000     -2.1837861E-08
   39.60000     -2.1097794E-08
   39.66000     -2.0459794E-08
   39.72000     -1.9906478E-08
   39.78000     -1.9405272E-08
   39.84000     -1.8924879E-08
   39.90000     -1.8444805E-08
   39.96000     -1.7956266E-08
   40.02000     -1.7458548E-08
   40.08000     -1.6956511E-08
   40.14000     -1.6461918E-08
   40.20000     -1.5996495E-08
   40.26000     -1.5591402E-08
   40.32000     -1.5279193E-08
   40.38000     -1.5079173E-08
   40.44000     -1.4982879E-08
   40.50000     -1.4948512E-08
   40.56000     -1.4910178E-08
   40.62000     -1.4800321E-08
   40.68000     -1.4576142E-08
   40.74000     -1.4237497E-08
   40.80000     -1.3827039E-08
   40.86000     -1.3411953E-08
   40.92000     -1.3055931E-08
   40.98000     -1.2794994E-08
   41.04000     -1.2628537E-08
   41.10000     -1.2528647E-08
   41.16000     -1.2461031E-08
   41.22000     -1.2405128E-08
   41.28000     -1.2362306E-08
   41.34000     -1.2348599E-08
   41.40000     -1.2377689E-08
   41.46000     -1.2445454E-08
   41.52000     -1.2526049E-08
   41.58000     -1.2582261E-08
   41.64000     -1.2583989E-08
   41.70000     -1.2523570E-08
   41.76000     -1.2418393E-08
   41.82000     -1.2298795E-08
   41.88000     -1.2188194E-08
   41.94000     -1.2087362E-08
   42.00000     -1.1972745E-08
   42.06000     -1.1810720E-08
   42.12000     -1.1580241E-08
   42.18000     -1.1290904E-08
   42.24000     -1.0985360E-08
   42.30000     -1.0723140E-08
   42.36000     -1.0553172E-08
   42.42000     -1.0488691E-08
   42.48000     -1.0497545E-08
   42.54000     -1.0513351E-08
   42.60000     -1.0462551E-08
   42.66000     -1.0294623E-08
   42.72000     -1.0001409E-08
   42.78000     -9.6170840E-09
   42.84000     -9.1997370E-09
   42.90000     -8.8039185E-09
   42.96000     -8.4570129E-09
   43.02000     -8.1495788E-09
   43.08000     -7.8427806E-09
   43.14000     -7.4882482E-09
   43.20000     -7.0508528E-09
   43.26000     -6.5245187E-09
   43.32000     -5.9349383E-09
   43.38000     -5.3287632E-09
   43.44000     -4.7539630E-09
   43.50000     -4.2388644E-09
   43.56000     -3.7773313E-09
   43.62000     -3.3251146E-09
   43.68000     -2.8086153E-09
   43.74000     -2.1432749E-09
   43.80000     -1.2555383E-09
   43.86000     -1.0072001E-10
   43.92000      1.3302306E-09
   43.98000      3.0189333E-09
   44.04000      4.9416178E-09
   44.10000      7.0985569E-09
   44.16000      9.5408712E-09
   44.22000      1.2384663E-08
   44.28000      1.5806574E-08
   44.34000      2.0022087E-08
   44.40000      2.5255391E-08
   44.46000      3.1714190E-08
   44.52000      3.9582019E-08
   44.58000      4.9034519E-08
   44.64000      6.0276371E-08
   44.70000      7.3587195E-08
   44.76000      8.9360775E-08
   44.82000      1.0812504E-07
   44.88000      1.3053898E-07
   44.94000      1.5737380E-07
   45.00000      1.8949304E-07
   45.06000      2.2784766E-07
   45.12000      2.7349634E-07
   45.18000      3.2764970E-07
   45.24000      3.9172846E-07
   45.30000      4.6742008E-07
   45.36000      5.5672137E-07
   45.42000      6.6196384E-07
   45.48000      7.8582735E-07
   45.54000      9.3135458E-07
   45.60000      1.1019786E-06
   45.66000      1.3015696E-06
   45.72000      1.5345012E-06
   45.78000      1.8057258E-06
   45.84000      2.1208523E-06
   45.90000      2.4862220E-06
   45.96000      2.9089779E-06
   46.02000      3.3971387E-06
   46.08000      3.9596762E-06
   46.14000      4.6066020E-06
   46.20000      5.3490639E-06
   46.26000      6.1994497E-06
   46.32000      7.1714867E-06
   46.38000      8.2803481E-06
   46.44000      9.5427658E-06
   46.50000      1.0977134E-05
   46.56000      1.2603624E-05
   46.62000      1.4444292E-05
   46.68000      1.6523189E-05
   46.74000      1.8866460E-05
   46.80000      2.1502434E-05
   46.86000      2.4461697E-05
   46.92000      2.7777180E-05
   46.98000      3.1484207E-05
   47.04000      3.5620575E-05
   47.10000      4.0226580E-05
   47.16000      4.5345027E-05
   47.22000      5.1021234E-05
   47.28000      5.7302997E-05
   47.34000      6.4240507E-05
   47.40000      7.1886279E-05
   47.46000      8.0295016E-05
   47.52000      8.9523484E-05
   47.58000      9.9630313E-05
   47.64000      1.1067581E-04
   47.70000      1.2272169E-04
   47.76000      1.3583069E-04
   47.82000      1.5006626E-04
   47.88000      1.6549218E-04
   47.94000      1.8217201E-04
   48.00000      2.0016868E-04
   48.06000      2.1954403E-04
   48.12000      2.4035826E-04
   48.18000      2.6266926E-04
   48.24000      2.8653213E-04
   48.30000      3.1199833E-04
   48.36000      3.3911515E-04
   48.42000      3.6792495E-04
   48.48000      3.9846450E-04
   48.54000      4.3076422E-04
   48.60000      4.6484772E-04
   48.66000      5.0073088E-04
   48.72000      5.3842145E-04
   48.78000      5.7791825E-04
   48.84000      6.1921065E-04
   48.90000      6.6227798E-04
   48.96000      7.0708920E-04
   49.02000      7.5360248E-04
   49.08000      8.0176519E-04
   49.14000      8.5151341E-04
   49.20000      9.0277201E-04
   49.26000      9.5545460E-04
   49.32000      1.0094638E-03
   49.38000      1.0646912E-03
   49.44000      1.1210182E-03
   49.50000      1.1783160E-03
   49.56000      1.2364469E-03
   49.62000      1.2952645E-03
   49.68000      1.3546146E-03
   49.74000      1.4143373E-03
   49.80000      1.4742670E-03
   49.86000      1.5342339E-03
   49.92000      1.5940659E-03
   49.98000      1.6535892E-03
   50.04000      1.7126305E-03
   50.10000      1.7710180E-03
   50.16000      1.8285833E-03
   50.22000      1.8851629E-03
   50.28000      1.9405998E-03
   50.34000      1.9947453E-03
   50.40000      2.0474605E-03
   50.46000      2.0986176E-03
   50.52000      2.1481006E-03
   50.58000      2.1958081E-03
   50.64000      2.2416525E-03
   50.70000      2.2855625E-03
   50.76000      2.3274831E-03
   50.82000      2.3673768E-03
   50.88000      2.4052239E-03
   50.94000      2.4410225E-03
   51.00000      2.4747883E-03
   51.06000      2.5065546E-03
   51.12000      2.5363718E-03
   51.18000      2.5643078E-03
   51.24000      2.5904451E-03
   51.30000      2.6148823E-03
   51.36000      2.6377307E-03
   51.42000      2.6591131E-03
   51.48000      2.6791636E-03
   51.54000      2.6980247E-03
   51.60000      2.7158461E-03
   51.66000      2.7327817E-03
   51.72000      2.7489886E-03
   51.78000      2.7646252E-03
   51.84000      2.7798479E-03
   51.90000      2.7948106E-03
   51.96000      2.8096610E-03
   52.02000      2.8245400E-03
   52.08000      2.8395785E-03
   52.14000      2.8548969E-03
   52.20000      2.8706032E-03
   52.26000      2.8867910E-03
   52.32000      2.9035397E-03
   52.38000      2.9209114E-03
   52.44000      2.9389518E-03
   52.50000      2.9576889E-03
   52.56000      2.9771323E-03
   52.62000      2.9972743E-03
   52.68000      3.0180889E-03
   52.74000      3.0395337E-03
   52.80000      3.0615490E-03
   52.86000      3.0840600E-03
   52.92000      3.1069780E-03
   52.98000      3.1302006E-03
   53.04000      3.1536135E-03
   53.10000      3.1770926E-03
   53.16000      3.2005068E-03
   53.22000      3.2237170E-03
   53.28000      3.2465816E-03
   53.34000      3.2689569E-03
   53.40000      3.2906986E-03
   53.46000      3.3116650E-03
   53.52000      3.3317180E-03
   53.58000      3.3507261E-03
   53.64000      3.3685651E-03
   53.70000      3.3851205E-03
   53.76000      3.4002890E-03
   53.82000      3.4139783E-03
   53.88000      3.4261101E-03
   53.94000      3.4366210E-03
   54.00000      3.4454623E-03
   54.06000      3.4526014E-03
   54.12000      3.4580205E-03
   54.18000      3.4617181E-03
   54.24000      3.4637074E-03
   54.30000      3.4640168E-03
   54.36000      3.4626888E-03
   54.42000      3.4597788E-03
   54.48000      3.4553553E-03
   54.54000      3.4494975E-03
   54.60000      3.4422935E-03
   54.66000      3.4338392E-03
   54.72000      3.4242372E-03
   54.78000      3.4135939E-03
   54.84000      3.4020175E-03
   54.90000      3.3896181E-03
   54.96000      3.3765044E-03
   55.02000      3.3627830E-03
   55.08000      3.3485552E-03
   55.14000      3.3339169E-03
   55.20000      3.3189561E-03
   55.26000      3.3037527E-03
   55.32000      3.2883764E-03
   55.38000      3.2728852E-03
   55.44000      3.2573261E-03
   55.50000      3.2417329E-03
   55.56000      3.2261277E-03