  -2.400000      0.0000000E+00
  -2.340000      0.0000000E+00
  -2.280000      0.0000000E+00
  -2.220000      0.0000000E+00
  -2.160000      0.0000000E+00
  -2.100000      0.0000000E+00
  -2.040000      4.5877217E-22
  -1.980000      3.2453040E-21
  -1.920000      8.7039773E-21
  -1.860000     -1.6028466E-21
  -1.800000     -9.9988261E-20
  -1.740000     -4.3254719E-19
  -1.680000     -1.1376502E-18
  -1.620000     -2.0742602E-18
  -1.560000     -2.4102473E-18
  -1.500000     -4.0994634E-19
  -1.440000      5.9897869E-18
  -1.380000      1.7386144E-17
  -1.320000      3.0336492E-17
  -1.260000      3.5804817E-17
  -1.200000      2.1317773E-17
  -1.140000     -2.1477779E-17
  -1.080000     -8.5822106E-17
  -1.020000     -1.4251005E-16
 -0.9600000     -1.4627434E-16
 -0.9000000     -6.2111126E-17
 -0.8400000      9.4968500E-17
 -0.7800000      2.3076229E-16
 -0.7200000      1.8804104E-16
 -0.6600000     -1.6739736E-16
 -0.6000000     -8.0463794E-16
 -0.5400000     -1.3995753E-15
 -0.4800000     -1.3335309E-15
 -0.4200000      8.1391475E-17
 -0.3600000      3.1452690E-15
 -0.3000000      7.2386148E-15
 -0.2400000      1.0529387E-14
 -0.1800000      1.0273069E-14
 -0.1200000      3.8915226E-15
 -5.9999999E-02 -9.3681835E-15
  0.0000000E+00 -2.6864953E-14
  5.9999999E-02 -4.2063812E-14
  0.1200000     -4.5962264E-14
  0.1800000     -3.0615111E-14
  0.2400000      6.1754614E-15
  0.3000000      5.7012473E-14
  0.3600000      1.0433219E-13
  0.4200000      1.2481276E-13
  0.4800000      9.8533805E-14
  0.5400000      2.0097376E-14
  0.6000000     -9.3139323E-14
  0.6600000     -2.0088313E-13
  0.7200000     -2.5076032E-13
  0.7800000     -1.9880968E-13
  0.8400000     -3.3113537E-14
  0.9000000      2.0948296E-13
  0.9600000      4.4346918E-13
   1.020000      5.5670437E-13
   1.080000      4.5108963E-13
   1.140000      8.9436623E-14
   1.200000     -4.6983289E-13
   1.260000     -1.0678925E-12
   1.320000     -1.4800090E-12
   1.380000     -1.4846324E-12
   1.440000     -9.4737575E-13
   1.500000      1.0961930E-13
   1.560000      1.4820488E-12
   1.620000      2.8184714E-12
   1.680000      3.7120129E-12
   1.740000      3.8223457E-12
   1.800000      2.9866138E-12
   1.860000      1.2778657E-12
   1.920000     -1.0135100E-12
   1.980000     -3.4705711E-12
   2.040000     -5.6772612E-12
   2.100000     -7.3279690E-12
   2.160000     -8.2680529E-12
   2.220000     -8.4422764E-12
   2.280000     -7.7725933E-12
   2.340000     -6.0300289E-12
   2.400000     -2.7869163E-12
   2.460000      2.4796621E-12
   2.520000      1.0116390E-11
   2.580000      1.9914514E-11
   2.640000      3.0755041E-11
   2.700000      4.0444665E-11
   2.760000      4.5883328E-11
   2.820000      4.3617932E-11
   2.880000      3.0712967E-11
   2.940000      5.7481879E-12
   3.000000     -3.0319140E-11
   3.060000     -7.3685953E-11
   3.120000     -1.1780404E-10
   3.180000     -1.5408992E-10
   3.240000     -1.7314253E-10
   3.300000     -1.6626722E-10
   3.360000     -1.2706909E-10
   3.420000     -5.2907994E-11
   3.480000      5.3931595E-11
   3.540000      1.8545011E-10
   3.600000      3.2760467E-10
   3.660000      4.6055684E-10
   3.720000      5.5965693E-10
   3.780000      5.9733324E-10
   3.840000      5.4597893E-10
   3.900000      3.8174747E-10
   3.960000      8.8905605E-11
   4.020000     -3.3587921E-10
   4.080000     -8.8012464E-10
   4.140000     -1.5138170E-09
   4.200000     -2.1900151E-09
   4.260000     -2.8480045E-09
   4.320000     -3.4187304E-09
   4.380000     -3.8317620E-09
   4.440000     -4.0227190E-09
   4.500000     -3.9400141E-09
   4.560000     -3.5499494E-09
   4.620000     -2.8396117E-09
   4.680000     -1.8174720E-09
   4.740000     -5.1203730E-10
   4.800000      1.0308390E-09
   4.860000      2.7513549E-09
   4.920000      4.5793871E-09
   4.980000      6.4381553E-09
   5.040000      8.2480183E-09
   5.100000      9.9306368E-09
   5.160000      1.1413728E-08
   5.220000      1.2636394E-08
   5.280000      1.3554651E-08
   5.340000      1.4146411E-08
   5.400000      1.4414905E-08
   5.460000      1.4389530E-08
   5.520000      1.4123374E-08
   5.580000      1.3687199E-08
   5.640000      1.3160409E-08
   5.700000      1.2620252E-08
   5.760000      1.2131005E-08
   5.820000      1.1735140E-08
   5.880000      1.1448203E-08
   5.940000      1.1258471E-08
   6.000000      1.1131500E-08
   6.060000      1.1018606E-08
   6.120000      1.0867442E-08
   6.180000      1.0632315E-08
   6.240000      1.0281989E-08
   6.300000      9.8033333E-09
   6.360000      9.2003072E-09
   6.420000      8.4889669E-09
   6.480000      7.6902538E-09
   6.540000      6.8228654E-09
   6.600000      5.8983152E-09
   6.660000      4.9195115E-09
   6.720000      3.8829224E-09
   6.780000      2.7832070E-09
   6.840000      1.6184185E-09
   6.900000      3.9380965E-10
   6.960000     -8.7705665E-10
   7.020000     -2.1740598E-09
   7.080000     -3.4741545E-09
   7.140000     -4.7551922E-09
   7.200000     -5.9982668E-09
   7.260000     -7.1876785E-09
   7.320000     -8.3087732E-09
   7.380000     -9.3450296E-09
   7.440000     -1.0276312E-08
   7.500000     -1.1079946E-08
   7.560000     -1.1735261E-08
   7.620000     -1.2230798E-08
   7.680000     -1.2572135E-08
   7.740000     -1.2787599E-08
   7.800000     -1.2929425E-08
   7.860000     -1.3069092E-08
   7.920000     -1.3287241E-08
   7.980000     -1.3660237E-08
   8.040000     -1.4246631E-08
   8.100000     -1.5076893E-08
   8.160000     -1.6149050E-08
   8.220000     -1.7431338E-08
   8.280000     -1.8871056E-08
   8.340000     -2.0407258E-08
   8.400000     -2.1984041E-08
   8.460000     -2.3561119E-08
   8.520000     -2.5119299E-08
   8.580000     -2.6660015E-08
   8.640000     -2.8199555E-08
   8.700000     -2.9760070E-08
   8.760000     -3.1359960E-08
   8.820000     -3.3006305E-08
   8.880000     -3.4690977E-08
   8.940000     -3.6391089E-08
   9.000000     -3.8072990E-08
   9.060000     -3.9698200E-08
   9.120000     -4.1229320E-08
   9.180000     -4.2634280E-08
   9.240000     -4.3888015E-08
   9.300000     -4.4971852E-08
   9.360000     -4.5871630E-08
   9.420000     -4.6576016E-08
   9.480000     -4.7076266E-08
   9.540000     -4.7367909E-08
   9.600000     -4.7453842E-08
   9.660000     -4.7347498E-08
   9.720000     -4.7074458E-08
   9.780000     -4.6671211E-08
   9.840000     -4.6180606E-08
   9.900000     -4.5644793E-08
   9.960000     -4.5097263E-08
   10.02000     -4.4556121E-08
   10.08000     -4.4020407E-08
   10.14000     -4.3470642E-08
   10.20000     -4.2873406E-08
   10.26000     -4.2188894E-08
   10.32000     -4.1379479E-08
   10.38000     -4.0417319E-08
   10.44000     -3.9289095E-08
   10.50000     -3.7997030E-08
   10.56000     -3.6556123E-08
   10.62000     -3.4988602E-08
   10.68000     -3.3317139E-08
   10.74000     -3.1558820E-08
   10.80000     -2.9721381E-08
   10.86000     -2.7802646E-08
   10.92000     -2.5793183E-08
   10.98000     -2.3681192E-08
   11.04000     -2.1458188E-08
   11.10000     -1.9123854E-08
   11.16000     -1.6688926E-08
   11.22000     -1.4175632E-08
   11.28000     -1.1616054E-08
   11.34000     -9.0492058E-09
   11.40000     -6.5178134E-09
   11.46000     -4.0653982E-09
   11.52000     -1.7338083E-09
   11.58000      4.3910783E-10
   11.64000      2.4221460E-09
   11.70000      4.1939079E-09
   11.76000      5.7461684E-09
   11.82000      7.0866002E-09
   11.88000      8.2397076E-09
   11.94000      9.2449906E-09
   12.00000      1.0151979E-08
   12.06000      1.1012655E-08
   12.12000      1.1872706E-08
   12.18000      1.2763545E-08
   12.24000      1.3697036E-08
   12.30000      1.4664284E-08
   12.36000      1.5638809E-08
   12.42000      1.6583346E-08
   12.48000      1.7458651E-08
   12.54000      1.8232257E-08
   12.60000      1.8885299E-08
   12.66000      1.9416147E-08
   12.72000      1.9840316E-08
   12.78000      2.0187045E-08
   12.84000      2.0493426E-08
   12.90000      2.0797321E-08
   12.96000      2.1130395E-08
   13.02000      2.1512346E-08
   13.08000      2.1947352E-08
   13.14000      2.2423210E-08
   13.20000      2.2913410E-08
   13.26000      2.3381757E-08
   13.32000      2.3788759E-08
   13.38000      2.4098458E-08
   13.44000      2.4284320E-08
   13.50000      2.4332918E-08
   13.56000      2.4244700E-08
   13.62000      2.4031918E-08
   13.68000      2.3714566E-08
   13.74000      2.3315701E-08
   13.80000      2.2857520E-08
   13.86000      2.2359245E-08
   13.92000      2.1836989E-08
   13.98000      2.1305166E-08
   14.04000      2.0778330E-08
   14.10000      2.0272383E-08
   14.16000      1.9804409E-08
   14.22000      1.9391102E-08
   14.28000      1.9046368E-08
   14.34000      1.8779053E-08
   14.40000      1.8591688E-08
   14.46000      1.8480645E-08
   14.52000      1.8437508E-08
   14.58000      1.8451034E-08
   14.64000      1.8508890E-08
   14.70000      1.8598735E-08
   14.76000      1.8708612E-08
   14.82000      1.8827183E-08
   14.88000      1.8944380E-08
   14.94000      1.9052854E-08
   15.00000      1.9150027E-08
   15.06000      1.9240019E-08
   15.12000      1.9334433E-08
   15.18000      1.9451271E-08
   15.24000      1.9611898E-08
   15.30000      1.9836719E-08
   15.36000      2.0140922E-08
   15.42000      2.0531562E-08
   15.48000      2.1006921E-08
   15.54000      2.1558114E-08
   15.60000      2.2172220E-08
   15.66000      2.2835733E-08
   15.72000      2.3537272E-08
   15.78000      2.4269037E-08
   15.84000      2.5027157E-08
   15.90000      2.5811573E-08
   15.96000      2.6626003E-08
   16.02000      2.7478171E-08
   16.08000      2.8379912E-08
   16.14000      2.9346349E-08
   16.20000      3.0393597E-08
   16.26000      3.1534853E-08
   16.32000      3.2775844E-08
   16.38000      3.4111075E-08
   16.44000      3.5522529E-08
   16.50000      3.6981813E-08
   16.56000      3.8455624E-08
   16.62000      3.9913058E-08
   16.68000      4.1332381E-08
   16.74000      4.2704862E-08
   16.80000      4.4034103E-08
   16.86000      4.5330761E-08
   16.92000      4.6604328E-08
   16.98000      4.7854645E-08
   17.04000      4.9066180E-08
   17.10000      5.0207181E-08
   17.16000      5.1234334E-08
   17.22000      5.2101669E-08
   17.28000      5.2771057E-08
   17.34000      5.3221143E-08
   17.40000      5.3452123E-08
   17.46000      5.3485028E-08
   17.52000      5.3356043E-08
   17.58000      5.3107762E-08
   17.64000      5.2780070E-08
   17.70000      5.2403216E-08
   17.76000      5.1994594E-08
   17.82000      5.1559358E-08
   17.88000      5.1093799E-08
   17.94000      5.0589566E-08
   18.00000      5.0036888E-08
   18.06000      4.9425704E-08
   18.12000      4.8744582E-08
   18.18000      4.7978443E-08
   18.24000      4.7106564E-08
   18.30000      4.6102301E-08
   18.36000      4.4935202E-08
   18.42000      4.3575326E-08
   18.48000      4.1998653E-08
   18.54000      4.0192081E-08
   18.60000      3.8156585E-08
   18.66000      3.5907849E-08
   18.72000      3.3474443E-08
   18.78000      3.0894370E-08
   18.84000      2.8211234E-08
   18.90000      2.5471044E-08
   18.96000      2.2720270E-08
   19.02000      2.0005034E-08
   19.08000      1.7370834E-08
   19.14000      1.4861867E-08
   19.20000      1.2519186E-08
   19.26000      1.0377341E-08
   19.32000      8.4597964E-09
   19.38000      6.7739858E-09
   19.44000      5.3072733E-09
   19.50000      4.0251389E-09
   19.56000      2.8725640E-09
   19.62000      1.7788943E-09
   19.68000      6.6561173E-10
   19.74000     -5.4438398E-10
   19.80000     -1.9178450E-09
   19.86000     -3.5044490E-09
   19.92000     -5.3335141E-09
   19.98000     -7.4144437E-09
   20.04000     -9.7400914E-09
   20.10000     -1.2291509E-08
   20.16000     -1.5042364E-08
   20.22000     -1.7961755E-08
   20.28000     -2.1015115E-08
   20.34000     -2.4163839E-08
   20.40000     -2.7364923E-08
   20.46000     -3.0571854E-08
   20.52000     -3.3737489E-08
   20.58000     -3.6818594E-08
   20.64000     -3.9780975E-08
   20.70000     -4.2603634E-08
   20.76000     -4.5280689E-08
   20.82000     -4.7820503E-08
   20.88000     -5.0242356E-08
   20.94000     -5.2571739E-08
   21.00000     -5.4835578E-08
   21.06000     -5.7058372E-08
   21.12000     -5.9259690E-08
   21.18000     -6.1452866E-08
   21.24000     -6.3644386E-08
   21.30000     -6.5833440E-08
   21.36000     -6.8011595E-08
   21.42000     -7.0162749E-08
   21.48000     -7.2263902E-08
   21.54000     -7.4287037E-08
   21.60000     -7.6201999E-08
   21.66000     -7.7979962E-08
   21.72000     -7.9596283E-08
   21.78000     -8.1032113E-08
   21.84000     -8.2273942E-08
   21.90000     -8.3311342E-08
   21.96000     -8.4133873E-08
   22.02000     -8.4728313E-08
   22.08000     -8.5077964E-08
   22.14000     -8.5164814E-08
   22.20000     -8.4974566E-08
   22.26000     -8.4503590E-08
   22.32000     -8.3765677E-08
   22.38000     -8.2796376E-08
   22.44000     -8.1652992E-08
   22.50000     -8.0409677E-08
   22.56000     -7.9148187E-08
   22.62000     -7.7946574E-08
   22.68000     -7.6868588E-08
   22.74000     -7.5956201E-08
   22.80000     -7.5226964E-08
   22.86000     -7.4675981E-08
   22.92000     -7.4281097E-08
   22.98000     -7.4008980E-08
   23.04000     -7.3820125E-08
   23.10000     -7.3671721E-08
   23.16000     -7.3518528E-08
   23.22000     -7.3313210E-08
   23.28000     -7.3007506E-08
   23.34000     -7.2555487E-08
   23.40000     -7.1918763E-08
   23.46000     -7.1072563E-08
   23.52000     -7.0010969E-08
   23.58000     -6.8749557E-08
   23.64000     -6.7324827E-08
   23.70000     -6.5790360E-08
   23.76000     -6.4210944E-08
   23.82000     -6.2655836E-08
   23.88000     -6.1192239E-08
   23.94000     -5.9879561E-08
   24.00000     -5.8764403E-08
   24.06000     -5.7876441E-08
   24.12000     -5.7225108E-08
   24.18000     -5.6798026E-08
   24.24000     -5.6561859E-08
   24.30000     -5.6466337E-08
   24.36000     -5.6451164E-08
   24.42000     -5.6454809E-08
   24.48000     -5.6423122E-08
   24.54000     -5.6315727E-08
   24.60000     -5.6108608E-08
   24.66000     -5.5792569E-08
   24.72000     -5.5368680E-08
   24.78000     -5.4842737E-08
   24.84000     -5.4221093E-08
   24.90000     -5.3509318E-08
   24.96000     -5.2713851E-08
   25.02000     -5.1845323E-08
   25.08000     -5.0921305E-08
   25.14000     -4.9966335E-08
   25.20000     -4.9008339E-08
   25.26000     -4.8072135E-08
   25.32000     -4.7172328E-08
   25.38000     -4.6308582E-08
   25.44000     -4.5465498E-08
   25.50000     -4.4617735E-08
   25.56000     -4.3738698E-08
   25.62000     -4.2809514E-08
   25.68000     -4.1824645E-08
   25.74000     -4.0791630E-08
   25.80000     -3.9724775E-08
   25.86000     -3.8635182E-08
   25.92000     -3.7521094E-08
   25.98000     -3.6362703E-08
   26.04000     -3.5123819E-08
   26.10000     -3.3760287E-08
   26.16000     -3.2232474E-08
   26.22000     -3.0517544E-08
   26.28000     -2.8617475E-08
   26.34000     -2.6560448E-08
   26.40000     -2.4395547E-08
   26.46000     -2.2182959E-08
   26.52000     -1.9983025E-08
   26.58000     -1.7847213E-08
   26.64000     -1.5812949E-08
   26.70000     -1.3902470E-08
   26.76000     -1.2124656E-08
   26.82000     -1.0478125E-08
   26.88000     -8.9542480E-09
   26.94000     -7.5394269E-09
   27.00000     -6.2167982E-09
   27.06000     -4.9678888E-09
   27.12000     -3.7746211E-09
   27.18000     -2.6215994E-09
   27.24000     -1.4981114E-09
   27.30000     -3.9908679E-10
   27.36000      6.7546546E-10
   27.42000      1.7224421E-09
   27.48000      2.7382963E-09
   27.54000      3.7212562E-09
   27.60000      4.6721400E-09
   27.66000      5.5934022E-09
   27.72000      6.4868599E-09
   27.78000      7.3511663E-09
   27.84000      8.1802947E-09
   27.90000      8.9638572E-09
   27.96000      9.6892823E-09
   28.02000      1.0344985E-08
   28.08000      1.0923182E-08
   28.14000      1.1421068E-08
   28.20000      1.1839788E-08
   28.26000      1.2181604E-08
   28.32000      1.2446496E-08
   28.38000      1.2629696E-08
   28.44000      1.2721327E-08
   28.50000      1.2708375E-08
   28.56000      1.2578226E-08
   28.62000      1.2322332E-08
   28.68000      1.1938513E-08
   28.74000      1.1431005E-08
   28.80000      1.0808352E-08
   28.86000      1.0080099E-08
   28.92000      9.2537427E-09
   28.98000      8.3332043E-09
   29.04000      7.3194224E-09
   29.10000      6.2127712E-09
   29.16000      5.0162714E-09
   29.22000      3.7382510E-09
   29.28000      2.3933315E-09
   29.34000      1.0012019E-09
   29.40000     -4.1658391E-10
   29.46000     -1.8409146E-09
   29.52000     -3.2593022E-09
   29.58000     -4.6687307E-09
   29.64000     -6.0763443E-09
   29.70000     -7.4977242E-09
   29.76000     -8.9531760E-09
   29.82000     -1.0462966E-08
   29.88000     -1.2042764E-08
   29.94000     -1.3700436E-08
   30.00000     -1.5434948E-08
   30.06000     -1.7237436E-08
   30.12000     -1.9093818E-08
   30.18000     -2.0987777E-08
   30.24000     -2.2902944E-08
   30.30000     -2.4823391E-08
   30.36000     -2.6732410E-08
   30.42000     -2.8610346E-08
   30.48000     -3.0432858E-08
   30.54000     -3.2171002E-08
   30.60000     -3.3793931E-08
   30.66000     -3.5274017E-08
   30.72000     -3.6592958E-08
   30.78000     -3.7746950E-08
   30.84000     -3.8748777E-08
   30.90000     -3.9625757E-08
   30.96000     -4.0413745E-08
   31.02000     -4.1148844E-08
   31.08000     -4.1859479E-08
   31.14000     -4.2561432E-08
   31.20000     -4.3257469E-08
   31.26000     -4.3941501E-08
   31.32000     -4.4605525E-08
   31.38000     -4.5246388E-08
   31.44000     -4.5869381E-08
   31.50000     -4.6486722E-08
   31.56000     -4.7111001E-08
   31.62000     -4.7745754E-08
   31.68000     -4.8376798E-08
   31.74000     -4.8968150E-08
   31.80000     -4.9465122E-08
   31.86000     -4.9804783E-08
   31.92000     -4.9931284E-08
   31.98000     -4.9811543E-08
   32.04000     -4.9446161E-08
   32.10000     -4.8871776E-08
   32.16000     -4.8153666E-08
   32.22000     -4.7370662E-08
   32.28000     -4.6596881E-08
   32.34000     -4.5885912E-08
   32.40000     -4.5261910E-08
   32.46000     -4.4719737E-08
   32.52000     -4.4233055E-08
   32.58000     -4.3766857E-08
   32.64000     -4.3289976E-08
   32.70000     -4.2783636E-08
   32.76000     -4.2244189E-08
   32.82000     -4.1680408E-08
   32.88000     -4.1107452E-08
   32.94000     -4.0540225E-08
   33.00000     -3.9988411E-08
   33.06000     -3.9454299E-08
   33.12000     -3.8933322E-08
   33.18000     -3.8416424E-08
   33.24000     -3.7893201E-08
   33.30000     -3.7355008E-08
   33.36000     -3.6797513E-08
   33.42000     -3.6222467E-08
   33.48000     -3.5638415E-08
   33.54000     -3.5060232E-08
   33.60000     -3.4507426E-08
   33.66000     -3.4001584E-08
   33.72000     -3.3563655E-08
   33.78000     -3.3212132E-08
   33.84000     -3.2962703E-08
   33.90000     -3.2829615E-08
   33.96000     -3.2827760E-08
   34.02000     -3.2974100E-08
   34.08000     -3.3286742E-08
   34.14000     -3.3780761E-08
   34.20000     -3.4461127E-08
   34.26000     -3.5314642E-08
   34.32000     -3.6303749E-08
   34.38000     -3.7365165E-08
   34.44000     -3.8415262E-08
   34.50000     -3.9361911E-08
   34.56000     -4.0120380E-08
   34.62000     -4.0628976E-08
   34.68000     -4.0859724E-08
   34.74000     -4.0820584E-08
   34.80000     -4.0548183E-08
   34.86000     -4.0093191E-08
   34.92000     -3.9503114E-08
   34.98000     -3.8808231E-08
   35.04000     -3.8015443E-08
   35.10000     -3.7111938E-08
   35.16000     -3.6077029E-08
   35.22000     -3.4897326E-08
   35.28000     -3.3579177E-08
   35.34000     -3.2153341E-08
   35.40000     -3.0669941E-08
   35.46000     -2.9185738E-08
   35.52000     -2.7748751E-08
   35.58000     -2.6386571E-08
   35.64000     -2.5103189E-08
   35.70000     -2.3885715E-08
   35.76000     -2.2718412E-08
   35.82000     -2.1598371E-08
   35.88000     -2.0546377E-08
   35.94000     -1.9608333E-08
   36.00000     -1.8846253E-08
   36.06000     -1.8321831E-08
   36.12000     -1.8078472E-08
   36.18000     -1.8128224E-08
   36.24000     -1.8448208E-08
   36.30000     -1.8987590E-08
   36.36000     -1.9682384E-08
   36.42000     -2.0472699E-08
   36.48000     -2.1316435E-08
   36.54000     -2.2195021E-08
   36.60000     -2.3109790E-08
   36.66000     -2.4070932E-08
   36.72000     -2.5083464E-08
   36.78000     -2.6135343E-08
   36.84000     -2.7191959E-08
   36.90000     -2.8198802E-08
   36.96000     -2.9091330E-08
   37.02000     -2.9808756E-08
   37.08000     -3.0307284E-08
   37.14000     -3.0568621E-08
   37.20000     -3.0601218E-08
   37.26000     -3.0433952E-08
   37.32000     -3.0104470E-08
   37.38000     -2.9645975E-08
   37.44000     -2.9076979E-08
   37.50000     -2.8397389E-08
   37.56000     -2.7592446E-08
   37.62000     -2.6643107E-08
   37.68000     -2.5539247E-08
   37.74000     -2.4290667E-08
   37.80000     -2.2931532E-08
   37.86000     -2.1515923E-08
   37.92000     -2.0105501E-08
   37.98000     -1.8753241E-08
   38.04000     -1.7488876E-08
   38.10000     -1.6311400E-08
   38.16000     -1.5191388E-08
   38.22000     -1.4082508E-08
   38.28000     -1.2938128E-08
   38.34000     -1.1727118E-08
   38.40000     -1.0443355E-08
   38.46000     -9.1058352E-09
   38.52000     -7.7498328E-09
   38.58000     -6.4127601E-09
   38.64000     -5.1201421E-09
   38.70000     -3.8768029E-09
   38.76000     -2.6662561E-09
   38.82000     -1.4581916E-09
   38.88000     -2.2109745E-10
   38.94000      1.0646689E-09
   39.00000      2.3980526E-09
   39.06000      3.7558272E-09
   39.12000      5.0990008E-09
   39.18000      6.3849002E-09
   39.24000      7.5807423E-09
   39.30000      8.6738936E-09
   39.36000      9.6749888E-09
   39.42000      1.0612390E-08
   39.48000      1.1519442E-08
   39.54000      1.2418625E-08
   39.60000      1.3308076E-08
   39.66000      1.4155559E-08
   39.72000      1.4902650E-08
   39.78000      1.5478518E-08
   39.84000      1.5819303E-08
   39.90000      1.5886961E-08
   39.96000      1.5681467E-08
   40.02000      1.5242415E-08
   40.08000      1.4639630E-08
   40.14000      1.3956079E-08
   40.20000      1.3268796E-08
   40.26000      1.2633797E-08
   40.32000      1.2079211E-08
   40.38000      1.1607657E-08
   40.44000      1.1205724E-08
   40.50000      1.0856215E-08
   40.56000      1.0548399E-08
   40.62000      1.0282800E-08
   40.68000      1.0069329E-08
   40.74000      9.9200230E-09
   40.80000      9.8392974E-09
   40.86000      9.8153166E-09
   40.92000      9.8154640E-09
   40.98000      9.7876169E-09
   41.04000      9.6672661E-09
   41.10000      9.3889874E-09
   41.16000      8.8996215E-09
   41.22000      8.1700007E-09
   41.28000      7.2022317E-09
   41.34000      6.0304619E-09
   41.40000      4.7146509E-09
   41.46000      3.3287750E-09
   41.52000      1.9466393E-09
   41.58000      6.2938671E-10
   41.64000     -5.8150607E-10
   41.70000     -1.6636783E-09
   41.76000     -2.6062881E-09
   41.82000     -3.3984706E-09
   41.88000     -4.0185069E-09
   41.94000     -4.4281694E-09
   42.00000     -4.5747366E-09
   42.06000     -4.4001269E-09
   42.12000     -3.8536596E-09
   42.18000     -2.9033760E-09
   42.24000     -1.5412057E-09
   42.30000      2.2049015E-10
   42.36000      2.3603746E-09
   42.42000      4.8641779E-09
   42.48000      7.7405744E-09
   42.54000      1.1032706E-08
   42.60000      1.4823208E-08
   42.66000      1.9233264E-08
   42.72000      2.4418448E-08
   42.78000      3.0564962E-08
   42.84000      3.7889382E-08
   42.90000      4.6643475E-08
   42.96000      5.7123625E-08
   43.02000      6.9683203E-08
   43.08000      8.4745693E-08
   43.14000      1.0281692E-07
   43.20000      1.2449614E-07
   43.26000      1.5048654E-07
   43.32000      1.8160736E-07
   43.38000      2.1880906E-07
   43.44000      2.6319367E-07
   43.50000      3.1604034E-07
   43.56000      3.7883609E-07
   43.62000      4.5331043E-07
   43.68000      5.4147193E-07
   43.74000      6.4564540E-07
   43.80000      7.6850841E-07
   43.86000      9.1312791E-07
   43.92000      1.0829979E-06
   43.98000      1.2820803E-06
   44.04000      1.5148535E-06
   44.10000      1.7863673E-06
   44.16000      2.1023100E-06
   44.22000      2.4690837E-06
   44.28000      2.8938884E-06
   44.34000      3.3848116E-06
   44.40000      3.9509205E-06
   44.46000      4.6023570E-06
   44.52000      5.3504309E-06
   44.58000      6.2077206E-06
   44.64000      7.1881732E-06
   44.70000      8.3072100E-06
   44.76000      9.5818423E-06
   44.82000      1.1030786E-05
   44.88000      1.2674578E-05
   44.94000      1.4535699E-05
   45.00000      1.6638674E-05
   45.06000      1.9010189E-05
   45.12000      2.1679167E-05
   45.18000      2.4676880E-05
   45.24000      2.8037015E-05
   45.30000      3.1795767E-05
   45.36000      3.5991889E-05
   45.42000      4.0666764E-05
   45.48000      4.5864432E-05
   45.54000      5.1631585E-05
   45.60000      5.8017544E-05
   45.66000      6.5074215E-05
   45.72000      7.2855968E-05
   45.78000      8.1419537E-05
   45.84000      9.0823858E-05
   45.90000      1.0112990E-04
   45.96000      1.1240045E-04
   46.02000      1.2469983E-04
   46.08000      1.3809360E-04
   46.14000      1.5264828E-04
   46.20000      1.6843087E-04
   46.26000      1.8550844E-04
   46.32000      2.0394767E-04
   46.38000      2.2381419E-04
   46.44000      2.4517215E-04
   46.50000      2.6808347E-04
   46.56000      2.9260735E-04
   46.62000      3.1879946E-04
   46.68000      3.4671137E-04
   46.74000      3.7638965E-04
   46.80000      4.0787534E-04
   46.86000      4.4120304E-04
   46.92000      4.7640025E-04
   46.98000      5.1348662E-04
   47.04000      5.5247342E-04
   47.10000      5.9336249E-04
   47.16000      6.3614611E-04
   47.22000      6.8080606E-04
   47.28000      7.2731328E-04
   47.34000      7.7562750E-04
   47.40000      8.2569674E-04
   47.46000      8.7745726E-04
   47.52000      9.3083328E-04
   47.58000      9.8573708E-04
   47.64000      1.0420686E-03
   47.70000      1.0997163E-03
   47.76000      1.1585571E-03
   47.82000      1.2184571E-03
   47.88000      1.2792720E-03
   47.94000      1.3408484E-03
   48.00000      1.4030241E-03
   48.06000      1.4656290E-03
   48.12000      1.5284872E-03
   48.18000      1.5914177E-03
   48.24000      1.6542354E-03
   48.30000      1.7167529E-03
   48.36000      1.7787825E-03
   48.42000      1.8401371E-03
   48.48000      1.9006324E-03
   48.54000      1.9600883E-03
   48.60000      2.0183309E-03
   48.66000      2.0751939E-03
   48.72000      2.1305208E-03
   48.78000      2.1841647E-03
   48.84000      2.2359926E-03
   48.90000      2.2858845E-03
   48.96000      2.3337360E-03
   49.02000      2.3794589E-03
   49.08000      2.4229812E-03
   49.14000      2.4642504E-03
   49.20000      2.5032314E-03
   49.26000      2.5399090E-03
   49.32000      2.5742857E-03
   49.38000      2.6063838E-03
   49.44000      2.6362445E-03
   49.50000      2.6639265E-03
   49.56000      2.6895059E-03
   49.62000      2.7130754E-03
   49.68000      2.7347426E-03
   49.74000      2.7546284E-03
   49.80000      2.7728660E-03
   49.86000      2.7895991E-03
   49.92000      2.8049797E-03
   49.98000      2.8191658E-03
   50.04000      2.8323198E-03
   50.10000      2.8446068E-03
   50.16000      2.8561896E-03
   50.22000      2.8672302E-03
   50.28000      2.8778852E-03
   50.34000      2.8883042E-03
   50.40000      2.8986293E-03
   50.46000      2.9089905E-03
   50.52000      2.9195065E-03
   50.58000      2.9302810E-03
   50.64000      2.9414021E-03
   50.70000      2.9529419E-03
   50.76000      2.9649548E-03
   50.82000      2.9774769E-03
   50.88000      2.9905254E-03
   50.94000      3.0040999E-03
   51.00000      3.0181808E-03
   51.06000      3.0327311E-03
   51.12000      3.0476956E-03
   51.18000      3.0630042E-03
   51.24000      3.0785715E-03
   51.30000      3.0942981E-03
   51.36000      3.1100728E-03
   51.42000      3.1257744E-03
   51.48000      3.1412735E-03
   51.54000      3.1564350E-03
   51.60000      3.1711205E-03
   51.66000      3.1851898E-03
   51.72000      3.1985047E-03
   51.78000      3.2109295E-03
   51.84000      3.2223349E-03
   51.90000      3.2325983E-03
   51.96000      3.2416075E-03
   52.02000      3.2492606E-03
   52.08000      3.2554700E-03
   52.14000      3.2601620E-03
   52.20000      3.2632803E-03
   52.26000      3.2647848E-03
   52.32000      3.2646540E-03
   52.38000      3.2628842E-03
   52.44000      3.2594900E-03
   52.50000      3.2545046E-03
   52.56000      3.2479777E-03
   52.62000      3.2399769E-03
   52.68000      3.2305864E-03
   52.74000      3.2199046E-03
   52.80000      3.2080447E-03
   52.86000      3.1951314E-03
   52.92000      3.1812997E-03
   52.98000      3.1666926E-03
   53.04000      3.1514585E-03
   53.10000      3.1357498E-03
   53.16000      3.1197201E-03
   53.22000      3.1035221E-03
   53.28000      3.0873057E-03
   53.34000      3.0712150E-03
   53.40000      3.0553869E-03
   53.46000      3.0399489E-03
   53.52000      3.0250167E-03
   53.58000      3.0106925E-03
   53.64000      2.9970638E-03
   53.70000      2.9842025E-03
   53.76000      2.9721623E-03
   53.82000      2.9609795E-03
   53.88000      2.9506723E-03
   53.94000      2.9412396E-03
   54.00000      2.9326621E-03
   54.06000      2.9249024E-03
   54.12000      2.9179044E-03
   54.18000      2.9115961E-03
   54.24000      2.9058889E-03
   54.30000      2.9006801E-03
   54.36000      2.8958535E-03
   54.42000      2.8912819E-03
   54.48000      2.8868285E-03
   54.54000      2.8823493E-03
   54.60000      2.8776950E-03
   54.66000      2.8727129E-03
   54.72000      2.8672493E-03
   54.78000      2.8611522E-03
   54.84000      2.8542727E-03
   54.90000      2.8464668E-03
   54.96000      2.8375983E-03
   55.02000      2.8275398E-03
   55.08000      2.8161756E-03
   55.14000      2.8034023E-03
   55.20000      2.7891295E-03
   55.26000      2.7732828E-03
   55.32000      2.7558033E-03
   55.38000      2.7366481E-03
   55.44000      2.7157918E-03
   55.50000      2.6932256E-03
   55.56000      2.6689579E-03