  -2.400000      0.0000000E+00
  -2.340000      0.0000000E+00
  -2.280000      0.0000000E+00
  -2.220000      0.0000000E+00
  -2.160000      0.0000000E+00
  -2.100000      0.0000000E+00
  -2.040000      1.3391108E-22
  -1.980000      1.1712053E-21
  -1.920000      5.0960473E-21
  -1.860000      1.4282152E-20
  -1.800000      2.7293904E-20
  -1.740000      3.1056577E-20
  -1.680000     -8.2258370E-21
  -1.620000     -1.5340572E-19
  -1.560000     -5.0484673E-19
  -1.500000     -1.2013586E-18
  -1.440000     -2.3649094E-18
  -1.380000     -3.8724402E-18
  -1.320000     -4.8215096E-18
  -1.260000     -2.7409103E-18
  -1.200000      6.9081898E-18
  -1.140000      2.9737739E-17
  -1.080000      6.8490522E-17
  -1.020000      1.1570385E-16
 -0.9600000      1.4533390E-16
 -0.9000000      1.0960372E-16
 -0.8400000     -5.0104934E-17
 -0.7800000     -3.7190424E-16
 -0.7200000     -8.2514795E-16
 -0.6600000     -1.2648634E-15
 -0.6000000     -1.4230637E-15
 -0.5400000     -9.7228117E-16
 -0.4800000      3.2620655E-16
 -0.4200000      2.4240925E-15
 -0.3600000      4.8269583E-15
 -0.3000000      6.5936539E-15
 -0.2400000      6.5845597E-15
 -0.1800000      3.9472684E-15
 -0.1200000     -1.3206529E-15
 -5.9999999E-02 -8.0179351E-15
  0.0000000E+00 -1.3892669E-14
  5.9999999E-02 -1.6434006E-14
  0.1200000     -1.4108780E-14
  0.1800000     -7.4907833E-15
  0.2400000      4.5361886E-16
  0.3000000      5.4732025E-15
  0.3600000      4.4662904E-15
  0.4200000     -1.6939308E-15
  0.4800000     -6.5892938E-15
  0.5400000      3.6491850E-16
  0.6000000      2.8854442E-14
  0.6600000      8.0036916E-14
  0.7200000      1.3958260E-13
  0.7800000      1.7589164E-13
  0.8400000      1.4735127E-13
  0.9000000      1.9448490E-14
  0.9600000     -2.1229860E-13
   1.020000     -5.0251784E-13
   1.080000     -7.5066749E-13
   1.140000     -8.1953330E-13
   1.200000     -5.7950525E-13
   1.260000      3.0417485E-14
   1.320000      9.4486810E-13
   1.380000      1.9435304E-12
   1.440000      2.6745351E-12
   1.500000      2.7390507E-12
   1.560000      1.8248985E-12
   1.620000     -1.4569978E-13
   1.680000     -2.9046281E-12
   1.740000     -5.8136209E-12
   1.800000     -7.9603294E-12
   1.860000     -8.3738884E-12
   1.920000     -6.3182181E-12
   1.980000     -1.5863128E-12
   2.040000      5.2969760E-12
   2.100000      1.3044128E-11
   2.160000      1.9786539E-11
   2.220000      2.3450391E-11
   2.280000      2.2248958E-11
   2.340000      1.5172056E-11
   2.400000      2.3457963E-12
   2.460000     -1.4833445E-11
   2.520000     -3.3826313E-11
   2.580000     -5.1304645E-11
   2.640000     -6.3643778E-11
   2.700000     -6.7445230E-11
   2.760000     -6.0004467E-11
   2.820000     -3.9689869E-11
   2.880000     -6.2541994E-12
   2.940000      3.8872381E-11
   3.000000      9.2278428E-11
   3.060000      1.4829425E-10
   3.120000      1.9886975E-10
   3.180000      2.3380728E-10
   3.240000      2.4156083E-10
   3.300000      2.1073661E-10
   3.360000      1.3226994E-10
   3.420000      2.0443935E-12
   3.480000     -1.7647885E-10
   3.540000     -3.9017953E-10
   3.600000     -6.1530991E-10
   3.660000     -8.1807822E-10
   3.720000     -9.5698038E-10
   3.780000     -9.8677155E-10
   3.840000     -8.6366192E-10
   3.900000     -5.5107358E-10
   3.960000     -2.5159727E-11
   4.020000      7.2071460E-10
   4.080000      1.6731977E-09
   4.140000      2.7983051E-09
   4.200000      4.0430130E-09
   4.260000      5.3388800E-09
   4.320000      6.6072121E-09
   4.380000      7.7651139E-09
   4.440000      8.7317238E-09
   4.500000      9.4340127E-09
   4.560000      9.8117443E-09
   4.620000      9.8213855E-09
   4.680000      9.4390282E-09
   4.740000      8.6624690E-09
   4.800000      7.5125852E-09
   4.860000      6.0340151E-09
   4.920000      4.2948631E-09
   4.980000      2.3849249E-09
   5.040000      4.1174750E-10
   5.100000     -1.5060525E-09
   5.160000     -3.2484302E-09
   5.220000     -4.7060653E-09
   5.280000     -5.7937526E-09
   5.340000     -6.4629821E-09
   5.400000     -6.7111761E-09
   5.460000     -6.5851014E-09
   5.520000     -6.1766912E-09
   5.580000     -5.6107954E-09
   5.640000     -5.0260911E-09
   5.700000     -4.5520236E-09
   5.760000     -4.2859223E-09
   5.820000     -4.2748023E-09
   5.880000     -4.5058148E-09
   5.940000     -4.9077218E-09
   6.000000     -5.3635691E-09
   6.060000     -5.7323573E-09
   6.120000     -5.8755103E-09
   6.180000     -5.6828409E-09
   6.240000     -5.0927644E-09
   6.300000     -4.1027346E-09
   6.360000     -2.7680123E-09
   6.420000     -1.1894163E-09
   6.480000      5.0694055E-10
   6.540000      2.1933144E-09
   6.600000      3.7622514E-09
   6.660000      5.1423070E-09
   6.720000      6.3047878E-09
   6.780000      7.2609425E-09
   6.840000      8.0512645E-09
   6.900000      8.7302192E-09
   6.960000      9.3504626E-09
   7.020000      9.9503135E-09
   7.080000      1.0547067E-08
   7.140000      1.1137005E-08
   7.200000      1.1701202E-08
   7.260000      1.2214850E-08
   7.320000      1.2657159E-08
   7.380000      1.3019076E-08
   7.440000      1.3306914E-08
   7.500000      1.3541263E-08
   7.560000      1.3751899E-08
   7.620000      1.3970350E-08
   7.680000      1.4222241E-08
   7.740000      1.4521292E-08
   7.800000      1.4866203E-08
   7.860000      1.5240699E-08
   7.920000      1.5616235E-08
   7.980000      1.5956342E-08
   8.040000      1.6221540E-08
   8.100000      1.6374040E-08
   8.160000      1.6381934E-08
   8.220000      1.6222856E-08
   8.280000      1.5887299E-08
   8.340000      1.5381461E-08
   8.400000      1.4729154E-08
   8.460000      1.3971899E-08
   8.520000      1.3166298E-08
   8.580000      1.2378080E-08
   8.640000      1.1673050E-08
   8.700000      1.1106115E-08
   8.760000      1.0710440E-08
   8.820000      1.0489221E-08
   8.880000      1.0412323E-08
   8.940000      1.0419069E-08
   9.000000      1.0427138E-08
   9.060000      1.0346047E-08
   9.120000      1.0092517E-08
   9.180000      9.6046060E-09
   9.240000      8.8516723E-09
   9.300000      7.8382820E-09
   9.360000      6.6015216E-09
   9.420000      5.2026214E-09
   9.480000      3.7149543E-09
   9.540000      2.2110840E-09
   9.600000      7.5153822E-10
   9.660000     -6.2264566E-10
   9.720000     -1.8925632E-09
   9.780000     -3.0594125E-09
   9.840000     -4.1389630E-09
   9.900000     -5.1543672E-09
   9.960000     -6.1292762E-09
   10.02000     -7.0828108E-09
   10.08000     -8.0271461E-09
   10.14000     -8.9675289E-09
   10.20000     -9.9038040E-09
   10.26000     -1.0832179E-08
   10.32000     -1.1746118E-08
   10.38000     -1.2635812E-08
   10.44000     -1.3486451E-08
   10.50000     -1.4276113E-08
   10.56000     -1.4974425E-08
   10.62000     -1.5542954E-08
   10.68000     -1.5937777E-08
   10.74000     -1.6114019E-08
   10.80000     -1.6031491E-08
   10.86000     -1.5660310E-08
   10.92000     -1.4985378E-08
   10.98000     -1.4009001E-08
   11.04000     -1.2751465E-08
   11.10000     -1.1249765E-08
   11.16000     -9.5549959E-09
   11.22000     -7.7288229E-09
   11.28000     -5.8392304E-09
   11.34000     -3.9555133E-09
   11.40000     -2.1423727E-09
   11.46000     -4.5321982E-10
   11.52000      1.0767236E-09
   11.58000      2.4363402E-09
   11.64000      3.6419354E-09
   11.70000      4.7363744E-09
   11.76000      5.7830616E-09
   11.82000      6.8549202E-09
   11.88000      8.0199154E-09
   11.94000      9.3258619E-09
   12.00000      1.0787873E-08
   12.06000      1.2381607E-08
   12.12000      1.4044345E-08
   12.18000      1.5684279E-08
   12.24000      1.7196479E-08
   12.30000      1.8482455E-08
   12.36000      1.9469260E-08
   12.42000      2.0124171E-08
   12.48000      2.0461771E-08
   12.54000      2.0541938E-08
   12.60000      2.0459078E-08
   12.66000      2.0324864E-08
   12.72000      2.0248093E-08
   12.78000      2.0315897E-08
   12.84000      2.0580119E-08
   12.90000      2.1051571E-08
   12.96000      2.1702901E-08
   13.02000      2.2478924E-08
   13.08000      2.3311584E-08
   13.14000      2.4135838E-08
   13.20000      2.4902899E-08
   13.26000      2.5588212E-08
   13.32000      2.6193160E-08
   13.38000      2.6741040E-08
   13.44000      2.7269127E-08
   13.50000      2.7819212E-08
   13.56000      2.8428806E-08
   13.62000      2.9124649E-08
   13.68000      2.9919207E-08
   13.74000      3.0810071E-08
   13.80000      3.1781710E-08
   13.86000      3.2808767E-08
   13.92000      3.3860111E-08
   13.98000      3.4902982E-08
   14.04000      3.5906673E-08
   14.10000      3.6845282E-08
   14.16000      3.7699145E-08
   14.22000      3.8454758E-08
   14.28000      3.9103142E-08
   14.34000      3.9637104E-08
   14.40000      4.0047940E-08
   14.46000      4.0322515E-08
   14.52000      4.0441595E-08
   14.58000      4.0380236E-08
   14.64000      4.0110493E-08
   14.70000      3.9606391E-08
   14.76000      3.8850352E-08
   14.82000      3.7839857E-08
   14.88000      3.6592759E-08
   14.94000      3.5149707E-08
   15.00000      3.3572526E-08
   15.06000      3.1938139E-08
   15.12000      3.0328810E-08
   15.18000      2.8820264E-08
   15.24000      2.7470312E-08
   15.30000      2.6310477E-08
   15.36000      2.5342707E-08
   15.42000      2.4542123E-08
   15.48000      2.3865098E-08
   15.54000      2.3260686E-08
   15.60000      2.2682460E-08
   15.66000      2.2097824E-08
   15.72000      2.1492642E-08
   15.78000      2.0870539E-08
   15.84000      2.0247743E-08
   15.90000      1.9645626E-08
   15.96000      1.9083535E-08
   16.02000      1.8574127E-08
   16.08000      1.8122229E-08
   16.14000      1.7726887E-08
   16.20000      1.7385148E-08
   16.26000      1.7095628E-08
   16.32000      1.6860303E-08
   16.38000      1.6683941E-08
   16.44000      1.6571709E-08
   16.50000      1.6526348E-08
   16.56000      1.6546391E-08
   16.62000      1.6626393E-08
   16.68000      1.6759214E-08
   16.74000      1.6939442E-08
   16.80000      1.7166645E-08
   16.86000      1.7447260E-08
   16.92000      1.7794589E-08
   16.98000      1.8227032E-08
   17.04000      1.8765233E-08
   17.10000      1.9428821E-08
   17.16000      2.0233232E-08
   17.22000      2.1186640E-08
   17.28000      2.2287082E-08
   17.34000      2.3519908E-08
   17.40000      2.4856234E-08
   17.46000      2.6253216E-08
   17.52000      2.7656883E-08
   17.58000      2.9007635E-08
   17.64000      3.0247474E-08
   17.70000      3.1327339E-08
   17.76000      3.2212615E-08
   17.82000      3.2885232E-08
   17.88000      3.3341909E-08
   17.94000      3.3589242E-08
   18.00000      3.3637125E-08
   18.06000      3.3492466E-08
   18.12000      3.3154631E-08
   18.18000      3.2613507E-08
   18.24000      3.1850128E-08
   18.30000      3.0839434E-08
   18.36000      2.9554389E-08
   18.42000      2.7970833E-08
   18.48000      2.6072396E-08
   18.54000      2.3854863E-08
   18.60000      2.1329431E-08
   18.66000      1.8524286E-08
   18.72000      1.5484174E-08
   18.78000      1.2268021E-08
   18.84000      8.9450420E-09
   18.90000      5.5900218E-09
   18.96000      2.2784612E-09
   19.02000     -9.1799829E-10
   19.08000     -3.9357708E-09
   19.14000     -6.7232357E-09
   19.20000     -9.2444123E-09
   19.26000     -1.1482195E-08
   19.32000     -1.3440616E-08
   19.38000     -1.5145501E-08
   19.44000     -1.6642987E-08
   19.50000     -1.7995804E-08
   19.56000     -1.9277664E-08
   19.62000     -2.0566501E-08
   19.68000     -2.1937348E-08
   19.74000     -2.3455538E-08
   19.80000     -2.5170754E-08
   19.86000     -2.7112231E-08
   19.92000     -2.9285504E-08
   19.98000     -3.1671139E-08
   20.04000     -3.4225923E-08
   20.10000     -3.6886792E-08
   20.16000     -3.9577369E-08
   20.22000     -4.2216293E-08
   20.28000     -4.4726235E-08
   20.34000     -4.7042072E-08
   20.40000     -4.9117062E-08
   20.46000     -5.0926278E-08
   20.52000     -5.2467204E-08
   20.58000     -5.3757944E-08
   20.64000     -5.4833670E-08
   20.70000     -5.5742102E-08
   20.76000     -5.6538539E-08
   20.82000     -5.7280879E-08
   20.88000     -5.8024916E-08
   20.94000     -5.8820156E-08
   21.00000     -5.9706345E-08
   21.06000     -6.0711059E-08
   21.12000     -6.1848262E-08
   21.18000     -6.3118037E-08
   21.24000     -6.4507297E-08
   21.30000     -6.5991451E-08
   21.36000     -6.7536924E-08
   21.42000     -6.9104210E-08
   21.48000     -7.0651218E-08
   21.54000     -7.2136388E-08
   21.60000     -7.3521029E-08
   21.66000     -7.4770540E-08
   21.72000     -7.5854246E-08
   21.78000     -7.6744548E-08
   21.84000     -7.7415905E-08
   21.90000     -7.7844760E-08
   21.96000     -7.8010999E-08
   22.02000     -7.7901070E-08
   22.08000     -7.7512141E-08
   22.14000     -7.6856047E-08
   22.20000     -7.5961573E-08
   22.26000     -7.4873981E-08
   22.32000     -7.3651250E-08
   22.38000     -7.2357452E-08
   22.44000     -7.1054622E-08
   22.50000     -6.9794744E-08
   22.56000     -6.8613751E-08
   22.62000     -6.7528674E-08
   22.68000     -6.6538632E-08
   22.74000     -6.5629045E-08
   22.80000     -6.4778135E-08
   22.86000     -6.3963995E-08
   22.92000     -6.3170681E-08
   22.98000     -6.2392289E-08
   23.04000     -6.1634204E-08
   23.10000     -6.0911901E-08
   23.16000     -6.0247757E-08
   23.22000     -5.9666831E-08
   23.28000     -5.9192505E-08
   23.34000     -5.8842730E-08
   23.40000     -5.8627478E-08
   23.46000     -5.8547766E-08
   23.52000     -5.8596338E-08
   23.58000     -5.8760023E-08
   23.64000     -5.9023176E-08
   23.70000     -5.9371544E-08
   23.76000     -5.9795525E-08
   23.82000     -6.0291860E-08
   23.88000     -6.0863243E-08
   23.94000     -6.1515863E-08
   24.00000     -6.2255786E-08
   24.06000     -6.3085395E-08
   24.12000     -6.4001149E-08
   24.18000     -6.4993664E-08
   24.24000     -6.6049921E-08
   24.30000     -6.7156876E-08
   24.36000     -6.8305027E-08
   24.42000     -6.9490632E-08
   24.48000     -7.0715600E-08
   24.54000     -7.1985028E-08
   24.60000     -7.3303056E-08
   24.66000     -7.4668357E-08
   24.72000     -7.6070336E-08
   24.78000     -7.7486980E-08
   24.84000     -7.8884824E-08
   24.90000     -8.0220872E-08
   24.96000     -8.1446146E-08
   25.02000     -8.2510390E-08
   25.08000     -8.3367254E-08
   25.14000     -8.3979344E-08
   25.20000     -8.4322259E-08
   25.26000     -8.4386976E-08
   25.32000     -8.4179675E-08
   25.38000     -8.3719023E-08
   25.44000     -8.3031161E-08
   25.50000     -8.2143401E-08
   25.56000     -8.1078127E-08
   25.62000     -7.9848171E-08
   25.68000     -7.8454853E-08
   25.74000     -7.6888746E-08
   25.80000     -7.5132910E-08
   25.86000     -7.3167314E-08
   25.92000     -7.0973449E-08
   25.98000     -6.8537872E-08
   26.04000     -6.5854060E-08
   26.10000     -6.2922538E-08
   26.16000     -5.9749588E-08
   26.22000     -5.6345115E-08
   26.28000     -5.2720637E-08
   26.34000     -4.8888047E-08
   26.40000     -4.4859778E-08
   26.46000     -4.0650495E-08
   26.52000     -3.6279925E-08
   26.58000     -3.1775951E-08
   26.64000     -2.7176652E-08
   26.70000     -2.2530037E-08
   26.76000     -1.7890715E-08
   26.82000     -1.3313605E-08
   26.88000     -8.8459684E-09
   26.94000     -4.5197814E-09
   27.00000     -3.4685518E-10
   27.06000      3.6814887E-09
   27.12000      7.5895574E-09
   27.18000      1.1408141E-08
   27.24000      1.5163357E-08
   27.30000      1.8866436E-08
   27.36000      2.2507260E-08
   27.42000      2.6053414E-08
   27.48000      2.9455032E-08
   27.54000      3.2654178E-08
   27.60000      3.5596326E-08
   27.66000      3.8241161E-08
   27.72000      4.0570136E-08
   27.78000      4.2589136E-08
   27.84000      4.4325887E-08
   27.90000      4.5822866E-08
   27.96000      4.7127450E-08
   28.02000      4.8281510E-08
   28.08000      4.9312590E-08
   28.14000      5.0228344E-08
   28.20000      5.1015192E-08
   28.26000      5.1641276E-08
   28.32000      5.2062976E-08
   28.38000      5.2233762E-08
   28.44000      5.2113617E-08
   28.50000      5.1677262E-08
   28.56000      5.0919461E-08
   28.62000      4.9856169E-08
   28.68000      4.8521112E-08
   28.74000      4.6958441E-08
   28.80000      4.5213159E-08
   28.86000      4.3321773E-08
   28.92000      4.1305832E-08
   28.98000      3.9170267E-08
   29.04000      3.6907128E-08
   29.10000      3.4503568E-08
   29.16000      3.1951448E-08
   29.22000      2.9255347E-08
   29.28000      2.6436176E-08
   29.34000      2.3529106E-08
   29.40000      2.0576389E-08
   29.46000      1.7617497E-08
   29.52000      1.4679840E-08
   29.58000      1.1773150E-08
   29.64000      8.8892556E-09
   29.70000      6.0071490E-09
   29.76000      3.1014789E-09
   29.82000      1.5155313E-10
   29.88000     -2.8520082E-09
   29.94000     -5.9048744E-09
   30.00000     -8.9912158E-09
   30.06000     -1.2089340E-08
   30.12000     -1.5178635E-08
   30.18000     -1.8245460E-08
   30.24000     -2.1286285E-08
   30.30000     -2.4307411E-08
   30.36000     -2.7321633E-08
   30.42000     -3.0342971E-08
   30.48000     -3.3380825E-08
   30.54000     -3.6434788E-08
   30.60000     -3.9491006E-08
   30.66000     -4.2520700E-08
   30.72000     -4.5481286E-08
   30.78000     -4.8320356E-08
   30.84000     -5.0982383E-08
   30.90000     -5.3417406E-08
   30.96000     -5.5590053E-08
   31.02000     -5.7486577E-08
   31.08000     -5.9117557E-08
   31.14000     -6.0514580E-08
   31.20000     -6.1721003E-08
   31.26000     -6.2778952E-08
   31.32000     -6.3716222E-08
   31.38000     -6.4537474E-08
   31.44000     -6.5222935E-08
   31.50000     -6.5735314E-08
   31.56000     -6.6033060E-08
   31.62000     -6.6085477E-08
   31.68000     -6.5884471E-08
   31.74000     -6.5449100E-08
   31.80000     -6.4821343E-08
   31.86000     -6.4055108E-08
   31.92000     -6.3202478E-08
   31.98000     -6.2302234E-08
   32.04000     -6.1374415E-08
   32.10000     -6.0422046E-08
   32.16000     -5.9438531E-08
   32.22000     -5.8416948E-08
   32.28000     -5.7357465E-08
   32.34000     -5.6269911E-08
   32.40000     -5.5171164E-08
   32.46000     -5.4078892E-08
   32.52000     -5.3004719E-08
   32.58000     -5.1949627E-08
   32.64000     -5.0903392E-08
   32.70000     -4.9847905E-08
   32.76000     -4.8762892E-08
   32.82000     -4.7631787E-08
   32.88000     -4.6445980E-08
   32.94000     -4.5206558E-08
   33.00000     -4.3923809E-08
   33.06000     -4.2615422E-08
   33.12000     -4.1304453E-08
   33.18000     -4.0017504E-08
   33.24000     -3.8783071E-08
   33.30000     -3.7629512E-08
   33.36000     -3.6582321E-08
   33.42000     -3.5660776E-08
   33.48000     -3.4874841E-08
   33.54000     -3.4223390E-08
   33.60000     -3.3694779E-08
   33.66000     -3.3269952E-08
   33.72000     -3.2927453E-08
   33.78000     -3.2648760E-08
   33.84000     -3.2422296E-08
   33.90000     -3.2244746E-08
   33.96000     -3.2119353E-08
   34.02000     -3.2051876E-08
   34.08000     -3.2045570E-08
   34.14000     -3.2096938E-08
   34.20000     -3.2193341E-08
   34.26000     -3.2312986E-08
   34.32000     -3.2426918E-08
   34.38000     -3.2502321E-08
   34.44000     -3.2506279E-08
   34.50000     -3.2409442E-08
   34.56000     -3.2189515E-08
   34.62000     -3.1834517E-08
   34.68000     -3.1345660E-08
   34.74000     -3.0739354E-08
   34.80000     -3.0047527E-08
   34.86000     -2.9315304E-08
   34.92000     -2.8595693E-08
   34.98000     -2.7941649E-08
   35.04000     -2.7396897E-08
   35.10000     -2.6987607E-08
   35.16000     -2.6717121E-08
   35.22000     -2.6565321E-08
   35.28000     -2.6493000E-08
   35.34000     -2.6450250E-08
   35.40000     -2.6386733E-08
   35.46000     -2.6261288E-08
   35.52000     -2.6048644E-08
   35.58000     -2.5742006E-08
   35.64000     -2.5351461E-08
   35.70000     -2.4899284E-08
   35.76000     -2.4413760E-08
   35.82000     -2.3923137E-08
   35.88000     -2.3450882E-08
   35.94000     -2.3012635E-08
   36.00000     -2.2614843E-08
   36.06000     -2.2254632E-08
   36.12000     -2.1920634E-08
   36.18000     -2.1594674E-08
   36.24000     -2.1254454E-08
   36.30000     -2.0877341E-08
   36.36000     -2.0445032E-08
   36.42000     -1.9948397E-08
   36.48000     -1.9391235E-08
   36.54000     -1.8791688E-08
   36.60000     -1.8180257E-08
   36.66000     -1.7594420E-08
   36.72000     -1.7070922E-08
   36.78000     -1.6637763E-08
   36.84000     -1.6308357E-08
   36.90000     -1.6079786E-08
   36.96000     -1.5935930E-08
   37.02000     -1.5854541E-08
   37.08000     -1.5816058E-08
   37.14000     -1.5811235E-08
   37.20000     -1.5845028E-08
   37.26000     -1.5935484E-08
   37.32000     -1.6107942E-08
   37.38000     -1.6386432E-08
   37.44000     -1.6784863E-08
   37.50000     -1.7300547E-08
   37.56000     -1.7911759E-08
   37.62000     -1.8579833E-08
   37.68000     -1.9255092E-08
   37.74000     -1.9885192E-08
   37.80000     -2.0424048E-08
   37.86000     -2.0839593E-08
   37.92000     -2.1118916E-08
   37.98000     -2.1269743E-08
   38.04000     -2.1317865E-08
   38.10000     -2.1300789E-08
   38.16000     -2.1258792E-08
   38.22000     -2.1225308E-08
   38.28000     -2.1219060E-08
   38.34000     -2.1240147E-08
   38.40000     -2.1271463E-08
   38.46000     -2.1285251E-08
   38.52000     -2.1253001E-08
   38.58000     -2.1155580E-08
   38.64000     -2.0990255E-08
   38.70000     -2.0772106E-08
   38.76000     -2.0529185E-08
   38.82000     -2.0293010E-08
   38.88000     -2.0087787E-08
   38.94000     -1.9922378E-08
   39.00000     -1.9788191E-08
   39.06000     -1.9664013E-08
   39.12000     -1.9526222E-08
   39.18000     -1.9360613E-08
   39.24000     -1.9171290E-08
   39.30000     -1.8983016E-08
   39.36000     -1.8835740E-08
   39.42000     -1.8773036E-08
   39.48000     -1.8828448E-08
   39.54000     -1.9014648E-08
   39.60000     -1.9319213E-08
   39.66000     -1.9708455E-08
   39.72000     -2.0137675E-08
   39.78000     -2.0564036E-08
   39.84000     -2.0957550E-08
   39.90000     -2.1306636E-08
   39.96000     -2.1617010E-08
   40.02000     -2.1905239E-08
   40.08000     -2.2189969E-08
   40.14000     -2.2484368E-08
   40.20000     -2.2792362E-08
   40.26000     -2.3109461E-08
   40.32000     -2.3427203E-08
   40.38000     -2.3739080E-08
   40.44000     -2.4045576E-08
   40.50000     -2.4356620E-08
   40.56000     -2.4690861E-08
   40.62000     -2.5072081E-08
   40.68000     -2.5523857E-08
   40.74000     -2.6063695E-08
   40.80000     -2.6697874E-08
   40.86000     -2.7418020E-08
   40.92000     -2.8200200E-08
   40.98000     -2.9007133E-08
   41.04000     -2.9793611E-08
   41.10000     -3.0514624E-08
   41.16000     -3.1134817E-08
   41.22000     -3.1637217E-08
   41.28000     -3.2028801E-08
   41.34000     -3.2341006E-08
   41.40000     -3.2624243E-08
   41.46000     -3.2937240E-08
   41.52000     -3.3333713E-08
   41.58000     -3.3849993E-08
   41.64000     -3.4497326E-08
   41.70000     -3.5261397E-08
   41.76000     -3.6109558E-08
   41.82000     -3.7003797E-08
   41.88000     -3.7915434E-08
   41.94000     -3.8836806E-08
   42.00000     -3.9786098E-08
   42.06000     -4.0803560E-08
   42.12000     -4.1940300E-08
   42.18000     -4.3243329E-08
   42.24000     -4.4741739E-08
   42.30000     -4.6438519E-08
   42.36000     -4.8310337E-08
   42.42000     -5.0315130E-08
   42.48000     -5.2404769E-08
   42.54000     -5.4538820E-08
   42.60000     -5.6695633E-08
   42.66000     -5.8878356E-08
   42.72000     -6.1115408E-08
   42.78000     -6.3456618E-08
   42.84000     -6.5967185E-08
   42.90000     -6.8721519E-08
   42.96000     -7.1798588E-08
   43.02000     -7.5279665E-08
   43.08000     -7.9248537E-08
   43.14000     -8.3794411E-08
   43.20000     -8.9017298E-08
   43.26000     -9.5035659E-08
   43.32000     -1.0199579E-07
   43.38000     -1.1008210E-07
   43.44000     -1.1952697E-07
   43.50000     -1.3061933E-07
   43.56000     -1.4371089E-07
   43.62000     -1.5922083E-07
   43.68000     -1.7763909E-07
   43.74000     -1.9953043E-07
   43.80000     -2.2554008E-07
   43.86000     -2.5640188E-07
   43.92000     -2.9294898E-07
   43.98000     -3.3612613E-07
   44.04000     -3.8700207E-07
   44.10000     -4.4678120E-07
   44.16000     -5.1681371E-07
   44.22000     -5.9860531E-07
   44.28000     -6.9382719E-07
   44.34000     -8.0433006E-07
   44.40000     -9.3216249E-07
   44.46000     -1.0795958E-06
   44.52000     -1.2491550E-06
   44.58000     -1.4436532E-06
   44.64000     -1.6662282E-06
   44.70000     -1.9203744E-06
   44.76000     -2.2099725E-06
   44.82000     -2.5393110E-06
   44.88000     -2.9131029E-06
   44.94000     -3.3365013E-06
   45.00000     -3.8151134E-06
   45.06000     -4.3550185E-06
   45.12000     -4.9627924E-06
   45.18000     -5.6455315E-06
   45.24000     -6.4108790E-06
   45.30000     -7.2670528E-06
   45.36000     -8.2228617E-06
   45.42000     -9.2877199E-06
   45.48000     -1.0471649E-05
   45.54000     -1.1785282E-05
   45.60000     -1.3239851E-05
   45.66000     -1.4847178E-05
   45.72000     -1.6619659E-05
   45.78000     -1.8570245E-05
   45.84000     -2.0712414E-05
   45.90000     -2.3060140E-05
   45.96000     -2.5627840E-05
   46.02000     -2.8430315E-05
   46.08000     -3.1482683E-05
   46.14000     -3.4800290E-05
   46.20000     -3.8398615E-05
   46.26000     -4.2293144E-05
   46.32000     -4.6499299E-05
   46.38000     -5.1032268E-05
   46.44000     -5.5906919E-05
   46.50000     -6.1137653E-05
   46.56000     -6.6738285E-05
   46.62000     -7.2721865E-05
   46.68000     -7.9100573E-05
   46.74000     -8.5885542E-05
   46.80000     -9.3086703E-05
   46.86000     -1.0071260E-04
   46.92000     -1.0877027E-04
   46.98000     -1.1726504E-04
   47.04000     -1.2620039E-04
   47.10000     -1.3557787E-04
   47.16000     -1.4539680E-04
   47.22000     -1.5565433E-04
   47.28000     -1.6634517E-04
   47.34000     -1.7746160E-04
   47.40000     -1.8899338E-04
   47.46000     -2.0092764E-04
   47.52000     -2.1324887E-04
   47.58000     -2.2593893E-04
   47.64000     -2.3897704E-04
   47.70000     -2.5233979E-04
   47.76000     -2.6600127E-04
   47.82000     -2.7993327E-04
   47.88000     -2.9410521E-04
   47.94000     -3.0848451E-04
   48.00000     -3.2303680E-04
   48.06000     -3.3772603E-04
   48.12000     -3.5251470E-04
   48.18000     -3.6736418E-04
   48.24000     -3.8223487E-04
   48.30000     -3.9708678E-04
   48.36000     -4.1187956E-04
   48.42000     -4.2657304E-04
   48.48000     -4.4112757E-04
   48.54000     -4.5550428E-04
   48.60000     -4.6966568E-04
   48.66000     -4.8357583E-04
   48.72000     -4.9720070E-04
   48.78000     -5.1050866E-04
   48.84000     -5.2347075E-04
   48.90000     -5.3606089E-04
   48.96000     -5.4825627E-04
   49.02000     -5.6003762E-04
   49.08000     -5.7138945E-04
   49.14000     -5.8229995E-04
   49.20000     -5.9276144E-04
   49.26000     -6.0277007E-04
   49.32000     -6.1232614E-04
   49.38000     -6.2143413E-04
   49.44000     -6.3010235E-04
   49.50000     -6.3834322E-04
   49.56000     -6.4617296E-04
   49.62000     -6.5361126E-04
   49.68000     -6.6068122E-04
   49.74000     -6.6740881E-04
   49.80000     -6.7382271E-04
   49.86000     -6.7995366E-04
   49.92000     -6.8583427E-04
   49.98000     -6.9149851E-04
   50.04000     -6.9698133E-04
   50.10000     -7.0231804E-04
   50.16000     -7.0754410E-04
   50.22000     -7.1269443E-04
   50.28000     -7.1780296E-04
   50.34000     -7.2290213E-04
   50.40000     -7.2802231E-04
   50.46000     -7.3319138E-04
   50.52000     -7.3843461E-04
   50.58000     -7.4377394E-04
   50.64000     -7.4922817E-04
   50.70000     -7.5481221E-04
   50.76000     -7.6053716E-04
   50.82000     -7.6641014E-04
   50.88000     -7.7243382E-04
   50.94000     -7.7860686E-04
   51.00000     -7.8492350E-04
   51.06000     -7.9137395E-04
   51.12000     -7.9794443E-04
   51.18000     -8.0461736E-04
   51.24000     -8.1137184E-04
   51.30000     -8.1818376E-04
   51.36000     -8.2502636E-04
   51.42000     -8.3187036E-04
   51.48000     -8.3868433E-04
   51.54000     -8.4543548E-04
   51.60000     -8.5208967E-04
   51.66000     -8.5861247E-04
   51.72000     -8.6496945E-04
   51.78000     -8.7112666E-04
   51.84000     -8.7705138E-04
   51.90000     -8.8271225E-04
   51.96000     -8.8807987E-04
   52.02000     -8.9312735E-04
   52.08000     -8.9783059E-04
   52.14000     -9.0216857E-04
   52.20000     -9.0612384E-04
   52.26000     -9.0968271E-04
   52.32000     -9.1283547E-04
   52.38000     -9.1557659E-04
   52.44000     -9.1790449E-04
   52.50000     -9.1982167E-04
   52.56000     -9.2133478E-04
   52.62000     -9.2245435E-04
   52.68000     -9.2319446E-04
   52.74000     -9.2357292E-04
   52.80000     -9.2361064E-04
   52.86000     -9.2333154E-04
   52.92000     -9.2276186E-04
   52.98000     -9.2193007E-04
   53.04000     -9.2086592E-04
   53.10000     -9.1960066E-04
   53.16000     -9.1816578E-04
   53.22000     -9.1659301E-04
   53.28000     -9.1491366E-04
   53.34000     -9.1315800E-04
   53.40000     -9.1135490E-04
   53.46000     -9.0953137E-04
   53.52000     -9.0771198E-04
   53.58000     -9.0591842E-04
   53.64000     -9.0416963E-04
   53.70000     -9.0248080E-04
   53.76000     -9.0086350E-04
   53.82000     -8.9932547E-04
   53.88000     -8.9787022E-04
   53.94000     -8.9649740E-04
   54.00000     -8.9520245E-04
   54.06000     -8.9397666E-04
   54.12000     -8.9280721E-04
   54.18000     -8.9167769E-04
   54.24000     -8.9056790E-04
   54.30000     -8.8945456E-04
   54.36000     -8.8831130E-04
   54.42000     -8.8710891E-04
   54.48000     -8.8581588E-04
   54.54000     -8.8439893E-04
   54.60000     -8.8282331E-04
   54.66000     -8.8105339E-04
   54.72000     -8.7905326E-04
   54.78000     -8.7678735E-04
   54.84000     -8.7422057E-04
   54.90000     -8.7131909E-04
   54.96000     -8.6805067E-04
   55.02000     -8.6438505E-04
   55.08000     -8.6029444E-04
   55.14000     -8.5575349E-04
   55.20000     -8.5074018E-04
   55.26000     -8.4523583E-04
   55.32000     -8.3922554E-04
   55.38000     -8.3269848E-04
   55.44000     -8.2564785E-04
   55.50000     -8.1807136E-04
   55.56000     -8.0997089E-04