  -2.400000      0.0000000E+00
  -2.340000      0.0000000E+00
  -2.280000      0.0000000E+00
  -2.220000      0.0000000E+00
  -2.160000      0.0000000E+00
  -2.100000      0.0000000E+00
  -2.040000      1.2885378E-22
  -1.980000      9.9248547E-22
  -1.920000      3.1843855E-21
  -1.860000      2.7227593E-21
  -1.800000     -2.0255332E-20
  -1.740000     -1.1219923E-19
  -1.680000     -3.2836744E-19
  -1.620000     -6.4505085E-19
  -1.560000     -7.9125218E-19
  -1.500000     -9.5209044E-20
  -1.440000      2.4099684E-18
  -1.380000      7.3203557E-18
  -1.320000      1.3563988E-17
  -1.260000      1.7011386E-17
  -1.200000      1.0297747E-17
  -1.140000     -1.4542399E-17
  -1.080000     -5.9957796E-17
  -1.020000     -1.1504383E-16
 -0.9600000     -1.5081259E-16
 -0.9000000     -1.2495392E-16
 -0.8400000     -7.1456178E-20
 -0.7800000      2.2788577E-16
 -0.7200000      5.0397672E-16
 -0.6600000      7.1062681E-16
 -0.6000000      7.0121183E-16
 -0.5400000      3.6897465E-16
 -0.4800000     -2.7547015E-16
 -0.4200000     -1.0634464E-15
 -0.3600000     -1.7057789E-15
 -0.3000000     -1.9154593E-15
 -0.2400000     -1.5674092E-15
 -0.1800000     -8.0195152E-16
 -0.1200000      2.0697798E-17
 -5.9999999E-02  5.4067267E-16
  0.0000000E+00  7.0379682E-16
  5.9999999E-02  9.5855436E-16
  0.1200000      2.1373066E-15
  0.1800000      4.9407330E-15
  0.2400000      9.1872006E-15
  0.3000000      1.3235194E-14
  0.3600000      1.4074571E-14
  0.4200000      8.3859125E-15
  0.4800000     -5.6062769E-15
  0.5400000     -2.6227088E-14
  0.6000000     -4.7480205E-14
  0.6600000     -6.0141420E-14
  0.7200000     -5.4991456E-14
  0.7800000     -2.7248604E-14
  0.8400000      1.9696172E-14
  0.9000000      7.3357160E-14
  0.9600000      1.1530532E-13
   1.020000      1.2789642E-13
   1.080000      1.0213155E-13
   1.140000      4.3059011E-14
   1.200000     -3.0425952E-14
   1.260000     -9.2362126E-14
   1.320000     -1.2093992E-13
   1.380000     -1.0934773E-13
   1.440000     -7.0695071E-14
   1.500000     -3.3388026E-14
   1.560000     -2.7466575E-14
   1.620000     -6.7098033E-14
   1.680000     -1.3744377E-13
   1.740000     -1.9370783E-13
   1.800000     -1.7592445E-13
   1.860000     -3.6269859E-14
   1.920000      2.3093032E-13
   1.980000      5.6979887E-13
   2.040000      8.6570481E-13
   2.100000      9.7485995E-13
   2.160000      7.7507467E-13
   2.220000      2.2215763E-13
   2.280000     -6.0911985E-13
   2.340000     -1.5189888E-12
   2.400000     -2.2217603E-12
   2.460000     -2.4253347E-12
   2.520000     -1.9306091E-12
   2.580000     -7.1908348E-13
   2.640000      1.0044961E-12
   2.700000      2.8371292E-12
   2.760000      4.2722414E-12
   2.820000      4.8414675E-12
   2.880000      4.2611266E-12
   2.940000      2.5343941E-12
   3.000000     -2.8727936E-14
   3.060000     -2.8849824E-12
   3.120000     -5.4032486E-12
   3.180000     -7.0333283E-12
   3.240000     -7.4408075E-12
   3.300000     -6.5644196E-12
   3.360000     -4.5839543E-12
   3.420000     -1.8232156E-12
   3.480000      1.3620469E-12
   3.540000      4.6587539E-12
   3.600000      7.8030828E-12
   3.660000      1.0525290E-11
   3.720000      1.2473640E-11
   3.780000      1.3174016E-11
   3.840000      1.2069316E-11
   3.900000      8.6462122E-12
   3.960000      2.6113356E-12
   4.020000     -5.9550863E-12
   4.080000     -1.6545135E-11
   4.140000     -2.8316067E-11
   4.200000     -4.0321805E-11
   4.260000     -5.1813890E-11
   4.320000     -6.2502073E-11
   4.380000     -7.2663847E-11
   4.440000     -8.3037160E-11
   4.500000     -9.4507832E-11
   4.560000     -1.0768603E-10
   4.620000     -1.2251927E-10
   4.680000     -1.3808991E-10
   4.740000     -1.5268582E-10
   4.800000     -1.6413348E-10
   4.860000     -1.7028158E-10
   4.920000     -1.6946225E-10
   4.980000     -1.6076485E-10
   5.040000     -1.4403391E-10
   5.100000     -1.1961782E-10
   5.160000     -8.8000086E-11
   5.220000     -4.9492188E-11
   5.280000     -4.1362690E-12
   5.340000      4.8132609E-11
   5.400000      1.0713456E-10
   5.460000      1.7206339E-10
   5.520000      2.4125379E-10
   5.580000      3.1221642E-10
   5.640000      3.8195483E-10
   5.700000      4.4747311E-10
   5.760000      5.0632687E-10
   5.820000      5.5707799E-10
   5.880000      5.9957406E-10
   5.940000      6.3504546E-10
   6.000000      6.6605682E-10
   6.060000      6.9634792E-10
   6.120000      7.3056405E-10
   6.180000      7.7383877E-10
   6.240000      8.3119350E-10
   6.300000      9.0676761E-10
   6.360000      1.0029755E-09
   6.420000      1.1197633E-09
   6.480000      1.2541603E-09
   6.540000      1.4002679E-09
   6.600000      1.5497158E-09
   6.660000      1.6924845E-09
   6.720000      1.8178936E-09
   6.780000      1.9155375E-09
   6.840000      1.9760120E-09
   6.900000      1.9913831E-09
   6.960000      1.9554669E-09
   7.020000      1.8640482E-09
   7.080000      1.7151489E-09
   7.140000      1.5093772E-09
   7.200000      1.2502771E-09
   7.260000      9.4450281E-10
   7.320000      6.0162941E-10
   7.380000      2.3346697E-10
   7.440000     -1.4711651E-10
   7.500000     -5.2769528E-10
   7.560000     -8.9780494E-10
   7.620000     -1.2501143E-09
   7.680000     -1.5809259E-09
   7.740000     -1.8898163E-09
   7.800000     -2.1784250E-09
   7.860000     -2.4486029E-09
   7.920000     -2.7002893E-09
   7.980000     -2.9295502E-09
   8.040000     -3.1271892E-09
   8.100000     -3.2782215E-09
   8.160000     -3.3623340E-09
   8.220000     -3.3552630E-09
   8.280000     -3.2308396E-09
   8.340000     -2.9633289E-09
   8.400000     -2.5296205E-09
   8.460000     -1.9108670E-09
   8.520000     -1.0932921E-09
   8.580000     -6.8117866E-11
   8.640000      1.1691834E-09
   8.700000      2.6198739E-09
   8.760000      4.2826112E-09
   8.820000      6.1532934E-09
   8.880000      8.2238536E-09
   8.940000      1.0480171E-08
   9.000000      1.2899699E-08
   9.060000      1.5449666E-08
   9.120000      1.8086769E-08
   9.180000      2.0758929E-08
   9.240000      2.3409154E-08
   9.300000      2.5980924E-08
   9.360000      2.8423907E-08
   9.420000      3.0698715E-08
   9.480000      3.2779450E-08
   9.540000      3.4653301E-08
   9.600000      3.6317296E-08
   9.660000      3.7772878E-08
   9.720000      3.9019557E-08
   9.780000      4.0049215E-08
   9.840000      4.0842441E-08
   9.900000      4.1367890E-08
   9.960000      4.1585050E-08
   10.02000      4.1450036E-08
   10.08000      4.0923339E-08
   10.14000      3.9978001E-08
   10.20000      3.8606462E-08
   10.26000      3.6824630E-08
   10.32000      3.4672297E-08
   10.38000      3.2209844E-08
   10.44000      2.9512076E-08
   10.50000      2.6660576E-08
   10.56000      2.3736181E-08
   10.62000      2.0812925E-08
   10.68000      1.7954227E-08
   10.74000      1.5211441E-08
   10.80000      1.2624270E-08
   10.86000      1.0222270E-08
   10.92000      8.0266584E-09
   10.98000      6.0518106E-09
   11.04000      4.3061585E-09
   11.10000      2.7924638E-09
   11.16000      1.5076576E-09
   11.22000      4.4254370E-10
   11.28000     -4.1830744E-10
   11.34000     -1.0961935E-09
   11.40000     -1.6172771E-09
   11.46000     -2.0109634E-09
   11.52000     -2.3078670E-09
   11.58000     -2.5377378E-09
   11.64000     -2.7277574E-09
   11.70000     -2.9015117E-09
   11.76000     -3.0787257E-09
   11.82000     -3.2755960E-09
   11.88000     -3.5053866E-09
   11.94000     -3.7789416E-09
   12.00000     -4.1048920E-09
   12.06000     -4.4895501E-09
   12.12000     -4.9366493E-09
   12.18000     -5.4471214E-09
   12.24000     -6.0190559E-09
   12.30000     -6.6478432E-09
   12.36000     -7.3264252E-09
   12.42000     -8.0455731E-09
   12.48000     -8.7941894E-09
   12.54000     -9.5596997E-09
   12.60000     -1.0328603E-08
   12.66000     -1.1087158E-08
   12.72000     -1.1822040E-08
   12.78000     -1.2520821E-08
   12.84000     -1.3172134E-08
   12.90000     -1.3765710E-08
   12.96000     -1.4292590E-08
   13.02000     -1.4745864E-08
   13.08000     -1.5122053E-08
   13.14000     -1.5422781E-08
   13.20000     -1.5655932E-08
   13.26000     -1.5835353E-08
   13.32000     -1.5978404E-08
   13.38000     -1.6101433E-08
   13.44000     -1.6213983E-08
   13.50000     -1.6313322E-08
   13.56000     -1.6380916E-08
   13.62000     -1.6382078E-08
   13.68000     -1.6269173E-08
   13.74000     -1.5987791E-08
   13.80000     -1.5484618E-08
   13.86000     -1.4715497E-08
   13.92000     -1.3652290E-08
   13.98000     -1.2287596E-08
   14.04000     -1.0636765E-08
   14.10000     -8.7370378E-09
   14.16000     -6.6438988E-09
   14.22000     -4.4250368E-09
   14.28000     -2.1526794E-09
   14.34000      1.0456056E-10
   14.40000      2.2889444E-09
   14.46000      4.3586454E-09
   14.52000      6.2897025E-09
   14.58000      8.0747729E-09
   14.64000      9.7193755E-09
   14.70000      1.1236904E-08
   14.76000      1.2643795E-08
   14.82000      1.3955936E-08
   14.88000      1.5186703E-08
   14.94000      1.6346428E-08
   15.00000      1.7442558E-08
   15.06000      1.8479822E-08
   15.12000      1.9459870E-08
   15.18000      2.0380396E-08
   15.24000      2.1234072E-08
   15.30000      2.2007928E-08
   15.36000      2.2683672E-08
   15.42000      2.3239293E-08
   15.48000      2.3651861E-08
   15.54000      2.3901098E-08
   15.60000      2.3973044E-08
   15.66000      2.3862984E-08
   15.72000      2.3576934E-08
   15.78000      2.3131214E-08
   15.84000      2.2550152E-08
   15.90000      2.1862419E-08
   15.96000      2.1096985E-08
   16.02000      2.0279810E-08
   16.08000      1.9432226E-08
   16.14000      1.8571441E-08
   16.20000      1.7712841E-08
   16.26000      1.6873166E-08
   16.32000      1.6073267E-08
   16.38000      1.5339326E-08
   16.44000      1.4701943E-08
   16.50000      1.4193199E-08
   16.56000      1.3842568E-08
   16.62000      1.3672768E-08
   16.68000      1.3696661E-08
   16.74000      1.3915893E-08
   16.80000      1.4321447E-08
   16.86000      1.4895808E-08
   16.92000      1.5616129E-08
   16.98000      1.6457731E-08
   17.04000      1.7397255E-08
   17.10000      1.8414894E-08
   17.16000      1.9495323E-08
   17.22000      2.0627061E-08
   17.28000      2.1800403E-08
   17.34000      2.3004336E-08
   17.40000      2.4223320E-08
   17.46000      2.5434916E-08
   17.52000      2.6609245E-08
   17.58000      2.7710744E-08
   17.64000      2.8702184E-08
   17.70000      2.9550039E-08
   17.76000      3.0229991E-08
   17.82000      3.0731115E-08
   17.88000      3.1057663E-08
   17.94000      3.1227934E-08
   18.00000      3.1270528E-08
   18.06000      3.1218782E-08
   18.12000      3.1104701E-08
   18.18000      3.0953455E-08
   18.24000      3.0779500E-08
   18.30000      3.0584740E-08
   18.36000      3.0358795E-08
   18.42000      3.0081075E-08
   18.48000      2.9724115E-08
   18.54000      2.9257558E-08
   18.60000      2.8652185E-08
   18.66000      2.7883431E-08
   18.72000      2.6933998E-08
   18.78000      2.5795238E-08
   18.84000      2.4467271E-08
   18.90000      2.2958014E-08
   18.96000      2.1281448E-08
   19.02000      1.9455639E-08
   19.08000      1.7500948E-08
   19.14000      1.5438733E-08
   19.20000      1.3290538E-08
   19.26000      1.1077603E-08
   19.32000      8.8203356E-09
   19.38000      6.5375185E-09
   19.44000      4.2452206E-09
   19.50000      1.9556419E-09
   19.56000     -3.2369132E-10
   19.62000     -2.5900002E-09
   19.68000     -4.8444511E-09
   19.74000     -7.0906574E-09
   19.80000     -9.3329628E-09
   19.86000     -1.1575066E-08
   19.92000     -1.3819387E-08
   19.98000     -1.6067215E-08
   20.04000     -1.8319321E-08
   20.10000     -2.0576456E-08
   20.16000     -2.2839252E-08
   20.22000     -2.5107315E-08
   20.28000     -2.7377716E-08
   20.34000     -2.9643447E-08
   20.40000     -3.1892501E-08
   20.46000     -3.4107998E-08
   20.52000     -3.6269512E-08
   20.58000     -3.8355225E-08
   20.64000     -4.0344322E-08
   20.70000     -4.2219103E-08
   20.76000     -4.3966395E-08
   20.82000     -4.5578158E-08
   20.88000     -4.7051429E-08
   20.94000     -4.8387854E-08
   21.00000     -4.9592852E-08
   21.06000     -5.0674597E-08
   21.12000     -5.1642665E-08
   21.18000     -5.2506561E-08
   21.24000     -5.3274309E-08
   21.30000     -5.3951535E-08
   21.36000     -5.4541388E-08
   21.42000     -5.5045469E-08
   21.48000     -5.5465470E-08
   21.54000     -5.5805074E-08
   21.60000     -5.6071094E-08
   21.66000     -5.6273407E-08
   21.72000     -5.6423282E-08
   21.78000     -5.6530457E-08
   21.84000     -5.6599838E-08
   21.90000     -5.6628814E-08
   21.96000     -5.6606396E-08
   22.02000     -5.6514562E-08
   22.08000     -5.6331771E-08
   22.14000     -5.6037781E-08
   22.20000     -5.5618475E-08
   22.26000     -5.5069343E-08
   22.32000     -5.4396711E-08
   22.38000     -5.3616446E-08
   22.44000     -5.2750874E-08
   22.50000     -5.1825033E-08
   22.56000     -5.0863797E-08
   22.62000     -4.9890772E-08
   22.68000     -4.8929174E-08
   22.74000     -4.8003901E-08
   22.80000     -4.7143388E-08
   22.86000     -4.6379721E-08
   22.92000     -4.5746074E-08
   22.98000     -4.5271541E-08
   23.04000     -4.4974687E-08
   23.10000     -4.4857746E-08
   23.16000     -4.4903640E-08
   23.22000     -4.5077194E-08
   23.28000     -4.5330928E-08
   23.34000     -4.5614335E-08
   23.40000     -4.5884622E-08
   23.46000     -4.6116398E-08
   23.52000     -4.6307989E-08
   23.58000     -4.6482878E-08
   23.64000     -4.6685816E-08
   23.70000     -4.6974378E-08
   23.76000     -4.7407710E-08
   23.82000     -4.8034742E-08
   23.88000     -4.8884374E-08
   23.94000     -4.9959528E-08
   24.00000     -5.1236260E-08
   24.06000     -5.2667858E-08
   24.12000     -5.4192789E-08
   24.18000     -5.5744490E-08
   24.24000     -5.7260774E-08
   24.30000     -5.8690922E-08
   24.36000     -5.9999344E-08
   24.42000     -6.1165835E-08
   24.48000     -6.2183219E-08
   24.54000     -6.3053768E-08
   24.60000     -6.3785841E-08
   24.66000     -6.4391479E-08
   24.72000     -6.4885349E-08
   24.78000     -6.5284546E-08
   24.84000     -6.5608425E-08
   24.90000     -6.5877899E-08
   24.96000     -6.6113451E-08
   25.02000     -6.6332085E-08
   25.08000     -6.6543585E-08
   25.14000     -6.6746885E-08
   25.20000     -6.6927548E-08
   25.26000     -6.7057229E-08
   25.32000     -6.7095492E-08
   25.38000     -6.6994090E-08
   25.44000     -6.6703073E-08
   25.50000     -6.6177556E-08
   25.56000     -6.5383880E-08
   25.62000     -6.4303862E-08
   25.68000     -6.2936351E-08
   25.74000     -6.1295850E-08
   25.80000     -5.9408787E-08
   25.86000     -5.7308529E-08
   25.92000     -5.5030430E-08
   25.98000     -5.2607898E-08
   26.04000     -5.0070209E-08
   26.10000     -4.7441933E-08
   26.16000     -4.4743594E-08
   26.22000     -4.1992788E-08
   26.28000     -3.9205066E-08
   26.34000     -3.6394070E-08
   26.40000     -3.3570885E-08
   26.46000     -3.0742775E-08
   26.52000     -2.7911854E-08
   26.58000     -2.5074163E-08
   26.64000     -2.2219867E-08
   26.70000     -1.9334840E-08
   26.76000     -1.6403780E-08
   26.82000     -1.3414482E-08
   26.88000     -1.0362600E-08
   26.94000     -7.2558448E-09
   27.00000     -4.1165658E-09
   27.06000     -9.8182462E-10
   27.12000      2.0994066E-09
   27.18000      5.0716760E-09
   27.24000      7.8802129E-09
   27.30000      1.0478505E-08
   27.36000      1.2834819E-08
   27.42000      1.4936406E-08
   27.48000      1.6790597E-08
   27.54000      1.8422574E-08
   27.60000      1.9870248E-08
   27.66000      2.1177252E-08
   27.72000      2.2385372E-08
   27.78000      2.3527940E-08
   27.84000      2.4625530E-08
   27.90000      2.5684789E-08
   27.96000      2.6700530E-08
   28.02000      2.7660308E-08
   28.08000      2.8550042E-08
   28.14000      2.9358858E-08
   28.20000      3.0081683E-08
   28.26000      3.0718841E-08
   28.32000      3.1273061E-08
   28.38000      3.1745188E-08
   28.44000      3.2130544E-08
   28.50000      3.2417457E-08
   28.56000      3.2588847E-08
   28.62000      3.2626428E-08
   28.68000      3.2516223E-08
   28.74000      3.2253443E-08
   28.80000      3.1845175E-08
   28.86000      3.1309980E-08
   28.92000      3.0674489E-08
   28.98000      2.9968071E-08
   29.04000      2.9216990E-08
   29.10000      2.8439437E-08
   29.16000      2.7642463E-08
   29.22000      2.6821237E-08
   29.28000      2.5960588E-08
   29.34000      2.5038400E-08
   29.40000      2.4030177E-08
   29.46000      2.2914053E-08
   29.52000      2.1675314E-08
   29.58000      2.0309677E-08
   29.64000      1.8824620E-08
   29.70000      1.7238550E-08
   29.76000      1.5578003E-08
   29.82000      1.3873541E-08
   29.88000      1.2155311E-08
   29.94000      1.0449100E-08
   30.00000      8.7735437E-09
   30.06000      7.1386501E-09
   30.12000      5.5455525E-09
   30.18000      3.9872194E-09
   30.24000      2.4499669E-09
   30.30000      9.1572744E-10
   30.36000     -6.3494776E-10
   30.42000     -2.2193134E-09
   30.48000     -3.8487626E-09
   30.54000     -5.5258136E-09
   30.60000     -7.2425737E-09
   30.66000     -8.9812708E-09
   30.72000     -1.0716952E-08
   30.78000     -1.2421874E-08
   30.84000     -1.4070686E-08
   30.90000     -1.5645295E-08
   30.96000     -1.7138458E-08
   31.02000     -1.8555372E-08
   31.08000     -1.9912941E-08
   31.14000     -2.1236707E-08
   31.20000     -2.2555842E-08
   31.26000     -2.3896876E-08
   31.32000     -2.5277327E-08
   31.38000     -2.6700551E-08
   31.44000     -2.8153160E-08
   31.50000     -2.9605912E-08
   31.56000     -3.1018068E-08
   31.62000     -3.2344282E-08
   31.68000     -3.3542236E-08
   31.74000     -3.4578928E-08
   31.80000     -3.5434095E-08
   31.86000     -3.6100086E-08
   31.92000     -3.6578900E-08
   31.98000     -3.6877843E-08
   32.04000     -3.7005737E-08
   32.10000     -3.6970945E-08
   32.16000     -3.6781785E-08
   32.22000     -3.6448636E-08
   32.28000     -3.5986606E-08
   32.34000     -3.5417138E-08
   32.40000     -3.4767762E-08
   32.46000     -3.4069600E-08
   32.52000     -3.3353295E-08
   32.58000     -3.2644472E-08
   32.64000     -3.1960020E-08
   32.70000     -3.1306342E-08
   32.76000     -3.0680003E-08
   32.82000     -3.0070623E-08
   32.88000     -2.9465317E-08
   32.94000     -2.8853385E-08
   33.00000     -2.8230124E-08
   33.06000     -2.7598812E-08
   33.12000     -2.6970509E-08
   33.18000     -2.6361912E-08
   33.24000     -2.5792049E-08
   33.30000     -2.5278707E-08
   33.36000     -2.4835416E-08
   33.42000     -2.4469385E-08
   33.48000     -2.4180483E-08
   33.54000     -2.3961011E-08
   33.60000     -2.3796176E-08
   33.66000     -2.3665244E-08
   33.72000     -2.3543523E-08
   33.78000     -2.3405343E-08
   33.84000     -2.3227848E-08
   33.90000     -2.2995009E-08
   33.96000     -2.2700972E-08
   34.02000     -2.2351763E-08
   34.08000     -2.1964841E-08
   34.14000     -2.1566500E-08
   34.20000     -2.1187873E-08
   34.26000     -2.0860623E-08
   34.32000     -2.0613330E-08
   34.38000     -2.0469193E-08
   34.44000     -2.0445095E-08
   34.50000     -2.0551660E-08
   34.56000     -2.0793799E-08
   34.62000     -2.1171457E-08
   34.68000     -2.1680599E-08
   34.74000     -2.2314563E-08
   34.80000     -2.3065938E-08
   34.86000     -2.3928674E-08
   34.92000     -2.4899792E-08
   34.98000     -2.5979917E-08
   35.04000     -2.7172048E-08
   35.10000     -2.8478595E-08
   35.16000     -2.9897492E-08
   35.22000     -3.1418619E-08
   35.28000     -3.3021966E-08
   35.34000     -3.4678340E-08
   35.40000     -3.6352642E-08
   35.46000     -3.8008729E-08
   35.52000     -3.9614353E-08
   35.58000     -4.1144617E-08
   35.64000     -4.2582929E-08
   35.70000     -4.3919368E-08
   35.76000     -4.5147264E-08
   35.82000     -4.6259427E-08
   35.88000     -4.7245532E-08
   35.94000     -4.8091636E-08
   36.00000     -4.8782095E-08
   36.06000     -4.9303207E-08
   36.12000     -4.9647166E-08
   36.18000     -4.9814833E-08
   36.24000     -4.9816101E-08
   36.30000     -4.9667438E-08
   36.36000     -4.9387218E-08
   36.42000     -4.8990366E-08
   36.48000     -4.8484257E-08
   36.54000     -4.7867488E-08
   36.60000     -4.7132314E-08
   36.66000     -4.6270156E-08
   36.72000     -4.5278462E-08
   36.78000     -4.4166544E-08
   36.84000     -4.2958206E-08
   36.90000     -4.1690072E-08
   36.96000     -4.0405954E-08
   37.02000     -3.9148965E-08
   37.08000     -3.7953832E-08
   37.14000     -3.6841595E-08
   37.20000     -3.5817997E-08
   37.26000     -3.4875530E-08
   37.32000     -3.3997971E-08
   37.38000     -3.3165666E-08
   37.44000     -3.2360138E-08
   37.50000     -3.1567147E-08
   37.56000     -3.0778139E-08
   37.62000     -2.9990549E-08
   37.68000     -2.9207449E-08
   37.74000     -2.8436745E-08
   37.80000     -2.7689822E-08
   37.86000     -2.6979464E-08
   37.92000     -2.6317108E-08
   37.98000     -2.5710154E-08
   38.04000     -2.5160276E-08
   38.10000     -2.4663825E-08
   38.16000     -2.4214602E-08
   38.22000     -2.3808374E-08
   38.28000     -2.3447393E-08
   38.34000     -2.3142782E-08
   38.40000     -2.2913214E-08
   38.46000     -2.2779604E-08
   38.52000     -2.2757352E-08
   38.58000     -2.2848983E-08
   38.64000     -2.3040275E-08
   38.70000     -2.3301967E-08
   38.76000     -2.3596959E-08
   38.82000     -2.3890880E-08
   38.88000     -2.4162228E-08
   38.94000     -2.4408584E-08
   39.00000     -2.4646699E-08
   39.06000     -2.4906738E-08
   39.12000     -2.5223102E-08
   39.18000     -2.5625253E-08
   39.24000     -2.6131545E-08
   39.30000     -2.6747294E-08
   39.36000     -2.7466417E-08
   39.42000     -2.8274513E-08
   39.48000     -2.9151236E-08
   39.54000     -3.0070879E-08
   39.60000     -3.1001697E-08
   39.66000     -3.1905714E-08
   39.72000     -3.2740804E-08
   39.78000     -3.3465874E-08
   39.84000     -3.4048142E-08
   39.90000     -3.4470244E-08
   39.96000     -3.4734285E-08
   40.02000     -3.4861095E-08
   40.08000     -3.4884458E-08
   40.14000     -3.4842170E-08
   40.20000     -3.4766760E-08
   40.26000     -3.4678756E-08
   40.32000     -3.4584119E-08
   40.38000     -3.4475946E-08
   40.44000     -3.4338917E-08
   40.50000     -3.4154546E-08
   40.56000     -3.3905422E-08
   40.62000     -3.3577589E-08
   40.68000     -3.3161175E-08
   40.74000     -3.2650085E-08
   40.80000     -3.2041580E-08
   40.86000     -3.1336313E-08
   40.92000     -3.0538892E-08
   40.98000     -2.9658624E-08
   41.04000     -2.8710096E-08
   41.10000     -2.7713311E-08
   41.16000     -2.6693206E-08
   41.22000     -2.5678586E-08
   41.28000     -2.4700331E-08
   41.34000     -2.3788861E-08
   41.40000     -2.2970902E-08
   41.46000     -2.2265899E-08
   41.52000     -2.1682723E-08
   41.58000     -2.1217591E-08
   41.64000     -2.0853912E-08
   41.70000     -2.0564409E-08
   41.76000     -2.0315181E-08
   41.82000     -2.0070852E-08
   41.88000     -1.9799661E-08
   41.94000     -1.9477497E-08
   42.00000     -1.9090344E-08
   42.06000     -1.8635140E-08
   42.12000     -1.8119453E-08
   42.18000     -1.7560494E-08
   42.24000     -1.6983858E-08
   42.30000     -1.6422177E-08
   42.36000     -1.5913576E-08
   42.42000     -1.5499920E-08
   42.48000     -1.5224835E-08
   42.54000     -1.5131677E-08
   42.60000     -1.5261699E-08
   42.66000     -1.5652695E-08
   42.72000     -1.6338308E-08
   42.78000     -1.7348183E-08
   42.84000     -1.8709128E-08
   42.90000     -2.0447523E-08
   42.96000     -2.2593126E-08
   43.02000     -2.5184310E-08
   43.08000     -2.8274332E-08
   43.14000     -3.1937891E-08
   43.20000     -3.6276905E-08
   43.26000     -4.1424567E-08
   43.32000     -4.7547047E-08
   43.38000     -5.4843056E-08
   43.44000     -6.3542153E-08
   43.50000     -7.3903053E-08
   43.56000     -8.6213262E-08
   43.62000     -1.0079079E-07
   43.68000     -1.1798814E-07
   43.74000     -1.3819800E-07
   43.80000     -1.6186027E-07
   43.86000     -1.8946970E-07
   43.92000     -2.2158484E-07
   43.98000     -2.5883841E-07
   44.04000     -3.0195031E-07
   44.10000     -3.5174310E-07
   44.16000     -4.0915967E-07
   44.22000     -4.7528181E-07
   44.28000     -5.5134774E-07
   44.34000     -6.3876740E-07
   44.40000     -7.3913543E-07
   44.46000     -8.5424176E-07
   44.52000     -9.8608268E-07
   44.58000     -1.1368724E-06
   44.64000     -1.3090590E-06
   44.70000     -1.5053436E-06
   44.76000     -1.7286998E-06
   44.82000     -1.9823976E-06
   44.88000     -2.2700267E-06
   44.94000     -2.5955151E-06
   45.00000     -2.9631526E-06
   45.06000     -3.3776103E-06
   45.12000     -3.8439598E-06
   45.18000     -4.3676951E-06
   45.24000     -4.9547484E-06
   45.30000     -5.6115059E-06
   45.36000     -6.3448206E-06
   45.42000     -7.1620161E-06
   45.48000     -8.0708869E-06
   45.54000     -9.0796957E-06
   45.60000     -1.0197165E-05
   45.66000     -1.1432468E-05
   45.72000     -1.2795214E-05
   45.78000     -1.4295435E-05
   45.84000     -1.5943560E-05
   45.90000     -1.7750397E-05
   45.96000     -1.9727098E-05
   46.02000     -2.1885115E-05
   46.08000     -2.4236149E-05
   46.14000     -2.6792090E-05
   46.20000     -2.9564955E-05
   46.26000     -3.2566793E-05
   46.32000     -3.5809619E-05
   46.38000     -3.9305291E-05
   46.44000     -4.3065429E-05
   46.50000     -4.7101297E-05
   46.56000     -5.1423689E-05
   46.62000     -5.6042813E-05
   46.68000     -6.0968192E-05
   46.74000     -6.6208544E-05
   46.80000     -7.1771647E-05
   46.86000     -7.7664241E-05
   46.92000     -8.3891893E-05
   46.98000     -9.0458867E-05
   47.04000     -9.7368022E-05
   47.10000     -1.0462066E-04
   47.16000     -1.1221645E-04
   47.22000     -1.2015329E-04
   47.28000     -1.2842727E-04
   47.34000     -1.3703253E-04
   47.40000     -1.4596125E-04
   47.46000     -1.5520358E-04
   47.52000     -1.6474759E-04
   47.58000     -1.7457928E-04
   47.64000     -1.8468261E-04
   47.70000     -1.9503949E-04
   47.76000     -2.0562988E-04
   47.82000     -2.1643183E-04
   47.88000     -2.2742165E-04
   47.94000     -2.3857392E-04
   48.00000     -2.4986171E-04
   48.06000     -2.6125685E-04
   48.12000     -2.7272993E-04
   48.18000     -2.8425062E-04
   48.24000     -2.9578808E-04
   48.30000     -3.0731090E-04
   48.36000     -3.1878744E-04
   48.42000     -3.3018625E-04
   48.48000     -3.4147609E-04
   48.54000     -3.5262649E-04
   48.60000     -3.6360769E-04
   48.66000     -3.7439130E-04
   48.72000     -3.8495040E-04
   48.78000     -3.9525979E-04
   48.84000     -4.0529636E-04
   48.90000     -4.1503934E-04
   48.96000     -4.2447035E-04
   49.02000     -4.3357376E-04
   49.08000     -4.4233687E-04
   49.14000     -4.5074988E-04
   49.20000     -4.5880614E-04
   49.26000     -4.6650221E-04
   49.32000     -4.7383780E-04
   49.38000     -4.8081594E-04
   49.44000     -4.8744271E-04
   49.50000     -4.9372728E-04
   49.56000     -4.9968180E-04
   49.62000     -5.0532148E-04
   49.68000     -5.1066384E-04
   49.74000     -5.1572890E-04
   49.80000     -5.2053871E-04
   49.86000     -5.2511704E-04
   49.92000     -5.2948913E-04
   49.98000     -5.3368119E-04
   50.04000     -5.3772039E-04
   50.10000     -5.4163410E-04
   50.16000     -5.4545002E-04
   50.22000     -5.4919528E-04
   50.28000     -5.5289618E-04
   50.34000     -5.5657804E-04
   50.40000     -5.6026451E-04
   50.46000     -5.6397734E-04
   50.52000     -5.6773634E-04
   50.58000     -5.7155854E-04
   50.64000     -5.7545857E-04
   50.70000     -5.7944801E-04
   50.76000     -5.8353529E-04
   50.82000     -5.8772578E-04
   50.88000     -5.9202110E-04
   50.94000     -5.9641985E-04
   51.00000     -6.0091703E-04
   51.06000     -6.0550455E-04
   51.12000     -6.1017135E-04
   51.18000     -6.1490311E-04
   51.24000     -6.1968301E-04
   51.30000     -6.2449166E-04
   51.36000     -6.2930735E-04
   51.42000     -6.3410611E-04
   51.48000     -6.3886272E-04
   51.54000     -6.4355048E-04
   51.60000     -6.4814196E-04
   51.66000     -6.5260939E-04
   51.72000     -6.5692520E-04
   51.78000     -6.6106202E-04
   51.84000     -6.6499348E-04
   51.90000     -6.6869432E-04
   51.96000     -6.7214068E-04
   52.02000     -6.7531085E-04
   52.08000     -6.7818520E-04
   52.14000     -6.8074674E-04
   52.20000     -6.8298134E-04
   52.26000     -6.8487774E-04
   52.32000     -6.8642781E-04
   52.38000     -6.8762683E-04
   52.44000     -6.8847323E-04
   52.50000     -6.8896863E-04
   52.56000     -6.8911817E-04
   52.62000     -6.8892998E-04
   52.68000     -6.8841514E-04
   52.74000     -6.8758748E-04
   52.80000     -6.8646361E-04
   52.86000     -6.8506203E-04
   52.92000     -6.8340346E-04
   52.98000     -6.8151020E-04
   53.04000     -6.7940593E-04
   53.10000     -6.7711493E-04
   53.16000     -6.7466212E-04
   53.22000     -6.7207240E-04
   53.28000     -6.6937029E-04
   53.34000     -6.6657958E-04
   53.40000     -6.6372316E-04
   53.46000     -6.6082249E-04
   53.52000     -6.5789704E-04
   53.58000     -6.5496436E-04
   53.64000     -6.5203937E-04
   53.70000     -6.4913445E-04
   53.76000     -6.4625923E-04
   53.82000     -6.4342032E-04
   53.88000     -6.4062147E-04
   53.94000     -6.3786359E-04
   54.00000     -6.3514442E-04
   54.06000     -6.3245895E-04
   54.12000     -6.2979909E-04
   54.18000     -6.2715431E-04
   54.24000     -6.2451151E-04
   54.30000     -6.2185520E-04
   54.36000     -6.1916828E-04
   54.42000     -6.1643199E-04
   54.48000     -6.1362615E-04
   54.54000     -6.1073009E-04
   54.60000     -6.0772203E-04
   54.66000     -6.0458056E-04
   54.72000     -6.0128426E-04
   54.78000     -5.9781224E-04
   54.84000     -5.9414486E-04
   54.90000     -5.9026357E-04
   54.96000     -5.8615155E-04
   55.02000     -5.8179389E-04
   55.08000     -5.7717774E-04
   55.14000     -5.7229283E-04
   55.20000     -5.6713144E-04
   55.26000     -5.6168891E-04
   55.32000     -5.5596349E-04
   55.38000     -5.4995640E-04
   55.44000     -5.4367195E-04
   55.50000     -5.3711742E-04
   55.56000     -5.3030282E-04