  -2.400000      0.0000000E+00
  -2.340000      0.0000000E+00
  -2.280000      0.0000000E+00
  -2.220000      0.0000000E+00
  -2.160000      0.0000000E+00
  -2.100000      0.0000000E+00
  -2.040000      1.8180180E-21
  -1.980000      9.5500619E-21
  -1.920000      5.9666896E-21
  -1.860000     -1.1418004E-19
  -1.800000     -5.7315283E-19
  -1.740000     -1.4589595E-18
  -1.680000     -2.0093692E-18
  -1.620000      1.2956024E-19
  -1.560000      8.2421608E-18
  -1.500000      2.2910115E-17
  -1.440000      3.6101120E-17
  -1.380000      2.8163362E-17
  -1.320000     -2.4102877E-17
  -1.260000     -1.2458020E-16
  -1.200000     -2.3071444E-16
  -1.140000     -2.4889423E-16
  -1.080000     -7.9568164E-17
  -1.020000      2.9071455E-16
 -0.9600000      7.0595755E-16
 -0.9000000      8.5783061E-16
 -0.8400000      4.6311029E-16
 -0.7800000     -4.5551526E-16
 -0.7200000     -1.3849766E-15
 -0.6600000     -1.4774717E-15
 -0.6000000     -1.2814895E-16
 -0.5400000      2.2860659E-15
 -0.4800000      4.0807307E-15
 -0.4200000      2.9061336E-15
 -0.3600000     -2.6090167E-15
 -0.3000000     -1.1018449E-14
 -0.2400000     -1.7436434E-14
 -0.1800000     -1.5300126E-14
 -0.1200000     -3.8377559E-16
 -5.9999999E-02  2.4860224E-14
  0.0000000E+00  4.9661227E-14
  5.9999999E-02  5.8317514E-14
  0.1200000      3.8271639E-14
  0.1800000     -1.0845473E-14
  0.2400000     -7.2828686E-14
  0.3000000     -1.1942503E-13
  0.3600000     -1.2336951E-13
  0.4200000     -7.3894294E-14
  0.4800000      1.4343864E-14
  0.5400000      1.0570745E-13
  0.6000000      1.6095851E-13
  0.6600000      1.5874231E-13
  0.7200000      1.0815545E-13
  0.7800000      4.3054055E-14
  0.8400000     -6.4001926E-16
  0.9000000     -1.1628228E-14
  0.9600000     -1.5701850E-14
   1.020000     -6.1877085E-14
   1.080000     -1.8568996E-13
   1.140000     -3.6977897E-13
   1.200000     -5.2881218E-13
   1.260000     -5.3658212E-13
   1.320000     -2.9037523E-13
   1.380000      2.1682081E-13
   1.440000      8.5731747E-13
   1.500000      1.3934034E-12
   1.560000      1.5660497E-12
   1.620000      1.2128601E-12
   1.680000      3.5959574E-13
   1.740000     -7.6374047E-13
   1.800000     -1.7979379E-12
   1.860000     -2.3921557E-12
   1.920000     -2.3431079E-12
   1.980000     -1.6721087E-12
   2.040000     -6.0544549E-13
   2.100000      5.2974563E-13
   2.160000      1.4417130E-12
   2.220000      1.9769928E-12
   2.280000      2.1447703E-12
   2.340000      2.0596482E-12
   2.400000      1.8413630E-12
   2.460000      1.5297062E-12
   2.520000      1.0617393E-12
   2.580000      3.2356862E-13
   2.640000     -7.5078084E-13
   2.700000     -2.0856324E-12
   2.760000     -3.4259841E-12
   2.820000     -4.3818482E-12
   2.880000     -4.5444724E-12
   2.940000     -3.6336448E-12
   3.000000     -1.6220137E-12
   3.060000      1.2096438E-12
   3.120000      4.3077313E-12
   3.180000      6.9619388E-12
   3.240000      8.4656414E-12
   3.300000      8.2708779E-12
   3.360000      6.0923623E-12
   3.420000      1.9353499E-12
   3.480000     -3.9500764E-12
   3.540000     -1.1159555E-11
   3.600000     -1.9228895E-11
   3.660000     -2.7695546E-11
   3.720000     -3.6109702E-11
   3.780000     -4.4002690E-11
   3.840000     -5.0840776E-11
   3.900000     -5.6001152E-11
   3.960000     -5.8798015E-11
   4.020000     -5.8568733E-11
   4.080000     -5.4805088E-11
   4.140000     -4.7296590E-11
   4.200000     -3.6244320E-11
   4.260000     -2.2313387E-11
   4.320000     -6.6115086E-12
   4.380000      9.3944939E-12
   4.440000      2.4000735E-11
   4.500000      3.5408450E-11
   4.560000      4.1890685E-11
   4.620000      4.2003980E-11
   4.680000      3.4858144E-11
   4.740000      2.0409383E-11
   4.800000     -3.2028633E-13
   4.860000     -2.5236833E-11
   4.920000     -5.1491356E-11
   4.980000     -7.6120707E-11
   5.040000     -9.6856134E-11
   5.100000     -1.1282293E-10
   5.160000     -1.2484420E-10
   5.220000     -1.3519628E-10
   5.280000     -1.4688516E-10
   5.340000     -1.6272109E-10
   5.400000     -1.8455049E-10
   5.460000     -2.1292232E-10
   5.520000     -2.4724903E-10
   5.580000     -2.8629701E-10
   5.640000     -3.2871891E-10
   5.700000     -3.7336412E-10
   5.760000     -4.1926410E-10
   5.820000     -4.6538409E-10
   5.880000     -5.1035765E-10
   5.940000     -5.5242733E-10
   6.000000     -5.8971306E-10
   6.060000     -6.2076871E-10
   6.120000     -6.4524985E-10
   6.180000     -6.6444744E-10
   6.240000     -6.8146250E-10
   6.300000     -7.0089606E-10
   6.360000     -7.2806849E-10
   6.420000     -7.6793166E-10
   6.480000     -8.2394125E-10
   6.540000     -8.9718599E-10
   6.600000     -9.8599828E-10
   6.660000     -1.0861246E-09
   6.720000     -1.1913652E-09
   6.780000     -1.2944569E-09
   6.840000     -1.3879565E-09
   6.900000     -1.4649639E-09
   6.960000     -1.5196595E-09
   7.020000     -1.5477513E-09
   7.080000     -1.5469316E-09
   7.140000     -1.5173495E-09
   7.200000     -1.4619443E-09
   7.260000     -1.3864058E-09
   7.320000     -1.2985624E-09
   7.380000     -1.2072084E-09
   7.440000     -1.1206298E-09
   7.500000     -1.0452966E-09
   7.560000     -9.8519626E-10
   7.620000     -9.4209596E-10
   7.680000     -9.1669422E-10
   7.740000     -9.1029012E-10
   7.800000     -9.2641744E-10
   7.860000     -9.7190511E-10
   7.920000     -1.0570311E-09
   7.980000     -1.1947630E-09
   8.040000     -1.3993775E-09
   8.100000     -1.6849465E-09
   8.160000     -2.0641626E-09
   8.220000     -2.5477744E-09
   8.280000     -3.1445724E-09
   8.340000     -3.8615733E-09
   8.400000     -4.7038973E-09
   8.460000     -5.6739857E-09
   8.520000     -6.7701418E-09
   8.580000     -7.9847906E-09
   8.640000     -9.3030943E-09
   8.700000     -1.0702486E-08
   8.760000     -1.2153329E-08
   8.820000     -1.3620483E-08
   8.880000     -1.5065261E-08
   8.940000     -1.6447283E-08
   9.000000     -1.7725977E-08
   9.060000     -1.8861797E-08
   9.120000     -1.9817422E-08
   9.180000     -2.0559114E-08
   9.240000     -2.1058264E-08
   9.300000     -2.1292912E-08
   9.360000     -2.1248967E-08
   9.420000     -2.0920961E-08
   9.480000     -2.0312248E-08
   9.540000     -1.9434728E-08
   9.600000     -1.8308164E-08
   9.660000     -1.6959236E-08
   9.720000     -1.5420428E-08
   9.780000     -1.3728895E-08
   9.840000     -1.1925388E-08
   9.900000     -1.0053186E-08
   9.960000     -8.1569276E-09
   10.02000     -6.2811152E-09
   10.08000     -4.4682325E-09
   10.14000     -2.7566662E-09
   10.20000     -1.1788317E-09
   10.26000      2.4002553E-10
   10.32000      1.4821068E-09
   10.38000      2.5365527E-09
   10.44000      3.3986116E-09
   10.50000      4.0690438E-09
   10.56000      4.5541197E-09
   10.62000      4.8661755E-09
   10.68000      5.0243383E-09
   10.74000      5.0548765E-09
   10.80000      4.9907181E-09
   10.86000      4.8699209E-09
   10.92000      4.7331810E-09
   10.98000      4.6206816E-09
   11.04000      4.5687294E-09
   11.10000      4.6067052E-09
   11.16000      4.7548463E-09
   11.22000      5.0232405E-09
   11.28000      5.4121592E-09
   11.34000      5.9135297E-09
   11.40000      6.5130523E-09
   11.46000      7.1923942E-09
   11.52000      7.9310274E-09
   11.58000      8.7075795E-09
   11.64000      9.5008517E-09
   11.70000      1.0290761E-08
   11.76000      1.1059327E-08
   11.82000      1.1791669E-08
   11.88000      1.2476811E-08
   11.94000      1.3108133E-08
   12.00000      1.3683461E-08
   12.06000      1.4204901E-08
   12.12000      1.4678486E-08
   12.18000      1.5113581E-08
   12.24000      1.5521833E-08
   12.30000      1.5915546E-08
   12.36000      1.6305631E-08
   12.42000      1.6699582E-08
   12.48000      1.7100104E-08
   12.54000      1.7504764E-08
   12.60000      1.7906672E-08
   12.66000      1.8295836E-08
   12.72000      1.8660634E-08
   12.78000      1.8989201E-08
   12.84000      1.9270644E-08
   12.90000      1.9496241E-08
   12.96000      1.9660497E-08
   13.02000      1.9761591E-08
   13.08000      1.9800778E-08
   13.14000      1.9780479E-08
   13.20000      1.9701679E-08
   13.26000      1.9561625E-08
   13.32000      1.9353003E-08
   13.38000      1.9064981E-08
   13.44000      1.8685649E-08
   13.50000      1.8204609E-08
   13.56000      1.7614553E-08
   13.62000      1.6911420E-08
   13.68000      1.6093665E-08
   13.74000      1.5161744E-08
   13.80000      1.4118565E-08
   13.86000      1.2970919E-08
   13.92000      1.1730996E-08
   13.98000      1.0416892E-08
   14.04000      9.0514707E-09
   14.10000      7.6598043E-09
   14.16000      6.2661205E-09
   14.22000      4.8912168E-09
   14.28000      3.5508507E-09
   14.34000      2.2549709E-09
   14.40000      1.0073170E-09
   14.46000     -1.9490728E-10
   14.52000     -1.3612064E-09
   14.58000     -2.5074296E-09
   14.64000     -3.6546119E-09
   14.70000     -4.8271493E-09
   14.76000     -6.0507608E-09
   14.82000     -7.3506299E-09
   14.88000     -8.7496996E-09
   14.94000     -1.0266652E-08
   15.00000     -1.1913103E-08
   15.06000     -1.3690161E-08
   15.12000     -1.5585366E-08
   15.18000     -1.7571530E-08
   15.24000     -1.9608665E-08
   15.30000     -2.1648908E-08
   15.36000     -2.3643022E-08
   15.42000     -2.5546173E-08
   15.48000     -2.7321272E-08
   15.54000     -2.8939573E-08
   15.60000     -3.0379791E-08
   15.66000     -3.1627689E-08
   15.72000     -3.2677409E-08
   15.78000     -3.3534238E-08
   15.84000     -3.4217194E-08
   15.90000     -3.4759307E-08
   15.96000     -3.5204636E-08
   16.02000     -3.5602390E-08
   16.08000     -3.6000070E-08
   16.14000     -3.6437346E-08
   16.20000     -3.6942030E-08
   16.26000     -3.7528121E-08
   16.32000     -3.8195612E-08
   16.38000     -3.8931688E-08
   16.44000     -3.9713566E-08
   16.50000     -4.0513033E-08
   16.56000     -4.1302318E-08
   16.62000     -4.2059934E-08
   16.68000     -4.2774545E-08
   16.74000     -4.3445521E-08
   16.80000     -4.4079997E-08
   16.86000     -4.4687717E-08
   16.92000     -4.5275698E-08
   16.98000     -4.5844324E-08
   17.04000     -4.6385612E-08
   17.10000     -4.6883297E-08
   17.16000     -4.7313932E-08
   17.22000     -4.7648559E-08
   17.28000     -4.7854805E-08
   17.34000     -4.7899718E-08
   17.40000     -4.7753364E-08
   17.46000     -4.7392955E-08
   17.52000     -4.6806957E-08
   17.58000     -4.5998473E-08
   17.64000     -4.4987292E-08
   17.70000     -4.3809891E-08
   17.76000     -4.2516859E-08
   17.82000     -4.1167581E-08
   17.88000     -3.9822631E-08
   17.94000     -3.8535408E-08
   18.00000     -3.7345050E-08
   18.06000     -3.6272354E-08
   18.12000     -3.5319388E-08
   18.18000     -3.4472091E-08
   18.24000     -3.3704207E-08
   18.30000     -3.2981273E-08
   18.36000     -3.2264186E-08
   18.42000     -3.1513100E-08
   18.48000     -3.0692430E-08
   18.54000     -2.9776947E-08
   18.60000     -2.8757634E-08
   18.66000     -2.7645122E-08
   18.72000     -2.6468939E-08
   18.78000     -2.5272303E-08
   18.84000     -2.4103912E-08
   18.90000     -2.3009134E-08
   18.96000     -2.2022817E-08
   19.02000     -2.1164848E-08
   19.08000     -2.0438515E-08
   19.14000     -1.9831111E-08
   19.20000     -1.9316353E-08
   19.26000     -1.8858444E-08
   19.32000     -1.8417486E-08
   19.38000     -1.7955504E-08
   19.44000     -1.7441655E-08
   19.50000     -1.6855299E-08
   19.56000     -1.6186304E-08
   19.62000     -1.5433310E-08
   19.68000     -1.4601594E-08
   19.74000     -1.3702107E-08
   19.80000     -1.2752153E-08
   19.86000     -1.1776578E-08
   19.92000     -1.0807447E-08
   19.98000     -9.8805524E-09
   20.04000     -9.0287369E-09
   20.10000     -8.2740526E-09
   20.16000     -7.6218853E-09
   20.22000     -7.0598309E-09
   20.28000     -6.5621770E-09
   20.34000     -6.0984666E-09
   20.40000     -5.6428733E-09
   20.46000     -5.1809512E-09
   20.52000     -4.7116098E-09
   20.58000     -4.2441863E-09
   20.64000     -3.7922856E-09
   20.70000     -3.3668650E-09
   20.76000     -2.9708713E-09
   20.82000     -2.5969389E-09
   20.88000     -2.2287141E-09
   20.94000     -1.8455369E-09
   21.00000     -1.4294175E-09
   21.06000     -9.7245223E-10
   21.12000     -4.8225018E-10
   21.18000      1.7006351E-11
   21.24000      4.8912763E-10
   21.30000      8.9535013E-10
   21.36000      1.2056854E-09
   21.42000      1.4079995E-09
   21.48000      1.5112068E-09
   21.54000      1.5412696E-09
   21.60000      1.5317302E-09
   21.66000      1.5127750E-09
   21.72000      1.5031849E-09
   21.78000      1.5078575E-09
   21.84000      1.5208227E-09
   21.90000      1.5312774E-09
   21.96000      1.5292893E-09
   22.02000      1.5086847E-09
   22.08000      1.4665796E-09
   22.14000      1.4008587E-09
   22.20000      1.3077807E-09
   22.26000      1.1814958E-09
   22.32000      1.0160057E-09
   22.38000      8.0874557E-10
   22.44000      5.6413701E-10
   22.50000      2.9545136E-10
   22.56000      2.4017982E-11
   22.62000     -2.2414304E-10
   22.68000     -4.2323653E-10
   22.74000     -5.5260996E-10
   22.80000     -6.0020233E-10
   22.86000     -5.6366711E-10
   22.92000     -4.4919382E-10
   22.98000     -2.6884608E-10
   23.04000     -3.7590646E-11
   23.10000      2.2897674E-10
   23.16000      5.1579974E-10
   23.22000      8.0868329E-10
   23.28000      1.0944672E-09
   23.34000      1.3617484E-09
   23.40000      1.6024475E-09
   23.46000      1.8138927E-09
   23.52000      2.0005169E-09
   23.58000      2.1740101E-09
   23.64000      2.3510025E-09
   23.70000      2.5481541E-09
   23.76000      2.7757141E-09
   23.82000      3.0317275E-09
   23.88000      3.2995229E-09
   23.94000      3.5504044E-09
   24.00000      3.7516084E-09
   24.06000      3.8772101E-09
   24.12000      3.9179500E-09
   24.18000      3.8858308E-09
   24.24000      3.8111874E-09
   24.30000      3.7329504E-09
   24.36000      3.6856675E-09
   24.42000      3.6881200E-09
   24.48000      3.7375485E-09
   24.54000      3.8111310E-09
   24.60000      3.8735970E-09
   24.66000      3.8879744E-09
   24.72000      3.8259107E-09
   24.78000      3.6746475E-09
   24.84000      3.4389691E-09
   24.90000      3.1378178E-09
   24.96000      2.7966141E-09
   25.02000      2.4375715E-09
   25.08000      2.0711757E-09
   25.14000      1.6919868E-09
   25.20000      1.2806093E-09
   25.26000      8.1124107E-10
   25.32000      2.6163424E-10
   25.38000     -3.7902459E-10
   25.44000     -1.1079626E-09
   25.50000     -1.9132256E-09
   25.56000     -2.7820952E-09
   25.62000     -3.7088848E-09
   25.68000     -4.6978887E-09
   25.74000     -5.7599125E-09
   25.80000     -6.9042692E-09
   25.86000     -8.1304368E-09
   25.92000     -9.4236743E-09
   25.98000     -1.0756829E-08
   26.04000     -1.2097696E-08
   26.10000     -1.3418966E-08
   26.16000     -1.4707077E-08
   26.22000     -1.5967005E-08
   26.28000     -1.7221636E-08
   26.34000     -1.8505958E-08
   26.40000     -1.9857591E-08
   26.46000     -2.1305876E-08
   26.52000     -2.2862107E-08
   26.58000     -2.4513399E-08
   26.64000     -2.6222091E-08
   26.70000     -2.7931325E-08
   26.76000     -2.9575860E-08
   26.82000     -3.1095610E-08
   26.88000     -3.2448529E-08
   26.94000     -3.3619454E-08
   27.00000     -3.4622623E-08
   27.06000     -3.5497276E-08
   27.12000     -3.6297578E-08
   27.18000     -3.7079644E-08
   27.24000     -3.7889048E-08
   27.30000     -3.8752145E-08
   27.36000     -3.9673139E-08
   27.42000     -4.0637346E-08
   27.48000     -4.1618932E-08
   27.54000     -4.2590496E-08
   27.60000     -4.3531276E-08
   27.66000     -4.4431680E-08
   27.72000     -4.5292975E-08
   27.78000     -4.6122686E-08
   27.84000     -4.6927301E-08
   27.90000     -4.7704656E-08
   27.96000     -4.8438590E-08
   28.02000     -4.9097881E-08
   28.08000     -4.9640576E-08
   28.14000     -5.0023061E-08
   28.20000     -5.0211590E-08
   28.26000     -5.0192472E-08
   28.32000     -4.9977107E-08
   28.38000     -4.9599372E-08
   28.44000     -4.9105665E-08
   28.50000     -4.8540620E-08
   28.56000     -4.7933465E-08
   28.62000     -4.7289735E-08
   28.68000     -4.6591126E-08
   28.74000     -4.5803386E-08
   28.80000     -4.4889262E-08
   28.86000     -4.3822386E-08
   28.92000     -4.2597904E-08
   28.98000     -4.1237161E-08
   29.04000     -3.9785363E-08
   29.10000     -3.8302939E-08
   29.16000     -3.6852644E-08
   29.22000     -3.5485296E-08
   29.28000     -3.4227568E-08
   29.34000     -3.3075008E-08
   29.40000     -3.1992542E-08
   29.46000     -3.0922902E-08
   29.52000     -2.9801425E-08
   29.58000     -2.8573623E-08
   29.64000     -2.7211101E-08
   29.70000     -2.5721478E-08
   29.76000     -2.4149596E-08
   29.82000     -2.2569573E-08
   29.88000     -2.1069818E-08
   29.94000     -1.9735197E-08
   30.00000     -1.8631372E-08
   30.06000     -1.7795760E-08
   30.12000     -1.7237415E-08
   30.18000     -1.6945215E-08
   30.24000     -1.6900788E-08
   30.30000     -1.7091095E-08
   30.36000     -1.7515744E-08
   30.42000     -1.8186348E-08
   30.48000     -1.9118300E-08
   30.54000     -2.0318222E-08
   30.60000     -2.1771942E-08
   30.66000     -2.3437517E-08
   30.72000     -2.5246230E-08
   30.78000     -2.7112005E-08
   30.84000     -2.8947285E-08
   30.90000     -3.0681438E-08
   30.96000     -3.2276759E-08
   31.02000     -3.3737059E-08
   31.08000     -3.5105437E-08
   31.14000     -3.6450579E-08
   31.20000     -3.7844988E-08
   31.26000     -3.9341636E-08
   31.32000     -4.0956987E-08
   31.38000     -4.2666429E-08
   31.44000     -4.4413550E-08
   31.50000     -4.6129454E-08
   31.56000     -4.7754348E-08
   31.62000     -4.9253515E-08
   31.68000     -5.0622766E-08
   31.74000     -5.1883422E-08
   31.80000     -5.3070931E-08
   31.86000     -5.4222500E-08
   31.92000     -5.5367924E-08
   31.98000     -5.6524716E-08
   32.04000     -5.7696745E-08
   32.10000     -5.8874729E-08
   32.16000     -6.0037898E-08
   32.22000     -6.1157159E-08
   32.28000     -6.2200144E-08
   32.34000     -6.3137520E-08
   32.40000     -6.3948733E-08
   32.46000     -6.4624949E-08
   32.52000     -6.5167882E-08
   32.58000     -6.5585027E-08
   32.64000     -6.5883341E-08
   32.70000     -6.6063663E-08
   32.76000     -6.6117607E-08
   32.82000     -6.6027255E-08
   32.88000     -6.5767154E-08
   32.94000     -6.5308114E-08
   33.00000     -6.4622434E-08
   33.06000     -6.3690109E-08
   33.12000     -6.2505016E-08
   33.18000     -6.1079433E-08
   33.24000     -5.9444776E-08
   33.30000     -5.7647565E-08
   33.36000     -5.5741083E-08
   33.42000     -5.3774912E-08
   33.48000     -5.1785491E-08
   33.54000     -4.9790337E-08
   33.60000     -4.7787424E-08
   33.66000     -4.5759457E-08
   33.72000     -4.3681503E-08
   33.78000     -4.1529734E-08
   33.84000     -3.9288885E-08
   33.90000     -3.6956582E-08
   33.96000     -3.4543621E-08
   34.02000     -3.2070531E-08
   34.08000     -2.9562166E-08
   34.14000     -2.7042608E-08
   34.20000     -2.4532421E-08
   34.26000     -2.2048994E-08
   34.32000     -1.9609049E-08
   34.38000     -1.7231439E-08
   34.44000     -1.4938365E-08
   34.50000     -1.2754295E-08
   34.56000     -1.0703084E-08
   34.62000     -8.8045304E-09
   34.68000     -7.0713480E-09
   34.74000     -5.5069620E-09
   34.80000     -4.1041410E-09
   34.86000     -2.8448033E-09
   34.92000     -1.7019084E-09
   34.98000     -6.4441763E-10
   35.04000      3.5475659E-10
   35.10000      1.3097864E-09
   35.16000      2.2155275E-09
   35.22000      3.0472793E-09
   35.28000      3.7682124E-09
   35.34000      4.3425130E-09
   35.40000      4.7492135E-09
   35.46000      4.9907567E-09
   35.52000      5.0922031E-09
   35.58000      5.0909206E-09
   35.64000      5.0206599E-09
   35.70000      4.8962270E-09
   35.76000      4.7045585E-09
   35.82000      4.4052286E-09
   35.88000      3.9397685E-09
   35.94000      3.2461733E-09
   36.00000      2.2737239E-09
   36.06000      9.9378517E-10
   36.12000     -5.9596045E-10
   36.18000     -2.4742841E-09
   36.24000     -4.6047877E-09
   36.30000     -6.9472494E-09
   36.36000     -9.4687049E-09
   36.42000     -1.2151068E-08
   36.48000     -1.4992912E-08
   36.54000     -1.8004629E-08
   36.60000     -2.1198286E-08
   36.66000     -2.4575508E-08
   36.72000     -2.8117686E-08
   36.78000     -3.1782289E-08
   36.84000     -3.5506829E-08
   36.90000     -3.9219199E-08
   36.96000     -4.2850484E-08
   37.02000     -4.6345789E-08
   37.08000     -4.9669559E-08
   37.14000     -5.2804420E-08
   37.20000     -5.5745264E-08
   37.26000     -5.8491622E-08
   37.32000     -6.1041412E-08
   37.38000     -6.3387667E-08
   37.44000     -6.5518279E-08
   37.50000     -6.7417439E-08
   37.56000     -6.9067504E-08
   37.62000     -7.0450419E-08
   37.68000     -7.1548627E-08
   37.74000     -7.2345969E-08
   37.80000     -7.2828826E-08
   37.86000     -7.2987760E-08
   37.92000     -7.2819113E-08
   37.98000     -7.2326266E-08
   38.04000     -7.1520290E-08
   38.10000     -7.0419766E-08
   38.16000     -6.9049975E-08
   38.22000     -6.7441576E-08
   38.28000     -6.5628974E-08
   38.34000     -6.3648265E-08
   38.40000     -6.1534791E-08
   38.46000     -5.9320236E-08
   38.52000     -5.7029808E-08
   38.58000     -5.4680239E-08
   38.64000     -5.2279738E-08
   38.70000     -4.9830753E-08
   38.76000     -4.7335270E-08
   38.82000     -4.4801283E-08
   38.88000     -4.2247891E-08
   38.94000     -3.9706777E-08
   39.00000     -3.7219007E-08
   39.06000     -3.4828243E-08
   39.12000     -3.2573293E-08
   39.18000     -3.0483232E-08
   39.24000     -2.8577194E-08
   39.30000     -2.6868429E-08
   39.36000     -2.5370170E-08
   39.42000     -2.4100009E-08
   39.48000     -2.3080409E-08
   39.54000     -2.2335021E-08
   39.60000     -2.1882485E-08
   39.66000     -2.1730205E-08
   39.72000     -2.1870273E-08
   39.78000     -2.2278446E-08
   39.84000     -2.2915996E-08
   39.90000     -2.3733666E-08
   39.96000     -2.4676947E-08
   40.02000     -2.5692039E-08
   40.08000     -2.6731593E-08
   40.14000     -2.7759064E-08
   40.20000     -2.8750348E-08
   40.26000     -2.9691948E-08
   40.32000     -3.0576253E-08
   40.38000     -3.1395775E-08
   40.44000     -3.2138956E-08
   40.50000     -3.2789458E-08
   40.56000     -3.3329293E-08
   40.62000     -3.3744048E-08
   40.68000     -3.4027416E-08
   40.74000     -3.4182310E-08
   40.80000     -3.4217649E-08
   40.86000     -3.4141951E-08
   40.92000     -3.3956880E-08
   40.98000     -3.3654036E-08
   41.04000     -3.3217304E-08
   41.10000     -3.2630446E-08
   41.16000     -3.1887396E-08
   41.22000     -3.1001040E-08
   41.28000     -3.0006678E-08
   41.34000     -2.8958196E-08
   41.40000     -2.7917931E-08
   41.46000     -2.6943693E-08
   41.52000     -2.6077368E-08
   41.58000     -2.5338789E-08
   41.64000     -2.4726273E-08
   41.70000     -2.4222766E-08
   41.76000     -2.3804850E-08
   41.82000     -2.3451625E-08
   41.88000     -2.3151326E-08
   41.94000     -2.2904747E-08
   42.00000     -2.2725343E-08
   42.06000     -2.2636234E-08
   42.12000     -2.2664342E-08
   42.18000     -2.2832559E-08
   42.24000     -2.3151703E-08
   42.30000     -2.3614923E-08
   42.36000     -2.4197220E-08
   42.42000     -2.4861224E-08
   42.48000     -2.5567795E-08
   42.54000     -2.6287761E-08
   42.60000     -2.7010151E-08
   42.66000     -2.7743630E-08
   42.72000     -2.8510856E-08
   42.78000     -2.9338457E-08
   42.84000     -3.0247055E-08
   42.90000     -3.1245285E-08
   42.96000     -3.2329467E-08
   43.02000     -3.3487989E-08
   43.08000     -3.4707586E-08
   43.14000     -3.5978555E-08
   43.20000     -3.7296985E-08
   43.26000     -3.8663831E-08
   43.32000     -4.0082003E-08
   43.38000     -4.1553140E-08
   43.44000     -4.3075648E-08
   43.50000     -4.4644647E-08
   43.56000     -4.6253668E-08
   43.62000     -4.7897082E-08
   43.68000     -4.9571987E-08
   43.74000     -5.1278473E-08
   43.80000     -5.3017960E-08
   43.86000     -5.4790171E-08
   43.92000     -5.6590004E-08
   43.98000     -5.8405572E-08
   44.04000     -6.0218014E-08
   44.10000     -6.2003075E-08
   44.16000     -6.3733786E-08
   44.22000     -6.5383787E-08
   44.28000     -6.6930703E-08
   44.34000     -6.8359427E-08
   44.40000     -6.9664473E-08
   44.46000     -7.0850263E-08
   44.52000     -7.1928241E-08
   44.58000     -7.2911035E-08
   44.64000     -7.3805261E-08
   44.70000     -7.4606312E-08
   44.76000     -7.5297969E-08
   44.82000     -7.5857720E-08
   44.88000     -7.6265707E-08
   44.94000     -7.6513139E-08
   45.00000     -7.6606007E-08
   45.06000     -7.6562550E-08
   45.12000     -7.6406032E-08
   45.18000     -7.6156830E-08
   45.24000     -7.5827536E-08
   45.30000     -7.5422705E-08
   45.36000     -7.4941838E-08
   45.42000     -7.4383046E-08
   45.48000     -7.3744900E-08
   45.54000     -7.3026065E-08
   45.60000     -7.2223628E-08
   45.66000     -7.1331755E-08
   45.72000     -7.0341656E-08
   45.78000     -6.9242674E-08
   45.84000     -6.8024079E-08
   45.90000     -6.6677252E-08
   45.96000     -6.5198400E-08
   46.02000     -6.3591735E-08
   46.08000     -6.1872200E-08
   46.14000     -6.0066107E-08
   46.20000     -5.8208226E-08
   46.26000     -5.6335605E-08
   46.32000     -5.4479980E-08
   46.38000     -5.2661964E-08
   46.44000     -5.0889291E-08
   46.50000     -4.9159461E-08
   46.56000     -4.7464976E-08
   46.62000     -4.5798608E-08
   46.68000     -4.4156998E-08
   46.74000     -4.2542364E-08
   46.80000     -4.0963080E-08
   46.86000     -3.9433516E-08
   46.92000     -3.7972541E-08
   46.98000     -3.6599726E-08
   47.04000     -3.5329251E-08
   47.10000     -3.4163495E-08
   47.16000     -3.3089730E-08
   47.22000     -3.2082522E-08
   47.28000     -3.1111924E-08
   47.34000     -3.0154336E-08
   47.40000     -2.9201264E-08
   47.46000     -2.8262265E-08
   47.52000     -2.7361406E-08
   47.58000     -2.6529614E-08
   47.64000     -2.5796499E-08
   47.70000     -2.5184352E-08
   47.76000     -2.4705182E-08
   47.82000     -2.4360396E-08
   47.88000     -2.4142977E-08
   47.94000     -2.4042551E-08
   48.00000     -2.4053772E-08
   48.06000     -2.4186681E-08
   48.12000     -2.4475668E-08
   48.18000     -2.4982807E-08
   48.24000     -2.5793135E-08
   48.30000     -2.7003180E-08
   48.36000     -2.8707772E-08
   48.42000     -3.0991096E-08
   48.48000     -3.3925978E-08
   48.54000     -3.7581458E-08
   48.60000     -4.2035527E-08
   48.66000     -4.7389189E-08
   48.72000     -5.3779161E-08
   48.78000     -6.1388072E-08
   48.84000     -7.0451748E-08
   48.90000     -8.1262456E-08
   48.96000     -9.4166985E-08
   49.02000     -1.0956069E-07
   49.08000     -1.2788117E-07
   49.14000     -1.4960780E-07
   49.20000     -1.7527145E-07
   49.26000     -2.0547462E-07
   49.32000     -2.4091605E-07
   49.38000     -2.8241163E-07
   49.44000     -3.3090737E-07
   49.50000     -3.8748556E-07
   49.56000     -4.5337183E-07
   49.62000     -5.2995097E-07
   49.68000     -6.1879314E-07
   49.74000     -7.2168473E-07
   49.80000     -8.4065493E-07
   49.86000     -9.7799034E-07
   49.92000     -1.1362413E-06
   49.98000     -1.3182305E-06
   50.04000     -1.5270731E-06
   50.10000     -1.7662145E-06
   50.16000     -2.0394780E-06
   50.22000     -2.3511118E-06
   50.28000     -2.7058236E-06
   50.34000     -3.1088025E-06
   50.40000     -3.5657358E-06
   50.46000     -4.0828304E-06
   50.52000     -4.6668383E-06
   50.58000     -5.3250915E-06
   50.64000     -6.0655279E-06
   50.70000     -6.8967115E-06
   50.76000     -7.8278408E-06
   50.82000     -8.8687666E-06
   50.88000     -1.0030007E-05
   50.94000     -1.1322777E-05
   51.00000     -1.2759011E-05
   51.06000     -1.4351363E-05
   51.12000     -1.6113192E-05
   51.18000     -1.8058519E-05
   51.24000     -2.0201987E-05
   51.30000     -2.2558821E-05
   51.36000     -2.5144778E-05
   51.42000     -2.7976113E-05
   51.48000     -3.1069525E-05
   51.54000     -3.4442073E-05
   51.60000     -3.8111113E-05
   51.66000     -4.2094161E-05
   51.72000     -4.6408837E-05
   51.78000     -5.1072733E-05
   51.84000     -5.6103272E-05
   51.90000     -6.1517552E-05
   51.96000     -6.7332156E-05
   52.02000     -7.3563002E-05
   52.08000     -8.0225174E-05
   52.14000     -8.7332737E-05
   52.20000     -9.4898591E-05
   52.26000     -1.0293430E-04
   52.32000     -1.1144992E-04
   52.38000     -1.2045373E-04
   52.44000     -1.2995205E-04
   52.50000     -1.3994906E-04
   52.56000     -1.5044656E-04
   52.62000     -1.6144390E-04
   52.68000     -1.7293767E-04
   52.74000     -1.8492177E-04
   52.80000     -1.9738699E-04
   52.86000     -2.1032117E-04
   52.92000     -2.2370892E-04
   52.98000     -2.3753171E-04
   53.04000     -2.5176778E-04
   53.10000     -2.6639207E-04
   53.16000     -2.8137630E-04
   53.22000     -2.9668893E-04
   53.28000     -3.1229528E-04
   53.34000     -3.2815756E-04
   53.40000     -3.4423519E-04
   53.46000     -3.6048490E-04
   53.52000     -3.7686116E-04
   53.58000     -3.9331621E-04
   53.64000     -4.0980033E-04
   53.70000     -4.2626206E-04
   53.76000     -4.4264880E-04
   53.82000     -4.5890699E-04
   53.88000     -4.7498260E-04
   53.94000     -4.9082149E-04
   54.00000     -5.0636998E-04
   54.06000     -5.2157504E-04
   54.12000     -5.3638470E-04
   54.18000     -5.5074843E-04
   54.24000     -5.6461798E-04
   54.30000     -5.7794759E-04
   54.36000     -5.9069466E-04
   54.42000     -6.0281961E-04
   54.48000     -6.1428669E-04
   54.54000     -6.2506378E-04
   54.60000     -6.3512305E-04
   54.66000     -6.4444146E-04
   54.72000     -6.5300084E-04
   54.78000     -6.6078827E-04
   54.84000     -6.6779595E-04
   54.90000     -6.7402114E-04
   54.96000     -6.7946635E-04
   55.02000     -6.8413926E-04
   55.08000     -6.8805268E-04
   55.14000     -6.9122488E-04
   55.20000     -6.9367903E-04
   55.26000     -6.9544336E-04
   55.32000     -6.9655047E-04
   55.38000     -6.9703668E-04
   55.44000     -6.9694221E-04
   55.50000     -6.9631077E-04
   55.56000     -6.9518917E-04