  -2.400000      0.0000000E+00
  -2.340000      0.0000000E+00
  -2.280000      0.0000000E+00
  -2.220000      0.0000000E+00
  -2.160000      0.0000000E+00
  -2.100000      0.0000000E+00
  -2.040000     -2.7148476E-21
  -1.980000     -1.1962328E-20
  -1.920000      1.7034457E-20
  -1.860000      3.1656608E-19
  -1.800000      1.3926937E-18
  -1.740000      3.5818079E-18
  -1.680000      5.6020960E-18
  -1.620000      2.6929427E-18
  -1.560000     -1.2999497E-17
  -1.500000     -4.6050227E-17
  -1.440000     -8.4883772E-17
  -1.380000     -9.0742110E-17
  -1.320000     -6.1962615E-18
  -1.260000      2.0127405E-16
  -1.200000      4.6974949E-16
  -1.140000      5.9845292E-16
  -1.080000      3.0743603E-16
  -1.020000     -5.5213753E-16
 -0.9600000     -1.7068066E-15
 -0.9000000     -2.3122244E-15
 -0.8400000     -1.2356818E-15
 -0.7800000      2.1088101E-15
 -0.7200000      6.6807894E-15
 -0.6600000      9.2890732E-15
 -0.6000000      5.5681701E-15
 -0.5400000     -7.1926734E-15
 -0.4800000     -2.6354253E-14
 -0.4200000     -4.1798613E-14
 -0.3600000     -3.8211455E-14
 -0.3000000     -3.0045870E-15
 -0.2400000      6.2481866E-14
 -0.1800000      1.3477095E-13
 -0.1200000      1.7074355E-13
 -5.9999999E-02  1.2511074E-13
  0.0000000E+00 -2.1144871E-14
  5.9999999E-02 -2.3493740E-13
  0.1200000     -4.2617117E-13
  0.1800000     -4.7655423E-13
  0.2400000     -2.9850818E-13
  0.3000000      1.0027768E-13
  0.3600000      5.8439202E-13
  0.4200000      9.2240647E-13
  0.4800000      8.8690822E-13
  0.5400000      3.8676869E-13
  0.6000000     -4.3617754E-13
  0.6600000     -1.2148134E-12
  0.7200000     -1.4975123E-12
  0.7800000     -9.8135801E-13
  0.8400000      2.6893833E-13
  0.9000000      1.7462018E-12
  0.9600000      2.6544723E-12
   1.020000      2.2696784E-12
   1.080000      3.6384063E-13
   1.140000     -2.5237395E-12
   1.200000     -5.1561654E-12
   1.260000     -6.0585608E-12
   1.320000     -4.2187699E-12
   1.380000      2.8179106E-13
   1.440000      6.0487153E-12
   1.500000      1.0763797E-11
   1.560000      1.2103349E-11
   1.620000      8.8201026E-12
   1.680000      1.4784180E-12
   1.740000     -7.5694407E-12
   1.800000     -1.5049807E-11
   1.860000     -1.8141091E-11
   1.920000     -1.5718581E-11
   1.980000     -8.8336057E-12
   2.040000     -1.2998530E-13
   2.100000      7.5561736E-12
   2.160000      1.2691441E-11
   2.220000      1.5777213E-11
   2.280000      1.8790037E-11
   2.340000      2.3479644E-11
   2.400000      2.9377910E-11
   2.460000      3.2714925E-11
   2.520000      2.7175996E-11
   2.580000      6.6130274E-12
   2.640000     -3.1204692E-11
   2.700000     -8.1448737E-11
   2.760000     -1.3137667E-10
   2.820000     -1.6267254E-10
   2.880000     -1.5661501E-10
   2.940000     -1.0048302E-10
   3.000000      6.9973584E-12
   3.060000      1.5306105E-10
   3.120000      3.1199043E-10
   3.180000      4.4935028E-10
   3.240000      5.2782084E-10
   3.300000      5.1282190E-10
   3.360000      3.7667114E-10
   3.420000      1.0102851E-10
   3.480000     -3.2171701E-10
   3.540000     -8.8712437E-10
   3.600000     -1.5768452E-09
   3.660000     -2.3565290E-09
   3.720000     -3.1746785E-09
   3.780000     -3.9640291E-09
   3.840000     -4.6466373E-09
   3.900000     -5.1427866E-09
   3.960000     -5.3824216E-09
   4.020000     -5.3167102E-09
   4.080000     -4.9269042E-09
   4.140000     -4.2281512E-09
   4.200000     -3.2671872E-09
   4.260000     -2.1144861E-09
   4.320000     -8.5293905E-10
   4.380000      4.3401766E-10
   4.440000      1.6720121E-09
   4.500000      2.8012954E-09
   4.560000      3.7780485E-09
   4.620000      4.5727981E-09
   4.680000      5.1682103E-09
   4.740000      5.5583942E-09
   4.800000      5.7506564E-09
   4.860000      5.7689262E-09
   4.920000      5.6565876E-09
   4.980000      5.4759717E-09
   5.040000      5.3026730E-09
   5.100000      5.2148730E-09
   5.160000      5.2801590E-09
   5.220000      5.5438156E-09
   5.280000      6.0225047E-09
   5.340000      6.7053878E-09
   5.400000      7.5619209E-09
   5.460000      8.5529130E-09
   5.520000      9.6403214E-09
   5.580000      1.0792143E-08
   5.640000      1.1981424E-08
   5.700000      1.3181476E-08
   5.760000      1.4361414E-08
   5.820000      1.5485972E-08
   5.880000      1.6521243E-08
   5.940000      1.7444622E-08
   6.000000      1.8254390E-08
   6.060000      1.8973825E-08
   6.120000      1.9646615E-08
   6.180000      2.0324094E-08
   6.240000      2.1048644E-08
   6.300000      2.1839538E-08
   6.360000      2.2686811E-08
   6.420000      2.3555463E-08
   6.480000      2.4398183E-08
   6.540000      2.5171486E-08
   6.600000      2.5849147E-08
   6.660000      2.6428383E-08
   6.720000      2.6927433E-08
   6.780000      2.7376595E-08
   6.840000      2.7806868E-08
   6.900000      2.8240567E-08
   6.960000      2.8686744E-08
   7.020000      2.9141962E-08
   7.080000      2.9594885E-08
   7.140000      3.0032055E-08
   7.200000      3.0442362E-08
   7.260000      3.0819013E-08
   7.320000      3.1158962E-08
   7.380000      3.1461308E-08
   7.440000      3.1726373E-08
   7.500000      3.1956890E-08
   7.560000      3.2161598E-08
   7.620000      3.2359932E-08
   7.680000      3.2585692E-08
   7.740000      3.2887119E-08
   7.800000      3.3321982E-08
   7.860000      3.3947998E-08
   7.920000      3.4811062E-08
   7.980000      3.5934924E-08
   8.040000      3.7315875E-08
   8.100000      3.8924323E-08
   8.160000      4.0712578E-08
   8.220000      4.2625835E-08
   8.280000      4.4612246E-08
   8.340000      4.6628696E-08
   8.400000      4.8640810E-08
   8.460000      5.0618404E-08
   8.520000      5.2529362E-08
   8.580000      5.4335374E-08
   8.640000      5.5991759E-08
   8.700000      5.7451491E-08
   8.760000      5.8671290E-08
   8.820000      5.9616667E-08
   8.880000      6.0263019E-08
   8.940000      6.0592093E-08
   9.000000      6.0585307E-08
   9.060000      6.0217758E-08
   9.120000      5.9456834E-08
   9.180000      5.8267734E-08
   9.240000      5.6624842E-08
   9.300000      5.4524925E-08
   9.360000      5.1996370E-08
   9.420000      4.9099985E-08
   9.480000      4.5920377E-08
   9.540000      4.2551090E-08
   9.600000      3.9079364E-08
   9.660000      3.5576090E-08
   9.720000      3.2093546E-08
   9.780000      2.8669310E-08
   9.840000      2.5332026E-08
   9.900000      2.2104716E-08
   9.960000      1.9003958E-08
   10.02000      1.6036793E-08
   10.08000      1.3199211E-08
   10.14000      1.0479235E-08
   10.20000      7.8647258E-09
   10.26000      5.3525366E-09
   10.32000      2.9542853E-09
   10.38000      6.9529688E-10
   10.44000     -1.3932392E-09
   10.50000     -3.2853809E-09
   10.56000     -4.9697118E-09
   10.62000     -6.4528365E-09
   10.68000     -7.7561868E-09
   10.74000     -8.9083914E-09
   10.80000     -9.9370867E-09
   10.86000     -1.0863548E-08
   10.92000     -1.1701498E-08
   10.98000     -1.2459212E-08
   11.04000     -1.3142768E-08
   11.10000     -1.3758302E-08
   11.16000     -1.4312216E-08
   11.22000     -1.4809584E-08
   11.28000     -1.5251885E-08
   11.34000     -1.5635525E-08
   11.40000     -1.5952212E-08
   11.46000     -1.6191587E-08
   11.52000     -1.6345567E-08
   11.58000     -1.6413193E-08
   11.64000     -1.6404165E-08
   11.70000     -1.6339531E-08
   11.76000     -1.6248693E-08
   11.82000     -1.6163224E-08
   11.88000     -1.6109244E-08
   11.94000     -1.6100840E-08
   12.00000     -1.6136751E-08
   12.06000     -1.6201501E-08
   12.12000     -1.6270672E-08
   12.18000     -1.6318577E-08
   12.24000     -1.6325927E-08
   12.30000     -1.6285160E-08
   12.36000     -1.6201765E-08
   12.42000     -1.6091320E-08
   12.48000     -1.5973276E-08
   12.54000     -1.5863817E-08
   12.60000     -1.5770690E-08
   12.66000     -1.5692414E-08
   12.72000     -1.5622504E-08
   12.78000     -1.5556992E-08
   12.84000     -1.5501438E-08
   12.90000     -1.5473171E-08
   12.96000     -1.5496425E-08
   13.02000     -1.5591493E-08
   13.08000     -1.5762643E-08
   13.14000     -1.5991104E-08
   13.20000     -1.6237660E-08
   13.26000     -1.6455097E-08
   13.32000     -1.6605643E-08
   13.38000     -1.6675852E-08
   13.44000     -1.6682199E-08
   13.50000     -1.6665025E-08
   13.56000     -1.6673990E-08
   13.62000     -1.6751775E-08
   13.68000     -1.6922888E-08
   13.74000     -1.7191045E-08
   13.80000     -1.7543885E-08
   13.86000     -1.7960602E-08
   13.92000     -1.8417708E-08
   13.98000     -1.8890701E-08
   14.04000     -1.9352729E-08
   14.10000     -1.9773500E-08
   14.16000     -2.0121252E-08
   14.22000     -2.0368288E-08
   14.28000     -2.0497685E-08
   14.34000     -2.0507439E-08
   14.40000     -2.0409107E-08
   14.46000     -2.0220581E-08
   14.52000     -1.9955674E-08
   14.58000     -1.9615026E-08
   14.64000     -1.9182593E-08
   14.70000     -1.8629876E-08
   14.76000     -1.7926766E-08
   14.82000     -1.7055022E-08
   14.88000     -1.6019071E-08
   14.94000     -1.4849573E-08
   15.00000     -1.3598134E-08
   15.06000     -1.2325085E-08
   15.12000     -1.1085278E-08
   15.18000     -9.9175983E-09
   15.24000     -8.8419938E-09
   15.30000     -7.8640285E-09
   15.36000     -6.9831922E-09
   15.42000     -6.1995258E-09
   15.48000     -5.5145462E-09
   15.54000     -4.9262994E-09
   15.60000     -4.4223958E-09
   15.66000     -3.9766430E-09
   15.72000     -3.5531504E-09
   15.78000     -3.1173404E-09
   15.84000     -2.6487983E-09
   15.90000     -2.1490376E-09
   15.96000     -1.6394008E-09
   16.02000     -1.1493890E-09
   16.08000     -7.0090467E-10
   16.14000     -2.9622541E-10
   16.20000      8.4324096E-11
   16.26000      4.7403148E-10
   16.32000      9.0514335E-10
   16.38000      1.3950625E-09
   16.44000      1.9395363E-09
   16.50000      2.5150091E-09
   16.56000      3.0878227E-09
   16.62000      3.6253271E-09
   16.68000      4.1042671E-09
   16.74000      4.5142992E-09
   16.80000      4.8573248E-09
   16.86000      5.1447775E-09
   16.92000      5.3945648E-09
   16.98000      5.6278595E-09
   17.04000      5.8647998E-09
   17.10000      6.1184839E-09
   17.16000      6.3882681E-09
   17.22000      6.6551253E-09
   17.28000      6.8822557E-09
   17.34000      7.0224622E-09
   17.40000      7.0307271E-09
   17.46000      6.8775150E-09
   17.52000      6.5574199E-09
   17.58000      6.0895671E-09
   17.64000      5.5099374E-09
   17.70000      4.8594870E-09
   17.76000      4.1736121E-09
   17.82000      3.4772218E-09
   17.88000      2.7862739E-09
   17.94000      2.1130571E-09
   18.00000      1.4708963E-09
   18.06000      8.7510676E-10
   18.12000      3.4006070E-10
   18.18000     -1.2484359E-10
   18.24000     -5.1666682E-10
   18.30000     -8.3598628E-10
   18.36000     -1.0809190E-09
   18.42000     -1.2421144E-09
   18.48000     -1.3028166E-09
   18.54000     -1.2453927E-09
   18.60000     -1.0616074E-09
   18.66000     -7.6093004E-10
   18.72000     -3.7124628E-10
   18.78000      7.0128257E-11
   18.84000      5.3195431E-10
   18.90000      1.0037492E-09
   18.96000      1.5017436E-09
   19.02000      2.0619637E-09
   19.08000      2.7226912E-09
   19.14000      3.5043466E-09
   19.20000      4.3967798E-09
   19.26000      5.3607261E-09
   19.32000      6.3431540E-09
   19.38000      7.2989939E-09
   19.44000      8.2082181E-09
   19.50000      9.0795362E-09
   19.56000      9.9390354E-09
   19.62000      1.0810139E-08
   19.68000      1.1695851E-08
   19.74000      1.2572764E-08
   19.80000      1.3399537E-08
   19.86000      1.4134411E-08
   19.92000      1.4751469E-08
   19.98000      1.5246520E-08
   20.04000      1.5629983E-08
   20.10000      1.5911978E-08
   20.16000      1.6089357E-08
   20.22000      1.6143154E-08
   20.28000      1.6048531E-08
   20.34000      1.5792050E-08
   20.40000      1.5386659E-08
   20.46000      1.4876093E-08
   20.52000      1.4326118E-08
   20.58000      1.3806728E-08
   20.64000      1.3373607E-08
   20.70000      1.3056693E-08
   20.76000      1.2859445E-08
   20.82000      1.2767125E-08
   20.88000      1.2758797E-08
   20.94000      1.2817337E-08
   21.00000      1.2933898E-08
   21.06000      1.3106484E-08
   21.12000      1.3334681E-08
   21.18000      1.3613493E-08
   21.24000      1.3928747E-08
   21.30000      1.4255487E-08
   21.36000      1.4559743E-08
   21.42000      1.4803301E-08
   21.48000      1.4950492E-08
   21.54000      1.4975358E-08
   21.60000      1.4867229E-08
   21.66000      1.4632844E-08
   21.72000      1.4293939E-08
   21.78000      1.3880756E-08
   21.84000      1.3423461E-08
   21.90000      1.2944472E-08
   21.96000      1.2454594E-08
   22.02000      1.1954517E-08
   22.08000      1.1441128E-08
   22.14000      1.0915934E-08
   22.20000      1.0391766E-08
   22.26000      9.8943183E-09
   22.32000      9.4572181E-09
   22.38000      9.1121963E-09
   22.44000      8.8784802E-09
   22.50000      8.7562917E-09
   22.56000      8.7277652E-09
   22.62000      8.7652445E-09
   22.68000      8.8432728E-09
   22.74000      8.9485965E-09
   22.80000      9.0832444E-09
   22.86000      9.2590868E-09
   22.92000      9.4865618E-09
   22.98000      9.7632507E-09
   23.04000      1.0068192E-08
   23.10000      1.0364957E-08
   23.16000      1.0612220E-08
   23.22000      1.0776884E-08
   23.28000      1.0843801E-08
   23.34000      1.0818048E-08
   23.40000      1.0719473E-08
   23.46000      1.0572828E-08
   23.52000      1.0398431E-08
   23.58000      1.0207285E-08
   23.64000      1.0001711E-08
   23.70000      9.7795283E-09
   23.76000      9.5381871E-09
   23.82000      9.2758263E-09
   23.88000      8.9885104E-09
   23.94000      8.6655101E-09
   24.00000      8.2860758E-09
   24.06000      7.8207547E-09
   24.12000      7.2381576E-09
   24.18000      6.5152315E-09
   24.24000      5.6469487E-09
   24.30000      4.6510120E-09
   24.36000      3.5649361E-09
   24.42000      2.4360625E-09
   24.48000      1.3082841E-09
   24.54000      2.1099915E-10
   24.60000     -8.4482715E-10
   24.66000     -1.8615725E-09
   24.72000     -2.8430049E-09
   24.78000     -3.7810186E-09
   24.84000     -4.6476099E-09
   24.90000     -5.3965667E-09
   24.96000     -5.9749738E-09
   25.02000     -6.3399059E-09
   25.08000     -6.4729702E-09
   25.14000     -6.3861032E-09
   25.20000     -6.1160197E-09
   25.26000     -5.7100658E-09
   25.32000     -5.2101843E-09
   25.38000     -4.6423030E-09
   25.44000     -4.0153365E-09
   25.50000     -3.3289256E-09
   25.56000     -2.5847282E-09
   25.62000     -1.7948143E-09
   25.68000     -9.8301645E-10
   25.74000     -1.7944164E-10
   25.80000      5.8783978E-10
   25.86000      1.2988166E-09
   25.92000      1.9422248E-09
   25.98000      2.5116367E-09
   26.04000      3.0007345E-09
   26.10000      3.4020020E-09
   26.16000      3.7106556E-09
   26.22000      3.9319623E-09
   26.28000      4.0874708E-09
   26.34000      4.2158033E-09
   26.40000      4.3665094E-09
   26.46000      4.5893187E-09
   26.52000      4.9237188E-09
   26.58000      5.3935003E-09
   26.64000      6.0080358E-09
   26.70000      6.7682664E-09
   26.76000      7.6730302E-09
   26.82000      8.7217229E-09
   26.88000      9.9121262E-09
   26.94000      1.1235600E-08
   27.00000      1.2673622E-08
   27.06000      1.4198736E-08
   27.12000      1.5779872E-08
   27.18000      1.7388890E-08
   27.24000      1.9004059E-08
   27.30000      2.0607903E-08
   27.36000      2.2180476E-08
   27.42000      2.3692218E-08
   27.48000      2.5101119E-08
   27.54000      2.6356462E-08
   27.60000      2.7407394E-08
   27.66000      2.8211618E-08
   27.72000      2.8739711E-08
   27.78000      2.8973831E-08
   27.84000      2.8903866E-08
   27.90000      2.8526314E-08
   27.96000      2.7849511E-08
   28.02000      2.6903912E-08
   28.08000      2.5750959E-08
   28.14000      2.4482439E-08
   28.20000      2.3205692E-08
   28.26000      2.2017563E-08
   28.32000      2.0977254E-08
   28.38000      2.0090940E-08
   28.44000      1.9316738E-08
   28.50000      1.8589281E-08
   28.56000      1.7853280E-08
   28.62000      1.7090670E-08
   28.68000      1.6328810E-08
   28.74000      1.5626597E-08
   28.80000      1.5046126E-08
   28.86000      1.4624267E-08
   28.92000      1.4357678E-08
   28.98000      1.4207240E-08
   29.04000      1.4118003E-08
   29.10000      1.4043668E-08
   29.16000      1.3963852E-08
   29.22000      1.3887523E-08
   29.28000      1.3843731E-08
   29.34000      1.3866671E-08
   29.40000      1.3983389E-08
   29.46000      1.4209184E-08
   29.52000      1.4550475E-08
   29.58000      1.5010865E-08
   29.64000      1.5595429E-08
   29.70000      1.6310642E-08
   29.76000      1.7160861E-08
   29.82000      1.8144542E-08
   29.88000      1.9253154E-08
   29.94000      2.0473525E-08
   30.00000      2.1791609E-08
   30.06000      2.3194460E-08
   30.12000      2.4668122E-08
   30.18000      2.6191611E-08
   30.24000      2.7729993E-08
   30.30000      2.9230693E-08
   30.36000      3.0626428E-08
   30.42000      3.1845474E-08
   30.48000      3.2826822E-08
   30.54000      3.3535464E-08
   30.60000      3.3972483E-08
   30.66000      3.4176274E-08
   30.72000      3.4213905E-08
   30.78000      3.4164938E-08
   30.84000      3.4102506E-08
   30.90000      3.4077296E-08
   30.96000      3.4109156E-08
   31.02000      3.4188606E-08
   31.08000      3.4287307E-08
   31.14000      3.4373659E-08
   31.20000      3.4427853E-08
   31.26000      3.4451158E-08
   31.32000      3.4466225E-08
   31.38000      3.4508606E-08
   31.44000      3.4612885E-08
   31.50000      3.4798774E-08
   31.56000      3.5062225E-08
   31.62000      3.5374729E-08
   31.68000      3.5690661E-08
   31.74000      3.5960053E-08
   31.80000      3.6142449E-08
   31.86000      3.6217923E-08
   31.92000      3.6192240E-08
   31.98000      3.6095241E-08
   32.04000      3.5972800E-08
   32.10000      3.5874308E-08
   32.16000      3.5838465E-08
   32.22000      3.5881147E-08
   32.28000      3.5989078E-08
   32.34000      3.6121961E-08
   32.40000      3.6223252E-08
   32.46000      3.6236507E-08
   32.52000      3.6121765E-08
   32.58000      3.5865931E-08
   32.64000      3.5483424E-08
   32.70000      3.5007631E-08
   32.76000      3.4477758E-08
   32.82000      3.3927687E-08
   32.88000      3.3382040E-08
   32.94000      3.2860601E-08
   33.00000      3.2387554E-08
   33.06000      3.1999303E-08
   33.12000      3.1745312E-08
   33.18000      3.1680074E-08
   33.24000      3.1849151E-08
   33.30000      3.2275519E-08
   33.36000      3.2952379E-08
   33.42000      3.3845513E-08
   33.48000      3.4903589E-08
   33.54000      3.6071025E-08
   33.60000      3.7297340E-08
   33.66000      3.8539511E-08
   33.72000      3.9758106E-08
   33.78000      4.0911846E-08
   33.84000      4.1955872E-08
   33.90000      4.2846619E-08
   33.96000      4.3551257E-08
   34.02000      4.4055959E-08
   34.08000      4.4366672E-08
   34.14000      4.4499782E-08
   34.20000      4.4466056E-08
   34.26000      4.4256296E-08
   34.32000      4.3837666E-08
   34.38000      4.3164995E-08
   34.44000      4.2203386E-08
   34.50000      4.0951779E-08
   34.56000      3.9455593E-08
   34.62000      3.7801328E-08
   34.68000      3.6094818E-08
   34.74000      3.4432727E-08
   34.80000      3.2879491E-08
   34.86000      3.1458168E-08
   34.92000      3.0155878E-08
   34.98000      2.8937572E-08
   35.04000      2.7759629E-08
   35.10000      2.6577752E-08
   35.16000      2.5349513E-08
   35.22000      2.4035849E-08
   35.28000      2.2605599E-08
   35.34000      2.1042952E-08
   35.40000      1.9352891E-08
   35.46000      1.7558518E-08
   35.52000      1.5687773E-08
   35.58000      1.3753912E-08
   35.64000      1.1739552E-08
   35.70000      9.5942614E-09
   35.76000      7.2495432E-09
   35.82000      4.6457393E-09
   35.88000      1.7581674E-09
   35.94000     -1.3909359E-09
   36.00000     -4.7413597E-09
   36.06000     -8.2208027E-09
   36.12000     -1.1774842E-08
   36.18000     -1.5386064E-08
   36.24000     -1.9073163E-08
   36.30000     -2.2871500E-08
   36.36000     -2.6805983E-08
   36.42000     -3.0870552E-08
   36.48000     -3.5023973E-08
   36.54000     -3.9202124E-08
   36.60000     -4.3337980E-08
   36.66000     -4.7377192E-08
   36.72000     -5.1281098E-08
   36.78000     -5.5017811E-08
   36.84000     -5.8549869E-08
   36.90000     -6.1829212E-08
   36.96000     -6.4805178E-08
   37.02000     -6.7442052E-08
   37.08000     -6.9734917E-08
   37.14000     -7.1711952E-08
   37.20000     -7.3418271E-08
   37.26000     -7.4887446E-08
   37.32000     -7.6115803E-08
   37.38000     -7.7054636E-08
   37.44000     -7.7627092E-08
   37.50000     -7.7762763E-08
   37.56000     -7.7432958E-08
   37.62000     -7.6668243E-08
   37.68000     -7.5548940E-08
   37.74000     -7.4173812E-08
   37.80000     -7.2623486E-08
   37.86000     -7.0937134E-08
   37.92000     -6.9112602E-08
   37.98000     -6.7126422E-08
   38.04000     -6.4959416E-08
   38.10000     -6.2612251E-08
   38.16000     -6.0103147E-08
   38.22000     -5.7452443E-08
   38.28000     -5.4666810E-08
   38.34000     -5.1735803E-08
   38.40000     -4.8644353E-08
   38.46000     -4.5393712E-08
   38.52000     -4.2017152E-08
   38.58000     -3.8579518E-08
   38.64000     -3.5159733E-08
   38.70000     -3.1826133E-08
   38.76000     -2.8618860E-08
   38.82000     -2.5549165E-08
   38.88000     -2.2614646E-08
   38.94000     -1.9819694E-08
   39.00000     -1.7187514E-08
   39.06000     -1.4755941E-08
   39.12000     -1.2560067E-08
   39.18000     -1.0613252E-08
   39.24000     -8.8992111E-09
   39.30000     -7.3806685E-09
   39.36000     -6.0193361E-09
   39.42000     -4.7945661E-09
   39.48000     -3.7086789E-09
   39.54000     -2.7753930E-09
   39.60000     -1.9987152E-09
   39.66000     -1.3562179E-09
   39.72000     -7.9855361E-10
   39.78000     -2.6739674E-10
   39.84000      2.7752506E-10
   39.90000      8.3804425E-10
   39.96000      1.3766899E-09
   40.02000      1.8375119E-09
   40.08000      2.1781872E-09
   40.14000      2.3959286E-09
   40.20000      2.5323970E-09
   40.26000      2.6539948E-09
   40.32000      2.8174507E-09
   40.38000      3.0388816E-09
   40.44000      3.2828329E-09
   40.50000      3.4769883E-09
   40.56000      3.5443828E-09
   40.62000      3.4357319E-09
   40.68000      3.1450231E-09
   40.74000      2.7013138E-09
   40.80000      2.1430628E-09
   40.86000      1.4906300E-09
   40.92000      7.3271406E-10
   40.98000     -1.6628622E-10
   41.04000     -1.2432700E-09
   41.10000     -2.5115992E-09
   41.16000     -3.9483092E-09
   41.22000     -5.4992806E-09
   41.28000     -7.0975679E-09
   41.34000     -8.6831333E-09
   41.40000     -1.0213022E-08
   41.46000     -1.1658389E-08
   41.52000     -1.2993710E-08
   41.58000     -1.4188006E-08
   41.64000     -1.5205483E-08
   41.70000     -1.6015495E-08
   41.76000     -1.6604467E-08
   41.82000     -1.6980465E-08
   41.88000     -1.7165659E-08
   41.94000     -1.7180298E-08
   42.00000     -1.7028050E-08
   42.06000     -1.6692786E-08
   42.12000     -1.6150240E-08
   42.18000     -1.5388897E-08
   42.24000     -1.4428209E-08
   42.30000     -1.3323087E-08
   42.36000     -1.2151173E-08
   42.42000     -1.0989195E-08
   42.48000     -9.8909680E-09
   42.54000     -8.8785761E-09
   42.60000     -7.9506632E-09
   42.66000     -7.1018960E-09
   42.72000     -6.3415295E-09
   42.78000     -5.6999849E-09
   42.84000     -5.2198184E-09
   42.90000     -4.9368638E-09
   42.96000     -4.8630819E-09
   43.02000     -4.9813735E-09
   43.08000     -5.2551155E-09
   43.14000     -5.6461320E-09
   43.20000     -6.1297674E-09
   43.26000     -6.6977996E-09
   43.32000     -7.3480249E-09
   43.38000     -8.0683362E-09
   43.44000     -8.8272696E-09
   43.50000     -9.5793755E-09
   43.56000     -1.0284318E-08
   43.62000     -1.0929028E-08
   43.68000     -1.1538773E-08
   43.74000     -1.2168422E-08
   43.80000     -1.2876563E-08
   43.86000     -1.3695866E-08
   43.92000     -1.4616327E-08
   43.98000     -1.5591402E-08
   44.04000     -1.6564114E-08
   44.10000     -1.7498593E-08
   44.16000     -1.8399243E-08
   44.22000     -1.9306869E-08
   44.28000     -2.0274458E-08
   44.34000     -2.1336922E-08
   44.40000     -2.2492101E-08
   44.46000     -2.3703185E-08
   44.52000     -2.4920000E-08
   44.58000     -2.6106109E-08
   44.64000     -2.7256394E-08
   44.70000     -2.8396487E-08
   44.76000     -2.9566428E-08
   44.82000     -3.0799310E-08
   44.88000     -3.2106591E-08
   44.94000     -3.3475761E-08
   45.00000     -3.4877349E-08
   45.06000     -3.6273249E-08
   45.12000     -3.7619550E-08
   45.18000     -3.8863302E-08
   45.24000     -3.9939227E-08
   45.30000     -4.0774086E-08
   45.36000     -4.1302190E-08
   45.42000     -4.1487390E-08
   45.48000     -4.1340858E-08
   45.54000     -4.0923634E-08
   45.60000     -4.0329862E-08
   45.66000     -3.9656719E-08
   45.72000     -3.8974804E-08
   45.78000     -3.8313264E-08
   45.84000     -3.7666616E-08
   45.90000     -3.7018562E-08
   45.96000     -3.6368931E-08
   46.02000     -3.5748233E-08
   46.08000     -3.5211269E-08
   46.14000     -3.4813393E-08
   46.20000     -3.4583170E-08
   46.26000     -3.4507384E-08
   46.32000     -3.4537607E-08
   46.38000     -3.4614903E-08
   46.44000     -3.4698846E-08
   46.50000     -3.4784556E-08
   46.56000     -3.4898616E-08
   46.62000     -3.5077459E-08
   46.68000     -3.5341937E-08
   46.74000     -3.5683485E-08
   46.80000     -3.6069473E-08
   46.86000     -3.6462815E-08
   46.92000     -3.6842160E-08
   46.98000     -3.7208995E-08
   47.04000     -3.7577053E-08
   47.10000     -3.7951207E-08
   47.16000     -3.8310102E-08
   47.22000     -3.8604323E-08
   47.28000     -3.8771905E-08
   47.34000     -3.8762092E-08
   47.40000     -3.8553274E-08
   47.46000     -3.8154969E-08
   47.52000     -3.7593697E-08
   47.58000     -3.6891638E-08
   47.64000     -3.6049837E-08
   47.70000     -3.5043090E-08
   47.76000     -3.3825469E-08
   47.82000     -3.2339155E-08
   47.88000     -3.0518706E-08
   47.94000     -2.8287452E-08
   48.00000     -2.5548834E-08
   48.06000     -2.2178787E-08
   48.12000     -1.8024060E-08
   48.18000     -1.2906984E-08
   48.24000     -6.6322787E-09
   48.30000      1.0107455E-09
   48.36000      1.0256199E-08
   48.42000      2.1381474E-08
   48.48000      3.4735631E-08
   48.54000      5.0769078E-08
   48.60000      7.0056039E-08
   48.66000      9.3304273E-08
   48.72000      1.2135263E-07
   48.78000      1.5516433E-07
   48.84000      1.9582819E-07
   48.90000      2.4457827E-07
   48.96000      3.0283357E-07
   49.02000      3.7225033E-07
   49.08000      4.5477148E-07
   49.14000      5.5266315E-07
   49.20000      6.6853687E-07
   49.26000      8.0536978E-07
   49.32000      9.6653991E-07
   49.38000      1.1558866E-06
   49.44000      1.3777951E-06
   49.50000      1.6372878E-06
   49.56000      1.9401091E-06
   49.62000      2.2927959E-06
   49.68000      2.7027406E-06
   49.74000      3.1782688E-06
   49.80000      3.7287380E-06
   49.86000      4.3646605E-06
   49.92000      5.0978374E-06
   49.98000      5.9414829E-06
   50.04000      6.9103335E-06
   50.10000      8.0207474E-06
   50.16000      9.2908167E-06
   50.22000      1.0740493E-05
   50.28000      1.2391750E-05
   50.34000      1.4268747E-05
   50.40000      1.6398011E-05
   50.46000      1.8808585E-05
   50.52000      2.1532160E-05
   50.58000      2.4603209E-05
   50.64000      2.8059094E-05
   50.70000      3.1940166E-05
   50.76000      3.6289846E-05
   50.82000      4.1154712E-05
   50.88000      4.6584562E-05
   50.94000      5.2632469E-05
   51.00000      5.9354850E-05
   51.06000      6.6811474E-05
   51.12000      7.5065473E-05
   51.18000      8.4183259E-05
   51.24000      9.4234434E-05
   51.30000      1.0529160E-04
   51.36000      1.1743017E-04
   51.42000      1.3072812E-04
   51.48000      1.4526570E-04
   51.54000      1.6112511E-04
   51.60000      1.7839005E-04
   51.66000      1.9714530E-04
   51.72000      2.1747623E-04
   51.78000      2.3946834E-04
   51.84000      2.6320660E-04
   51.90000      2.8877496E-04
   51.96000      3.1625541E-04
   52.02000      3.4572740E-04
   52.08000      3.7726690E-04
   52.14000      4.1094550E-04
   52.20000      4.4682971E-04
   52.26000      4.8497997E-04
   52.32000      5.2544981E-04
   52.38000      5.6828506E-04
   52.44000      6.1352307E-04
   52.50000      6.6119153E-04
   52.56000      7.1130780E-04
   52.62000      7.6387788E-04
   52.68000      8.1889582E-04
   52.74000      8.7634305E-04
   52.80000      9.3618763E-04
   52.86000      9.9838397E-04
   52.92000      1.0628719E-03
   52.98000      1.1295767E-03
   53.04000      1.1984091E-03
   53.10000      1.2692650E-03
   53.16000      1.3420252E-03
   53.22000      1.4165567E-03
   53.28000      1.4927114E-03
   53.34000      1.5703280E-03
   53.40000      1.6492322E-03
   53.46000      1.7292370E-03
   53.52000      1.8101443E-03
   53.58000      1.8917460E-03
   53.64000      1.9738250E-03
   53.70000      2.0561572E-03
   53.76000      2.1385124E-03
   53.82000      2.2206560E-03
   53.88000      2.3023507E-03
   53.94000      2.3833583E-03
   54.00000      2.4634418E-03
   54.06000      2.5423667E-03
   54.12000      2.6199040E-03
   54.18000      2.6958310E-03
   54.24000      2.7699335E-03
   54.30000      2.8420077E-03
   54.36000      2.9118615E-03
   54.42000      2.9793174E-03
   54.48000      3.0442129E-03
   54.54000      3.1064027E-03
   54.60000      3.1657587E-03
   54.66000      3.2221728E-03
   54.72000      3.2755565E-03
   54.78000      3.3258412E-03
   54.84000      3.3729791E-03
   54.90000      3.4169445E-03
   54.96000      3.4577327E-03
   55.02000      3.4953600E-03
   55.08000      3.5298639E-03
   55.14000      3.5613014E-03
   55.20000      3.5897493E-03
   55.26000      3.6153020E-03
   55.32000      3.6380710E-03
   55.38000      3.6581832E-03
   55.44000      3.6757791E-03
   55.50000      3.6910106E-03
   55.56000      3.7040412E-03