  -2.400000      0.0000000E+00
  -2.340000      0.0000000E+00
  -2.280000      0.0000000E+00
  -2.220000      0.0000000E+00
  -2.160000      0.0000000E+00
  -2.100000      0.0000000E+00
  -2.040000     -5.3344781E-21
  -1.980000     -4.3608626E-20
  -1.920000     -1.6736709E-19
  -1.860000     -3.5989258E-19
  -1.800000     -2.8790393E-19
  -1.740000      9.0487024E-19
  -1.680000      4.1700222E-18
  -1.620000      8.8689900E-18
  -1.560000      1.0285189E-17
  -1.500000     -9.6990039E-19
  -1.440000     -3.3286281E-17
  -1.380000     -8.0034859E-17
  -1.320000     -1.0377140E-16
  -1.260000     -3.7188571E-17
  -1.200000      1.7663558E-16
  -1.140000      5.0074010E-16
  -1.080000      7.1916575E-16
  -1.020000      4.4258451E-16
 -0.9600000     -6.9705163E-16
 -0.9000000     -2.6547226E-15
 -0.8400000     -4.5619043E-15
 -0.7800000     -4.6639298E-15
 -0.7200000     -9.8372977E-16
 -0.6600000      7.2293559E-15
 -0.6000000      1.7834326E-14
 -0.5400000      2.5105941E-14
 -0.4800000      2.1288520E-14
 -0.4200000      7.8461805E-16
 -0.3600000     -3.4404635E-14
 -0.3000000     -7.1185360E-14
 -0.2400000     -8.7508722E-14
 -0.1800000     -6.1874510E-14
 -0.1200000      1.2328117E-14
 -5.9999999E-02  1.1484574E-13
  0.0000000E+00  1.9812198E-13
  5.9999999E-02  2.0418709E-13
  0.1200000      9.5866389E-14
  0.1800000     -1.1131250E-13
  0.2400000     -3.3626154E-13
  0.3000000     -4.5416429E-13
  0.3600000     -3.5311069E-13
  0.4200000     -4.4237943E-15
  0.4800000      4.9008871E-13
  0.5400000      9.0940471E-13
  0.6000000      9.9572672E-13
  0.6600000      5.8362289E-13
  0.7200000     -2.8233172E-13
  0.7800000     -1.3094900E-12
  0.8400000     -2.0408506E-12
  0.9000000     -2.0467781E-12
  0.9600000     -1.1488730E-12
   1.020000      4.3505539E-13
   1.080000      2.1188711E-12
   1.140000      3.1712289E-12
   1.200000      3.0572242E-12
   1.260000      1.7427726E-12
   1.320000     -2.0676982E-13
   1.380000     -1.8280382E-12
   1.440000     -2.2159362E-12
   1.500000     -1.0449596E-12
   1.560000      1.1091715E-12
   1.620000      2.8647106E-12
   1.680000      2.5934675E-12
   1.740000     -7.3571173E-13
   1.800000     -6.7916874E-12
   1.860000     -1.3591731E-11
   1.920000     -1.7933283E-11
   1.980000     -1.6496188E-11
   2.040000     -7.2492025E-12
   2.100000      9.3925813E-12
   2.160000      3.0168656E-11
   2.220000      4.9566719E-11
   2.280000      6.1250734E-11
   2.340000      5.9832736E-11
   2.400000      4.2382684E-11
   2.460000      9.2272891E-12
   2.520000     -3.6065297E-11
   2.580000     -8.7265466E-11
   2.640000     -1.3620878E-10
   2.700000     -1.7336221E-10
   2.760000     -1.8825493E-10
   2.820000     -1.7016065E-10
   2.880000     -1.0957747E-10
   2.940000     -8.5581634E-13
   3.000000      1.5420001E-10
   3.060000      3.4258776E-10
   3.120000      5.3753313E-10
   3.180000      6.9843892E-10
   3.240000      7.7420542E-10
   3.300000      7.0984246E-10
   3.360000      4.5524834E-10
   3.420000     -2.5749115E-11
   3.480000     -7.4821155E-10
   3.540000     -1.7024565E-09
   3.600000     -2.8547045E-09
   3.660000     -4.1516022E-09
   3.720000     -5.5272711E-09
   3.780000     -6.9110833E-09
   3.840000     -8.2345109E-09
   3.900000     -9.4360608E-09
   3.960000     -1.0464144E-08
   4.020000     -1.1278517E-08
   4.080000     -1.1851260E-08
   4.140000     -1.2168173E-08
   4.200000     -1.2230872E-08
   4.260000     -1.2059161E-08
   4.320000     -1.1692617E-08
   4.380000     -1.1190143E-08
   4.440000     -1.0626481E-08
   4.500000     -1.0085465E-08
   4.560000     -9.6507353E-09
   4.620000     -9.3954036E-09
   4.680000     -9.3726058E-09
   4.740000     -9.6086206E-09
   4.800000     -1.0099666E-08
   4.860000     -1.0812566E-08
   4.920000     -1.1688829E-08
   4.980000     -1.2651256E-08
   5.040000     -1.3612217E-08
   5.100000     -1.4482967E-08
   5.160000     -1.5183483E-08
   5.220000     -1.5652198E-08
   5.280000     -1.5854592E-08
   5.340000     -1.5789098E-08
   5.400000     -1.5488602E-08
   5.460000     -1.5016207E-08
   5.520000     -1.4455008E-08
   5.580000     -1.3893263E-08
   5.640000     -1.3407797E-08
   5.700000     -1.3049489E-08
   5.760000     -1.2834447E-08
   5.820000     -1.2743174E-08
   5.880000     -1.2727819E-08
   5.940000     -1.2725398E-08
   6.000000     -1.2673192E-08
   6.060000     -1.2522223E-08
   6.120000     -1.2245630E-08
   6.180000     -1.1840637E-08
   6.240000     -1.1324893E-08
   6.300000     -1.0729391E-08
   6.360000     -1.0090647E-08
   6.420000     -9.4442365E-09
   6.480000     -8.8205789E-09
   6.540000     -8.2427247E-09
   6.600000     -7.7252817E-09
   6.660000     -7.2736728E-09
   6.720000     -6.8835222E-09
   6.780000     -6.5405827E-09
   6.840000     -6.2218901E-09
   6.900000     -5.8985661E-09
   6.960000     -5.5400124E-09
   7.020000     -5.1185260E-09
   7.080000     -4.6129975E-09
   7.140000     -4.0105506E-09
   7.200000     -3.3056742E-09
   7.260000     -2.4973033E-09
   7.320000     -1.5850247E-09
   7.380000     -5.6589267E-10
   7.440000      5.6691019E-10
   7.500000      1.8229952E-09
   7.560000      3.2115488E-09
   7.620000      4.7370294E-09
   7.680000      6.3953021E-09
   7.740000      8.1717282E-09
   7.800000      1.0042194E-08
   7.860000      1.1977141E-08
   7.920000      1.3947544E-08
   7.980000      1.5930949E-08
   8.040000      1.7915387E-08
   8.100000      1.9899545E-08
   8.160000      2.1888786E-08
   8.220000      2.3888081E-08
   8.280000      2.5894122E-08
   8.340000      2.7889337E-08
   8.400000      2.9839985E-08
   8.460000      3.1699244E-08
   8.520000      3.3414700E-08
   8.580000      3.4938104E-08
   8.640000      3.6234802E-08
   8.700000      3.7289990E-08
   8.760000      3.8110198E-08
   8.820000      3.8719563E-08
   8.880000      3.9152180E-08
   8.940000      3.9443027E-08
   9.000000      3.9620208E-08
   9.060000      3.9700868E-08
   9.120000      3.9691614E-08
   9.180000      3.9592770E-08
   9.240000      3.9404668E-08
   9.300000      3.9133631E-08
   9.360000      3.8796028E-08
   9.420000      3.8419536E-08
   9.480000      3.8041566E-08
   9.540000      3.7705302E-08
   9.600000      3.7453781E-08
   9.660000      3.7322614E-08
   9.720000      3.7332427E-08
   9.780000      3.7482859E-08
   9.840000      3.7750411E-08
   9.900000      3.8091990E-08
   9.960000      3.8454480E-08
   10.02000      3.8788222E-08
   10.08000      3.9060364E-08
   10.14000      3.9263401E-08
   10.20000      3.9415635E-08
   10.26000      3.9553221E-08
   10.32000      3.9716831E-08
   10.38000      3.9937888E-08
   10.44000      4.0229356E-08
   10.50000      4.0583799E-08
   10.56000      4.0978325E-08
   10.62000      4.1383224E-08
   10.68000      4.1770321E-08
   10.74000      4.2117957E-08
   10.80000      4.2411813E-08
   10.86000      4.2642995E-08
   10.92000      4.2805759E-08
   10.98000      4.2896730E-08
   11.04000      4.2915755E-08
   11.10000      4.2867104E-08
   11.16000      4.2759101E-08
   11.22000      4.2601194E-08
   11.28000      4.2399126E-08
   11.34000      4.2150237E-08
   11.40000      4.1841343E-08
   11.46000      4.1450516E-08
   11.52000      4.0952308E-08
   11.58000      4.0324387E-08
   11.64000      3.9553125E-08
   11.70000      3.8636308E-08
   11.76000      3.7582740E-08
   11.82000      3.6409709E-08
   11.88000      3.5139735E-08
   11.94000      3.3797630E-08
   12.00000      3.2407971E-08
   12.06000      3.0992688E-08
   12.12000      2.9568492E-08
   12.18000      2.8144605E-08
   12.24000      2.6721638E-08
   12.30000      2.5292549E-08
   12.36000      2.3845637E-08
   12.42000      2.2368638E-08
   12.48000      2.0852299E-08
   12.54000      1.9292116E-08
   12.60000      1.7688009E-08
   12.66000      1.6042900E-08
   12.72000      1.4361683E-08
   12.78000      1.2651654E-08
   12.84000      1.0924174E-08
   12.90000      9.1960972E-09
   12.96000      7.4891915E-09
   13.02000      5.8265943E-09
   13.08000      4.2270760E-09
   13.14000      2.6993541E-09
   13.20000      1.2391327E-09
   13.26000     -1.6951932E-10
   13.32000     -1.5488528E-09
   13.38000     -2.9204490E-09
   13.44000     -4.2995310E-09
   13.50000     -5.6926939E-09
   13.56000     -7.0992621E-09
   13.62000     -8.5146370E-09
   13.68000     -9.9332800E-09
   13.74000     -1.1349742E-08
   13.80000     -1.2757909E-08
   13.86000     -1.4150165E-08
   13.92000     -1.5518507E-08
   13.98000     -1.6858470E-08
   14.04000     -1.8174612E-08
   14.10000     -1.9484698E-08
   14.16000     -2.0819554E-08
   14.22000     -2.2217201E-08
   14.28000     -2.3712607E-08
   14.34000     -2.5326582E-08
   14.40000     -2.7058105E-08
   14.46000     -2.8882964E-08
   14.52000     -3.0759047E-08
   14.58000     -3.2636130E-08
   14.64000     -3.4466684E-08
   14.70000     -3.6214566E-08
   14.76000     -3.7859955E-08
   14.82000     -3.9400280E-08
   14.88000     -4.0847937E-08
   14.94000     -4.2225544E-08
   15.00000     -4.3559609E-08
   15.06000     -4.4873431E-08
   15.12000     -4.6180794E-08
   15.18000     -4.7482263E-08
   15.24000     -4.8765592E-08
   15.30000     -5.0010271E-08
   15.36000     -5.1194441E-08
   15.42000     -5.2301097E-08
   15.48000     -5.3320683E-08
   15.54000     -5.4249131E-08
   15.60000     -5.5082673E-08
   15.66000     -5.5812706E-08
   15.72000     -5.6423680E-08
   15.78000     -5.6895370E-08
   15.84000     -5.7208261E-08
   15.90000     -5.7349332E-08
   15.96000     -5.7315525E-08
   16.02000     -5.7113969E-08
   16.08000     -5.6759923E-08
   16.14000     -5.6274285E-08
   16.20000     -5.5682079E-08
   16.26000     -5.5011753E-08
   16.32000     -5.4293917E-08
   16.38000     -5.3558264E-08
   16.44000     -5.2828781E-08
   16.50000     -5.2118896E-08
   16.56000     -5.1428863E-08
   16.62000     -5.0746841E-08
   16.68000     -5.0053018E-08
   16.74000     -4.9324665E-08
   16.80000     -4.8539661E-08
   16.86000     -4.7677659E-08
   16.92000     -4.6719936E-08
   16.98000     -4.5650204E-08
   17.04000     -4.4458005E-08
   17.10000     -4.3144212E-08
   17.16000     -4.1725993E-08
   17.22000     -4.0237936E-08
   17.28000     -3.8727308E-08
   17.34000     -3.7244149E-08
   17.40000     -3.5829412E-08
   17.46000     -3.4505220E-08
   17.52000     -3.3270400E-08
   17.58000     -3.2102093E-08
   17.64000     -3.0962152E-08
   17.70000     -2.9805939E-08
   17.76000     -2.8591240E-08
   17.82000     -2.7285765E-08
   17.88000     -2.5872456E-08
   17.94000     -2.4351978E-08
   18.00000     -2.2741881E-08
   18.06000     -2.1072275E-08
   18.12000     -1.9378607E-08
   18.18000     -1.7693306E-08
   18.24000     -1.6038719E-08
   18.30000     -1.4423764E-08
   18.36000     -1.2845478E-08
   18.42000     -1.1294902E-08
   18.48000     -9.7650688E-09
   18.54000     -8.2579437E-09
   18.60000     -6.7875732E-09
   18.66000     -5.3781908E-09
   18.72000     -4.0582013E-09
   18.78000     -2.8528275E-09
   18.84000     -1.7789625E-09
   18.90000     -8.4484159E-10
   18.96000     -5.4864349E-11
   19.02000      5.8279753E-10
   19.08000      1.0499126E-09
   19.14000      1.3171064E-09
   19.20000      1.3496553E-09
   19.26000      1.1186948E-09
   19.32000      6.1390110E-10
   19.38000     -1.4688054E-10
   19.44000     -1.1140950E-09
   19.50000     -2.2095439E-09
   19.56000     -3.3344278E-09
   19.62000     -4.3799391E-09
   19.68000     -5.2385087E-09
   19.74000     -5.8147460E-09
   19.80000     -6.0354890E-09
   19.86000     -5.8579457E-09
   19.92000     -5.2742286E-09
   19.98000     -4.3106043E-09
   20.04000     -3.0210008E-09
   20.10000     -1.4762892E-09
   20.16000      2.4752797E-10
   20.22000      2.0788575E-09
   20.28000      3.9557859E-09
   20.34000      5.8272680E-09
   20.40000      7.6521562E-09
   20.46000      9.3983727E-09
   20.52000      1.1043489E-08
   20.58000      1.2576371E-08
   20.64000      1.3998331E-08
   20.70000      1.5322112E-08
   20.76000      1.6567876E-08
   20.82000      1.7756687E-08
   20.88000      1.8902952E-08
   20.94000      2.0007800E-08
   21.00000      2.1055135E-08
   21.06000      2.2011587E-08
   21.12000      2.2830696E-08
   21.18000      2.3460704E-08
   21.24000      2.3854470E-08
   21.30000      2.3979368E-08
   21.36000      2.3824974E-08
   21.42000      2.3406942E-08
   21.48000      2.2766345E-08
   21.54000      2.1964796E-08
   21.60000      2.1076341E-08
   21.66000      2.0177325E-08
   21.72000      1.9335644E-08
   21.78000      1.8600836E-08
   21.84000      1.7996864E-08
   21.90000      1.7519302E-08
   21.96000      1.7138163E-08
   22.02000      1.6806178E-08
   22.08000      1.6470656E-08
   22.14000      1.6085826E-08
   22.20000      1.5622264E-08
   22.26000      1.5071242E-08
   22.32000      1.4443644E-08
   22.38000      1.3764985E-08
   22.44000      1.3068774E-08
   22.50000      1.2390180E-08
   22.56000      1.1760869E-08
   22.62000      1.1204896E-08
   22.68000      1.0735373E-08
   22.74000      1.0352140E-08
   22.80000      1.0041422E-08
   22.86000      9.7786206E-09
   22.92000      9.5345438E-09
   22.98000      9.2838501E-09
   23.04000      9.0130570E-09
   23.10000      8.7250385E-09
   23.16000      8.4379979E-09
   23.22000      8.1790281E-09
   23.28000      7.9746130E-09
   23.34000      7.8416864E-09
   23.40000      7.7825604E-09
   23.46000      7.7853004E-09
   23.52000      7.8288949E-09
   23.58000      7.8908151E-09
   23.64000      7.9540614E-09
   23.70000      8.0115203E-09
   23.76000      8.0668965E-09
   23.82000      8.1328047E-09
   23.88000      8.2273415E-09
   23.94000      8.3703533E-09
   24.00000      8.5801171E-09
   24.06000      8.8705789E-09
   24.12000      9.2490371E-09
   24.18000      9.7141353E-09
   24.24000      1.0254317E-08
   24.30000      1.0847015E-08
   24.36000      1.1458985E-08
   24.42000      1.2048080E-08
   24.48000      1.2566638E-08
   24.54000      1.2966357E-08
   24.60000      1.3204162E-08
   24.66000      1.3248145E-08
   24.72000      1.3082338E-08
   24.78000      1.2709068E-08
   24.84000      1.2148013E-08
   24.90000      1.1431913E-08
   24.96000      1.0599791E-08
   25.02000      9.6892050E-09
   25.08000      8.7291960E-09
   25.14000      7.7352045E-09
   25.20000      6.7065451E-09
   25.26000      5.6263487E-09
   25.32000      4.4636344E-09
   25.38000      3.1771634E-09
   25.44000      1.7208656E-09
   25.50000      5.0516834E-11
   25.56000     -1.8690909E-09
   25.62000     -4.0577985E-09
   25.68000     -6.5160988E-09
   25.74000     -9.2246584E-09
   25.80000     -1.2147424E-08
   25.86000     -1.5237211E-08
   25.92000     -1.8441987E-08
   25.98000     -2.1710367E-08
   26.04000     -2.4995840E-08
   26.10000     -2.8260409E-08
   26.16000     -3.1478457E-08
   26.22000     -3.4640877E-08
   26.28000     -3.7757893E-08
   26.34000     -4.0858161E-08
   26.40000     -4.3982109E-08
   26.46000     -4.7169994E-08
   26.52000     -5.0447944E-08
   26.58000     -5.3817232E-08
   26.64000     -5.7251437E-08
   26.70000     -6.0703208E-08
   26.76000     -6.4118112E-08
   26.82000     -6.7450095E-08
   26.88000     -7.0672563E-08
   26.94000     -7.3781358E-08
   27.00000     -7.6789881E-08
   27.06000     -7.9719520E-08
   27.12000     -8.2589580E-08
   27.18000     -8.5410029E-08
   27.24000     -8.8177977E-08
   27.30000     -9.0877471E-08
   27.36000     -9.3481823E-08
   27.42000     -9.5957908E-08
   27.48000     -9.8272466E-08
   27.54000     -1.0039936E-07
   27.60000     -1.0232569E-07
   27.66000     -1.0405323E-07
   27.72000     -1.0559305E-07
   27.78000     -1.0695356E-07
   27.84000     -1.0812609E-07
   27.90000     -1.0907468E-07
   27.96000     -1.0973597E-07
   28.02000     -1.1003185E-07
   28.08000     -1.0989130E-07
   28.14000     -1.0927383E-07
   28.20000     -1.0818523E-07
   28.26000     -1.0667887E-07
   28.32000     -1.0484167E-07
   28.38000     -1.0276979E-07
   28.44000     -1.0054269E-07
   28.50000     -9.8204836E-08
   28.56000     -9.5760512E-08
   28.62000     -9.3182436E-08
   28.68000     -9.0430248E-08
   28.74000     -8.7472237E-08
   28.80000     -8.4303757E-08
   28.86000     -8.0957669E-08
   28.92000     -7.7504524E-08
   28.98000     -7.4042738E-08
   29.04000     -7.0680741E-08
   29.10000     -6.7514705E-08
   29.16000     -6.4606830E-08
   29.22000     -6.1969814E-08
   29.28000     -5.9562840E-08
   29.34000     -5.7301978E-08
   29.40000     -5.5083476E-08
   29.46000     -5.2814002E-08
   29.52000     -5.0438285E-08
   29.58000     -4.7954799E-08
   29.64000     -4.5413923E-08
   29.70000     -4.2899138E-08
   29.76000     -4.0498382E-08
   29.82000     -3.8275758E-08
   29.88000     -3.6253358E-08
   29.94000     -3.4408320E-08
   30.00000     -3.2684607E-08
   30.06000     -3.1014075E-08
   30.12000     -2.9339226E-08
   30.18000     -2.7631021E-08
   30.24000     -2.5897412E-08
   30.30000     -2.4181515E-08
   30.36000     -2.2550608E-08
   30.42000     -2.1079021E-08
   30.48000     -1.9829194E-08
   30.54000     -1.8835866E-08
   30.60000     -1.8098108E-08
   30.66000     -1.7582185E-08
   30.72000     -1.7234976E-08
   30.78000     -1.7003840E-08
   30.84000     -1.6855987E-08
   30.90000     -1.6790070E-08
   30.96000     -1.6835440E-08
   31.02000     -1.7039277E-08
   31.08000     -1.7446689E-08
   31.14000     -1.8081680E-08
   31.20000     -1.8936364E-08
   31.26000     -1.9972385E-08
   31.32000     -2.1133653E-08
   31.38000     -2.2365311E-08
   31.44000     -2.3631937E-08
   31.50000     -2.4928761E-08
   31.56000     -2.6282663E-08
   31.62000     -2.7743193E-08
   31.68000     -2.9367136E-08
   31.74000     -3.1201488E-08
   31.80000     -3.3269767E-08
   31.86000     -3.5565058E-08
   31.92000     -3.8051176E-08
   31.98000     -4.0671232E-08
   32.04000     -4.3361197E-08
   32.10000     -4.6064891E-08
   32.16000     -4.8746404E-08
   32.22000     -5.1396508E-08
   32.28000     -5.4030728E-08
   32.34000     -5.6679241E-08
   32.40000     -5.9371100E-08
   32.46000     -6.2117621E-08
   32.52000     -6.4900348E-08
   32.58000     -6.7667798E-08
   32.64000     -7.0342487E-08
   32.70000     -7.2835789E-08
   32.76000     -7.5065856E-08
   32.82000     -7.6972590E-08
   32.88000     -7.8525069E-08
   32.94000     -7.9719761E-08
   33.00000     -8.0570778E-08
   33.06000     -8.1095919E-08
   33.12000     -8.1302801E-08
   33.18000     -8.1179479E-08
   33.24000     -8.0691770E-08
   33.30000     -7.9788556E-08
   33.36000     -7.8413585E-08
   33.42000     -7.6520912E-08
   33.48000     -7.4089670E-08
   33.54000     -7.1133492E-08
   33.60000     -6.7701578E-08
   33.66000     -6.3870651E-08
   33.72000     -5.9730567E-08
   33.78000     -5.5368353E-08
   33.84000     -5.0856240E-08
   33.90000     -4.6247049E-08
   33.96000     -4.1577529E-08
   34.02000     -3.6877086E-08
   34.08000     -3.2177578E-08
   34.14000     -2.7520299E-08
   34.20000     -2.2957838E-08
   34.26000     -1.8550722E-08
   34.32000     -1.4360400E-08
   34.38000     -1.0440862E-08
   34.44000     -6.8310344E-09
   34.50000     -3.5496941E-09
   34.56000     -5.9405464E-10
   34.62000      2.0574764E-09
   34.68000      4.4386677E-09
   34.74000      6.5862804E-09
   34.80000      8.5305452E-09
   34.86000      1.0287849E-08
   34.92000      1.1857653E-08
   34.98000      1.3224356E-08
   35.04000      1.4363200E-08
   35.10000      1.5248030E-08
   35.16000      1.5858312E-08
   35.22000      1.6183273E-08
   35.28000      1.6222304E-08
   35.34000      1.5982106E-08
   35.40000      1.5472288E-08
   35.46000      1.4701541E-08
   35.52000      1.3676275E-08
   35.58000      1.2402542E-08
   35.64000      1.0890457E-08
   35.70000      9.1590113E-09
   35.76000      7.2384920E-09
   35.82000      5.1683613E-09
   35.88000      2.9903362E-09
   35.94000      7.3876855E-10
   36.00000     -1.5678141E-09
   36.06000     -3.9300208E-09
   36.12000     -6.3636429E-09
   36.18000     -8.8894021E-09
   36.24000     -1.1520329E-08
   36.30000     -1.4251928E-08
   36.36000     -1.7059239E-08
   36.42000     -1.9901867E-08
   36.48000     -2.2734630E-08
   36.54000     -2.5519233E-08
   36.60000     -2.8232241E-08
   36.66000     -3.0866623E-08
   36.72000     -3.3426918E-08
   36.78000     -3.5920596E-08
   36.84000     -3.8348929E-08
   36.90000     -4.0700346E-08
   36.96000     -4.2947821E-08
   37.02000     -4.5050452E-08
   37.08000     -4.6958775E-08
   37.14000     -4.8622685E-08
   37.20000     -5.0000775E-08
   37.26000     -5.1069115E-08
   37.32000     -5.1827012E-08
   37.38000     -5.2297313E-08
   37.44000     -5.2520129E-08
   37.50000     -5.2541065E-08
   37.56000     -5.2397809E-08
   37.62000     -5.2110224E-08
   37.68000     -5.1678448E-08
   37.74000     -5.1090403E-08
   37.80000     -5.0335920E-08
   37.86000     -4.9421526E-08
   37.92000     -4.8379185E-08
   37.98000     -4.7264688E-08
   38.04000     -4.6145924E-08
   38.10000     -4.5085613E-08
   38.16000     -4.4125262E-08
   38.22000     -4.3276437E-08
   38.28000     -4.2521926E-08
   38.34000     -4.1825384E-08
   38.40000     -4.1145100E-08
   38.46000     -4.0446771E-08
   38.52000     -3.9711598E-08
   38.58000     -3.8938250E-08
   38.64000     -3.8139440E-08
   38.70000     -3.7334935E-08
   38.76000     -3.6543437E-08
   38.82000     -3.5775404E-08
   38.88000     -3.5029057E-08
   38.94000     -3.4291187E-08
   39.00000     -3.3543412E-08
   39.06000     -3.2772757E-08
   39.12000     -3.1983053E-08
   39.18000     -3.1202493E-08
   39.24000     -3.0482997E-08
   39.30000     -2.9889708E-08
   39.36000     -2.9483205E-08
   39.42000     -2.9300294E-08
   39.48000     -2.9340798E-08
   39.54000     -2.9565497E-08
   39.60000     -2.9906033E-08
   39.66000     -3.0282703E-08
   39.72000     -3.0623202E-08
   39.78000     -3.0875743E-08
   39.84000     -3.1013318E-08
   39.90000     -3.1029955E-08
   39.96000     -3.0932846E-08
   40.02000     -3.0734498E-08
   40.08000     -3.0447438E-08
   40.14000     -3.0081555E-08
   40.20000     -2.9642854E-08
   40.26000     -2.9132934E-08
   40.32000     -2.8549451E-08
   40.38000     -2.7888781E-08
   40.44000     -2.7151270E-08
   40.50000     -2.6347550E-08
   40.56000     -2.5502793E-08
   40.62000     -2.4655654E-08
   40.68000     -2.3850804E-08
   40.74000     -2.3127132E-08
   40.80000     -2.2506160E-08
   40.86000     -2.1985590E-08
   40.92000     -2.1540695E-08
   40.98000     -2.1132969E-08
   41.04000     -2.0722618E-08
   41.10000     -2.0280533E-08
   41.16000     -1.9796330E-08
   41.22000     -1.9281066E-08
   41.28000     -1.8764975E-08
   41.34000     -1.8291525E-08
   41.40000     -1.7909180E-08
   41.46000     -1.7662256E-08
   41.52000     -1.7582241E-08
   41.58000     -1.7681309E-08
   41.64000     -1.7949592E-08
   41.70000     -1.8357277E-08
   41.76000     -1.8861282E-08
   41.82000     -1.9415095E-08
   41.88000     -1.9979439E-08
   41.94000     -2.0531239E-08
   42.00000     -2.1068784E-08
   42.06000     -2.1611701E-08
   42.12000     -2.2195429E-08
   42.18000     -2.2861036E-08
   42.24000     -2.3642595E-08
   42.30000     -2.4555481E-08
   42.36000     -2.5589221E-08
   42.42000     -2.6707824E-08
   42.48000     -2.7858251E-08
   42.54000     -2.8984999E-08
   42.60000     -3.0046344E-08
   42.66000     -3.1026893E-08
   42.72000     -3.1942044E-08
   42.78000     -3.2832602E-08
   42.84000     -3.3751025E-08
   42.90000     -3.4743739E-08
   42.96000     -3.5835317E-08
   43.02000     -3.7019703E-08
   43.08000     -3.8261650E-08
   43.14000     -3.9507963E-08
   43.20000     -4.0705110E-08
   43.26000     -4.1817458E-08
   43.32000     -4.2840089E-08
   43.38000     -4.3801744E-08
   43.44000     -4.4756444E-08
   43.50000     -4.5765962E-08
   43.56000     -4.6878156E-08
   43.62000     -4.8107751E-08
   43.68000     -4.9425747E-08
   43.74000     -5.0761518E-08
   43.80000     -5.2018031E-08
   43.86000     -5.3096723E-08
   43.92000     -5.3924936E-08
   43.98000     -5.4477347E-08
   44.04000     -5.4783786E-08
   44.10000     -5.4919770E-08
   44.16000     -5.4981779E-08
   44.22000     -5.5055018E-08
   44.28000     -5.5184458E-08
   44.34000     -5.5359493E-08
   44.40000     -5.5517855E-08
   44.46000     -5.5567565E-08
   44.52000     -5.5419196E-08
   44.58000     -5.5016969E-08
   44.64000     -5.4357880E-08
   44.70000     -5.3492606E-08
   44.76000     -5.2508504E-08
   44.82000     -5.1501143E-08
   44.88000     -5.0544408E-08
   44.94000     -4.9668930E-08
   45.00000     -4.8855291E-08
   45.06000     -4.8043166E-08
   45.12000     -4.7152529E-08
   45.18000     -4.6109612E-08
   45.24000     -4.4869385E-08
   45.30000     -4.3428056E-08
   45.36000     -4.1822133E-08
   45.42000     -4.0115030E-08
   45.48000     -3.8375628E-08
   45.54000     -3.6655958E-08
   45.60000     -3.4975486E-08
   45.66000     -3.3317566E-08
   45.72000     -3.1639626E-08
   45.78000     -2.9893599E-08
   45.84000     -2.8049140E-08
   45.90000     -2.6110596E-08
   45.96000     -2.4120899E-08
   46.02000     -2.2150418E-08
   46.08000     -2.0274836E-08
   46.14000     -1.8550301E-08
   46.20000     -1.6995170E-08
   46.26000     -1.5584829E-08
   46.32000     -1.4261065E-08
   46.38000     -1.2952333E-08
   46.44000     -1.1597821E-08
   46.50000     -1.0167601E-08
   46.56000     -8.6729077E-09
   46.62000     -7.1639428E-09
   46.68000     -5.7162945E-09
   46.74000     -4.4102473E-09
   46.80000     -3.3090939E-09
   46.86000     -2.4427593E-09
   46.92000     -1.8013645E-09
   46.98000     -1.3402948E-09
   47.04000     -9.9478892E-10
   47.10000     -6.9922784E-10
   47.16000     -4.0515474E-10
   47.22000     -9.2899105E-11
   47.28000      2.2593630E-10
   47.34000      5.1493082E-10
   47.40000      7.2548600E-10
   47.46000      8.1140789E-10
   47.52000      7.4102358E-10
   47.58000      5.0344717E-10
   47.64000      1.0753139E-10
   47.70000     -4.2573187E-10
   47.76000     -1.0746574E-09
   47.82000     -1.8284353E-09
   47.88000     -2.6953031E-09
   47.94000     -3.7050765E-09
   48.00000     -4.9056457E-09
   48.06000     -6.3548833E-09
   48.12000     -8.1107769E-09
   48.18000     -1.0223272E-08
   48.24000     -1.2731052E-08
   48.30000     -1.5665227E-08
   48.36000     -1.9059527E-08
   48.42000     -2.2963976E-08
   48.48000     -2.7457208E-08
   48.54000     -3.2652967E-08
   48.60000     -3.8699177E-08
   48.66000     -4.5772129E-08
   48.72000     -5.4071208E-08
   48.78000     -6.3819456E-08
   48.84000     -7.5271430E-08
   48.90000     -8.8725123E-08
   48.96000     -1.0453208E-07
   49.02000     -1.2310129E-07
   49.08000     -1.4489767E-07
   49.14000     -1.7044079E-07
   49.20000     -2.0031101E-07
   49.26000     -2.3516681E-07
   49.32000     -2.7577062E-07
   49.38000     -3.2301679E-07
   49.44000     -3.7795479E-07
   49.50000     -4.4180592E-07
   49.56000     -5.1597624E-07
   49.62000     -6.0207020E-07
   49.68000     -7.0190765E-07
   49.74000     -8.1754138E-07
   49.80000     -9.5127274E-07
   49.86000     -1.1056628E-06
   49.92000     -1.2835466E-06
   49.98000     -1.4880544E-06
   50.04000     -1.7226523E-06
   50.10000     -1.9911936E-06
   50.16000     -2.2979782E-06
   50.22000     -2.6478010E-06
   50.28000     -3.0459857E-06
   50.34000     -3.4983964E-06
   50.40000     -4.0114442E-06
   50.46000     -4.5920992E-06
   50.52000     -5.2479149E-06
   50.58000     -5.9870727E-06
   50.64000     -6.8184318E-06
   50.70000     -7.7515888E-06
   50.76000     -8.7969183E-06
   50.82000     -9.9656108E-06
   50.88000     -1.1269685E-05
   50.94000     -1.2721992E-05
   51.00000     -1.4336196E-05
   51.06000     -1.6126747E-05
   51.12000     -1.8108858E-05
   51.18000     -2.0298472E-05
   51.24000     -2.2712251E-05
   51.30000     -2.5367575E-05
   51.36000     -2.8282529E-05
   51.42000     -3.1475891E-05
   51.48000     -3.4967074E-05
   51.54000     -3.8776070E-05
   51.60000     -4.2923311E-05
   51.66000     -4.7429552E-05
   51.72000     -5.2315743E-05
   51.78000     -5.7602861E-05
   51.84000     -6.3311811E-05
   51.90000     -6.9463284E-05
   51.96000     -7.6077609E-05
   52.02000     -8.3174629E-05
   52.08000     -9.0773552E-05
   52.14000     -9.8892757E-05
   52.20000     -1.0754960E-04
   52.26000     -1.1676016E-04
   52.32000     -1.2653903E-04
   52.38000     -1.3689905E-04
   52.44000     -1.4785111E-04
   52.50000     -1.5940398E-04
   52.56000     -1.7156408E-04
   52.62000     -1.8433545E-04
   52.68000     -1.9771951E-04
   52.74000     -2.1171490E-04
   52.80000     -2.2631738E-04
   52.86000     -2.4151965E-04
   52.92000     -2.5731119E-04
   52.98000     -2.7367816E-04
   53.04000     -2.9060344E-04
   53.10000     -3.0806646E-04
   53.16000     -3.2604314E-04
   53.22000     -3.4450609E-04
   53.28000     -3.6342462E-04
   53.34000     -3.8276493E-04
   53.40000     -4.0249023E-04
   53.46000     -4.2256084E-04
   53.52000     -4.4293440E-04
   53.58000     -4.6356602E-04
   53.64000     -4.8440872E-04
   53.70000     -5.0541351E-04
   53.76000     -5.2652985E-04
   53.82000     -5.4770609E-04
   53.88000     -5.6888972E-04
   53.94000     -5.9002760E-04
   54.00000     -6.1106676E-04
   54.06000     -6.3195429E-04
   54.12000     -6.5263821E-04
   54.18000     -6.7306811E-04
   54.24000     -6.9319498E-04
   54.30000     -7.1297179E-04
   54.36000     -7.3235412E-04
   54.42000     -7.5130037E-04
   54.48000     -7.6977198E-04
   54.54000     -7.8773429E-04
   54.60000     -8.0515654E-04
   54.66000     -8.2201243E-04
   54.72000     -8.3827990E-04
   54.78000     -8.5394166E-04
   54.84000     -8.6898520E-04
   54.90000     -8.8340306E-04
   54.96000     -8.9719286E-04
   55.02000     -9.1035728E-04
   55.08000     -9.2290400E-04
   55.14000     -9.3484565E-04
   55.20000     -9.4619952E-04
   55.26000     -9.5698767E-04
   55.32000     -9.6723664E-04
   55.38000     -9.7697717E-04
   55.44000     -9.8624383E-04
   55.50000     -9.9507428E-04
   55.56000     -1.0035093E-03