  -2.400000      0.0000000E+00
  -2.340000      0.0000000E+00
  -2.280000      0.0000000E+00
  -2.220000      0.0000000E+00
  -2.160000      0.0000000E+00
  -2.100000      0.0000000E+00
  -2.040000      0.0000000E+00
  -1.980000      0.0000000E+00
  -1.920000      0.0000000E+00
  -1.860000      0.0000000E+00
  -1.800000      0.0000000E+00
  -1.740000      6.4662764E-31
  -1.680000      7.8239640E-30
  -1.620000      3.9556085E-29
  -1.560000      7.3511019E-29
  -1.500000     -2.8395430E-28
  -1.440000     -2.6135189E-27
  -1.380000     -9.9963437E-27
  -1.320000     -2.2410184E-26
  -1.260000     -1.9806237E-26
  -1.200000      6.5376213E-26
  -1.140000      3.4659235E-25
  -1.080000      8.5450952E-25
  -1.020000      1.1874773E-24
 -0.9600000      7.3808187E-26
 -0.9000000     -4.4943019E-24
 -0.8400000     -1.3409679E-23
 -0.7800000     -2.2283435E-23
 -0.7200000     -1.7073372E-23
 -0.6600000      2.3919929E-23
 -0.6000000      1.1286591E-22
 -0.5400000      2.1835263E-22
 -0.4800000      2.3402421E-22
 -0.4200000     -3.6180719E-24
 -0.3600000     -5.9754363E-22
 -0.3000000     -1.3777538E-21
 -0.2400000     -1.7241396E-21
 -0.1800000     -6.8248020E-22
 -0.1200000      2.3890050E-21
 -5.9999999E-02  6.7264231E-21
  0.0000000E+00  9.3033617E-21
  5.9999999E-02  5.4080608E-21
  0.1200000     -8.3705177E-21
  0.1800000     -2.9257902E-20
  0.2400000     -4.4482119E-20
  0.3000000     -3.3380050E-20
  0.3600000      2.0860951E-20
  0.4200000      1.1185325E-19
  0.4800000      1.9399491E-19
  0.5400000      1.8718849E-19
  0.6000000      1.5776134E-20
  0.6600000     -3.2378338E-19
  0.7200000     -7.0083498E-19
  0.7800000     -8.4968215E-19
  0.8400000     -4.7605164E-19
  0.9000000      5.3678650E-19
  0.9600000      1.9136292E-18
   1.020000      2.9226065E-18
   1.080000      2.6049837E-18
   1.140000      3.1428864E-19
   1.200000     -3.6375123E-18
   1.260000     -7.6218556E-18
   1.320000     -9.0350366E-18
   1.380000     -5.4882346E-18
   1.440000      3.5039950E-18
   1.500000      1.5196914E-17
   1.560000      2.3696149E-17
   1.620000      2.2083479E-17
   1.680000      6.2244725E-18
   1.740000     -2.1325110E-17
   1.800000     -4.9673711E-17
   1.860000     -6.2245837E-17
   1.920000     -4.4084445E-17
   1.980000      8.4598201E-18
   2.040000      8.0333915E-17
   2.100000      1.3810672E-16
   2.160000      1.4135398E-16
   2.220000      6.3472811E-17
   2.280000     -8.6032051E-17
   2.340000     -2.5039903E-16
   2.400000     -3.3762757E-16
   2.460000     -2.5961067E-16
   2.520000      1.2209934E-17
   2.580000      4.0068542E-16
   2.640000      7.1950054E-16
   2.700000      7.3570656E-16
   2.760000      2.9188131E-16
   2.820000     -5.5914117E-16
   2.880000     -1.4852374E-15
   2.940000     -1.9466922E-15
   3.000000     -1.4309365E-15
   3.060000      2.1963383E-16
   3.120000      2.5477951E-15
   3.180000      4.4812583E-15
   3.240000      4.7067690E-15
   3.300000      2.3502898E-15
   3.360000     -2.3230607E-15
   3.420000     -7.6054326E-15
   3.480000     -1.0778834E-14
   3.540000     -9.3077333E-15
   3.600000     -2.3648114E-15
   3.660000      8.0936006E-15
   3.720000      1.7494541E-14
   3.780000      2.0383795E-14
   3.840000      1.3235836E-14
   3.900000     -2.9496197E-15
   3.960000     -2.1835842E-14
   4.020000     -3.3737210E-14
   4.080000     -3.0101982E-14
   4.140000     -8.6530760E-15
   4.200000      2.3554772E-14
   4.260000      5.1479586E-14
   4.320000      5.8287502E-14
   4.380000      3.4224576E-14
   4.440000     -1.6083677E-14
   4.500000     -7.2363597E-14
   4.560000     -1.0568242E-13
   4.620000     -9.1911254E-14
   4.680000     -2.5902173E-14
   4.740000      7.1118445E-14
   4.800000      1.5648451E-13
   4.860000      1.8351115E-13
   4.920000      1.2492657E-13
   4.980000     -8.7317238E-15
   5.040000     -1.6644859E-13
   5.100000     -2.7440810E-13
   5.160000     -2.6893670E-13
   5.220000     -1.3072281E-13
   5.280000      9.6992123E-14
   5.340000      3.1852629E-13
   5.400000      4.2417738E-13
   5.460000      3.4250215E-13
   5.520000      8.2426314E-14
   5.580000     -2.5781458E-13
   5.640000     -5.2499671E-13
   5.700000     -5.7840874E-13
   5.760000     -3.6203557E-13
   5.820000      5.4105239E-14
   5.880000      4.8928965E-13
   5.940000      7.2563413E-13
   6.000000      6.1249785E-13
   6.060000      1.5450925E-13
   6.120000     -4.6351052E-13
   6.180000     -9.3768960E-13
   6.240000     -9.7646598E-13
   6.300000     -4.4932124E-13
   6.360000      5.1673021E-13
   6.420000      1.5479462E-12
   6.480000      2.1537654E-12
   6.540000      1.9326942E-12
   6.600000      7.6934515E-13
   6.660000     -1.0689870E-12
   6.720000     -2.9921840E-12
   6.780000     -4.2935521E-12
   6.840000     -4.4240822E-12
   6.900000     -3.2180031E-12
   6.960000     -9.6595323E-13
   7.020000      1.7045196E-12
   7.080000      4.0931408E-12
   7.140000      5.7146800E-12
   7.200000      6.4683332E-12
   7.260000      6.5940235E-12
   7.320000      6.4212225E-12
   7.380000      6.0268405E-12
   7.440000      4.9876288E-12
   7.500000      2.3999288E-12
   7.560000     -2.7609328E-12
   7.620000     -1.1024200E-11
   7.680000     -2.1779073E-11
   7.740000     -3.2900647E-11
   7.800000     -4.0895759E-11
   7.860000     -4.1653112E-11
   7.920000     -3.1655328E-11
   7.980000     -9.3085357E-12
   8.040000      2.4047294E-11
   8.100000      6.3819561E-11
   8.160000      1.0270095E-10
   8.220000      1.3195395E-10
   8.280000      1.4309533E-10
   8.340000      1.2953223E-10
   8.400000      8.7774510E-11
   8.460000      1.8060544E-11
   8.520000     -7.5513117E-11
   8.580000     -1.8509795E-10
   8.640000     -2.9917446E-10
   8.700000     -4.0252521E-10
   8.760000     -4.7629078E-10
   8.820000     -4.9852883E-10
   8.880000     -4.4573403E-10
   8.940000     -2.9556296E-10
   9.000000     -3.0575206E-11
   9.060000      3.5768985E-10
   9.120000      8.6532748E-10
   9.180000      1.4744318E-09
   9.240000      2.1539139E-09
   9.300000      2.8628384E-09
   9.360000      3.5556216E-09
   9.420000      4.1879065E-09
   9.480000      4.7217936E-09
   9.540000      5.1294187E-09
   9.600000      5.3944973E-09
   9.660000      5.5121689E-09
   9.720000      5.4879332E-09
   9.780000      5.3365175E-09
   9.840000      5.0811400E-09
   9.900000      4.7529864E-09
   9.960000      4.3901629E-09
   10.02000      4.0352051E-09
   10.08000      3.7305794E-09
   10.14000      3.5123922E-09
   10.20000      3.4034757E-09
   10.26000      3.4076810E-09
   10.32000      3.5072565E-09
   10.38000      3.6645149E-09
   10.44000      3.8277612E-09
   10.50000      3.9401180E-09
   10.56000      3.9489487E-09
   10.62000      3.8134464E-09
   10.68000      3.5086787E-09
   10.74000      3.0257166E-09
   10.80000      2.3689055E-09
   10.86000      1.5522230E-09
   10.92000      5.9670946E-10
   10.98000     -4.6990506E-10
   11.04000     -1.6116311E-09
   11.10000     -2.7822391E-09
   11.16000     -3.9249786E-09
   11.22000     -4.9756848E-09
   11.28000     -5.8696474E-09
   11.34000     -6.5509576E-09
   11.40000     -6.9817361E-09
   11.46000     -7.1483020E-09
   11.52000     -7.0621944E-09
   11.58000     -6.7556929E-09
   11.64000     -6.2734515E-09
   11.70000     -5.6632099E-09
   11.76000     -4.9687157E-09
   11.82000     -4.2268629E-09
   11.88000     -3.4690786E-09
   11.94000     -2.7250497E-09
   12.00000     -2.0257831E-09
   12.06000     -1.4033440E-09
   12.12000     -8.8624996E-10
   12.18000     -4.9181914E-10
   12.24000     -2.1868904E-10
   12.30000     -4.3367233E-11
   12.36000      7.6414298E-11
   12.42000      1.9126473E-10
   12.48000      3.4530379E-10
   12.54000      5.6180455E-10
   12.60000      8.3459573E-10
   12.66000      1.1288259E-09
   12.72000      1.3914472E-09
   12.78000      1.5681738E-09
   12.84000      1.6211443E-09
   12.90000      1.5411082E-09
   12.96000      1.3499025E-09
   13.02000      1.0925599E-09
   13.08000      8.2222679E-10
   13.14000      5.8363175E-10
   13.20000      4.0115841E-10
   13.26000      2.7551020E-10
   13.32000      1.8939747E-10
   13.38000      1.1909436E-10
   13.44000      4.6570435E-11
   13.50000     -3.2925357E-11
   13.56000     -1.1060031E-10
   13.62000     -1.7046109E-10
   13.68000     -1.9848992E-10
   13.74000     -1.8961298E-10
   13.80000     -1.4855260E-10
   13.86000     -8.3716617E-11
   13.92000      3.0883800E-12
   13.98000      1.2580957E-10
   14.04000      3.1669303E-10
   14.10000      6.1919875E-10
   14.16000      1.0723987E-09
   14.22000      1.6920596E-09
   14.28000      2.4558238E-09
   14.34000      3.2991370E-09
   14.40000      4.1249426E-09
   14.46000      4.8250288E-09
   14.52000      5.3063061E-09
   14.58000      5.5131135E-09
   14.64000      5.4378644E-09
   14.70000      5.1165370E-09
   14.76000      4.6111208E-09
   14.82000      3.9859462E-09
   14.88000      3.2869703E-09
   14.94000      2.5317355E-09
   15.00000      1.7133607E-09
   15.06000      8.1627405E-10
   15.12000     -1.6329885E-10
   15.18000     -1.2010064E-09
   15.24000     -2.2394695E-09
   15.30000     -3.1974972E-09
   15.36000     -3.9904013E-09
   15.42000     -4.5538395E-09
   15.48000     -4.8620352E-09
   15.54000     -4.9333266E-09
   15.60000     -4.8209081E-09
   15.66000     -4.5924424E-09
   15.72000     -4.3065498E-09
   15.78000     -3.9952535E-09
   15.84000     -3.6589061E-09
   15.90000     -3.2749017E-09
   15.96000     -2.8158775E-09
   16.02000     -2.2693363E-09
   16.08000     -1.6502828E-09
   16.14000     -1.0016179E-09
   16.20000     -3.8231499E-10
   16.26000      1.5145779E-10
   16.32000      5.6424165E-10
   16.38000      8.5077895E-10
   16.44000      1.0333528E-09
   16.50000      1.1484325E-09
   16.56000      1.2285368E-09
   16.62000      1.2871076E-09
   16.68000      1.3127522E-09
   16.74000      1.2751763E-09
   16.80000      1.1402020E-09
   16.86000      8.8754248E-10
   16.92000      5.2391907E-10
   16.98000      8.6059118E-11
   17.04000     -3.6783529E-10
   17.10000     -7.7503365E-10
   17.16000     -1.0873746E-09
   17.22000     -1.2855957E-09
   17.28000     -1.3839822E-09
   17.34000     -1.4241923E-09
   17.40000     -1.4611383E-09
   17.46000     -1.5465380E-09
   17.52000     -1.7162151E-09
   17.58000     -1.9853652E-09
   17.64000     -2.3525981E-09
   17.70000     -2.8100291E-09
   17.76000     -3.3544012E-09
   17.82000     -3.9940584E-09
   17.88000     -4.7485647E-09
   17.94000     -5.6410387E-09
   18.00000     -6.6864390E-09
   18.06000     -7.8807814E-09
   18.12000     -9.1958476E-09
   18.18000     -1.0581596E-08
   18.24000     -1.1975161E-08
   18.30000     -1.3312611E-08
   18.36000     -1.4538635E-08
   18.42000     -1.5610471E-08
   18.48000     -1.6495166E-08
   18.54000     -1.7162373E-08
   18.60000     -1.7576880E-08
   18.66000     -1.7695125E-08
   18.72000     -1.7468043E-08
   18.78000     -1.6849611E-08
   18.84000     -1.5807849E-08
   18.90000     -1.4333869E-08
   18.96000     -1.2445406E-08
   19.02000     -1.0183546E-08
   19.08000     -7.6042070E-09
   19.14000     -4.7678417E-09
   19.20000     -1.7313306E-09
   19.26000      1.4552832E-09
   19.32000      4.7468078E-09
   19.38000      8.0975679E-09
   19.44000      1.1456033E-08
   19.50000      1.4762694E-08
   19.56000      1.7953132E-08
   19.62000      2.0966054E-08
   19.68000      2.3753987E-08
   19.74000      2.6293012E-08
   19.80000      2.8587730E-08
   19.86000      3.0669071E-08
   19.92000      3.2584701E-08
   19.98000      3.4384378E-08
   20.04000      3.6104559E-08
   20.10000      3.7757182E-08
   20.16000      3.9326608E-08
   20.22000      4.0776058E-08
   20.28000      4.2061640E-08
   20.34000      4.3149349E-08
   20.40000      4.4029104E-08
   20.46000      4.4720803E-08
   20.52000      4.5270138E-08
   20.58000      4.5735732E-08
   20.64000      4.6172318E-08
   20.70000      4.6616226E-08
   20.76000      4.7078565E-08
   20.82000      4.7548543E-08
   20.88000      4.8005386E-08
   20.94000      4.8434146E-08
   21.00000      4.8838970E-08
   21.06000      4.9248484E-08
   21.12000      4.9710970E-08
   21.18000      5.0280864E-08
   21.24000      5.1001489E-08
   21.30000      5.1890350E-08
   21.36000      5.2932251E-08
   21.42000      5.4082538E-08
   21.48000      5.5278960E-08
   21.54000      5.6457566E-08
   21.60000      5.7566762E-08
   21.66000      5.8574866E-08
   21.72000      5.9469073E-08
   21.78000      6.0247132E-08
   21.84000      6.0905656E-08
   21.90000      6.1429830E-08
   21.96000      6.1788562E-08
   22.02000      6.1936873E-08
   22.08000      6.1824920E-08
   22.14000      6.1410645E-08
   22.20000      6.0672065E-08
   22.26000      5.9615530E-08
   22.32000      5.8277099E-08
   22.38000      5.6716619E-08
   22.44000      5.5005721E-08
   22.50000      5.3212993E-08
   22.56000      5.1390270E-08
   22.62000      4.9563756E-08
   22.68000      4.7732367E-08
   22.74000      4.5873591E-08
   22.80000      4.3954845E-08
   22.86000      4.1946794E-08
   22.92000      3.9834411E-08
   22.98000      3.7622431E-08
   23.04000      3.5333748E-08
   23.10000      3.3001594E-08
   23.16000      3.0658377E-08
   23.22000      2.8325166E-08
   23.28000      2.6005377E-08
   23.34000      2.3684640E-08
   23.40000      2.1336543E-08
   23.46000      1.8931779E-08
   23.52000      1.6447107E-08
   23.58000      1.3870801E-08
   23.64000      1.1202771E-08
   23.70000      8.4499661E-09
   23.76000      5.6196341E-09
   23.82000      2.7140015E-09
   23.88000     -2.7059399E-10
   23.94000     -3.3389866E-09
   24.00000     -6.4881900E-09
   24.06000     -9.6975441E-09
   24.12000     -1.2922241E-08
   24.18000     -1.6093704E-08
   24.24000     -1.9128064E-08
   24.30000     -2.1941064E-08
   24.36000     -2.4465205E-08
   24.42000     -2.6663622E-08
   24.48000     -2.8535949E-08
   24.54000     -3.0113725E-08
   24.60000     -3.1446518E-08
   24.66000     -3.2583166E-08
   24.72000     -3.3554546E-08
   24.78000     -3.4363818E-08
   24.84000     -3.4987604E-08
   24.90000     -3.5387643E-08
   24.96000     -3.5528565E-08
   25.02000     -3.5395228E-08
   25.08000     -3.5003374E-08
   25.14000     -3.4399907E-08
   25.20000     -3.3653105E-08
   25.26000     -3.2836919E-08
   25.32000     -3.2015304E-08
   25.38000     -3.1232204E-08
   25.44000     -3.0509980E-08
   25.50000     -2.9855450E-08
   25.56000     -2.9269504E-08
   25.62000     -2.8755171E-08
   25.68000     -2.8320098E-08
   25.74000     -2.7972526E-08
   25.80000     -2.7713080E-08
   25.86000     -2.7527140E-08
   25.92000     -2.7382468E-08
   25.98000     -2.7234584E-08
   26.04000     -2.7038768E-08
   26.10000     -2.6764241E-08
   26.16000     -2.6404724E-08
   26.22000     -2.5980516E-08
   26.28000     -2.5530641E-08
   26.34000     -2.5097661E-08
   26.40000     -2.4710891E-08
   26.46000     -2.4374543E-08
   26.52000     -2.4065447E-08
   26.58000     -2.3741311E-08
   26.64000     -2.3356321E-08
   26.70000     -2.2878231E-08
   26.76000     -2.2300679E-08
   26.82000     -2.1646450E-08
   26.88000     -2.0960812E-08
   26.94000     -2.0297541E-08
   27.00000     -1.9702625E-08
   27.06000     -1.9200987E-08
   27.12000     -1.8790329E-08
   27.18000     -1.8443595E-08
   27.24000     -1.8118834E-08
   27.30000     -1.7773001E-08
   27.36000     -1.7375269E-08
   27.42000     -1.6915847E-08
   27.48000     -1.6407816E-08
   27.54000     -1.5881932E-08
   27.60000     -1.5376433E-08
   27.66000     -1.4925369E-08
   27.72000     -1.4549238E-08
   27.78000     -1.4250478E-08
   27.84000     -1.4014681E-08
   27.90000     -1.3816387E-08
   27.96000     -1.3627153E-08
   28.02000     -1.3423318E-08
   28.08000     -1.3191517E-08
   28.14000     -1.2930901E-08
   28.20000     -1.2652003E-08
   28.26000     -1.2372710E-08
   28.32000     -1.2112289E-08
   28.38000     -1.1884750E-08
   28.44000     -1.1693314E-08
   28.50000     -1.1527954E-08
   28.56000     -1.1367560E-08
   28.62000     -1.1187025E-08
   28.68000     -1.0967643E-08
   28.74000     -1.0707433E-08
   28.80000     -1.0427184E-08
   28.86000     -1.0168924E-08
   28.92000     -9.9859072E-09
   28.98000     -9.9264739E-09
   29.04000     -1.0016758E-08
   29.10000     -1.0248291E-08
   29.16000     -1.0575344E-08
   29.22000     -1.0923861E-08
   29.28000     -1.1209934E-08
   29.34000     -1.1362475E-08
   29.40000     -1.1342997E-08
   29.46000     -1.1156146E-08
   29.52000     -1.0847354E-08
   29.58000     -1.0488199E-08
   29.64000     -1.0154210E-08
   29.70000     -9.9025401E-09
   29.76000     -9.7571018E-09
   29.82000     -9.7061674E-09
   29.88000     -9.7128945E-09
   29.94000     -9.7343902E-09
   30.00000     -9.7417656E-09
   30.06000     -9.7334034E-09
   30.12000     -9.7365866E-09
   30.18000     -9.7974411E-09
   30.24000     -9.9638013E-09
   30.30000     -1.0268121E-08
   30.36000     -1.0716981E-08
   30.42000     -1.1290530E-08
   30.48000     -1.1950868E-08
   30.54000     -1.2654981E-08
   30.60000     -1.3366606E-08
   30.66000     -1.4062612E-08
   30.72000     -1.4732336E-08
   30.78000     -1.5371336E-08
   30.84000     -1.5972965E-08
   30.90000     -1.6521559E-08
   30.96000     -1.6989885E-08
   31.02000     -1.7341517E-08
   31.08000     -1.7536895E-08
   31.14000     -1.7540517E-08
   31.20000     -1.7326581E-08
   31.26000     -1.6881083E-08
   31.32000     -1.6200046E-08
   31.38000     -1.5285185E-08
   31.44000     -1.4139508E-08
   31.50000     -1.2765486E-08
   31.56000     -1.1167176E-08
   31.62000     -9.3557873E-09
   31.68000     -7.3561379E-09
   31.74000     -5.2105507E-09
   31.80000     -2.9774314E-09
   31.86000     -7.2386497E-10
   31.92000      1.4857953E-09
   31.98000      3.6014187E-09
   32.04000      5.5944929E-09
   32.10000      7.4587430E-09
   32.16000      9.2039905E-09
   32.22000      1.0845866E-08
   32.28000      1.2395427E-08
   32.34000      1.3852516E-08
   32.40000      1.5204957E-08
   32.46000      1.6433363E-08
   32.52000      1.7519286E-08
   32.58000      1.8453367E-08
   32.64000      1.9240415E-08
   32.70000      1.9899598E-08
   32.76000      2.0459835E-08
   32.82000      2.0952191E-08
   32.88000      2.1402208E-08
   32.94000      2.1825020E-08
   33.00000      2.2225022E-08
   33.06000      2.2599995E-08
   33.12000      2.2947731E-08
   33.18000      2.3272067E-08
   33.24000      2.3585475E-08
   33.30000      2.3906718E-08
   33.36000      2.4254174E-08
   33.42000      2.4637199E-08
   33.48000      2.5048802E-08
   33.54000      2.5462407E-08
   33.60000      2.5834172E-08
   33.66000      2.6110524E-08
   33.72000      2.6239062E-08
   33.78000      2.6180091E-08
   33.84000      2.5915780E-08
   33.90000      2.5454462E-08
   33.96000      2.4828546E-08
   34.02000      2.4086118E-08
   34.08000      2.3278151E-08
   34.14000      2.2444889E-08
   34.20000      2.1605693E-08
   34.26000      2.0755968E-08
   34.32000      1.9872470E-08
   34.38000      1.8925354E-08
   34.44000      1.7892464E-08
   34.50000      1.6770473E-08
   34.56000      1.5578545E-08
   34.62000      1.4353259E-08
   34.68000      1.3136994E-08
   34.74000      1.1964471E-08
   34.80000      1.0852520E-08
   34.86000      9.7963913E-09
   34.92000      8.7729974E-09
   34.98000      7.7487883E-09
   35.04000      6.6887251E-09
   35.10000      5.5631775E-09
   35.16000      4.3512385E-09
   35.22000      3.0406466E-09
   35.28000      1.6255561E-09
   35.34000      1.0348118E-10
   35.40000     -1.5277152E-09
   35.46000     -3.2723084E-09
   35.52000     -5.1380780E-09
   35.58000     -7.1355566E-09
   35.64000     -9.2741201E-09
   35.70000     -1.1554694E-08
   35.76000     -1.3960631E-08
   35.82000     -1.6450178E-08
   35.88000     -1.8954797E-08
   35.94000     -2.1386461E-08
   36.00000     -2.3653937E-08
   36.06000     -2.5684178E-08
   36.12000     -2.7441946E-08
   36.18000     -2.8940519E-08
   36.24000     -3.0238972E-08
   36.30000     -3.1426179E-08
   36.36000     -3.2596660E-08
   36.42000     -3.3825948E-08
   36.48000     -3.5153292E-08
   36.54000     -3.6576065E-08
   36.60000     -3.8056211E-08
   36.66000     -3.9534935E-08
   36.72000     -4.0950013E-08
   36.78000     -4.2250328E-08
   36.84000     -4.3404363E-08
   36.90000     -4.4401858E-08
   36.96000     -4.5250093E-08
   37.02000     -4.5967180E-08
   37.08000     -4.6574762E-08
   37.14000     -4.7091685E-08
   37.20000     -4.7529621E-08
   37.26000     -4.7890840E-08
   37.32000     -4.8168385E-08
   37.38000     -4.8348667E-08
   37.44000     -4.8416297E-08
   37.50000     -4.8360306E-08
   37.56000     -4.8180045E-08
   37.62000     -4.7888602E-08
   37.68000     -4.7511822E-08
   37.74000     -4.7082363E-08
   37.80000     -4.6630152E-08
   37.86000     -4.6172442E-08
   37.92000     -4.5707068E-08
   37.98000     -4.5211596E-08
   38.04000     -4.4648711E-08
   38.10000     -4.3975710E-08
   38.16000     -4.3154692E-08
   38.22000     -4.2160281E-08
   38.28000     -4.0983359E-08
   38.34000     -3.9631217E-08
   38.40000     -3.8125556E-08
   38.46000     -3.6499571E-08
   38.52000     -3.4794468E-08
   38.58000     -3.3054967E-08
   38.64000     -3.1323793E-08
   38.70000     -2.9636089E-08
   38.76000     -2.8015993E-08
   38.82000     -2.6477320E-08
   38.88000     -2.5028736E-08
   38.94000     -2.3681253E-08
   39.00000     -2.2454003E-08
   39.06000     -2.1374586E-08
   39.12000     -2.0472621E-08
   39.18000     -1.9768947E-08
   39.24000     -1.9265554E-08
   39.30000     -1.8941581E-08
   39.36000     -1.8758103E-08
   39.42000     -1.8669999E-08
   39.48000     -1.8639692E-08
   39.54000     -1.8646453E-08
   39.60000     -1.8687114E-08
   39.66000     -1.8768471E-08
   39.72000     -1.8895735E-08
   39.78000     -1.9063346E-08
   39.84000     -1.9253131E-08
   39.90000     -1.9440805E-08
   39.96000     -1.9607375E-08
   40.02000     -1.9749285E-08
   40.08000     -1.9881458E-08
   40.14000     -2.0030878E-08
   40.20000     -2.0222959E-08
   40.26000     -2.0466763E-08
   40.32000     -2.0745931E-08
   40.38000     -2.1019801E-08
   40.44000     -2.1234580E-08
   40.50000     -2.1339797E-08
   40.56000     -2.1302807E-08
   40.62000     -2.1115063E-08
   40.68000     -2.0787658E-08
   40.74000     -2.0338508E-08
   40.80000     -1.9777392E-08
   40.86000     -1.9095980E-08
   40.92000     -1.8267786E-08
   40.98000     -1.7258703E-08
   41.04000     -1.6044243E-08
   41.10000     -1.4626723E-08
   41.16000     -1.3045467E-08
   41.22000     -1.1375528E-08
   41.28000     -9.7144310E-09
   41.34000     -8.1605922E-09
   41.40000     -6.7898669E-09
   41.46000     -5.6373648E-09
   41.52000     -4.6900275E-09
   41.58000     -3.8921333E-09
   41.64000     -3.1618572E-09
   41.70000     -2.4136495E-09
   41.76000     -1.5795211E-09
   41.82000     -6.2299577E-10
   41.88000      4.5775281E-10
   41.94000      1.6372177E-09
   42.00000      2.8764371E-09
   42.06000      4.1376995E-09
   42.12000      5.3947882E-09
   42.18000      6.6359607E-09
   42.24000      7.8601605E-09
   42.30000      9.0696215E-09
   42.36000      1.0262971E-08
   42.42000      1.1431871E-08
   42.48000      1.2561953E-08
   42.54000      1.3636524E-08
   42.60000      1.4640396E-08
   42.66000      1.5561772E-08
   42.72000      1.6391715E-08
   42.78000      1.7122497E-08
   42.84000      1.7746801E-08
   42.90000      1.8258984E-08
   42.96000      1.8657893E-08
   43.02000      1.8949157E-08
   43.08000      1.9144430E-08
   43.14000      1.9256476E-08
   43.20000      1.9291313E-08
   43.26000      1.9240820E-08
   43.32000      1.9079835E-08
   43.38000      1.8770406E-08
   43.44000      1.8272686E-08
   43.50000      1.7558891E-08
   43.56000      1.6624805E-08
   43.62000      1.5493953E-08
   43.68000      1.4212241E-08
   43.74000      1.2834658E-08
   43.80000      1.1408911E-08
   43.86000      9.9621920E-09
   43.92000      8.4961638E-09
   43.98000      6.9922144E-09
   44.04000      5.4251341E-09
   44.10000      3.7800776E-09
   44.16000      2.0662843E-09
   44.22000      3.2200473E-10
   44.28000     -1.3917678E-09
   44.34000     -3.0069884E-09
   44.40000     -4.4682227E-09
   44.46000     -5.7491971E-09
   44.52000     -6.8601835E-09
   44.58000     -7.8435507E-09
   44.64000     -8.7592271E-09
   44.70000     -9.6652952E-09
   44.76000     -1.0600306E-08
   44.82000     -1.1572602E-08
   44.88000     -1.2558907E-08
   44.94000     -1.3511048E-08
   45.00000     -1.4367258E-08
   45.06000     -1.5063780E-08
   45.12000     -1.5543277E-08
   45.18000     -1.5758122E-08
   45.24000     -1.5668435E-08
   45.30000     -1.5236107E-08
   45.36000     -1.4416843E-08
   45.42000     -1.3152405E-08
   45.48000     -1.1364758E-08
   45.54000     -8.9526200E-09
   45.60000     -5.7896821E-09
   45.66000     -1.7228192E-09
   45.72000      3.4313508E-09
   45.78000      9.8922817E-09
   45.84000      1.7922963E-08
   45.90000      2.7837471E-08
   45.96000      4.0007269E-08
   46.02000      5.4866170E-08
   46.08000      7.2915654E-08
   46.14000      9.4732847E-08
   46.20000      1.2098340E-07
   46.26000      1.5243970E-07
   46.32000      1.9000385E-07
   46.38000      2.3473365E-07
   46.44000      2.8787039E-07
   46.50000      3.5086799E-07
   46.56000      4.2542354E-07
   46.62000      5.1350975E-07
   46.68000      6.1740928E-07
   46.74000      7.3975070E-07
   46.80000      8.8354722E-07
   46.86000      1.0522396E-06
   46.92000      1.2497453E-06
   46.98000      1.4805170E-06
   47.04000      1.7496078E-06
   47.10000      2.0627449E-06
   47.16000      2.4264059E-06
   47.22000      2.8479003E-06
   47.28000      3.3354509E-06
   47.34000      3.8982780E-06
   47.40000      4.5466909E-06
   47.46000      5.2921810E-06
   47.52000      6.1475257E-06
   47.58000      7.1268923E-06
   47.64000      8.2459464E-06
   47.70000      9.5219666E-06
   47.76000      1.0973964E-05
   47.82000      1.2622800E-05
   47.88000      1.4491312E-05
   47.94000      1.6604436E-05
   48.00000      1.8989318E-05
   48.06000      2.1675431E-05
   48.12000      2.4694655E-05
   48.18000      2.8081371E-05
   48.24000      3.1872529E-05
   48.30000      3.6107693E-05
   48.36000      4.0829109E-05
   48.42000      4.6081721E-05
   48.48000      5.1913183E-05
   48.54000      5.8373855E-05
   48.60000      6.5516768E-05
   48.66000      7.3397525E-05
   48.72000      8.2074221E-05
   48.78000      9.1607239E-05
   48.84000      1.0205907E-04
   48.90000      1.1349413E-04
   48.96000      1.2597842E-04
   49.02000      1.3957931E-04
   49.08000      1.5436510E-04
   49.14000      1.7040475E-04
   49.20000      1.8776732E-04
   49.26000      2.0652151E-04
   49.32000      2.2673511E-04
   49.38000      2.4847445E-04
   49.44000      2.7180382E-04
   49.50000      2.9678462E-04
   49.56000      3.2347502E-04
   49.62000      3.5192896E-04
   49.68000      3.8219569E-04
   49.74000      4.1431881E-04
   49.80000      4.4833566E-04
   49.86000      4.8427650E-04
   49.92000      5.2216381E-04
   49.98000      5.6201173E-04
   50.04000      6.0382509E-04
   50.10000      6.4759899E-04
   50.16000      6.9331832E-04
   50.22000      7.4095704E-04
   50.28000      7.9047796E-04
   50.34000      8.4183220E-04
   50.40000      8.9495914E-04
   50.46000      9.4978628E-04
   50.52000      1.0062290E-03
   50.58000      1.0641905E-03
   50.64000      1.1235627E-03
   50.70000      1.1842258E-03
   50.76000      1.2460492E-03
   50.82000      1.3088920E-03
   50.88000      1.3726044E-03
   50.94000      1.4370270E-03
   51.00000      1.5019934E-03
   51.06000      1.5673306E-03
   51.12000      1.6328603E-03
   51.18000      1.6984004E-03
   51.24000      1.7637662E-03
   51.30000      1.8287726E-03
   51.36000      1.8932346E-03
   51.42000      1.9569702E-03
   51.48000      2.0198014E-03
   51.54000      2.0815553E-03
   51.60000      2.1420668E-03
   51.66000      2.2011797E-03
   51.72000      2.2587480E-03
   51.78000      2.3146376E-03
   51.84000      2.3687291E-03
   51.90000      2.4209162E-03
   51.96000      2.4711101E-03
   52.02000      2.5192376E-03
   52.08000      2.5652435E-03
   52.14000      2.6090911E-03
   52.20000      2.6507617E-03
   52.26000      2.6902559E-03
   52.32000      2.7275926E-03
   52.38000      2.7628096E-03
   52.44000      2.7959628E-03
   52.50000      2.8271263E-03
   52.56000      2.8563899E-03
   52.62000      2.8838587E-03
   52.68000      2.9096527E-03
   52.74000      2.9339034E-03
   52.80000      2.9567534E-03
   52.86000      2.9783552E-03
   52.92000      2.9988678E-03
   52.98000      3.0184556E-03
   53.04000      3.0372867E-03
   53.10000      3.0555290E-03
   53.16000      3.0733496E-03
   53.22000      3.0909118E-03
   53.28000      3.1083736E-03
   53.34000      3.1258857E-03
   53.40000      3.1435883E-03
   53.46000      3.1616103E-03
   53.52000      3.1800678E-03
   53.58000      3.1990618E-03
   53.64000      3.2186776E-03
   53.70000      3.2389821E-03
   53.76000      3.2600246E-03
   53.82000      3.2818355E-03
   53.88000      3.3044259E-03
   53.94000      3.3277872E-03
   54.00000      3.3518916E-03
   54.06000      3.3766925E-03
   54.12000      3.4021244E-03
   54.18000      3.4281036E-03
   54.24000      3.4545304E-03
   54.30000      3.4812887E-03
   54.36000      3.5082495E-03
   54.42000      3.5352707E-03
   54.48000      3.5622008E-03
   54.54000      3.5888783E-03
   54.60000      3.6151365E-03
   54.66000      3.6408028E-03
   54.72000      3.6657033E-03
   54.78000      3.6896640E-03
   54.84000      3.7125123E-03
   54.90000      3.7340804E-03
   54.96000      3.7542058E-03
   55.02000      3.7727347E-03
   55.08000      3.7895241E-03
   55.14000      3.8044420E-03
   55.20000      3.8173692E-03
   55.26000      3.8282021E-03
   55.32000      3.8368518E-03
   55.38000      3.8432465E-03
   55.44000      3.8473315E-03
   55.50000      3.8490698E-03
   55.56000      3.8484430E-03