  -2.400000      0.0000000E+00
  -2.340000      0.0000000E+00
  -2.280000      0.0000000E+00
  -2.220000      0.0000000E+00
  -2.160000      0.0000000E+00
  -2.100000      0.0000000E+00
  -2.040000      1.3592586E-23
  -1.980000      1.2832452E-22
  -1.920000      6.1868117E-22
  -1.860000      2.0043273E-21
  -1.800000      4.8190880E-21
  -1.740000      8.8921706E-21
  -1.680000      1.2251874E-20
  -1.620000      1.0197487E-20
  -1.560000     -4.6914275E-21
  -1.500000     -4.0980786E-20
  -1.440000     -1.0478241E-19
  -1.380000     -1.9340575E-19
  -1.320000     -2.8539657E-19
  -1.260000     -3.2843827E-19
  -1.200000     -2.3406955E-19
  -1.140000      1.0078621E-19
  -1.080000      7.2155802E-19
  -1.020000      1.4907326E-18
 -0.9600000      1.9668918E-18
 -0.9000000      1.4260022E-18
 -0.8400000     -7.9958530E-19
 -0.7800000     -4.5899189E-18
 -0.7200000     -8.1397898E-18
 -0.6600000     -7.5496171E-18
 -0.6000000      2.1497903E-18
 -0.5400000      2.3847289E-17
 -0.4800000      5.3493075E-17
 -0.4200000      7.5776269E-17
 -0.3600000      6.4286922E-17
 -0.3000000     -9.7489712E-18
 -0.2400000     -1.5888080E-16
 -0.1800000     -3.5570966E-16
 -0.1200000     -5.1605768E-16
 -5.9999999E-02 -5.0557348E-16
  0.0000000E+00 -1.8309567E-16
  5.9999999E-02  5.1982036E-16
  0.1200000      1.5062850E-15
  0.1800000      2.4537265E-15
  0.2400000      2.8397762E-15
  0.3000000      2.0908441E-15
  0.3600000     -1.5717713E-16
  0.4200000     -3.7613807E-15
  0.4800000     -7.8682822E-15
  0.5400000     -1.0947890E-14
  0.6000000     -1.1155281E-14
  0.6600000     -6.9905799E-15
  0.7200000      1.9206724E-15
  0.7800000      1.4222627E-14
  0.8400000      2.6717230E-14
  0.9000000      3.4951137E-14
  0.9600000      3.4475786E-14
   1.020000      2.2474437E-14
   1.080000     -7.7272809E-16
   1.140000     -3.1174824E-14
   1.200000     -6.1298419E-14
   1.260000     -8.2090117E-14
   1.320000     -8.5470551E-14
   1.380000     -6.7023298E-14
   1.440000     -2.7836006E-14
   1.500000      2.5273352E-14
   1.560000      8.1394649E-14
   1.620000      1.2855874E-13
   1.680000      1.5704929E-13
   1.740000      1.6162413E-13
   1.800000      1.4164947E-13
   1.860000      9.9130488E-14
   1.920000      3.5855870E-14
   1.980000     -4.8270148E-14
   2.040000     -1.5379144E-13
   2.100000     -2.7668701E-13
   2.160000     -4.0163475E-13
   2.220000     -4.9752281E-13
   2.280000     -5.1972023E-13
   2.340000     -4.2167040E-13
   2.400000     -1.7417934E-13
   2.460000      2.1404025E-13
   2.520000      6.8396195E-13
   2.580000      1.1303380E-12
   2.640000      1.4251419E-12
   2.700000      1.4550346E-12
   2.760000      1.1602761E-12
   2.820000      5.5996375E-13
   2.880000     -2.4743139E-13
   2.940000     -1.1096789E-12
   3.000000     -1.8630655E-12
   3.060000     -2.3746794E-12
   3.120000     -2.5683232E-12
   3.180000     -2.4255992E-12
   3.240000     -1.9656483E-12
   3.300000     -1.2173228E-12
   3.360000     -2.0120820E-13
   3.420000      1.0659735E-12
   3.480000      2.5432189E-12
   3.540000      4.1244052E-12
   3.600000      5.6038897E-12
   3.660000      6.6681547E-12
   3.720000      6.9260257E-12
   3.780000      5.9784235E-12
   3.840000      3.5168420E-12
   3.900000     -5.6857687E-13
   3.960000     -6.0939153E-12
   4.020000     -1.2520522E-11
   4.080000     -1.8944738E-11
   4.140000     -2.4147901E-11
   4.200000     -2.6707445E-11
   4.260000     -2.5159862E-11
   4.320000     -1.8195492E-11
   4.380000     -4.8563432E-12
   4.440000      1.5295983E-11
   4.500000      4.2071822E-11
   4.560000      7.4622260E-11
   4.620000      1.1148624E-10
   4.680000      1.5070094E-10
   4.740000      1.8994953E-10
   4.800000      2.2672220E-10
   4.860000      2.5847552E-10
   4.920000      2.8278910E-10
   4.980000      2.9752725E-10
   5.040000      3.0101280E-10
   5.100000      2.9220526E-10
   5.160000      2.7085822E-10
   5.220000      2.3761823E-10
   5.280000      1.9402936E-10
   5.340000      1.4242672E-10
   5.400000      8.5731540E-11
   5.460000      2.7188082E-11
   5.520000     -2.9903961E-11
   5.580000     -8.2419606E-11
   5.640000     -1.2758311E-10
   5.700000     -1.6309855E-10
   5.760000     -1.8726881E-10
   5.820000     -1.9913023E-10
   5.880000     -1.9860742E-10
   5.940000     -1.8665564E-10
   6.000000     -1.6533247E-10
   6.060000     -1.3772651E-10
   6.120000     -1.0769159E-10
   6.180000     -7.9380419E-11
   6.240000     -5.6624618E-11
   6.300000     -4.2272106E-11
   6.360000     -3.7619519E-11
   6.420000     -4.2084738E-11
   6.480000     -5.3221684E-11
   6.540000     -6.7102227E-11
   6.600000     -7.8999439E-11
   6.660000     -8.4213955E-11
   6.720000     -7.8841350E-11
   6.780000     -6.0290918E-11
   6.840000     -2.7443910E-11
   6.900000      1.9543185E-11
   6.960000      7.9663998E-11
   7.020000      1.5152239E-10
   7.080000      2.3364155E-10
   7.140000      3.2452524E-10
   7.200000      4.2251036E-10
   7.260000      5.2556759E-10
   7.320000      6.3125960E-10
   7.380000      7.3701428E-10
   7.440000      8.4072982E-10
   7.500000      9.4155950E-10
   7.560000      1.0405846E-09
   7.620000      1.1410596E-09
   7.680000      1.2480077E-09
   7.740000      1.3671539E-09
   7.800000      1.5034117E-09
   7.860000      1.6593185E-09
   7.920000      1.8338751E-09
   7.980000      2.0221489E-09
   8.040000      2.2157911E-09
   8.100000      2.4043711E-09
   8.160000      2.5772122E-09
   8.220000      2.7253089E-09
   8.280000      2.8429123E-09
   8.340000      2.9285010E-09
   8.400000      2.9850074E-09
   8.460000      3.0193508E-09
   8.520000      3.0414449E-09
   8.580000      3.0629039E-09
   8.640000      3.0956990E-09
   8.700000      3.1509713E-09
   8.760000      3.2381637E-09
   8.820000      3.3645600E-09
   8.880000      3.5352423E-09
   8.940000      3.7533949E-09
   9.000000      4.0208397E-09
   9.060000      4.3386605E-09
   9.120000      4.7078066E-09
   9.180000      5.1296030E-09
   9.240000      5.6061333E-09
   9.300000      6.1404908E-09
   9.360000      6.7368382E-09
   9.420000      7.4002089E-09
   9.480000      8.1359444E-09
   9.540000      8.9487173E-09
   9.600000      9.8411954E-09
   9.660000      1.0812517E-08
   9.720000      1.1856860E-08
   9.780000      1.2962389E-08
   9.840000      1.4110777E-08
   9.900000      1.5277381E-08
   9.960000      1.6431992E-08
   10.02000      1.7539985E-08
   10.08000      1.8563789E-08
   10.14000      1.9464514E-08
   10.20000      2.0203823E-08
   10.26000      2.0745990E-08
   10.32000      2.1060037E-08
   10.38000      2.1121807E-08
   10.44000      2.0915561E-08
   10.50000      2.0434879E-08
   10.56000      1.9682597E-08
   10.62000      1.8669835E-08
   10.68000      1.7414322E-08
   10.74000      1.5938383E-08
   10.80000      1.4266974E-08
   10.86000      1.2426035E-08
   10.92000      1.0441259E-08
   10.98000      8.3372882E-09
   11.04000      6.1372760E-09
   11.10000      3.8628003E-09
   11.16000      1.5341436E-09
   11.22000     -8.2899126E-10
   11.28000     -3.2063574E-09
   11.34000     -5.5757856E-09
   11.40000     -7.9118765E-09
   11.46000     -1.0185177E-08
   11.52000     -1.2362236E-08
   11.58000     -1.4406770E-08
   11.64000     -1.6281945E-08
   11.70000     -1.7953459E-08
   11.76000     -1.9393010E-08
   11.82000     -2.0581547E-08
   11.88000     -2.1511832E-08
   11.94000     -2.2189949E-08
   12.00000     -2.2635541E-08
   12.06000     -2.2880847E-08
   12.12000     -2.2968612E-08
   12.18000     -2.2949155E-08
   12.24000     -2.2876872E-08
   12.30000     -2.2806422E-08
   12.36000     -2.2788893E-08
   12.42000     -2.2868189E-08
   12.48000     -2.3077854E-08
   12.54000     -2.3438618E-08
   12.60000     -2.3956890E-08
   12.66000     -2.4624381E-08
   12.72000     -2.5418963E-08
   12.78000     -2.6306669E-08
   12.84000     -2.7244587E-08
   12.90000     -2.8184255E-08
   12.96000     -2.9075087E-08
   13.02000     -2.9867426E-08
   13.08000     -3.0514919E-08
   13.14000     -3.0976139E-08
   13.20000     -3.1215475E-08
   13.26000     -3.1203552E-08
   13.32000     -3.0917484E-08
   13.38000     -3.0341212E-08
   13.44000     -2.9466221E-08
   13.50000     -2.8292670E-08
   13.56000     -2.6830863E-08
   13.62000     -2.5102631E-08
   13.68000     -2.3142121E-08
   13.74000     -2.0995437E-08
   13.80000     -1.8718755E-08
   13.86000     -1.6374958E-08
   13.92000     -1.4029149E-08
   13.98000     -1.1743760E-08
   14.04000     -9.5739985E-09
   14.10000     -7.5641982E-09
   14.16000     -5.7452696E-09
   14.22000     -4.1331427E-09
   14.28000     -2.7280009E-09
   14.34000     -1.5141923E-09
   14.40000     -4.6099380E-10
   14.46000      4.7538995E-10
   14.52000      1.3482480E-09
   14.58000      2.2151880E-09
   14.64000      3.1318601E-09
   14.70000      4.1455368E-09
   14.76000      5.2896789E-09
   14.82000      6.5804153E-09
   14.88000      8.0153475E-09
   14.94000      9.5745403E-09
   15.00000      1.1223179E-08
   15.06000      1.2915288E-08
   15.12000      1.4598148E-08
   15.18000      1.6217209E-08
   15.24000      1.7721446E-08
   15.30000      1.9068892E-08
   15.36000      2.0231665E-08
   15.42000      2.1199607E-08
   15.48000      2.1981482E-08
   15.54000      2.2603205E-08
   15.60000      2.3103176E-08
   15.66000      2.3525621E-08
   15.72000      2.3913376E-08
   15.78000      2.4301674E-08
   15.84000      2.4714073E-08
   15.90000      2.5161061E-08
   15.96000      2.5641031E-08
   16.02000      2.6142891E-08
   16.08000      2.6649310E-08
   16.14000      2.7139794E-08
   16.20000      2.7593048E-08
   16.26000      2.7988495E-08
   16.32000      2.8306998E-08
   16.38000      2.8530975E-08
   16.44000      2.8644154E-08
   16.50000      2.8631183E-08
   16.56000      2.8477414E-08
   16.62000      2.8169287E-08
   16.68000      2.7695638E-08
   16.74000      2.7050158E-08
   16.80000      2.6234833E-08
   16.86000      2.5263654E-08
   16.92000      2.4165571E-08
   16.98000      2.2985473E-08
   17.04000      2.1782320E-08
   17.10000      2.0624206E-08
   17.16000      1.9581080E-08
   17.22000      1.8716497E-08
   17.28000      1.8080190E-08
   17.34000      1.7702920E-08
   17.40000      1.7594484E-08
   17.46000      1.7744703E-08
   17.52000      1.8126560E-08
   17.58000      1.8700192E-08
   17.64000      1.9416564E-08
   17.70000      2.0220115E-08
   17.76000      2.1050244E-08
   17.82000      2.1842029E-08
   17.88000      2.2526889E-08
   17.94000      2.3033863E-08
   18.00000      2.3292108E-08
   18.06000      2.3234970E-08
   18.12000      2.2805608E-08
   18.18000      2.1963823E-08
   18.24000      2.0693202E-08
   18.30000      1.9007324E-08
   18.36000      1.6953416E-08
   18.42000      1.4612009E-08
   18.48000      1.2091673E-08
   18.54000      9.5189989E-09
   18.60000      7.0252235E-09
   18.66000      4.7318460E-09
   18.72000      2.7381084E-09
   18.78000      1.1126817E-09
   18.84000     -1.0919609E-10
   18.90000     -9.2345348E-10
   18.96000     -1.3514629E-09
   19.02000     -1.4332289E-09
   19.08000     -1.2216254E-09
   19.14000     -7.7884160E-10
   19.20000     -1.7485882E-10
   19.26000      5.1329191E-10
   19.32000      1.2031525E-09
   19.38000      1.8105842E-09
   19.44000      2.2558682E-09
   19.50000      2.4712197E-09
   19.56000      2.4079647E-09
   19.62000      2.0414623E-09
   19.68000      1.3723481E-09
   19.74000      4.2362355E-10
   19.80000     -7.6587570E-10
   19.86000     -2.1503124E-09
   19.92000     -3.6862438E-09
   19.98000     -5.3408118E-09
   20.04000     -7.0972166E-09
   20.10000     -8.9564400E-09
   20.16000     -1.0934853E-08
   20.22000     -1.3058144E-08
   20.28000     -1.5352839E-08
   20.34000     -1.7837339E-08
   20.40000     -2.0514642E-08
   20.46000     -2.3368525E-08
   20.52000     -2.6363963E-08
   20.58000     -2.9451387E-08
   20.64000     -3.2573158E-08
   20.70000     -3.5670315E-08
   20.76000     -3.8687670E-08
   20.82000     -4.1576577E-08
   20.88000     -4.4295518E-08
   20.94000     -4.6809731E-08
   21.00000     -4.9091188E-08
   21.06000     -5.1119830E-08
   21.12000     -5.2886019E-08
   21.18000     -5.4393333E-08
   21.24000     -5.5660344E-08
   21.30000     -5.6720111E-08
   21.36000     -5.7616838E-08
   21.42000     -5.8399895E-08
   21.48000     -5.9116331E-08
   21.54000     -5.9803369E-08
   21.60000     -6.0482506E-08
   21.66000     -6.1156356E-08
   21.72000     -6.1808763E-08
   21.78000     -6.2408098E-08
   21.84000     -6.2912683E-08
   21.90000     -6.3277305E-08
   21.96000     -6.3459439E-08
   22.02000     -6.3424174E-08
   22.08000     -6.3147574E-08
   22.14000     -6.2618447E-08
   22.20000     -6.1838982E-08
   22.26000     -6.0824753E-08
   22.32000     -5.9604236E-08
   22.38000     -5.8217502E-08
   22.44000     -5.6713571E-08
   22.50000     -5.5145890E-08
   22.56000     -5.3565902E-08
   22.62000     -5.2015420E-08
   22.68000     -5.0519212E-08
   22.74000     -4.9079652E-08
   22.80000     -4.7675165E-08
   22.86000     -4.6263395E-08
   22.92000     -4.4789040E-08
   22.98000     -4.3194952E-08
   23.04000     -4.1434138E-08
   23.10000     -3.9480078E-08
   23.16000     -3.7332747E-08
   23.22000     -3.5019099E-08
   23.28000     -3.2587845E-08
   23.34000     -3.0099972E-08
   23.40000     -2.7617617E-08
   23.46000     -2.5194140E-08
   23.52000     -2.2867910E-08
   23.58000     -2.0661101E-08
   23.64000     -1.8583146E-08
   23.70000     -1.6637086E-08
   23.76000     -1.4826167E-08
   23.82000     -1.3158157E-08
   23.88000     -1.1645851E-08
   23.94000     -1.0303789E-08
   24.00000     -9.1427763E-09
   24.06000     -8.1647178E-09
   24.12000     -7.3602244E-09
   24.18000     -6.7104091E-09
   24.24000     -6.1926571E-09
   24.30000     -5.7885363E-09
   24.36000     -5.4910529E-09
   24.42000     -5.3085358E-09
   24.48000     -5.2635469E-09
   24.54000     -5.3869100E-09
   24.60000     -5.7086535E-09
   24.66000     -6.2486736E-09
   24.72000     -7.0099873E-09
   24.78000     -7.9765163E-09
   24.84000     -9.1158565E-09
   24.90000     -1.0385930E-08
   24.96000     -1.1743388E-08
   25.02000     -1.3151273E-08
   25.08000     -1.4583953E-08
   25.14000     -1.6028263E-08
   25.20000     -1.7481023E-08
   25.26000     -1.8944084E-08
   25.32000     -2.0418774E-08
   25.38000     -2.1901675E-08
   25.44000     -2.3383302E-08
   25.50000     -2.4850277E-08
   25.56000     -2.6290358E-08
   25.62000     -2.7698563E-08
   25.68000     -2.9081829E-08
   25.74000     -3.0459791E-08
   25.80000     -3.1860306E-08
   25.86000     -3.3310208E-08
   25.92000     -3.4823646E-08
   25.98000     -3.6391896E-08
   26.04000     -3.7978470E-08
   26.10000     -3.9522138E-08
   26.16000     -4.0947839E-08
   26.22000     -4.2182752E-08
   26.28000     -4.3172836E-08
   26.34000     -4.3894740E-08
   26.40000     -4.4359499E-08
   26.46000     -4.4606953E-08
   26.52000     -4.4693152E-08
   26.58000     -4.4674881E-08
   26.64000     -4.4596238E-08
   26.70000     -4.4481130E-08
   26.76000     -4.4333113E-08
   26.82000     -4.4141654E-08
   26.88000     -4.3891735E-08
   26.94000     -4.3573152E-08
   27.00000     -4.3186319E-08
   27.06000     -4.2742933E-08
   27.12000     -4.2261803E-08
   27.18000     -4.1761698E-08
   27.24000     -4.1253983E-08
   27.30000     -4.0737749E-08
   27.36000     -4.0199161E-08
   27.42000     -3.9615372E-08
   27.48000     -3.8961655E-08
   27.54000     -3.8219415E-08
   27.60000     -3.7382335E-08
   27.66000     -3.6458523E-08
   27.72000     -3.5467817E-08
   27.78000     -3.4435260E-08
   27.84000     -3.3382936E-08
   27.90000     -3.2323126E-08
   27.96000     -3.1255325E-08
   28.02000     -3.0168202E-08
   28.08000     -2.9046024E-08
   28.14000     -2.7877368E-08
   28.20000     -2.6663132E-08
   28.26000     -2.5421132E-08
   28.32000     -2.4185530E-08
   28.38000     -2.3001142E-08
   28.44000     -2.1914200E-08
   28.50000     -2.0962277E-08
   28.56000     -2.0166363E-08
   28.62000     -1.9527322E-08
   28.68000     -1.9027684E-08
   28.74000     -1.8638074E-08
   28.80000     -1.8326194E-08
   28.86000     -1.8065593E-08
   28.92000     -1.7841666E-08
   28.98000     -1.7653313E-08
   29.04000     -1.7510201E-08
   29.10000     -1.7427041E-08
   29.16000     -1.7417076E-08
   29.22000     -1.7487091E-08
   29.28000     -1.7635390E-08
   29.34000     -1.7852919E-08
   29.40000     -1.8126578E-08
   29.46000     -1.8443075E-08
   29.52000     -1.8791859E-08
   29.58000     -1.9166368E-08
   29.64000     -1.9563840E-08
   29.70000     -1.9984567E-08
   29.76000     -2.0431541E-08
   29.82000     -2.0910946E-08
   29.88000     -2.1433150E-08
   29.94000     -2.2013213E-08
   30.00000     -2.2669891E-08
   30.06000     -2.3422681E-08
   30.12000     -2.4287344E-08
   30.18000     -2.5271252E-08
   30.24000     -2.6370209E-08
   30.30000     -2.7567944E-08
   30.36000     -2.8838551E-08
   30.42000     -3.0150936E-08
   30.48000     -3.1473565E-08
   30.54000     -3.2777702E-08
   30.60000     -3.4038006E-08
   30.66000     -3.5230574E-08
   30.72000     -3.6329624E-08
   30.78000     -3.7304805E-08
   30.84000     -3.8120945E-08
   30.90000     -3.8741302E-08
   30.96000     -3.9133994E-08
   31.02000     -3.9279907E-08
   31.08000     -3.9179561E-08
   31.14000     -3.8856207E-08
   31.20000     -3.8353452E-08
   31.26000     -3.7727208E-08
   31.32000     -3.7033601E-08
   31.38000     -3.6316134E-08
   31.44000     -3.5595889E-08
   31.50000     -3.4867927E-08
   31.56000     -3.4105298E-08
   31.62000     -3.3269774E-08
   31.68000     -3.2326010E-08
   31.74000     -3.1254931E-08
   31.80000     -3.0062118E-08
   31.86000     -2.8778661E-08
   31.92000     -2.7454377E-08
   31.98000     -2.6145678E-08
   32.04000     -2.4901940E-08
   32.10000     -2.3754589E-08
   32.16000     -2.2711939E-08
   32.22000     -2.1761014E-08
   32.28000     -2.0875252E-08
   32.34000     -2.0025256E-08
   32.40000     -1.9189020E-08
   32.46000     -1.8358259E-08
   32.52000     -1.7538984E-08
   32.58000     -1.6746320E-08
   32.64000     -1.5995594E-08
   32.70000     -1.5293031E-08
   32.76000     -1.4629576E-08
   32.82000     -1.3980388E-08
   32.88000     -1.3310439E-08
   32.94000     -1.2584448E-08
   33.00000     -1.1777620E-08
   33.06000     -1.0883225E-08
   33.12000     -9.9141673E-09
   33.18000     -8.8978833E-09
   33.24000     -7.8665074E-09
   33.30000     -6.8460384E-09
   33.36000     -5.8486518E-09
   33.42000     -4.8710533E-09
   33.48000     -3.8994128E-09
   33.54000     -2.9188771E-09
   33.60000     -1.9239494E-09
   33.66000     -9.2575386E-10
   33.72000      4.6563978E-11
   33.78000      9.5085628E-10
   33.84000      1.7416514E-09
   33.90000      2.3811690E-09
   33.96000      2.8479936E-09
   34.02000      3.1406298E-09
   34.08000      3.2749661E-09
   34.14000      3.2766680E-09
   34.20000      3.1711245E-09
   34.26000      2.9742824E-09
   34.32000      2.6873395E-09
   34.38000      2.2970028E-09
   34.44000      1.7812388E-09
   34.50000      1.1186972E-09
   34.56000      2.9881830E-10
   34.62000     -6.7059963E-10
   34.68000     -1.7608032E-09
   34.74000     -2.9253346E-09
   34.80000     -4.1081827E-09
   34.86000     -5.2544040E-09
   34.92000     -6.3201306E-09
   34.98000     -7.2792523E-09
   35.04000     -8.1252276E-09
   35.10000     -8.8680459E-09
   35.16000     -9.5276880E-09
   35.22000     -1.0126146E-08
   35.28000     -1.0679941E-08
   35.34000     -1.1194474E-08
   35.40000     -1.1660673E-08
   35.46000     -1.2053849E-08
   35.52000     -1.2334467E-08
   35.58000     -1.2450842E-08
   35.64000     -1.2343927E-08
   35.70000     -1.1954398E-08
   35.76000     -1.1231673E-08
   35.82000     -1.0143554E-08
   35.88000     -8.6843679E-09
   35.94000     -6.8791395E-09
   36.00000     -4.7820232E-09
   36.06000     -2.4687434E-09
   36.12000     -2.4839115E-11
   36.18000      2.4668523E-09
   36.24000      4.9354951E-09
   36.30000      7.3253492E-09
   36.36000      9.5919326E-09
   36.42000      1.1693281E-08
   36.48000      1.3580483E-08
   36.54000      1.5192235E-08
   36.60000      1.6456820E-08
   36.66000      1.7302110E-08
   36.72000      1.7670832E-08
   36.78000      1.7535925E-08
   36.84000      1.6910144E-08
   36.90000      1.5845654E-08
   36.96000      1.4422525E-08
   37.02000      1.2728948E-08
   37.08000      1.0838956E-08
   37.14000      8.7946601E-09
   37.20000      6.5988126E-09
   37.26000      4.2203787E-09
   37.32000      1.6115302E-09
   37.38000     -1.2692768E-09
   37.44000     -4.4357074E-09
   37.50000     -7.8606783E-09
   37.56000     -1.1476712E-08
   37.62000     -1.5189654E-08
   37.68000     -1.8901343E-08
   37.74000     -2.2533751E-08
   37.80000     -2.6046502E-08
   37.86000     -2.9442010E-08
   37.92000     -3.2756695E-08
   37.98000     -3.6041612E-08
   38.04000     -3.9339334E-08
   38.10000     -4.2664990E-08
   38.16000     -4.5997631E-08
   38.22000     -4.9284125E-08
   38.28000     -5.2453583E-08
   38.34000     -5.5436676E-08
   38.40000     -5.8183137E-08
   38.46000     -6.0671915E-08
   38.52000     -6.2911241E-08
   38.58000     -6.4929580E-08
   38.64000     -6.6761295E-08
   38.70000     -6.8432186E-08
   38.76000     -6.9949863E-08
   38.82000     -7.1301848E-08
   38.88000     -7.2461773E-08
   38.94000     -7.3401239E-08
   39.00000     -7.4103241E-08
   39.06000     -7.4572206E-08
   39.12000     -7.4837018E-08
   39.18000     -7.4945312E-08
   39.24000     -7.4950727E-08
   39.30000     -7.4897116E-08
   39.36000     -7.4805321E-08
   39.42000     -7.4667611E-08
   39.48000     -7.4452366E-08
   39.54000     -7.4117992E-08
   39.60000     -7.3631611E-08
   39.66000     -7.2985891E-08
   39.72000     -7.2207939E-08
   39.78000     -7.1356737E-08
   39.84000     -7.0509685E-08
   39.90000     -6.9742619E-08
   39.96000     -6.9110008E-08
   40.02000     -6.8631763E-08
   40.08000     -6.8290682E-08
   40.14000     -6.8040876E-08
   40.20000     -6.7823876E-08
   40.26000     -6.7587010E-08
   40.32000     -6.7298252E-08
   40.38000     -6.6953241E-08
   40.44000     -6.6572746E-08
   40.50000     -6.6191937E-08
   40.56000     -6.5844738E-08
   40.62000     -6.5548129E-08
   40.68000     -6.5290941E-08
   40.74000     -6.5030846E-08
   40.80000     -6.4700721E-08
   40.86000     -6.4223443E-08
   40.92000     -6.3531139E-08
   40.98000     -6.2583808E-08
   41.04000     -6.1381492E-08
   41.10000     -5.9966005E-08
   41.16000     -5.8410919E-08
   41.22000     -5.6802225E-08
   41.28000     -5.5215274E-08
   41.34000     -5.3694979E-08
   41.40000     -5.2245436E-08
   41.46000     -5.0832302E-08
   41.52000     -4.9396913E-08
   41.58000     -4.7877407E-08
   41.64000     -4.6229772E-08
   41.70000     -4.4441958E-08
   41.76000     -4.2536843E-08
   41.82000     -4.0563719E-08
   41.88000     -3.8581963E-08
   41.94000     -3.6643016E-08
   42.00000     -3.4776932E-08
   42.06000     -3.2987913E-08
   42.12000     -3.1259756E-08
   42.18000     -2.9568634E-08
   42.24000     -2.7898261E-08
   42.30000     -2.6252016E-08
   42.36000     -2.4657785E-08
   42.42000     -2.3164121E-08
   42.48000     -2.1829123E-08
   42.54000     -2.0705793E-08
   42.60000     -1.9828478E-08
   42.66000     -1.9204494E-08
   42.72000     -1.8813108E-08
   42.78000     -1.8611875E-08
   42.84000     -1.8548118E-08
   42.90000     -1.8571990E-08
   42.96000     -1.8647393E-08
   43.02000     -1.8757861E-08
   43.08000     -1.8906283E-08
   43.14000     -1.9109279E-08
   43.20000     -1.9388734E-08
   43.26000     -1.9763782E-08
   43.32000     -2.0246121E-08
   43.38000     -2.0840124E-08
   43.44000     -2.1547251E-08
   43.50000     -2.2372479E-08
   43.56000     -2.3329608E-08
   43.62000     -2.4442734E-08
   43.68000     -2.5742811E-08
   43.74000     -2.7260374E-08
   43.80000     -2.9017292E-08
   43.86000     -3.1021134E-08
   43.92000     -3.3265049E-08
   43.98000     -3.5734100E-08
   44.04000     -3.8416736E-08
   44.10000     -4.1318248E-08
   44.16000     -4.4472323E-08
   44.22000     -4.7947523E-08
   44.28000     -5.1847408E-08
   44.34000     -5.6305144E-08
   44.40000     -6.1475276E-08
   44.46000     -6.7526166E-08
   44.52000     -7.4636176E-08
   44.58000     -8.2995328E-08
   44.64000     -9.2812378E-08
   44.70000     -1.0432539E-07
   44.76000     -1.1781346E-07
   44.82000     -1.3360658E-07
   44.88000     -1.5209255E-07
   44.94000     -1.7372051E-07
   45.00000     -1.9900274E-07
   45.06000     -2.2851762E-07
   45.12000     -2.6291573E-07
   45.18000     -3.0293131E-07
   45.24000     -3.4939893E-07
   45.30000     -4.0327433E-07
   45.36000     -4.6565680E-07
   45.42000     -5.3780991E-07
   45.48000     -6.2117925E-07
   45.54000     -7.1740578E-07
   45.60000     -8.2833554E-07
   45.66000     -9.5602707E-07
   45.72000     -1.1027604E-06
   45.78000     -1.2710483E-06
   45.84000     -1.4636540E-06
   45.90000     -1.6836141E-06
   45.96000     -1.9342674E-06
   46.02000     -2.2192876E-06
   46.08000     -2.5427162E-06
   46.14000     -2.9089947E-06
   46.20000     -3.3229896E-06
   46.26000     -3.7900122E-06
   46.32000     -4.3158338E-06
   46.38000     -4.9066985E-06
   46.44000     -5.5693345E-06
   46.50000     -6.3109669E-06
   46.56000     -7.1393374E-06
   46.62000     -8.0627187E-06
   46.68000     -9.0899275E-06
   46.74000     -1.0230333E-05
   46.80000     -1.1493854E-05
   46.86000     -1.2890947E-05
   46.92000     -1.4432590E-05
   46.98000     -1.6130254E-05
   47.04000     -1.7995873E-05
   47.10000     -2.0041816E-05
   47.16000     -2.2280856E-05
   47.22000     -2.4726120E-05
   47.28000     -2.7391052E-05
   47.34000     -3.0289344E-05
   47.40000     -3.3434862E-05
   47.46000     -3.6841557E-05
   47.52000     -4.0523359E-05
   47.58000     -4.4494071E-05
   47.64000     -4.8767244E-05
   47.70000     -5.3356092E-05
   47.76000     -5.8273345E-05
   47.82000     -6.3531123E-05
   47.88000     -6.9140835E-05
   47.94000     -7.5112999E-05
   48.00000     -8.1457139E-05
   48.06000     -8.8181609E-05
   48.12000     -9.5293472E-05
   48.18000     -1.0279833E-04
   48.24000     -1.1070017E-04
   48.30000     -1.1900126E-04
   48.36000     -1.2770202E-04
   48.42000     -1.3680094E-04
   48.48000     -1.4629439E-04
   48.54000     -1.5617664E-04
   48.60000     -1.6643964E-04
   48.66000     -1.7707312E-04
   48.72000     -1.8806437E-04
   48.78000     -1.9939835E-04
   48.84000     -2.1105757E-04
   48.90000     -2.2302219E-04
   48.96000     -2.3527002E-04
   49.02000     -2.4777671E-04
   49.08000     -2.6051572E-04
   49.14000     -2.7345857E-04
   49.20000     -2.8657480E-04
   49.26000     -2.9983232E-04
   49.32000     -3.1319758E-04
   49.38000     -3.2663581E-04
   49.44000     -3.4011120E-04
   49.50000     -3.5358724E-04
   49.56000     -3.6702686E-04
   49.62000     -3.8039280E-04
   49.68000     -3.9364802E-04
   49.74000     -4.0675589E-04
   49.80000     -4.1968047E-04
   49.86000     -4.3238708E-04
   49.92000     -4.4484239E-04
   49.98000     -4.5701498E-04
   50.04000     -4.6887537E-04
   50.10000     -4.8039650E-04
   50.16000     -4.9155386E-04
   50.22000     -5.0232571E-04
   50.28000     -5.1269337E-04
   50.34000     -5.2264129E-04
   50.40000     -5.3215743E-04
   50.46000     -5.4123317E-04
   50.52000     -5.4986362E-04
   50.58000     -5.5804750E-04
   50.64000     -5.6578708E-04
   50.70000     -5.7308807E-04
   50.76000     -5.7995954E-04
   50.82000     -5.8641384E-04
   50.88000     -5.9246644E-04
   50.94000     -5.9813570E-04
   51.00000     -6.0344249E-04
   51.06000     -6.0841010E-04
   51.12000     -6.1306398E-04
   51.18000     -6.1743136E-04
   51.24000     -6.2154059E-04
   51.30000     -6.2542094E-04
   51.36000     -6.2910211E-04
   51.42000     -6.3261366E-04
   51.48000     -6.3598488E-04
   51.54000     -6.3924422E-04
   51.60000     -6.4241915E-04
   51.66000     -6.4553565E-04
   51.72000     -6.4861774E-04
   51.78000     -6.5168762E-04
   51.84000     -6.5476459E-04
   51.90000     -6.5786525E-04
   51.96000     -6.6100329E-04
   52.02000     -6.6418911E-04
   52.08000     -6.6742982E-04
   52.14000     -6.7072915E-04
   52.20000     -6.7408767E-04
   52.26000     -6.7750242E-04
   52.32000     -6.8096735E-04
   52.38000     -6.8447308E-04
   52.44000     -6.8800699E-04
   52.50000     -6.9155375E-04
   52.56000     -6.9509540E-04
   52.62000     -6.9861172E-04
   52.68000     -7.0208084E-04
   52.74000     -7.0547918E-04
   52.80000     -7.0878194E-04
   52.86000     -7.1196363E-04
   52.92000     -7.1499823E-04
   52.98000     -7.1785972E-04
   53.04000     -7.2052254E-04
   53.10000     -7.2296167E-04
   53.16000     -7.2515360E-04
   53.22000     -7.2707620E-04
   53.28000     -7.2870957E-04
   53.34000     -7.3003594E-04
   53.40000     -7.3104037E-04
   53.46000     -7.3171046E-04
   53.52000     -7.3203689E-04
   53.58000     -7.3201297E-04
   53.64000     -7.3163508E-04
   53.70000     -7.3090289E-04
   53.76000     -7.2981924E-04
   53.82000     -7.2839035E-04
   53.88000     -7.2662596E-04
   53.94000     -7.2453858E-04
   54.00000     -7.2214351E-04
   54.06000     -7.1945816E-04
   54.12000     -7.1650185E-04
   54.18000     -7.1329554E-04
   54.24000     -7.0986187E-04
   54.30000     -7.0622494E-04
   54.36000     -7.0240948E-04
   54.42000     -6.9844094E-04
   54.48000     -6.9434475E-04
   54.54000     -6.9014583E-04
   54.60000     -6.8586814E-04
   54.66000     -6.8153423E-04
   54.72000     -6.7716540E-04
   54.78000     -6.7278108E-04
   54.84000     -6.6839851E-04
   54.90000     -6.6403276E-04
   54.96000     -6.5969618E-04
   55.02000     -6.5539824E-04
   55.08000     -6.5114559E-04
   55.14000     -6.4694177E-04
   55.20000     -6.4278714E-04
   55.26000     -6.3867919E-04
   55.32000     -6.3461257E-04
   55.38000     -6.3057890E-04
   55.44000     -6.2656699E-04
   55.50000     -6.2256289E-04
   55.56000     -6.1855046E-04