  -2.400000      0.0000000E+00
  -2.340000      0.0000000E+00
  -2.280000      0.0000000E+00
  -2.220000      0.0000000E+00
  -2.160000      0.0000000E+00
  -2.100000      0.0000000E+00
  -2.040000      0.0000000E+00
  -1.980000      0.0000000E+00
  -1.920000      0.0000000E+00
  -1.860000      0.0000000E+00
  -1.800000      0.0000000E+00
  -1.740000      3.5739192E-32
  -1.680000      6.1341109E-31
  -1.620000      5.0656964E-30
  -1.560000      2.6758750E-29
  -1.500000      1.0082007E-28
  -1.440000      2.8184692E-28
  -1.380000      5.5948159E-28
  -1.320000      5.0014306E-28
  -1.260000     -1.8354509E-27
  -1.200000     -1.2267568E-26
  -1.140000     -4.3008841E-26
  -1.080000     -1.0673378E-25
  -1.020000     -1.7890675E-25
 -0.9600000     -9.8854132E-26
 -0.9000000      5.6649231E-25
 -0.8400000      2.4925664E-24
 -0.7800000      5.9262809E-24
 -0.7200000      8.8734435E-24
 -0.6600000      4.5523731E-24
 -0.6000000     -1.9117454E-23
 -0.5400000     -7.2391840E-23
 -0.4800000     -1.4383893E-22
 -0.4200000     -1.7211742E-22
 -0.3600000     -3.4192150E-23
 -0.3000000      4.0479980E-22
 -0.2400000      1.1428135E-21
 -0.1800000      1.8251853E-21
 -0.1200000      1.6234494E-21
 -5.9999999E-02 -5.1796779E-22
  0.0000000E+00 -5.0578181E-21
  5.9999999E-02 -1.0631208E-20
  0.1200000     -1.3240441E-20
  0.1800000     -7.1737400E-21
  0.2400000      1.1405279E-20
  0.3000000      3.8981620E-20
  0.3600000      6.0763253E-20
  0.4200000      5.3506737E-20
  0.4800000     -1.4195435E-21
  0.5400000     -9.7860940E-20
  0.6000000     -1.9003507E-19
  0.6600000     -2.0082207E-19
  0.7200000     -6.4089140E-20
  0.7800000      2.1040947E-19
  0.8400000      4.9004113E-19
  0.9000000      5.4483176E-19
  0.9600000      1.7575609E-19
   1.020000     -5.9252555E-19
   1.080000     -1.3755340E-18
   1.140000     -1.5047453E-18
   1.200000     -3.9458968E-19
   1.260000      1.9126908E-18
   1.320000      4.3582426E-18
   1.380000      5.0495497E-18
   1.440000      2.2230698E-18
   1.500000     -4.3033203E-18
   1.560000     -1.2031545E-17
   1.620000     -1.6082542E-17
   1.680000     -1.1437982E-17
   1.740000      3.5120927E-18
   1.800000      2.4056907E-17
   1.860000      3.9327951E-17
   1.920000      3.6905407E-17
   1.980000      1.0650783E-17
   2.040000     -3.2335794E-17
   2.100000     -7.0939400E-17
   2.160000     -7.8652608E-17
   2.220000     -3.9526786E-17
   2.280000      3.6657700E-17
   2.340000      1.1092131E-16
   2.400000      1.3051998E-16
   2.460000      6.0261477E-17
   2.520000     -8.5501412E-17
   2.580000     -2.3190807E-16
   2.640000     -2.6961813E-16
   2.700000     -1.1514711E-16
   2.760000      2.2096227E-16
   2.820000      5.9970753E-16
   2.880000      7.8814658E-16
   2.940000      5.6713319E-16
   3.000000     -1.2749660E-16
   3.060000     -1.1039709E-15
   3.120000     -1.9276301E-15
   3.180000     -2.0781083E-15
   3.240000     -1.2069611E-15
   3.300000      6.1721036E-16
   3.360000      2.8132493E-15
   3.420000      4.4333023E-15
   3.480000      4.5359330E-15
   3.540000      2.6500241E-15
   3.600000     -8.8424025E-16
   3.660000     -4.8938785E-15
   3.720000     -7.7471963E-15
   3.780000     -8.0181824E-15
   3.840000     -5.1738352E-15
   3.900000      4.1977219E-17
   3.960000      5.7637903E-15
   4.020000      9.7123771E-15
   4.080000      1.0200015E-14
   4.140000      6.9861046E-15
   4.200000      1.5303271E-15
   4.260000     -3.5878740E-15
   4.320000     -5.9278212E-15
   4.380000     -4.5765393E-15
   4.440000     -9.2627076E-16
   4.500000      1.7433283E-15
   4.560000     -5.6947977E-17
   4.620000     -7.7209967E-15
   4.680000     -1.8790057E-14
   4.740000     -2.6955724E-14
   4.800000     -2.4401422E-14
   4.860000     -5.9101749E-15
   4.920000      2.7005882E-14
   4.980000      6.4246744E-14
   5.040000      8.9272875E-14
   5.100000      8.5341016E-14
   5.160000      4.3762825E-14
   5.220000     -2.9480890E-14
   5.280000     -1.1251262E-13
   5.340000     -1.7361781E-13
   5.400000     -1.8327466E-13
   5.460000     -1.2762235E-13
   5.520000     -1.7265064E-14
   5.580000      1.1351682E-13
   5.640000      2.1827695E-13
   5.700000      2.5680155E-13
   5.760000      2.1272915E-13
   5.820000      1.0208642E-13
   5.880000     -3.2234554E-14
   5.940000     -1.3882524E-13
   6.000000     -1.8130335E-13
   6.060000     -1.5596698E-13
   6.120000     -9.4098828E-14
   6.180000     -4.6036264E-14
   6.240000     -5.3068444E-14
   6.300000     -1.2039148E-13
   6.360000     -2.0589311E-13
   6.420000     -2.3380739E-13
   6.480000     -1.3099945E-13
   6.540000      1.2848029E-13
   6.600000      4.9202878E-13
   6.660000      8.2952129E-13
   6.720000      9.7386693E-13
   6.780000      7.9044209E-13
   6.840000      2.4877691E-13
   6.900000     -5.3651051E-13
   6.960000     -1.3207430E-12
   7.020000     -1.8046814E-12
   7.080000     -1.7486743E-12
   7.140000     -1.0826608E-12
   7.200000      3.6208100E-14
   7.260000      1.2516362E-12
   7.320000      2.1234486E-12
   7.380000      2.2943557E-12
   7.440000      1.6454030E-12
   7.500000      3.7353448E-13
   7.560000     -1.0509828E-12
   7.620000     -2.0441563E-12
   7.680000     -2.1326354E-12
   7.740000     -1.1585802E-12
   7.800000      6.1863573E-13
   7.860000      2.5720060E-12
   7.920000      3.8984428E-12
   7.980000      3.8873640E-12
   8.040000      2.1715553E-12
   8.100000     -1.1254482E-12
   8.160000     -5.3880906E-12
   8.220000     -9.6394177E-12
   8.280000     -1.2745464E-11
   8.340000     -1.3623986E-11
   8.400000     -1.1411993E-11
   8.460000     -5.5897478E-12
   8.520000      3.9051301E-12
   8.580000      1.6534676E-11
   8.640000      3.0983594E-11
   8.700000      4.5002856E-11
   8.760000      5.5385301E-11
   8.820000      5.8205954E-11
   8.880000      4.9423177E-11
   8.940000      2.5841562E-11
   9.000000     -1.3694294E-11
   9.060000     -6.7133875E-11
   9.120000     -1.2842137E-10
   9.180000     -1.8739676E-10
   9.240000     -2.3062952E-10
   9.300000     -2.4323160E-10
   9.360000     -2.1146961E-10
   9.420000     -1.2578733E-10
   9.480000      1.6284063E-11
   9.540000      2.0786731E-10
   9.600000      4.3156634E-10
   9.660000      6.5961714E-10
   9.720000      8.5537327E-10
   9.780000      9.7594421E-10
   9.840000      9.7569497E-10
   9.900000      8.1029600E-10
   9.960000      4.4105586E-10
   10.02000     -1.6068560E-10
   10.08000     -1.0093363E-09
   10.14000     -2.1013269E-09
   10.20000     -3.4123540E-09
   10.26000     -4.8962008E-09
   10.32000     -6.4857542E-09
   10.38000     -8.0966727E-09
   10.44000     -9.6337649E-09
   10.50000     -1.0999598E-08
   10.56000     -1.2104325E-08
   10.62000     -1.2875333E-08
   10.68000     -1.3265234E-08
   10.74000     -1.3257012E-08
   10.80000     -1.2865642E-08
   10.86000     -1.2136181E-08
   10.92000     -1.1138820E-08
   10.98000     -9.9617381E-09
   11.04000     -8.7026342E-09
   11.10000     -7.4597093E-09
   11.16000     -6.3227317E-09
   11.22000     -5.3648197E-09
   11.28000     -4.6356345E-09
   11.34000     -4.1568651E-09
   11.40000     -3.9208623E-09
   11.46000     -3.8930366E-09
   11.52000     -4.0180650E-09
   11.58000     -4.2291455E-09
   11.64000     -4.4587907E-09
   11.70000     -4.6491531E-09
   11.76000     -4.7598907E-09
   11.82000     -4.7721400E-09
   11.88000     -4.6881055E-09
   11.94000     -4.5268531E-09
   12.00000     -4.3177542E-09
   12.06000     -4.0933950E-09
   12.12000     -3.8835810E-09
   12.18000     -3.7114163E-09
   12.24000     -3.5915955E-09
   12.30000     -3.5303345E-09
   12.36000     -3.5260574E-09
   12.42000     -3.5700869E-09
   12.48000     -3.6470713E-09
   12.54000     -3.7354622E-09
   12.60000     -3.8087062E-09
   12.66000     -3.8378016E-09
   12.72000     -3.7954133E-09
   12.78000     -3.6610628E-09
   12.84000     -3.4262331E-09
   12.90000     -3.0979015E-09
   12.96000     -2.6991513E-09
   13.02000     -2.2661926E-09
   13.08000     -1.8421056E-09
   13.14000     -1.4686379E-09
   13.20000     -1.1780639E-09
   13.26000     -9.8720543E-10
   13.32000     -8.9515045E-10
   13.38000     -8.8512409E-10
   13.44000     -9.2974450E-10
   13.50000     -9.9793851E-10
   13.56000     -1.0614485E-09
   13.62000     -1.0992528E-09
   13.68000     -1.0991642E-09
   13.74000     -1.0569814E-09
   13.80000     -9.7437147E-10
   13.86000     -8.5683438E-10
   13.92000     -7.1259643E-10
   13.98000     -5.5238009E-10
   14.04000     -3.8917097E-10
   14.10000     -2.3681374E-10
   14.16000     -1.0673031E-10
   14.22000     -3.1124851E-12
   14.28000      8.1888434E-11
   14.34000      1.7078018E-10
   14.40000      2.9923383E-10
   14.46000      5.0981735E-10
   14.52000      8.4212476E-10
   14.58000      1.3221026E-09
   14.64000      1.9540642E-09
   14.70000      2.7182243E-09
   14.76000      3.5747534E-09
   14.82000      4.4730348E-09
   14.88000      5.3629656E-09
   14.94000      6.2045293E-09
   15.00000      6.9727397E-09
   15.06000      7.6570297E-09
   15.12000      8.2563520E-09
   15.18000      8.7727869E-09
   15.24000      9.2066701E-09
   15.30000      9.5552153E-09
   15.36000      9.8147419E-09
   15.42000      9.9849107E-09
   15.48000      1.0072407E-08
   15.54000      1.0091781E-08
   15.60000      1.0062439E-08
   15.66000      1.0002531E-08
   15.72000      9.9219424E-09
   15.78000      9.8172039E-09
   15.84000      9.6706527E-09
   15.90000      9.4546211E-09
   15.96000      9.1396801E-09
   16.02000      8.7042862E-09
   16.08000      8.1425737E-09
   16.14000      7.4675173E-09
   16.20000      6.7082495E-09
   16.26000      5.9023728E-09
   16.32000      5.0859419E-09
   16.38000      4.2846233E-09
   16.44000      3.5091494E-09
   16.50000      2.7565716E-09
   16.56000      2.0166291E-09
   16.62000      1.2806182E-09
   16.68000      5.4918159E-10
   16.74000     -1.6414732E-10
   16.80000     -8.3519092E-10
   16.86000     -1.4365205E-09
   16.92000     -1.9474138E-09
   16.98000     -2.3628526E-09
   17.04000     -2.6983928E-09
   17.10000     -2.9892011E-09
   17.16000     -3.2835132E-09
   17.22000     -3.6324852E-09
   17.28000     -4.0792885E-09
   17.34000     -4.6501785E-09
   17.40000     -5.3493170E-09
   17.46000     -6.1578924E-09
   17.52000     -7.0370088E-09
   17.58000     -7.9332709E-09
   17.64000     -8.7859471E-09
   17.70000     -9.5348218E-09
   17.76000     -1.0128034E-08
   17.82000     -1.0529139E-08
   17.88000     -1.0722437E-08
   17.94000     -1.0715351E-08
   18.00000     -1.0536886E-08
   18.06000     -1.0231833E-08
   18.12000     -9.8515684E-09
   18.18000     -9.4434425E-09
   18.24000     -9.0414920E-09
   18.30000     -8.6610834E-09
   18.36000     -8.2990246E-09
   18.42000     -7.9389615E-09
   18.48000     -7.5601196E-09
   18.54000     -7.1463098E-09
   18.60000     -6.6919994E-09
   18.66000     -6.2033210E-09
   18.72000     -5.6937153E-09
   18.78000     -5.1759352E-09
   18.84000     -4.6536099E-09
   18.90000     -4.1160484E-09
   18.96000     -3.5390906E-09
   19.02000     -2.8928899E-09
   19.08000     -2.1549718E-09
   19.14000     -1.3246363E-09
   19.20000     -4.3354906E-10
   19.26000      4.5215867E-10
   19.32000      1.2406717E-09
   19.38000      1.8330544E-09
   19.44000      2.1469069E-09
   19.50000      2.1381206E-09
   19.56000      1.8137459E-09
   19.62000      1.2314942E-09
   19.68000      4.8566995E-10
   19.74000     -3.1621597E-10
   19.80000     -1.0788805E-09
   19.86000     -1.7390408E-09
   19.92000     -2.2740452E-09
   19.98000     -2.6978562E-09
   20.04000     -3.0470706E-09
   20.10000     -3.3625860E-09
   20.16000     -3.6732883E-09
   20.22000     -3.9867443E-09
   20.28000     -4.2890549E-09
   20.34000     -4.5528514E-09
   20.40000     -4.7499169E-09
   20.46000     -4.8637738E-09
   20.52000     -4.8979669E-09
   20.58000     -4.8773940E-09
   20.64000     -4.8424060E-09
   20.70000     -4.8377156E-09
   20.76000     -4.8998241E-09
   20.82000     -5.0471600E-09
   20.88000     -5.2762572E-09
   20.94000     -5.5653380E-09
   21.00000     -5.8841536E-09
   21.06000     -6.2067240E-09
   21.12000     -6.5224275E-09
   21.18000     -6.8412667E-09
   21.24000     -7.1909891E-09
   21.30000     -7.6065625E-09
   21.36000     -8.1153724E-09
   21.42000     -8.7233314E-09
   21.48000     -9.4071684E-09
   21.54000     -1.0116323E-08
   21.60000     -1.0784599E-08
   21.66000     -1.1348239E-08
   21.72000     -1.1764564E-08
   21.78000     -1.2024869E-08
   21.84000     -1.2157091E-08
   21.90000     -1.2217225E-08
   21.96000     -1.2272482E-08
   22.02000     -1.2381979E-08
   22.08000     -1.2581631E-08
   22.14000     -1.2878217E-08
   22.20000     -1.3254212E-08
   22.26000     -1.3681025E-08
   22.32000     -1.4135210E-08
   22.38000     -1.4611155E-08
   22.44000     -1.5125057E-08
   22.50000     -1.5708228E-08
   22.56000     -1.6391738E-08
   22.62000     -1.7187858E-08
   22.68000     -1.8075241E-08
   22.74000     -1.8993935E-08
   22.80000     -1.9853184E-08
   22.86000     -2.0550585E-08
   22.92000     -2.0997174E-08
   22.98000     -2.1140680E-08
   23.04000     -2.0979511E-08
   23.10000     -2.0562922E-08
   23.16000     -1.9977289E-08
   23.22000     -1.9322954E-08
   23.28000     -1.8688928E-08
   23.34000     -1.8133131E-08
   23.40000     -1.7673656E-08
   23.46000     -1.7292473E-08
   23.52000     -1.6948970E-08
   23.58000     -1.6597799E-08
   23.64000     -1.6204824E-08
   23.70000     -1.5756441E-08
   23.76000     -1.5260515E-08
   23.82000     -1.4740309E-08
   23.88000     -1.4225043E-08
   23.94000     -1.3741230E-08
   24.00000     -1.3307943E-08
   24.06000     -1.2937036E-08
   24.12000     -1.2637059E-08
   24.18000     -1.2418123E-08
   24.24000     -1.2294600E-08
   24.30000     -1.2283595E-08
   24.36000     -1.2398975E-08
   24.42000     -1.2642796E-08
   24.48000     -1.2997437E-08
   24.54000     -1.3421976E-08
   24.60000     -1.3855280E-08
   24.66000     -1.4226071E-08
   24.72000     -1.4467810E-08
   24.78000     -1.4534259E-08
   24.84000     -1.4411083E-08
   24.90000     -1.4119736E-08
   24.96000     -1.3712270E-08
   25.02000     -1.3258347E-08
   25.08000     -1.2828228E-08
   25.14000     -1.2476512E-08
   25.20000     -1.2231175E-08
   25.26000     -1.2090696E-08
   25.32000     -1.2029699E-08
   25.38000     -1.2011074E-08
   25.44000     -1.2000796E-08
   25.50000     -1.1980971E-08
   25.56000     -1.1957293E-08
   25.62000     -1.1958744E-08
   25.68000     -1.2029772E-08
   25.74000     -1.2217455E-08
   25.80000     -1.2557758E-08
   25.86000     -1.3065216E-08
   25.92000     -1.3729336E-08
   25.98000     -1.4518716E-08
   26.04000     -1.5391297E-08
   26.10000     -1.6307116E-08
   26.16000     -1.7239001E-08
   26.22000     -1.8177511E-08
   26.28000     -1.9128327E-08
   26.34000     -2.0103236E-08
   26.40000     -2.1108114E-08
   26.46000     -2.2132616E-08
   26.52000     -2.3145752E-08
   26.58000     -2.4099451E-08
   26.64000     -2.4939181E-08
   26.70000     -2.5618055E-08
   26.76000     -2.6109401E-08
   26.82000     -2.6413291E-08
   26.88000     -2.6554796E-08
   26.94000     -2.6574806E-08
   27.00000     -2.6516977E-08
   27.06000     -2.6415606E-08
   27.12000     -2.6288605E-08
   27.18000     -2.6137565E-08
   27.24000     -2.5954099E-08
   27.30000     -2.5729294E-08
   27.36000     -2.5462059E-08
   27.42000     -2.5162787E-08
   27.48000     -2.4850650E-08
   27.54000     -2.4545374E-08
   27.60000     -2.4256753E-08
   27.66000     -2.3976142E-08
   27.72000     -2.3673815E-08
   27.78000     -2.3303985E-08
   27.84000     -2.2816280E-08
   27.90000     -2.2169775E-08
   27.96000     -2.1344285E-08
   28.02000     -2.0344380E-08
   28.08000     -1.9194321E-08
   28.14000     -1.7925665E-08
   28.20000     -1.6562510E-08
   28.26000     -1.5110427E-08
   28.32000     -1.3553918E-08
   28.38000     -1.1863997E-08
   28.44000     -1.0013577E-08
   28.50000     -7.9952951E-09
   28.56000     -5.8352834E-09
   28.62000     -3.5975531E-09
   28.68000     -1.3766722E-09
   28.74000      7.1982387E-10
   28.80000      2.5944715E-09
   28.86000      4.1815431E-09
   28.92000      5.4605600E-09
   28.98000      6.4570158E-09
   29.04000      7.2294282E-09
   29.10000      7.8461548E-09
   29.16000      8.3589056E-09
   29.22000      8.7813481E-09
   29.28000      9.0799022E-09
   29.34000      9.1801065E-09
   29.40000      8.9868779E-09
   29.46000      8.4124565E-09
   29.52000      7.4032336E-09
   29.58000      5.9570908E-09
   29.64000      4.1259671E-09
   29.70000      2.0031423E-09
   29.76000     -3.0052069E-10
   29.82000     -2.6838649E-09
   29.88000     -5.0780002E-09
   29.94000     -7.4577118E-09
   30.00000     -9.8390478E-09
   30.06000     -1.2264826E-08
   30.12000     -1.4783425E-08
   30.18000     -1.7427993E-08
   30.24000     -2.0202544E-08
   30.30000     -2.3078764E-08
   30.36000     -2.6003550E-08
   30.42000     -2.8913897E-08
   30.48000     -3.1753491E-08
   30.54000     -3.4485375E-08
   30.60000     -3.7096680E-08
   30.66000     -3.9594415E-08
   30.72000     -4.1994380E-08
   30.78000     -4.4307512E-08
   30.84000     -4.6528857E-08
   30.90000     -4.8633279E-08
   30.96000     -5.0579757E-08
   31.02000     -5.2323006E-08
   31.08000     -5.3828344E-08
   31.14000     -5.5084570E-08
   31.20000     -5.6109851E-08
   31.26000     -5.6948171E-08
   31.32000     -5.7657125E-08
   31.38000     -5.8291086E-08
   31.44000     -5.8885274E-08
   31.50000     -5.9446045E-08
   31.56000     -5.9950402E-08
   31.62000     -6.0354452E-08
   31.68000     -6.0607704E-08
   31.74000     -6.0668313E-08
   31.80000     -6.0514459E-08
   31.86000     -6.0148665E-08
   31.92000     -5.9594363E-08
   31.98000     -5.8886560E-08
   32.04000     -5.8060309E-08
   32.10000     -5.7141161E-08
   32.16000     -5.6140820E-08
   32.22000     -5.5059211E-08
   32.28000     -5.3891650E-08
   32.34000     -5.2637951E-08
   32.40000     -5.1309502E-08
   32.46000     -4.9931380E-08
   32.52000     -4.8538539E-08
   32.58000     -4.7167632E-08
   32.64000     -4.5847681E-08
   32.70000     -4.4593413E-08
   32.76000     -4.3403816E-08
   32.82000     -4.2266642E-08
   32.88000     -4.1167137E-08
   32.94000     -4.0097770E-08
   33.00000     -3.9065029E-08
   33.06000     -3.8090242E-08
   33.12000     -3.7203211E-08
   33.18000     -3.6430027E-08
   33.24000     -3.5778836E-08
   33.30000     -3.5228769E-08
   33.36000     -3.4727005E-08
   33.42000     -3.4196621E-08
   33.48000     -3.3554404E-08
   33.54000     -3.2733841E-08
   33.60000     -3.1706168E-08
   33.66000     -3.0492149E-08
   33.72000     -2.9159953E-08
   33.78000     -2.7808946E-08
   33.84000     -2.6544011E-08
   33.90000     -2.5448152E-08
   33.96000     -2.4561997E-08
   34.02000     -2.3876563E-08
   34.08000     -2.3341533E-08
   34.14000     -2.2886285E-08
   34.20000     -2.2446782E-08
   34.26000     -2.1989326E-08
   34.32000     -2.1522983E-08
   34.38000     -2.1096005E-08
   34.44000     -2.0776987E-08
   34.50000     -2.0627004E-08
   34.56000     -2.0672591E-08
   34.62000     -2.0889740E-08
   34.68000     -2.1205452E-08
   34.74000     -2.1517145E-08
   34.80000     -2.1723617E-08
   34.86000     -2.1756760E-08
   34.92000     -2.1602824E-08
   34.98000     -2.1305723E-08
   35.04000     -2.0951401E-08
   35.10000     -2.0638870E-08
   35.16000     -2.0448034E-08
   35.22000     -2.0415042E-08
   35.28000     -2.0523004E-08
   35.34000     -2.0710536E-08
   35.40000     -2.0894687E-08
   35.46000     -2.1000458E-08
   35.52000     -2.0987230E-08
   35.58000     -2.0863745E-08
   35.64000     -2.0687033E-08
   35.70000     -2.0545810E-08
   35.76000     -2.0533761E-08
   35.82000     -2.0721345E-08
   35.88000     -2.1135046E-08
   35.94000     -2.1750530E-08
   36.00000     -2.2501432E-08
   36.06000     -2.3300300E-08
   36.12000     -2.4064347E-08
   36.18000     -2.4737201E-08
   36.24000     -2.5299556E-08
   36.30000     -2.5765688E-08
   36.36000     -2.6167740E-08
   36.42000     -2.6534032E-08
   36.48000     -2.6869703E-08
   36.54000     -2.7147296E-08
   36.60000     -2.7311433E-08
   36.66000     -2.7296782E-08
   36.72000     -2.7053485E-08
   36.78000     -2.6571053E-08
   36.84000     -2.5891543E-08
   36.90000     -2.5105980E-08
   36.96000     -2.4333582E-08
   37.02000     -2.3689561E-08
   37.08000     -2.3251758E-08
   37.14000     -2.3037533E-08
   37.20000     -2.2999332E-08
   37.26000     -2.3041284E-08
   37.32000     -2.3052040E-08
   37.38000     -2.2943315E-08
   37.44000     -2.2681419E-08
   37.50000     -2.2301107E-08
   37.56000     -2.1896833E-08
   37.62000     -2.1593900E-08
   37.68000     -2.1508651E-08
   37.74000     -2.1710573E-08
   37.80000     -2.2198568E-08
   37.86000     -2.2899179E-08
   37.92000     -2.3687301E-08
   37.98000     -2.4422643E-08
   38.04000     -2.4990117E-08
   38.10000     -2.5331127E-08
   38.16000     -2.5456096E-08
   38.22000     -2.5434939E-08
   38.28000     -2.5369610E-08
   38.34000     -2.5358720E-08
   38.40000     -2.5466431E-08
   38.46000     -2.5705882E-08
   38.52000     -2.6041848E-08
   38.58000     -2.6410527E-08
   38.64000     -2.6748227E-08
   38.70000     -2.7017929E-08
   38.76000     -2.7223722E-08
   38.82000     -2.7407927E-08
   38.88000     -2.7632391E-08
   38.94000     -2.7951607E-08
   39.00000     -2.8388566E-08
   39.06000     -2.8923361E-08
   39.12000     -2.9499640E-08
   39.18000     -3.0046916E-08
   39.24000     -3.0510314E-08
   39.30000     -3.0876084E-08
   39.36000     -3.1182623E-08
   39.42000     -3.1511959E-08
   39.48000     -3.1964220E-08
   39.54000     -3.2623696E-08
   39.60000     -3.3528490E-08
   39.66000     -3.4654295E-08
   39.72000     -3.5918209E-08
   39.78000     -3.7201737E-08
   39.84000     -3.8385849E-08
   39.90000     -3.9387022E-08
   39.96000     -4.0182591E-08
   40.02000     -4.0816857E-08
   40.08000     -4.1385086E-08
   40.14000     -4.1999858E-08
   40.20000     -4.2750390E-08
   40.26000     -4.3668557E-08
   40.32000     -4.4713989E-08
   40.38000     -4.5784564E-08
   40.44000     -4.6749772E-08
   40.50000     -4.7495963E-08
   40.56000     -4.7967660E-08
   40.62000     -4.8189914E-08
   40.68000     -4.8263363E-08
   40.74000     -4.8333177E-08
   40.80000     -4.8542717E-08
   40.86000     -4.8987779E-08
   40.92000     -4.9687248E-08
   40.98000     -5.0579843E-08
   41.04000     -5.1547701E-08
   41.10000     -5.2458297E-08
   41.16000     -5.3210261E-08
   41.22000     -5.3767462E-08
   41.28000     -5.4169963E-08
   41.34000     -5.4518285E-08
   41.40000     -5.4936471E-08
   41.46000     -5.5526566E-08
   41.52000     -5.6329871E-08
   41.58000     -5.7307904E-08
   41.64000     -5.8349226E-08
   41.70000     -5.9299435E-08
   41.76000     -6.0004297E-08
   41.82000     -6.0351901E-08
   41.88000     -6.0300891E-08
   41.94000     -5.9886624E-08
   42.00000     -5.9204584E-08
   42.06000     -5.8377399E-08
   42.12000     -5.7516655E-08
   42.18000     -5.6691750E-08
   42.24000     -5.5915550E-08
   42.30000     -5.5150839E-08
   42.36000     -5.4334457E-08
   42.42000     -5.3409948E-08
   42.48000     -5.2356356E-08
   42.54000     -5.1202232E-08
   42.60000     -5.0019459E-08
   42.66000     -4.8899430E-08
   42.72000     -4.7921283E-08
   42.78000     -4.7125013E-08
   42.84000     -4.6500418E-08
   42.90000     -4.5996206E-08
   42.96000     -4.5545388E-08
   43.02000     -4.5096652E-08
   43.08000     -4.4639282E-08
   43.14000     -4.4212030E-08
   43.20000     -4.3892726E-08
   43.26000     -4.3772602E-08
   43.32000     -4.3924445E-08
   43.38000     -4.4375660E-08
   43.44000     -4.5095113E-08
   43.50000     -4.5998096E-08
   43.56000     -4.6967738E-08
   43.62000     -4.7886218E-08
   43.68000     -4.8665949E-08
   43.74000     -4.9271080E-08
   43.80000     -4.9722722E-08
   43.86000     -5.0086630E-08
   43.92000     -5.0447955E-08
   43.98000     -5.0881891E-08
   44.04000     -5.1430209E-08
   44.10000     -5.2091377E-08
   44.16000     -5.2826689E-08
   44.22000     -5.3579079E-08
   44.28000     -5.4296883E-08
   44.34000     -5.4953382E-08
   44.40000     -5.5555226E-08
   44.46000     -5.6137278E-08
   44.52000     -5.6746675E-08
   44.58000     -5.7422799E-08
   44.64000     -5.8181115E-08
   44.70000     -5.9006702E-08
   44.76000     -5.9859651E-08
   44.82000     -6.0689587E-08
   44.88000     -6.1453477E-08
   44.94000     -6.2129907E-08
   45.00000     -6.2725015E-08
   45.06000     -6.3268665E-08
   45.12000     -6.3803412E-08
   45.18000     -6.4370894E-08
   45.24000     -6.5000862E-08
   45.30000     -6.5706104E-08
   45.36000     -6.6484297E-08
   45.42000     -6.7325182E-08
   45.48000     -6.8220089E-08
   45.54000     -6.9170632E-08
   45.60000     -7.0194034E-08
   45.66000     -7.1323704E-08
   45.72000     -7.2605609E-08
   45.78000     -7.4092313E-08
   45.84000     -7.5838059E-08
   45.90000     -7.7897987E-08
   45.96000     -8.0333621E-08
   46.02000     -8.3223952E-08
   46.08000     -8.6678583E-08
   46.14000     -9.0847777E-08
   46.20000     -9.5924641E-08
   46.26000     -1.0213773E-07
   46.32000     -1.0973670E-07
   46.38000     -1.1897747E-07
   46.44000     -1.3011453E-07
   46.50000     -1.4340658E-07
   46.56000     -1.5913655E-07
   46.62000     -1.7764243E-07
   46.68000     -1.9935089E-07
   46.74000     -2.2480435E-07
   46.80000     -2.5467469E-07
   46.86000     -2.8976095E-07
   46.92000     -3.3097498E-07
   46.98000     -3.7932276E-07
   47.04000     -4.3589228E-07
   47.10000     -5.0185679E-07
   47.16000     -5.7849809E-07
   47.22000     -6.6724692E-07
   47.28000     -7.6973373E-07
   47.34000     -8.8783622E-07
   47.40000     -1.0237158E-06
   47.46000     -1.1798342E-06
   47.52000     -1.3589524E-06
   47.58000     -1.5641206E-06
   47.64000     -1.7986665E-06
   47.70000     -2.0661969E-06
   47.76000     -2.3706164E-06
   47.82000     -2.7161659E-06
   47.88000     -3.1074760E-06
   47.94000     -3.5496269E-06
   48.00000     -4.0482009E-06
   48.06000     -4.6093214E-06
   48.12000     -5.2396640E-06
   48.18000     -5.9464483E-06
   48.24000     -6.7374135E-06
   48.30000     -7.6207884E-06
   48.36000     -8.6052723E-06
   48.42000     -9.7000393E-06
   48.48000     -1.0914755E-05
   48.54000     -1.2259617E-05
   48.60000     -1.3745382E-05
   48.66000     -1.5383386E-05
   48.72000     -1.7185523E-05
   48.78000     -1.9164188E-05
   48.84000     -2.1332213E-05
   48.90000     -2.3702751E-05
   48.96000     -2.6289194E-05
   49.02000     -2.9105078E-05
   49.08000     -3.2164025E-05
   49.14000     -3.5479668E-05
   49.20000     -3.9065610E-05
   49.26000     -4.2935382E-05
   49.32000     -4.7102334E-05
   49.38000     -5.1579536E-05
   49.44000     -5.6379642E-05
   49.50000     -6.1514664E-05
   49.56000     -6.6995810E-05
   49.62000     -7.2833282E-05
   49.68000     -7.9036115E-05
   49.74000     -8.5612039E-05
   49.80000     -9.2567396E-05
   49.86000     -9.9907011E-05
   49.92000     -1.0763408E-04
   49.98000     -1.1575012E-04
   50.04000     -1.2425474E-04
   50.10000     -1.3314553E-04
   50.16000     -1.4241786E-04
   50.22000     -1.5206482E-04
   50.28000     -1.6207701E-04
   50.34000     -1.7244254E-04
   50.40000     -1.8314701E-04
   50.46000     -1.9417347E-04
   50.52000     -2.0550247E-04
   50.58000     -2.1711216E-04
   50.64000     -2.2897834E-04
   50.70000     -2.4107457E-04
   50.76000     -2.5337221E-04
   50.82000     -2.6584056E-04
   50.88000     -2.7844691E-04
   50.94000     -2.9115687E-04
   51.00000     -3.0393444E-04
   51.06000     -3.1674234E-04
   51.12000     -3.2954229E-04
   51.18000     -3.4229542E-04
   51.24000     -3.5496248E-04
   51.30000     -3.6750414E-04
   51.36000     -3.7988153E-04
   51.42000     -3.9205624E-04
   51.48000     -4.0399088E-04
   51.54000     -4.1564932E-04
   51.60000     -4.2699705E-04
   51.66000     -4.3800159E-04
   51.72000     -4.4863269E-04
   51.78000     -4.5886278E-04
   51.84000     -4.6866728E-04
   51.90000     -4.7802491E-04
   51.96000     -4.8691791E-04
   52.02000     -4.9533206E-04
   52.08000     -5.0325686E-04
   52.14000     -5.1068573E-04
   52.20000     -5.1761564E-04
   52.26000     -5.2404794E-04
   52.32000     -5.2998768E-04
   52.38000     -5.3544377E-04
   52.44000     -5.4042938E-04
   52.50000     -5.4496096E-04
   52.56000     -5.4905866E-04
   52.62000     -5.5274559E-04
   52.68000     -5.5604801E-04
   52.74000     -5.5899436E-04
   52.80000     -5.6161539E-04
   52.86000     -5.6394347E-04
   52.92000     -5.6601240E-04
   52.98000     -5.6785718E-04
   53.04000     -5.6951330E-04
   53.10000     -5.7101651E-04
   53.16000     -5.7240203E-04
   53.22000     -5.7370437E-04
   53.28000     -5.7495642E-04
   53.34000     -5.7618937E-04
   53.40000     -5.7743228E-04
   53.46000     -5.7871157E-04
   53.52000     -5.8005104E-04
   53.58000     -5.8147107E-04
   53.64000     -5.8298866E-04
   53.70000     -5.8461720E-04
   53.76000     -5.8636605E-04
   53.82000     -5.8824103E-04
   53.88000     -5.9024390E-04
   53.94000     -5.9237244E-04
   54.00000     -5.9462053E-04
   54.06000     -5.9697824E-04
   54.12000     -5.9943163E-04
   54.18000     -6.0196349E-04
   54.24000     -6.0455338E-04
   54.30000     -6.0717791E-04
   54.36000     -6.0981105E-04
   54.42000     -6.1242457E-04
   54.48000     -6.1498862E-04
   54.54000     -6.1747176E-04
   54.60000     -6.1984174E-04
   54.66000     -6.2206568E-04
   54.72000     -6.2411063E-04
   54.78000     -6.2594388E-04
   54.84000     -6.2753365E-04
   54.90000     -6.2884949E-04
   54.96000     -6.2986283E-04
   55.02000     -6.3054729E-04
   55.08000     -6.3087902E-04
   55.14000     -6.3083693E-04
   55.20000     -6.3040288E-04
   55.26000     -6.2956178E-04
   55.32000     -6.2830176E-04
   55.38000     -6.2661490E-04
   55.44000     -6.2449678E-04
   55.50000     -6.2194676E-04
   55.56000     -6.1896769E-04