  -2.400000      0.0000000E+00
  -2.340000      0.0000000E+00
  -2.280000      0.0000000E+00
  -2.220000      0.0000000E+00
  -2.160000      0.0000000E+00
  -2.100000      0.0000000E+00
  -2.040000     -1.5398411E-22
  -1.980000     -1.3265185E-21
  -1.920000     -5.5130215E-21
  -1.860000     -1.3713839E-20
  -1.800000     -1.8030626E-20
  -1.740000      1.1190514E-20
  -1.680000      1.3213006E-19
  -1.620000      4.1075613E-19
  -1.560000      8.5328648E-19
  -1.500000      1.2979609E-18
  -1.440000      1.3175509E-18
  -1.380000      2.2595690E-19
  -1.320000     -2.7145597E-18
  -1.260000     -7.8518316E-18
  -1.200000     -1.4560850E-17
  -1.140000     -2.0759750E-17
  -1.080000     -2.2857389E-17
  -1.020000     -1.6420076E-17
 -0.9600000      2.3838446E-18
 -0.9000000      3.4878957E-17
 -0.8400000      7.8210397E-17
 -0.7800000      1.2473823E-16
 -0.7200000      1.6302750E-16
 -0.6600000      1.8019257E-16
 -0.6000000      1.6443190E-16
 -0.5400000      1.0613053E-16
 -0.4800000     -3.4587922E-18
 -0.4200000     -1.7505597E-16
 -0.3600000     -4.2235569E-16
 -0.3000000     -7.5632472E-16
 -0.2400000     -1.1690779E-15
 -0.1800000     -1.6082884E-15
 -0.1200000     -1.9503757E-15
 -5.9999999E-02 -1.9877744E-15
  0.0000000E+00 -1.4484945E-15
  5.9999999E-02 -6.1554718E-17
  0.1200000      2.3315060E-15
  0.1800000      5.6389423E-15
  0.2400000      9.3964219E-15
  0.3000000      1.2716711E-14
  0.3600000      1.4368360E-14
  0.4200000      1.3017946E-14
  0.4800000      7.6227934E-15
  0.5400000     -2.1047233E-15
  0.6000000     -1.5304988E-14
  0.6600000     -2.9827428E-14
  0.7200000     -4.2480630E-14
  0.7800000     -4.9710785E-14
  0.8400000     -4.8572566E-14
  0.9000000     -3.7688125E-14
  0.9600000     -1.7814314E-14
   1.020000      8.2684646E-15
   1.080000      3.6559856E-14
   1.140000      6.2990852E-14
   1.200000      8.4317014E-14
   1.260000      9.8185471E-14
   1.320000      1.0224297E-13
   1.380000      9.2874920E-14
   1.440000      6.4831190E-14
   1.500000      1.3129279E-14
   1.560000     -6.2140695E-14
   1.620000     -1.4915972E-13
   1.680000     -2.1897299E-13
   1.740000     -2.2585788E-13
   1.800000     -1.1765331E-13
   1.860000      1.4258295E-13
   1.920000      5.4729100E-13
   1.980000      1.0170557E-12
   2.040000      1.3889296E-12
   2.100000      1.4340317E-12
   2.160000      9.1181132E-13
   2.220000     -3.4359809E-13
   2.280000     -2.3242918E-12
   2.340000     -4.7686187E-12
   2.400000     -7.1365366E-12
   2.460000     -8.6685268E-12
   2.520000     -8.5355074E-12
   2.580000     -6.0581553E-12
   2.640000     -9.4570987E-13
   2.700000      6.5126776E-12
   2.760000      1.5368399E-11
   2.820000      2.4085770E-11
   2.880000      3.0766553E-11
   2.940000      3.3484281E-11
   3.000000      3.0655721E-11
   3.060000      2.1370062E-11
   3.120000      5.6153498E-12
   3.180000     -1.5622444E-11
   3.240000     -4.0375703E-11
   3.300000     -6.5794037E-11
   3.360000     -8.8297626E-11
   3.420000     -1.0378384E-10
   3.480000     -1.0791990E-10
   3.540000     -9.6574498E-11
   3.600000     -6.6430188E-11
   3.660000     -1.5770356E-11
   3.720000      5.4639984E-11
   3.780000      1.4073744E-10
   3.840000      2.3461796E-10
   3.900000      3.2448300E-10
   3.960000      3.9523357E-10
   4.020000      4.2976522E-10
   4.080000      4.1088172E-10
   4.140000      3.2360856E-10
   4.200000      1.5758647E-10
   4.260000     -9.0818644E-11
   4.320000     -4.1702269E-10
   4.380000     -8.0758089E-10
   4.440000     -1.2404804E-09
   4.500000     -1.6862913E-09
   4.560000     -2.1099660E-09
   4.620000     -2.4730056E-09
   4.680000     -2.7357265E-09
   4.740000     -2.8594500E-09
   4.800000     -2.8085470E-09
   4.860000     -2.5523983E-09
   4.920000     -2.0673565E-09
   4.980000     -1.3387719E-09
   5.040000     -3.6300368E-10
   5.100000      8.5081214E-10
   5.160000      2.2796249E-09
   5.220000      3.8863934E-09
   5.280000      5.6214366E-09
   5.340000      7.4253679E-09
   5.400000      9.2334655E-09
   5.460000      1.0981015E-08
   5.520000      1.2608915E-08
   5.580000      1.4068692E-08
   5.640000      1.5326204E-08
   5.700000      1.6363495E-08
   5.760000      1.7178650E-08
   5.820000      1.7783830E-08
   5.880000      1.8201986E-08
   5.940000      1.8462879E-08
   6.000000      1.8599005E-08
   6.060000      1.8641936E-08
   6.120000      1.8619360E-08
   6.180000      1.8552972E-08
   6.240000      1.8457197E-08
   6.300000      1.8338730E-08
   6.360000      1.8196870E-08
   6.420000      1.8024560E-08
   6.480000      1.7810084E-08
   6.540000      1.7539259E-08
   6.600000      1.7197836E-08
   6.660000      1.6773752E-08
   6.720000      1.6258833E-08
   6.780000      1.5649579E-08
   6.840000      1.4946918E-08
   6.900000      1.4154977E-08
   6.960000      1.3279268E-08
   7.020000      1.2324867E-08
   7.080000      1.1295195E-08
   7.140000      1.0191928E-08
   7.200000      9.0161985E-09
   7.260000      7.7708506E-09
   7.320000      6.4631371E-09
   7.380000      5.1069917E-09
   7.440000      3.7240764E-09
   7.500000      2.3430760E-09
   7.560000      9.9722897E-10
   7.620000     -2.7941882E-10
   7.680000     -1.4561559E-09
   7.740000     -2.5091604E-09
   7.800000     -3.4236769E-09
   7.860000     -4.1944457E-09
   7.920000     -4.8245172E-09
   7.980000     -5.3229905E-09
   8.040000     -5.7024221E-09
   8.100000     -5.9765890E-09
   8.160000     -6.1590515E-09
   8.220000     -6.2626224E-09
   8.280000     -6.2995698E-09
   8.340000     -6.2822036E-09
   8.400000     -6.2234955E-09
   8.460000     -6.1374301E-09
   8.520000     -6.0389564E-09
   8.580000     -5.9434817E-09
   8.640000     -5.8659659E-09
   8.700000     -5.8197225E-09
   8.760000     -5.8151000E-09
   8.820000     -5.8583018E-09
   8.880000     -5.9506422E-09
   8.940000     -6.0885528E-09
   9.000000     -6.2645347E-09
   9.060000     -6.4690364E-09
   9.120000     -6.6929497E-09
   9.180000     -6.9301689E-09
   9.240000     -7.1795516E-09
   9.300000     -7.4457209E-09
   9.360000     -7.7384579E-09
   9.420000     -8.0708702E-09
   9.480000     -8.4568788E-09
   9.540000     -8.9087999E-09
   9.600000     -9.4356585E-09
   9.660000     -1.0042625E-08
   9.720000     -1.0731473E-08
   9.780000     -1.1501605E-08
   9.840000     -1.2351052E-08
   9.900000     -1.3276909E-08
   9.960000     -1.4275048E-08
   10.02000     -1.5339248E-08
   10.08000     -1.6460232E-08
   10.14000     -1.7625032E-08
   10.20000     -1.8817024E-08
   10.26000     -2.0016564E-08
   10.32000     -2.1201959E-08
   10.38000     -2.2350331E-08
   10.44000     -2.3438082E-08
   10.50000     -2.4440951E-08
   10.56000     -2.5333922E-08
   10.62000     -2.6091461E-08
   10.68000     -2.6688481E-08
   10.74000     -2.7102216E-08
   10.80000     -2.7314776E-08
   10.86000     -2.7315913E-08
   10.92000     -2.7105283E-08
   10.98000     -2.6693673E-08
   11.04000     -2.6102859E-08
   11.10000     -2.5364050E-08
   11.16000     -2.4515213E-08
   11.22000     -2.3597684E-08
   11.28000     -2.2652509E-08
   11.34000     -2.1716977E-08
   11.40000     -2.0821684E-08
   11.46000     -1.9988473E-08
   11.52000     -1.9229574E-08
   11.58000     -1.8548107E-08
   11.64000     -1.7940042E-08
   11.70000     -1.7397360E-08
   11.76000     -1.6911905E-08
   11.82000     -1.6479090E-08
   11.88000     -1.6100572E-08
   11.94000     -1.5784964E-08
   12.00000     -1.5546179E-08
   12.06000     -1.5399351E-08
   12.12000     -1.5355113E-08
   12.18000     -1.5413466E-08
   12.24000     -1.5558822E-08
   12.30000     -1.5757760E-08
   12.36000     -1.5960460E-08
   12.42000     -1.6105986E-08
   12.48000     -1.6130578E-08
   12.54000     -1.5977321E-08
   12.60000     -1.5605131E-08
   12.66000     -1.4995150E-08
   12.72000     -1.4153326E-08
   12.78000     -1.3108875E-08
   12.84000     -1.1909336E-08
   12.90000     -1.0613625E-08
   12.96000     -9.2847241E-09
   13.02000     -7.9834956E-09
   13.08000     -6.7644410E-09
   13.14000     -5.6735825E-09
   13.20000     -4.7479523E-09
   13.26000     -4.0158037E-09
   13.32000     -3.4966079E-09
   13.38000     -3.2001883E-09
   13.44000     -3.1248975E-09
   13.50000     -3.2553160E-09
   13.56000     -3.5604391E-09
   13.62000     -3.9934305E-09
   13.68000     -4.4937614E-09
   13.74000     -4.9918922E-09
   13.80000     -5.4158575E-09
   13.86000     -5.6984462E-09
   13.92000     -5.7833840E-09
   13.98000     -5.6292273E-09
   14.04000     -5.2103961E-09
   14.10000     -4.5157256E-09
   14.16000     -3.5456516E-09
   14.22000     -2.3094340E-09
   14.28000     -8.2350005E-10
   14.34000      8.8872615E-10
   14.40000      2.7959897E-09
   14.46000      4.8583875E-09
   14.52000      7.0276664E-09
   14.58000      9.2492662E-09
   14.64000      1.1466022E-08
   14.70000      1.3622745E-08
   14.76000      1.5670560E-08
   14.82000      1.7570029E-08
   14.88000      1.9292516E-08
   14.94000      2.0819938E-08
   15.00000      2.2143439E-08
   15.06000      2.3261748E-08
   15.12000      2.4179679E-08
   15.18000      2.4907063E-08
   15.24000      2.5457879E-08
   15.30000      2.5849404E-08
   15.36000      2.6101247E-08
   15.42000      2.6234353E-08
   15.48000      2.6270312E-08
   15.54000      2.6231209E-08
   15.60000      2.6140132E-08
   15.66000      2.6021919E-08
   15.72000      2.5903587E-08
   15.78000      2.5813716E-08
   15.84000      2.5780432E-08
   15.90000      2.5828138E-08
   15.96000      2.5973707E-08
   16.02000      2.6223308E-08
   16.08000      2.6570888E-08
   16.14000      2.6999047E-08
   16.20000      2.7482297E-08
   16.26000      2.7991980E-08
   16.32000      2.8501647E-08
   16.38000      2.8991609E-08
   16.44000      2.9451501E-08
   16.50000      2.9880287E-08
   16.56000      3.0283683E-08
   16.62000      3.0669590E-08
   16.68000      3.1042578E-08
   16.74000      3.1398852E-08
   16.80000      3.1723093E-08
   16.86000      3.1988474E-08
   16.92000      3.2160397E-08
   16.98000      3.2203744E-08
   17.04000      3.2092174E-08
   17.10000      3.1817216E-08
   17.16000      3.1394311E-08
   17.22000      3.0863585E-08
   17.28000      3.0284347E-08
   17.34000      2.9724095E-08
   17.40000      2.9244800E-08
   17.46000      2.8890293E-08
   17.52000      2.8678532E-08
   17.58000      2.8601184E-08
   17.64000      2.8630565E-08
   17.70000      2.8731542E-08
   17.76000      2.8874206E-08
   17.82000      2.9042694E-08
   17.88000      2.9236896E-08
   17.94000      2.9466143E-08
   18.00000      2.9737020E-08
   18.06000      3.0039583E-08
   18.12000      3.0337311E-08
   18.18000      3.0565015E-08
   18.24000      3.0636595E-08
   18.30000      3.0461408E-08
   18.36000      2.9964998E-08
   18.42000      2.9108573E-08
   18.48000      2.7901718E-08
   18.54000      2.6404784E-08
   18.60000      2.4720405E-08
   18.66000      2.2976613E-08
   18.72000      2.1306249E-08
   18.78000      1.9827999E-08
   18.84000      1.8633461E-08
   18.90000      1.7782464E-08
   18.96000      1.7306203E-08
   19.02000      1.7215536E-08
   19.08000      1.7510450E-08
   19.14000      1.8186840E-08
   19.20000      1.9237930E-08
   19.26000      2.0649640E-08
   19.32000      2.2391413E-08
   19.38000      2.4405654E-08
   19.44000      2.6599762E-08
   19.50000      2.8844369E-08
   19.56000      3.0979997E-08
   19.62000      3.2832162E-08
   19.68000      3.4232539E-08
   19.74000      3.5041985E-08
   19.80000      3.5170167E-08
   19.86000      3.4587220E-08
   19.92000      3.3324625E-08
   19.98000      3.1465209E-08
   20.04000      2.9125040E-08
   20.10000      2.6431971E-08
   20.16000      2.3506141E-08
   20.22000      2.0446867E-08
   20.28000      1.7327887E-08
   20.34000      1.4200322E-08
   20.40000      1.1100297E-08
   20.46000      8.0571834E-09
   20.52000      5.0988662E-09
   20.58000      2.2521534E-09
   20.64000     -4.6125628E-10
   20.70000     -3.0309346E-09
   20.76000     -5.4627982E-09
   20.82000     -7.7803053E-09
   20.88000     -1.0020478E-08
   20.94000     -1.2225393E-08
   21.00000     -1.4431487E-08
   21.06000     -1.6659870E-08
   21.12000     -1.8910663E-08
   21.18000     -2.1163233E-08
   21.24000     -2.3382523E-08
   21.30000     -2.5529872E-08
   21.36000     -2.7575426E-08
   21.42000     -2.9508573E-08
   21.48000     -3.1343173E-08
   21.54000     -3.3115697E-08
   21.60000     -3.4876237E-08
   21.66000     -3.6674610E-08
   21.72000     -3.8545398E-08
   21.78000     -4.0496396E-08
   21.84000     -4.2504098E-08
   21.90000     -4.4517709E-08
   21.96000     -4.6470426E-08
   22.02000     -4.8294329E-08
   22.08000     -4.9934094E-08
   22.14000     -5.1355343E-08
   22.20000     -5.2545634E-08
   22.26000     -5.3508860E-08
   22.32000     -5.4256127E-08
   22.38000     -5.4797315E-08
   22.44000     -5.5136589E-08
   22.50000     -5.5273304E-08
   22.56000     -5.5207266E-08
   22.62000     -5.4945403E-08
   22.68000     -5.4506497E-08
   22.74000     -5.3921440E-08
   22.80000     -5.3228344E-08
   22.86000     -5.2464056E-08
   22.92000     -5.1655036E-08
   22.98000     -5.0811188E-08
   23.04000     -4.9925209E-08
   23.10000     -4.8978247E-08
   23.16000     -4.7950333E-08
   23.22000     -4.6832231E-08
   23.28000     -4.5634472E-08
   23.34000     -4.4390127E-08
   23.40000     -4.3149861E-08
   23.46000     -4.1970605E-08
   23.52000     -4.0901771E-08
   23.58000     -3.9973976E-08
   23.64000     -3.9194646E-08
   23.70000     -3.8552376E-08
   23.76000     -3.8028503E-08
   23.82000     -3.7611414E-08
   23.88000     -3.7307800E-08
   23.94000     -3.7146005E-08
   24.00000     -3.7169581E-08
   24.06000     -3.7422716E-08
   24.12000     -3.7932516E-08
   24.18000     -3.8694306E-08
   24.24000     -3.9665228E-08
   24.30000     -4.0768615E-08
   24.36000     -4.1908198E-08
   24.42000     -4.2987939E-08
   24.48000     -4.3931877E-08
   24.54000     -4.4698435E-08
   24.60000     -4.5285343E-08
   24.66000     -4.5724235E-08
   24.72000     -4.6066621E-08
   24.78000     -4.6365361E-08
   24.84000     -4.6656890E-08
   24.90000     -4.6949179E-08
   24.96000     -4.7219007E-08
   25.02000     -4.7419363E-08
   25.08000     -4.7494989E-08
   25.14000     -4.7401368E-08
   25.20000     -4.7121269E-08
   25.26000     -4.6673279E-08
   25.32000     -4.6109232E-08
   25.38000     -4.5500713E-08
   25.44000     -4.4918618E-08
   25.50000     -4.4412172E-08
   25.56000     -4.3994199E-08
   25.62000     -4.3637669E-08
   25.68000     -4.3284960E-08
   25.74000     -4.2866951E-08
   25.80000     -4.2326036E-08
   25.86000     -4.1635495E-08
   25.92000     -4.0809059E-08
   25.98000     -3.9897326E-08
   26.04000     -3.8972207E-08
   26.10000     -3.8104115E-08
   26.16000     -3.7339174E-08
   26.22000     -3.6683641E-08
   26.28000     -3.6100754E-08
   26.34000     -3.5521300E-08
   26.40000     -3.4865078E-08
   26.46000     -3.4066947E-08
   26.52000     -3.3099418E-08
   26.58000     -3.1984513E-08
   26.64000     -3.0790570E-08
   26.70000     -2.9614146E-08
   26.76000     -2.8552044E-08
   26.82000     -2.7671781E-08
   26.88000     -2.6989953E-08
   26.94000     -2.6465862E-08
   27.00000     -2.6013206E-08
   27.06000     -2.5526838E-08
   27.12000     -2.4916510E-08
   27.18000     -2.4136884E-08
   27.24000     -2.3203929E-08
   27.30000     -2.2192083E-08
   27.36000     -2.1212694E-08
   27.42000     -2.0380389E-08
   27.48000     -1.9778035E-08
   27.54000     -1.9431379E-08
   27.60000     -1.9301410E-08
   27.66000     -1.9296785E-08
   27.72000     -1.9302270E-08
   27.78000     -1.9214283E-08
   27.84000     -1.8972424E-08
   27.90000     -1.8577387E-08
   27.96000     -1.8089958E-08
   28.02000     -1.7611585E-08
   28.08000     -1.7252638E-08
   28.14000     -1.7098017E-08
   28.20000     -1.7180318E-08
   28.26000     -1.7468357E-08
   28.32000     -1.7873997E-08
   28.38000     -1.8274822E-08
   28.44000     -1.8545643E-08
   28.50000     -1.8589537E-08
   28.56000     -1.8359765E-08
   28.62000     -1.7867031E-08
   28.68000     -1.7171159E-08
   28.74000     -1.6360808E-08
   28.80000     -1.5528000E-08
   28.86000     -1.4745178E-08
   28.92000     -1.4051070E-08
   28.98000     -1.3448553E-08
   29.04000     -1.2913790E-08
   29.10000     -1.2412638E-08
   29.16000     -1.1918383E-08
   29.22000     -1.1424777E-08
   29.28000     -1.0950208E-08
   29.34000     -1.0531807E-08
   29.40000     -1.0211702E-08
   29.46000     -1.0020308E-08
   29.52000     -9.9627417E-09
   29.58000     -1.0013625E-08
   29.64000     -1.0122997E-08
   29.70000     -1.0232342E-08
   29.76000     -1.0296121E-08
   29.82000     -1.0301818E-08
   29.88000     -1.0281354E-08
   29.94000     -1.0309024E-08
   30.00000     -1.0485262E-08
   30.06000     -1.0910331E-08
   30.12000     -1.1655750E-08
   30.18000     -1.2742587E-08
   30.24000     -1.4133990E-08
   30.30000     -1.5744956E-08
   30.36000     -1.7466661E-08
   30.42000     -1.9197811E-08
   30.48000     -2.0872887E-08
   30.54000     -2.2478162E-08
   30.60000     -2.4050340E-08
   30.66000     -2.5658560E-08
   30.72000     -2.7375954E-08
   30.78000     -2.9250328E-08
   30.84000     -3.1283555E-08
   30.90000     -3.3426051E-08
   30.96000     -3.5587551E-08
   31.02000     -3.7660179E-08
   31.08000     -3.9546062E-08
   31.14000     -4.1180979E-08
   31.20000     -4.2547455E-08
   31.26000     -4.3674564E-08
   31.32000     -4.4625935E-08
   31.38000     -4.5480839E-08
   31.44000     -4.6314582E-08
   31.50000     -4.7183551E-08
   31.56000     -4.8118103E-08
   31.62000     -4.9123383E-08
   31.68000     -5.0185822E-08
   31.74000     -5.1281631E-08
   31.80000     -5.2383839E-08
   31.86000     -5.3465790E-08
   31.92000     -5.4500777E-08
   31.98000     -5.5459317E-08
   32.04000     -5.6306380E-08
   32.10000     -5.7000854E-08
   32.16000     -5.7498465E-08
   32.22000     -5.7758019E-08
   32.28000     -5.7749300E-08
   32.34000     -5.7460337E-08
   32.40000     -5.6901605E-08
   32.46000     -5.6105620E-08
   32.52000     -5.5121649E-08
   32.58000     -5.4006765E-08
   32.64000     -5.2815668E-08
   32.70000     -5.1592171E-08
   32.76000     -5.0365042E-08
   32.82000     -4.9149644E-08
   32.88000     -4.7955023E-08
   32.94000     -4.6794202E-08
   33.00000     -4.5693952E-08
   33.06000     -4.4700009E-08
   33.12000     -4.3874746E-08
   33.18000     -4.3286487E-08
   33.24000     -4.2992671E-08
   33.30000     -4.3021348E-08
   33.36000     -4.3356852E-08
   33.42000     -4.3934659E-08
   33.48000     -4.4647940E-08
   33.54000     -4.5364764E-08
   33.60000     -4.5951431E-08
   33.66000     -4.6295472E-08
   33.72000     -4.6321741E-08
   33.78000     -4.5997506E-08
   33.84000     -4.5325834E-08
   33.90000     -4.4330505E-08
   33.96000     -4.3038142E-08
   34.02000     -4.1463835E-08
   34.08000     -3.9604853E-08
   34.14000     -3.7443947E-08
   34.20000     -3.4960205E-08
   34.26000     -3.2142889E-08
   34.32000     -2.9002964E-08
   34.38000     -2.5578046E-08
   34.44000     -2.1929038E-08
   34.50000     -1.8129688E-08
   34.56000     -1.4252631E-08
   34.62000     -1.0356578E-08
   34.68000     -6.4787420E-09
   34.74000     -2.6349292E-09
   34.80000      1.1727526E-09
   34.86000      4.9429372E-09
   34.92000      8.6607903E-09
   34.98000      1.2287022E-08
   35.04000      1.5753791E-08
   35.10000      1.8969279E-08
   35.16000      2.1830232E-08
   35.22000      2.4239297E-08
   35.28000      2.6122384E-08
   35.34000      2.7441002E-08
   35.40000      2.8195819E-08
   35.46000      2.8420290E-08
   35.52000      2.8166323E-08
   35.58000      2.7486571E-08
   35.64000      2.6419158E-08
   35.70000      2.4980034E-08
   35.76000      2.3165720E-08
   35.82000      2.0965654E-08
   35.88000      1.8380073E-08
   35.94000      1.5437108E-08
   36.00000      1.2202769E-08
   36.06000      8.7795584E-09
   36.12000      5.2931415E-09
   36.18000      1.8706798E-09
   36.24000     -1.3825427E-09
   36.30000     -4.4005790E-09
   36.36000     -7.1624857E-09
   36.42000     -9.6842365E-09
   36.48000     -1.1999745E-08
   36.54000     -1.4137903E-08
   36.60000     -1.6104167E-08
   36.66000     -1.7873854E-08
   36.72000     -1.9400062E-08
   36.78000     -2.0633777E-08
   36.84000     -2.1548855E-08
   36.90000     -2.2162402E-08
   36.96000     -2.2542123E-08
   37.02000     -2.2796492E-08
   37.08000     -2.3049429E-08
   37.14000     -2.3406615E-08
   37.20000     -2.3923754E-08
   37.26000     -2.4586820E-08
   37.32000     -2.5310911E-08
   37.38000     -2.5958684E-08
   37.44000     -2.6373513E-08
   37.50000     -2.6418183E-08
   37.56000     -2.6008395E-08
   37.62000     -2.5132012E-08
   37.68000     -2.3849147E-08
   37.74000     -2.2273728E-08
   37.80000     -2.0542274E-08
   37.86000     -1.8779009E-08
   37.92000     -1.7067141E-08
   37.98000     -1.5433992E-08
   38.04000     -1.3853431E-08
   38.10000     -1.2263889E-08
   38.16000     -1.0595704E-08
   38.22000     -8.7989509E-09
   38.28000     -6.8629751E-09
   38.34000     -4.8216595E-09
   38.40000     -2.7430418E-09
   38.46000     -7.0696238E-10
   38.52000      1.2216417E-09
   38.58000      3.0146721E-09
   38.64000      4.6902997E-09
   38.70000      6.3061361E-09
   38.76000      7.9377411E-09
   38.82000      9.6490798E-09
   38.88000      1.1464584E-08
   38.94000      1.3352463E-08
   39.00000      1.5225705E-08
   39.06000      1.6961694E-08
   39.12000      1.8435326E-08
   39.18000      1.9555848E-08
   39.24000      2.0295946E-08
   39.30000      2.0703631E-08
   39.36000      2.0892582E-08
   39.42000      2.1013349E-08
   39.48000      2.1213825E-08
   39.54000      2.1600998E-08
   39.60000      2.2215572E-08
   39.66000      2.3027015E-08
   39.72000      2.3950019E-08
   39.78000      2.4876540E-08
   39.84000      2.5712668E-08
   39.90000      2.6408323E-08
   39.96000      2.6970376E-08
   40.02000      2.7455663E-08
   40.08000      2.7947028E-08
   40.14000      2.8521274E-08
   40.20000      2.9220239E-08
   40.26000      3.0034901E-08
   40.32000      3.0907636E-08
   40.38000      3.1751387E-08
   40.44000      3.2478695E-08
   40.50000      3.3030357E-08
   40.56000      3.3393796E-08
   40.62000      3.3604962E-08
   40.68000      3.3733325E-08
   40.74000      3.3855233E-08
   40.80000      3.4024580E-08
   40.86000      3.4250487E-08
   40.92000      3.4488910E-08
   40.98000      3.4650615E-08
   41.04000      3.4622598E-08
   41.10000      3.4296093E-08
   41.16000      3.3592670E-08
   41.22000      3.2481065E-08
   41.28000      3.0980384E-08
   41.34000      2.9149668E-08
   41.40000      2.7067452E-08
   41.46000      2.4807751E-08
   41.52000      2.2419428E-08
   41.58000      1.9914824E-08
   41.64000      1.7270763E-08
   41.70000      1.4441542E-08
   41.76000      1.1380069E-08
   41.82000      8.0608329E-09
   41.88000      4.4976449E-09
   41.94000      7.5034323E-10
   42.00000     -3.0822169E-09
   42.06000     -6.8814416E-09
   42.12000     -1.0535167E-08
   42.18000     -1.3962956E-08
   42.24000     -1.7132743E-08
   42.30000     -2.0063641E-08
   42.36000     -2.2814094E-08
   42.42000     -2.5459256E-08
   42.48000     -2.8065026E-08
   42.54000     -3.0667067E-08
   42.60000     -3.3261284E-08
   42.66000     -3.5808174E-08
   42.72000     -3.8248512E-08
   42.78000     -4.0524068E-08
   42.84000     -4.2595591E-08
   42.90000     -4.4451674E-08
   42.96000     -4.6105988E-08
   43.02000     -4.7584891E-08
   43.08000     -4.8911300E-08
   43.14000     -5.0091685E-08
   43.20000     -5.1111599E-08
   43.26000     -5.1941011E-08
   43.32000     -5.2546220E-08
   43.38000     -5.2901786E-08
   43.44000     -5.2995638E-08
   43.50000     -5.2823086E-08
   43.56000     -5.2370275E-08
   43.62000     -5.1592565E-08
   43.68000     -5.0396007E-08
   43.74000     -4.8629616E-08
   43.80000     -4.6092143E-08
   43.86000     -4.2551406E-08
   43.92000     -3.7768888E-08
   43.98000     -3.1519605E-08
   44.04000     -2.3598322E-08
   44.10000     -1.3807578E-08
   44.16000     -1.9290962E-09
   44.22000      1.2314441E-08
   44.28000      2.9297341E-08
   44.34000      4.9519652E-08
   44.40000      7.3621685E-08
   44.46000      1.0238497E-07
   44.52000      1.3672562E-07
   44.58000      1.7768858E-07
   44.64000      2.2645149E-07
   44.70000      2.8434357E-07
   44.76000      3.5287979E-07
   44.82000      4.3380717E-07
   44.88000      5.2915573E-07
   44.94000      6.4128812E-07
   45.00000      7.7294322E-07
   45.06000      9.2727220E-07
   45.12000      1.1078710E-06
   45.18000      1.3188144E-06
   45.24000      1.5646991E-06
   45.30000      1.8507002E-06
   45.36000      2.1826424E-06
   45.42000      2.5670872E-06
   45.48000      3.0114286E-06
   45.54000      3.5239934E-06
   45.60000      4.1141398E-06
   45.66000      4.7923495E-06
   45.72000      5.5703213E-06
   45.78000      6.4610535E-06
   45.84000      7.4789414E-06
   45.90000      8.6398732E-06
   45.96000      9.9613480E-06
   46.02000      1.1462595E-05
   46.08000      1.3164710E-05
   46.14000      1.5090784E-05
   46.20000      1.7266026E-05
   46.26000      1.9717882E-05
   46.32000      2.2476108E-05
   46.38000      2.5572870E-05
   46.44000      2.9042792E-05
   46.50000      3.2923028E-05
   46.56000      3.7253307E-05
   46.62000      4.2075979E-05
   46.68000      4.7436082E-05
   46.74000      5.3381340E-05
   46.80000      5.9962167E-05
   46.86000      6.7231631E-05
   46.92000      7.5245363E-05
   46.98000      8.4061430E-05
   47.04000      9.3740149E-05
   47.10000      1.0434390E-04
   47.16000      1.1593689E-04
   47.22000      1.2858483E-04
   47.28000      1.4235471E-04
   47.34000      1.5731440E-04
   47.40000      1.7353230E-04
   47.46000      1.9107696E-04
   47.52000      2.1001647E-04
   47.58000      2.3041799E-04
   47.64000      2.5234709E-04
   47.70000      2.7586726E-04
   47.76000      3.0103911E-04
   47.82000      3.2791973E-04
   47.88000      3.5656212E-04
   47.94000      3.8701427E-04
   48.00000      4.1931862E-04
   48.06000      4.5351122E-04
   48.12000      4.8962102E-04
   48.18000      5.2766927E-04
   48.24000      5.6766835E-04
   48.30000      6.0962181E-04
   48.36000      6.5352314E-04
   48.42000      6.9935550E-04
   48.48000      7.4709114E-04
   48.54000      7.9669093E-04
   48.60000      8.4810430E-04
   48.66000      9.0126856E-04
   48.72000      9.5610926E-04
   48.78000      1.0125396E-03
   48.84000      1.0704614E-03
   48.90000      1.1297639E-03
   48.96000      1.1903257E-03
   49.02000      1.2520140E-03
   49.08000      1.3146857E-03
   49.14000      1.3781885E-03
   49.20000      1.4423610E-03
   49.26000      1.5070348E-03
   49.32000      1.5720344E-03
   49.38000      1.6371796E-03
   49.44000      1.7022862E-03
   49.50000      1.7671674E-03
   49.56000      1.8316357E-03
   49.62000      1.8955043E-03
   49.68000      1.9585884E-03
   49.74000      2.0207074E-03
   49.80000      2.0816859E-03
   49.86000      2.1413572E-03
   49.92000      2.1995623E-03
   49.98000      2.2561532E-03
   50.04000      2.3109934E-03
   50.10000      2.3639603E-03
   50.16000      2.4149455E-03
   50.22000      2.4638560E-03
   50.28000      2.5106159E-03
   50.34000      2.5551661E-03
   50.40000      2.5974666E-03
   50.46000      2.6374944E-03
   50.52000      2.6752451E-03
   50.58000      2.7107331E-03
   50.64000      2.7439904E-03
   50.70000      2.7750670E-03
   50.76000      2.8040295E-03
   50.82000      2.8309606E-03
   50.88000      2.8559584E-03
   50.94000      2.8791327E-03
   51.00000      2.9006070E-03
   51.06000      2.9205135E-03
   51.12000      2.9389937E-03
   51.18000      2.9561948E-03
   51.24000      2.9722699E-03
   51.30000      2.9873739E-03
   51.36000      3.0016620E-03
   51.42000      3.0152879E-03
   51.48000      3.0284023E-03
   51.54000      3.0411493E-03
   51.60000      3.0536659E-03
   51.66000      3.0660788E-03
   51.72000      3.0785052E-03
   51.78000      3.0910489E-03
   51.84000      3.1038008E-03
   51.90000      3.1168363E-03
   51.96000      3.1302155E-03
   52.02000      3.1439827E-03
   52.08000      3.1581651E-03
   52.14000      3.1727741E-03
   52.20000      3.1878038E-03
   52.26000      3.2032328E-03
   52.32000      3.2190233E-03
   52.38000      3.2351241E-03
   52.44000      3.2514699E-03
   52.50000      3.2679837E-03
   52.56000      3.2845770E-03
   52.62000      3.3011541E-03
   52.68000      3.3176104E-03
   52.74000      3.3338370E-03
   52.80000      3.3497207E-03
   52.86000      3.3651469E-03
   52.92000      3.3800020E-03
   52.98000      3.3941742E-03
   53.04000      3.4075561E-03
   53.10000      3.4200468E-03
   53.16000      3.4315540E-03
   53.22000      3.4419938E-03
   53.28000      3.4512943E-03
   53.34000      3.4593958E-03
   53.40000      3.4662501E-03
   53.46000      3.4718239E-03
   53.52000      3.4760970E-03
   53.58000      3.4790651E-03
   53.64000      3.4807385E-03
   53.70000      3.4811413E-03
   53.76000      3.4803129E-03
   53.82000      3.4783056E-03
   53.88000      3.4751841E-03
   53.94000      3.4710246E-03
   54.00000      3.4659130E-03
   54.06000      3.4599446E-03
   54.12000      3.4532212E-03
   54.18000      3.4458491E-03
   54.24000      3.4379396E-03
   54.30000      3.4296049E-03
   54.36000      3.4209571E-03
   54.42000      3.4121061E-03
   54.48000      3.4031570E-03
   54.54000      3.3942100E-03
   54.60000      3.3853569E-03
   54.66000      3.3766802E-03
   54.72000      3.3682527E-03
   54.78000      3.3601343E-03
   54.84000      3.3523722E-03
   54.90000      3.3449992E-03
   54.96000      3.3380338E-03
   55.02000      3.3314787E-03
   55.08000      3.3253219E-03
   55.14000      3.3195361E-03
   55.20000      3.3140779E-03
   55.26000      3.3088906E-03
   55.32000      3.3039025E-03
   55.38000      3.2990293E-03
   55.44000      3.2941741E-03
   55.50000      3.2892295E-03
   55.56000      3.2840786E-03