  -2.400000      0.0000000E+00
  -2.340000      0.0000000E+00
  -2.280000      0.0000000E+00
  -2.220000      0.0000000E+00
  -2.160000      0.0000000E+00
  -2.100000      0.0000000E+00
  -2.040000      0.0000000E+00
  -1.980000      0.0000000E+00
  -1.920000      0.0000000E+00
  -1.860000      0.0000000E+00
  -1.800000      0.0000000E+00
  -1.740000      1.6959077E-31
  -1.680000      3.5849651E-30
  -1.620000      3.2874776E-29
  -1.560000      1.7517590E-28
  -1.500000      5.7378095E-28
  -1.440000      9.2550544E-28
  -1.380000     -1.3493483E-27
  -1.320000     -1.3849680E-26
  -1.260000     -4.6492186E-26
  -1.200000     -8.7160551E-26
  -1.140000     -4.1920762E-26
  -1.080000      3.2343492E-25
  -1.020000      1.2844652E-24
 -0.9600000      2.6441101E-24
 -0.9000000      2.7343873E-24
 -0.8400000     -2.3285322E-24
 -0.7800000     -1.7106988E-23
 -0.7200000     -4.0521200E-23
 -0.6600000     -5.5049112E-23
 -0.6000000     -1.9476542E-23
 -0.5400000      1.1728802E-22
 -0.4800000      3.6359806E-22
 -0.4200000      6.0004754E-22
 -0.3600000      5.2111283E-22
 -0.3000000     -2.8376427E-22
 -0.2400000     -2.0080809E-21
 -0.1800000     -4.1108352E-21
 -0.1200000     -4.9295089E-21
 -5.9999999E-02 -2.0020352E-21
  0.0000000E+00  6.4081957E-21
  5.9999999E-02  1.8789456E-20
  0.1200000      2.8292256E-20
  0.1800000      2.3536760E-20
  0.2400000     -5.5975756E-21
  0.3000000     -5.7844042E-20
  0.3600000     -1.1130579E-19
  0.4200000     -1.2406011E-19
  0.4800000     -5.2338645E-20
  0.5400000      1.1507275E-19
  0.6000000      3.2253682E-19
  0.6600000      4.4189121E-19
  0.7200000      3.2086721E-19
  0.7800000     -1.1533568E-19
  0.8400000     -7.5384966E-19
  0.9000000     -1.2560845E-18
  0.9600000     -1.1674779E-18
   1.020000     -1.8293766E-19
   1.080000      1.5383756E-18
   1.140000      3.2139563E-18
   1.200000      3.6385872E-18
   1.260000      1.7957673E-18
   1.320000     -2.3381259E-18
   1.380000     -7.2604083E-18
   1.440000     -1.0176478E-17
   1.500000     -8.2017431E-18
   1.560000     -1.6796470E-19
   1.620000      1.1879569E-17
   1.680000      2.2570794E-17
   1.740000      2.5090769E-17
   1.800000      1.4640351E-17
   1.860000     -8.0230340E-18
   1.920000     -3.4986004E-17
   1.980000     -5.3041762E-17
   2.040000     -4.9068208E-17
   2.100000     -1.7146301E-17
   2.160000      3.5685644E-17
   2.220000      8.8303337E-17
   2.280000      1.1106283E-16
   2.340000      7.7873959E-17
   2.400000     -1.8238179E-17
   2.460000     -1.5194986E-16
   2.520000     -2.6270841E-16
   2.580000     -2.6957337E-16
   2.640000     -1.0661477E-16
   2.700000      2.2855972E-16
   2.760000      6.3412942E-16
   2.820000      9.0212577E-16
   2.880000      7.8208648E-16
   2.940000      1.1143806E-16
   3.000000     -1.0303897E-15
   3.060000     -2.2301533E-15
   3.120000     -2.8076703E-15
   3.180000     -2.0881867E-15
   3.240000      1.8247023E-16
   3.300000      3.4694088E-15
   3.360000      6.3830027E-15
   3.420000      7.1036613E-15
   3.480000      4.2617675E-15
   3.540000     -2.0641886E-15
   3.600000     -9.7873514E-15
   3.660000     -1.5207304E-14
   3.720000     -1.4500999E-14
   3.780000     -5.8434753E-15
   3.840000      8.8549163E-15
   3.900000      2.3736836E-14
   3.960000      3.0943825E-14
   4.020000      2.4301838E-14
   4.080000      3.1963474E-15
   4.140000     -2.5482937E-14
   4.200000     -4.8959484E-14
   4.260000     -5.3825854E-14
   4.320000     -3.3003382E-14
   4.380000      8.9649730E-15
   4.440000      5.5565741E-14
   4.500000      8.4256034E-14
   4.560000      7.6927376E-14
   4.620000      3.0290657E-14
   4.680000     -3.9361882E-14
   4.740000     -1.0070810E-13
   4.800000     -1.2074467E-13
   4.860000     -8.1656619E-14
   4.920000      6.9492518E-15
   4.980000      1.0773029E-13
   5.040000      1.6964782E-13
   5.100000      1.5179737E-13
   5.160000      4.6579880E-14
   5.220000     -1.0978031E-13
   5.280000     -2.4704427E-13
   5.340000     -2.8980841E-13
   5.400000     -1.9430190E-13
   5.460000      2.3812168E-14
   5.520000      2.8590438E-13
   5.580000      4.7686974E-13
   5.640000      4.9356791E-13
   5.700000      2.9521204E-13
   5.760000     -6.8165939E-14
   5.820000     -4.6580323E-13
   5.880000     -7.3514350E-13
   5.940000     -7.5126255E-13
   6.000000     -4.8628788E-13
   6.060000     -2.9514744E-14
   6.120000      4.4541419E-13
   6.180000      7.5562522E-13
   6.240000      7.9379624E-13
   6.300000      5.8146381E-13
   6.360000      2.6067229E-13
   6.420000      2.1317322E-14
   6.480000     -5.8660975E-15
   6.540000      1.6133565E-13
   6.600000      3.3594739E-13
   6.660000      2.3409592E-13
   6.720000     -3.7853829E-13
   6.780000     -1.5255076E-12
   6.840000     -2.9212370E-12
   6.900000     -3.9973337E-12
   6.960000     -4.0686959E-12
   7.020000     -2.5948427E-12
   7.080000      5.5539839E-13
   7.140000      4.9407696E-12
   7.200000      9.5618556E-12
   7.260000      1.3067552E-11
   7.320000      1.4099789E-11
   7.380000      1.1673936E-11
   7.440000      5.4826616E-12
   7.500000     -3.9577083E-12
   7.560000     -1.5342571E-11
   7.620000     -2.6763758E-11
   7.680000     -3.5978165E-11
   7.740000     -4.0697112E-11
   7.800000     -3.8864554E-11
   7.860000     -2.8932853E-11
   7.920000     -1.0169085E-11
   7.980000      1.6985887E-11
   8.040000      5.0532412E-11
   8.100000      8.6598485E-11
   8.160000      1.1935632E-10
   8.220000      1.4134438E-10
   8.280000      1.4431846E-10
   8.340000      1.2063445E-10
   8.400000      6.5004280E-11
   8.460000     -2.3684818E-11
   8.520000     -1.4088194E-10
   8.580000     -2.7558705E-10
   8.640000     -4.1050713E-10
   8.700000     -5.2318538E-10
   8.760000     -5.8791949E-10
   8.820000     -5.7813770E-10
   8.880000     -4.6886445E-10
   8.940000     -2.3898783E-10
   9.000000      1.2681053E-10
   9.060000      6.3646216E-10
   9.120000      1.2891908E-09
   9.180000      2.0744464E-09
   9.240000      2.9712079E-09
   9.300000      3.9479153E-09
   9.360000      4.9633582E-09
   9.420000      5.9687735E-09
   9.480000      6.9111867E-09
   9.540000      7.7377207E-09
   9.600000      8.4002902E-09
   9.660000      8.8599670E-09
   9.720000      9.0903303E-09
   9.780000      9.0793373E-09
   9.840000      8.8296108E-09
   9.900000      8.3573442E-09
   9.960000      7.6902165E-09
   10.02000      6.8647483E-09
   10.08000      5.9233605E-09
   10.14000      4.9112749E-09
   10.20000      3.8732413E-09
   10.26000      2.8501494E-09
   10.32000      1.8757216E-09
   10.38000      9.7371566E-10
   10.44000      1.5618325E-10
   10.50000     -5.7671429E-10
   10.56000     -1.2351082E-09
   10.62000     -1.8362381E-09
   10.68000     -2.4003084E-09
   10.74000     -2.9462914E-09
   10.80000     -3.4885927E-09
   10.86000     -4.0352184E-09
   10.92000     -4.5876125E-09
   10.98000     -5.1418172E-09
   11.04000     -5.6902625E-09
   11.10000     -6.2233960E-09
   11.16000     -6.7305836E-09
   11.22000     -7.2001565E-09
   11.28000     -7.6189428E-09
   11.34000     -7.9719529E-09
   11.40000     -8.2429290E-09
   11.46000     -8.4161211E-09
   11.52000     -8.4791703E-09
   11.58000     -8.4263529E-09
   11.64000     -8.2611349E-09
   11.70000     -7.9969524E-09
   11.76000     -7.6555988E-09
   11.82000     -7.2633157E-09
   11.88000     -6.8454815E-09
   11.94000     -6.4212902E-09
   12.00000     -5.9999370E-09
   12.06000     -5.5794027E-09
   12.12000     -5.1481481E-09
   12.18000     -4.6891753E-09
   12.24000     -4.1852148E-09
   12.30000     -3.6235634E-09
   12.36000     -2.9993037E-09
   12.42000     -2.3162305E-09
   12.48000     -1.5855206E-09
   12.54000     -8.2278839E-10
   12.60000     -4.4469525E-11
   12.66000      7.3554596E-10
   12.72000      1.5083803E-09
   12.78000      2.2714344E-09
   12.84000      3.0284306E-09
   12.90000      3.7883807E-09
   12.96000      4.5636468E-09
   13.02000      5.3673261E-09
   13.08000      6.2102408E-09
   13.14000      7.0979951E-09
   13.20000      8.0287004E-09
   13.26000      8.9920276E-09
   13.32000      9.9700568E-09
   13.38000      1.0940012E-08
   13.44000      1.1878404E-08
   13.50000      1.2765581E-08
   13.56000      1.3589355E-08
   13.62000      1.4346460E-08
   13.68000      1.5041079E-08
   13.74000      1.5680463E-08
   13.80000      1.6268716E-08
   13.86000      1.6800525E-08
   13.92000      1.7257006E-08
   13.98000      1.7605540E-08
   14.04000      1.7804505E-08
   14.10000      1.7812393E-08
   14.16000      1.7599463E-08
   14.22000      1.7159012E-08
   14.28000      1.6515264E-08
   14.34000      1.5725576E-08
   14.40000      1.4876093E-08
   14.46000      1.4071650E-08
   14.52000      1.3422063E-08
   14.58000      1.3027590E-08
   14.64000      1.2966114E-08
   14.70000      1.3283858E-08
   14.76000      1.3990355E-08
   14.82000      1.5057616E-08
   14.88000      1.6423046E-08
   14.94000      1.7995657E-08
   15.00000      1.9665231E-08
   15.06000      2.1314014E-08
   15.12000      2.2830092E-08
   15.18000      2.4120888E-08
   15.24000      2.5124544E-08
   15.30000      2.5816819E-08
   15.36000      2.6211735E-08
   15.42000      2.6355583E-08
   15.48000      2.6315611E-08
   15.54000      2.6166283E-08
   15.60000      2.5976565E-08
   15.66000      2.5801256E-08
   15.72000      2.5677902E-08
   15.78000      2.5628752E-08
   15.84000      2.5665628E-08
   15.90000      2.5794733E-08
   15.96000      2.6018888E-08
   16.02000      2.6336108E-08
   16.08000      2.6735316E-08
   16.14000      2.7191563E-08
   16.20000      2.7663766E-08
   16.26000      2.8097421E-08
   16.32000      2.8433071E-08
   16.38000      2.8619294E-08
   16.44000      2.8626950E-08
   16.50000      2.8460486E-08
   16.56000      2.8162447E-08
   16.62000      2.7808991E-08
   16.68000      2.7496689E-08
   16.74000      2.7323479E-08
   16.80000      2.7368372E-08
   16.86000      2.7675011E-08
   16.92000      2.8242946E-08
   16.98000      2.9028426E-08
   17.04000      2.9953814E-08
   17.10000      3.0922621E-08
   17.16000      3.1836237E-08
   17.22000      3.2608515E-08
   17.28000      3.3175755E-08
   17.34000      3.3501294E-08
   17.40000      3.3575304E-08
   17.46000      3.3411439E-08
   17.52000      3.3041925E-08
   17.58000      3.2512258E-08
   17.64000      3.1876006E-08
   17.70000      3.1189664E-08
   17.76000      3.0507330E-08
   17.82000      2.9875302E-08
   17.88000      2.9327099E-08
   17.94000      2.8879807E-08
   18.00000      2.8532673E-08
   18.06000      2.8268440E-08
   18.12000      2.8057267E-08
   18.18000      2.7862349E-08
   18.24000      2.7645962E-08
   18.30000      2.7374636E-08
   18.36000      2.7022608E-08
   18.42000      2.6573248E-08
   18.48000      2.6018668E-08
   18.54000      2.5358151E-08
   18.60000      2.4596032E-08
   18.66000      2.3739748E-08
   18.72000      2.2798567E-08
   18.78000      2.1783340E-08
   18.84000      2.0707208E-08
   18.90000      1.9586803E-08
   18.96000      1.8442922E-08
   19.02000      1.7299575E-08
   19.08000      1.6180552E-08
   19.14000      1.5103504E-08
   19.20000      1.4072736E-08
   19.26000      1.3072800E-08
   19.32000      1.2065390E-08
   19.38000      1.0991410E-08
   19.44000      9.7787360E-09
   19.50000      8.3544007E-09
   19.56000      6.6584387E-09
   19.62000      4.6558020E-09
   19.68000      2.3430720E-09
   19.74000     -2.5206950E-10
   19.80000     -3.0787068E-09
   19.86000     -6.0759584E-09
   19.92000     -9.1881391E-09
   19.98000     -1.2377735E-08
   20.04000     -1.5632690E-08
   20.10000     -1.8966151E-08
   20.16000     -2.2408987E-08
   20.22000     -2.5997370E-08
   20.28000     -2.9758922E-08
   20.34000     -3.3700900E-08
   20.40000     -3.7803037E-08
   20.46000     -4.2016055E-08
   20.52000     -4.6265590E-08
   20.58000     -5.0460073E-08
   20.64000     -5.4500713E-08
   20.70000     -5.8291590E-08
   20.76000     -6.1748047E-08
   20.82000     -6.4802073E-08
   20.88000     -6.7404081E-08
   20.94000     -6.9521548E-08
   21.00000     -7.1135830E-08
   21.06000     -7.2239253E-08
   21.12000     -7.2834140E-08
   21.18000     -7.2934625E-08
   21.24000     -7.2570607E-08
   21.30000     -7.1791732E-08
   21.36000     -7.0669238E-08
   21.42000     -6.9293691E-08
   21.48000     -6.7768170E-08
   21.54000     -6.6197970E-08
   21.60000     -6.4679078E-08
   21.66000     -6.3288290E-08
   21.72000     -6.2077191E-08
   21.78000     -6.1071589E-08
   21.84000     -6.0276342E-08
   21.90000     -5.9684290E-08
   21.96000     -5.9286595E-08
   22.02000     -5.9081373E-08
   22.08000     -5.9077589E-08
   22.14000     -5.9292844E-08
   22.20000     -5.9745545E-08
   22.26000     -6.0444002E-08
   22.32000     -6.1376447E-08
   22.38000     -6.2505748E-08
   22.44000     -6.3770976E-08
   22.50000     -6.5095747E-08
   22.56000     -6.6400652E-08
   22.62000     -6.7615758E-08
   22.68000     -6.8689168E-08
   22.74000     -6.9589063E-08
   22.80000     -7.0298803E-08
   22.86000     -7.0807225E-08
   22.92000     -7.1097965E-08
   22.98000     -7.1142075E-08
   23.04000     -7.0897400E-08
   23.10000     -7.0315934E-08
   23.16000     -6.9357583E-08
   23.22000     -6.8006287E-08
   23.28000     -6.6283071E-08
   23.34000     -6.4251040E-08
   23.40000     -6.2009633E-08
   23.46000     -5.9678769E-08
   23.52000     -5.7376845E-08
   23.58000     -5.5198512E-08
   23.64000     -5.3198232E-08
   23.70000     -5.1383694E-08
   23.76000     -4.9720249E-08
   23.82000     -4.8144120E-08
   23.88000     -4.6580269E-08
   23.94000     -4.4959961E-08
   24.00000     -4.3233896E-08
   24.06000     -4.1378559E-08
   24.12000     -3.9395402E-08
   24.18000     -3.7304282E-08
   24.24000     -3.5133610E-08
   24.30000     -3.2910062E-08
   24.36000     -3.0650430E-08
   24.42000     -2.8357366E-08
   24.48000     -2.6019769E-08
   24.54000     -2.3617295E-08
   24.60000     -2.1127541E-08
   24.66000     -1.8533798E-08
   24.72000     -1.5831187E-08
   24.78000     -1.3029591E-08
   24.84000     -1.0152837E-08
   24.90000     -7.2347066E-09
   24.96000     -4.3133253E-09
   25.02000     -1.4258429E-09
   25.08000      1.3949385E-09
   25.14000      4.1212105E-09
   25.20000      6.7283521E-09
   25.26000      9.1919068E-09
   25.32000      1.1485026E-08
   25.38000      1.3577869E-08
   25.44000      1.5439669E-08
   25.50000      1.7043137E-08
   25.56000      1.8369798E-08
   25.62000      1.9414392E-08
   25.68000      2.0186436E-08
   25.74000      2.0707954E-08
   25.80000      2.1007484E-08
   25.86000      2.1111823E-08
   25.92000      2.1037902E-08
   25.98000      2.0787253E-08
   26.04000      2.0345061E-08
   26.10000      1.9684352E-08
   26.16000      1.8774445E-08
   26.22000      1.7591448E-08
   26.28000      1.6127993E-08
   26.34000      1.4399640E-08
   26.40000      1.2446258E-08
   26.46000      1.0328072E-08
   26.52000      8.1172979E-09
   26.58000      5.8872627E-09
   26.64000      3.7013255E-09
   26.70000      1.6039163E-09
   26.76000     -3.8443437E-10
   26.82000     -2.2669595E-09
   26.88000     -4.0653134E-09
   26.94000     -5.8101368E-09
   27.00000     -7.5297546E-09
   27.06000     -9.2400008E-09
   27.12000     -1.0938119E-08
   27.18000     -1.2602764E-08
   27.24000     -1.4200409E-08
   27.30000     -1.5696441E-08
   27.36000     -1.7067633E-08
   27.42000     -1.8311944E-08
   27.48000     -1.9452230E-08
   27.54000     -2.0531987E-08
   27.60000     -2.1603634E-08
   27.66000     -2.2712079E-08
   27.72000     -2.3877988E-08
   27.78000     -2.5085802E-08
   27.84000     -2.6280647E-08
   27.90000     -2.7376089E-08
   27.96000     -2.8271650E-08
   28.02000     -2.8875824E-08
   28.08000     -2.9128273E-08
   28.14000     -2.9014652E-08
   28.20000     -2.8569609E-08
   28.26000     -2.7866985E-08
   28.32000     -2.7000508E-08
   28.38000     -2.6061077E-08
   28.44000     -2.5117698E-08
   28.50000     -2.4207557E-08
   28.56000     -2.3337533E-08
   28.62000     -2.2495708E-08
   28.68000     -2.1668610E-08
   28.74000     -2.0858371E-08
   28.80000     -2.0094513E-08
   28.86000     -1.9436754E-08
   28.92000     -1.8967949E-08
   28.98000     -1.8779016E-08
   29.04000     -1.8950072E-08
   29.10000     -1.9533019E-08
   29.16000     -2.0540551E-08
   29.22000     -2.1944652E-08
   29.28000     -2.3684777E-08
   29.34000     -2.5682915E-08
   29.40000     -2.7860795E-08
   29.46000     -3.0153963E-08
   29.52000     -3.2518880E-08
   29.58000     -3.4931627E-08
   29.64000     -3.7379586E-08
   29.70000     -3.9849713E-08
   29.76000     -4.2317897E-08
   29.82000     -4.4743427E-08
   29.88000     -4.7070973E-08
   29.94000     -4.9239944E-08
   30.00000     -5.1198690E-08
   30.06000     -5.2919145E-08
   30.12000     -5.4406993E-08
   30.18000     -5.5703644E-08
   30.24000     -5.6878790E-08
   30.30000     -5.8015377E-08
   30.36000     -5.9191635E-08
   30.42000     -6.0465425E-08
   30.48000     -6.1865748E-08
   30.54000     -6.3393337E-08
   30.60000     -6.5029269E-08
   30.66000     -6.6747937E-08
   30.72000     -6.8529602E-08
   30.78000     -7.0368202E-08
   30.84000     -7.2271924E-08
   30.90000     -7.4256711E-08
   30.96000     -7.6335134E-08
   31.02000     -7.8504577E-08
   31.08000     -8.0738765E-08
   31.14000     -8.2985743E-08
   31.20000     -8.5173291E-08
   31.26000     -8.7220350E-08
   31.32000     -8.9051397E-08
   31.38000     -9.0609788E-08
   31.44000     -9.1866596E-08
   31.50000     -9.2822724E-08
   31.56000     -9.3503999E-08
   31.62000     -9.3950376E-08
   31.68000     -9.4201759E-08
   31.74000     -9.4283564E-08
   31.80000     -9.4195549E-08
   31.86000     -9.3906920E-08
   31.92000     -9.3360001E-08
   31.98000     -9.2482438E-08
   32.04000     -9.1205763E-08
   32.10000     -8.9485596E-08
   32.16000     -8.7317943E-08
   32.22000     -8.4746425E-08
   32.28000     -8.1858076E-08
   32.34000     -7.8768501E-08
   32.40000     -7.5600404E-08
   32.46000     -7.2460935E-08
   32.52000     -6.9423464E-08
   32.58000     -6.6517636E-08
   32.64000     -6.3729459E-08
   32.70000     -6.1010823E-08
   32.76000     -5.8296028E-08
   32.82000     -5.5521522E-08
   32.88000     -5.2644069E-08
   32.94000     -4.9652911E-08
   33.00000     -4.6572413E-08
   33.06000     -4.3454282E-08
   33.12000     -4.0361371E-08
   33.18000     -3.7347945E-08
   33.24000     -3.4442696E-08
   33.30000     -3.1639974E-08
   33.36000     -2.8902281E-08
   33.42000     -2.6173286E-08
   33.48000     -2.3397222E-08
   33.54000     -2.0538710E-08
   33.60000     -1.7596818E-08
   33.66000     -1.4609098E-08
   33.72000     -1.1644272E-08
   33.78000     -8.7855128E-09
   33.84000     -6.1090160E-09
   33.90000     -3.6640768E-09
   33.96000     -1.4607023E-09
   34.02000      5.3115740E-10
   34.08000      2.3700182E-09
   34.14000      4.1220249E-09
   34.20000      5.8370970E-09
   34.26000      7.5296116E-09
   34.32000      9.1700132E-09
   34.38000      1.0690449E-08
   34.44000      1.2003071E-08
   34.50000      1.3025599E-08
   34.56000      1.3706378E-08
   34.62000      1.4041233E-08
   34.68000      1.4076861E-08
   34.74000      1.3899496E-08
   34.80000      1.3611938E-08
   34.86000      1.3305556E-08
   34.92000      1.3035551E-08
   34.98000      1.2807098E-08
   35.04000      1.2577011E-08
   35.10000      1.2270927E-08
   35.16000      1.1811128E-08
   35.22000      1.1146282E-08
   35.28000      1.0273355E-08
   35.34000      9.2439647E-09
   35.40000      8.1523890E-09
   35.46000      7.1084574E-09
   35.52000      6.2038308E-09
   35.58000      5.4825553E-09
   35.64000      4.9256061E-09
   35.70000      4.4546886E-09
   35.76000      3.9544261E-09
   35.82000      3.3063501E-09
   35.88000      2.4244928E-09
   35.94000      1.2819965E-09
   36.00000     -7.9146377E-11
   36.06000     -1.5581461E-09
   36.12000     -3.0225069E-09
   36.18000     -4.3444697E-09
   36.24000     -5.4363953E-09
   36.30000     -6.2748686E-09
   36.36000     -6.9064541E-09
   36.42000     -7.4333930E-09
   36.48000     -7.9834770E-09
   36.54000     -8.6731262E-09
   36.60000     -9.5748032E-09
   36.66000     -1.0698496E-08
   36.72000     -1.1992571E-08
   36.78000     -1.3363175E-08
   36.84000     -1.4705572E-08
   36.90000     -1.5937145E-08
   36.96000     -1.7021515E-08
   37.02000     -1.7976268E-08
   37.08000     -1.8862233E-08
   37.14000     -1.9758241E-08
   37.20000     -2.0729850E-08
   37.26000     -2.1802343E-08
   37.32000     -2.2946667E-08
   37.38000     -2.4082581E-08
   37.44000     -2.5097808E-08
   37.50000     -2.5876856E-08
   37.56000     -2.6330554E-08
   37.62000     -2.6417451E-08
   37.68000     -2.6151158E-08
   37.74000     -2.5592160E-08
   37.80000     -2.4827308E-08
   37.86000     -2.3943564E-08
   37.92000     -2.3003940E-08
   37.98000     -2.2032619E-08
   38.04000     -2.1013316E-08
   38.10000     -1.9900902E-08
   38.16000     -1.8642346E-08
   38.22000     -1.7200135E-08
   38.28000     -1.5570588E-08
   38.34000     -1.3791136E-08
   38.40000     -1.1934103E-08
   38.46000     -1.0089087E-08
   38.52000     -8.3396854E-09
   38.58000     -6.7422126E-09
   38.64000     -5.3132880E-09
   38.70000     -4.0302224E-09
   38.76000     -2.8438631E-09
   38.82000     -1.6996444E-09
   38.88000     -5.6008931E-10
   38.94000      5.7817101E-10
   39.00000      1.6778675E-09
   39.06000      2.6666893E-09
   39.12000      3.4530063E-09
   39.18000      3.9469463E-09
   39.24000      4.0809072E-09
   39.30000      3.8242205E-09
   39.36000      3.1887271E-09
   39.42000      2.2246267E-09
   39.48000      1.0084121E-09
   39.54000     -3.7371697E-10
   39.60000     -1.8429306E-09
   39.66000     -3.3416088E-09
   39.72000     -4.8412079E-09
   39.78000     -6.3428867E-09
   39.84000     -7.8713338E-09
   39.90000     -9.4639052E-09
   39.96000     -1.1158357E-08
   40.02000     -1.2982691E-08
   40.08000     -1.4949739E-08
   40.14000     -1.7057229E-08
   40.20000     -1.9292109E-08
   40.26000     -2.1636398E-08
   40.32000     -2.4071749E-08
   40.38000     -2.6581066E-08
   40.44000     -2.9147261E-08
   40.50000     -3.1750751E-08
   40.56000     -3.4367773E-08
   40.62000     -3.6970899E-08
   40.68000     -3.9531965E-08
   40.74000     -4.2026212E-08
   40.80000     -4.4436181E-08
   40.86000     -4.6754067E-08
   40.92000     -4.8982166E-08
   40.98000     -5.1131728E-08
   41.04000     -5.3220891E-08
   41.10000     -5.5272153E-08
   41.16000     -5.7309432E-08
   41.22000     -5.9354402E-08
   41.28000     -6.1422007E-08
   41.34000     -6.3515500E-08
   41.40000     -6.5622125E-08
   41.46000     -6.7711156E-08
   41.52000     -6.9735734E-08
   41.58000     -7.1639391E-08
   41.64000     -7.3366508E-08
   41.70000     -7.4874450E-08
   41.76000     -7.6144062E-08
   41.82000     -7.7184943E-08
   41.88000     -7.8033395E-08
   41.94000     -7.8742801E-08
   42.00000     -7.9368597E-08
   42.06000     -7.9952038E-08
   42.12000     -8.0507320E-08
   42.18000     -8.1015926E-08
   42.24000     -8.1430272E-08
   42.30000     -8.1685940E-08
   42.36000     -8.1719428E-08
   42.42000     -8.1486547E-08
   42.48000     -8.0975951E-08
   42.54000     -8.0213319E-08
   42.60000     -7.9254363E-08
   42.66000     -7.8168227E-08
   42.72000     -7.7016409E-08
   42.78000     -7.5834315E-08
   42.84000     -7.4622015E-08
   42.90000     -7.3347834E-08
   42.96000     -7.1963626E-08
   43.02000     -7.0426282E-08
   43.08000     -6.8717540E-08
   43.14000     -6.6855243E-08
   43.20000     -6.4892312E-08
   43.26000     -6.2904547E-08
   43.32000     -6.0972397E-08
   43.38000     -5.9162979E-08
   43.44000     -5.7518239E-08
   43.50000     -5.6051903E-08
   43.56000     -5.4754686E-08
   43.62000     -5.3604634E-08
   43.68000     -5.2578397E-08
   43.74000     -5.1659534E-08
   43.80000     -5.0841468E-08
   43.86000     -5.0124672E-08
   43.92000     -4.9509556E-08
   43.98000     -4.8987996E-08
   44.04000     -4.8536940E-08
   44.10000     -4.8117027E-08
   44.16000     -4.7677570E-08
   44.22000     -4.7167266E-08
   44.28000     -4.6547775E-08
   44.34000     -4.5806267E-08
   44.40000     -4.4962967E-08
   44.46000     -4.4071147E-08
   44.52000     -4.3209290E-08
   44.58000     -4.2467320E-08
   44.64000     -4.1930626E-08
   44.70000     -4.1665938E-08
   44.76000     -4.1712596E-08
   44.82000     -4.2080774E-08
   44.88000     -4.2756458E-08
   44.94000     -4.3711015E-08
   45.00000     -4.4912113E-08
   45.06000     -4.6332822E-08
   45.12000     -4.7956675E-08
   45.18000     -4.9777761E-08
   45.24000     -5.1796732E-08
   45.30000     -5.4014755E-08
   45.36000     -5.6427890E-08
   45.42000     -5.9024142E-08
   45.48000     -6.1784469E-08
   45.54000     -6.4687676E-08
   45.60000     -6.7717735E-08
   45.66000     -7.0871458E-08
   45.72000     -7.4164191E-08
   45.78000     -7.7632166E-08
   45.84000     -8.1331365E-08
   45.90000     -8.5334058E-08
   45.96000     -8.9725120E-08
   46.02000     -9.4600409E-08
   46.08000     -1.0006872E-07
   46.14000     -1.0625790E-07
   46.20000     -1.1332433E-07
   46.26000     -1.2146373E-07
   46.32000     -1.3092055E-07
   46.38000     -1.4199361E-07
   46.44000     -1.5503606E-07
   46.50000     -1.7045070E-07
   46.56000     -1.8868349E-07
   46.62000     -2.1022026E-07
   46.68000     -2.3559167E-07
   46.74000     -2.6538896E-07
   46.80000     -3.0028977E-07
   46.86000     -3.4108842E-07
   46.92000     -3.8872398E-07
   46.98000     -4.4430007E-07
   47.04000     -5.0909438E-07
   47.10000     -5.8456055E-07
   47.16000     -6.7232793E-07
   47.22000     -7.7420702E-07
   47.28000     -8.9220356E-07
   47.34000     -1.0285439E-06
   47.40000     -1.1857090E-06
   47.46000     -1.3664735E-06
   47.52000     -1.5739470E-06
   47.58000     -1.8116123E-06
   47.64000     -2.0833584E-06
   47.70000     -2.3935040E-06
   47.76000     -2.7468125E-06
   47.82000     -3.1485006E-06
   47.88000     -3.6042479E-06
   47.94000     -4.1202134E-06
   48.00000     -4.7030635E-06
   48.06000     -5.3600143E-06
   48.12000     -6.0988768E-06
   48.18000     -6.9281073E-06
   48.24000     -7.8568382E-06
   48.30000     -8.8949027E-06
   48.36000     -1.0052845E-05
   48.42000     -1.1341916E-05
   48.48000     -1.2774060E-05
   48.54000     -1.4361912E-05
   48.60000     -1.6118771E-05
   48.66000     -1.8058590E-05
   48.72000     -2.0195952E-05
   48.78000     -2.2546039E-05
   48.84000     -2.5124615E-05
   48.90000     -2.7947965E-05
   48.96000     -3.1032851E-05
   49.02000     -3.4396435E-05
   49.08000     -3.8056180E-05
   49.14000     -4.2029740E-05
   49.20000     -4.6334859E-05
   49.26000     -5.0989227E-05
   49.32000     -5.6010362E-05
   49.38000     -6.1415492E-05
   49.44000     -6.7221401E-05
   49.50000     -7.3444295E-05
   49.56000     -8.0099606E-05
   49.62000     -8.7201865E-05
   49.68000     -9.4764480E-05
   49.74000     -1.0279954E-04
   49.80000     -1.1131760E-04
   49.86000     -1.2032752E-04
   49.92000     -1.2983623E-04
   49.98000     -1.3984850E-04
   50.04000     -1.5036693E-04
   50.10000     -1.6139162E-04
   50.16000     -1.7292019E-04
   50.22000     -1.8494762E-04
   50.28000     -1.9746603E-04
   50.34000     -2.1046466E-04
   50.40000     -2.2392972E-04
   50.46000     -2.3784435E-04
   50.52000     -2.5218865E-04
   50.58000     -2.6693955E-04
   50.64000     -2.8207098E-04
   50.70000     -2.9755387E-04
   50.76000     -3.1335620E-04
   50.82000     -3.2944328E-04
   50.88000     -3.4577763E-04
   50.94000     -3.6231955E-04
   51.00000     -3.7902713E-04
   51.06000     -3.9585659E-04
   51.12000     -4.1276260E-04
   51.18000     -4.2969841E-04
   51.24000     -4.4661638E-04
   51.30000     -4.6346823E-04
   51.36000     -4.8020546E-04
   51.42000     -4.9677986E-04
   51.48000     -5.1314395E-04
   51.54000     -5.2925141E-04
   51.60000     -5.4505735E-04
   51.66000     -5.6051894E-04
   51.72000     -5.7559571E-04
   51.78000     -5.9024995E-04
   51.84000     -6.0444715E-04
   51.90000     -6.1815622E-04
   51.96000     -6.3135003E-04
   52.02000     -6.4400543E-04
   52.08000     -6.5610360E-04
   52.14000     -6.6763035E-04
   52.20000     -6.7857624E-04
   52.26000     -6.8893668E-04
   52.32000     -6.9871225E-04
   52.38000     -7.0790836E-04
   52.44000     -7.1653526E-04
   52.50000     -7.2460808E-04
   52.56000     -7.3214638E-04
   52.62000     -7.3917391E-04
   52.68000     -7.4571854E-04
   52.74000     -7.5181207E-04
   52.80000     -7.5748959E-04
   52.86000     -7.6278916E-04
   52.92000     -7.6775142E-04
   52.98000     -7.7241880E-04
   53.04000     -7.7683537E-04
   53.10000     -7.8104588E-04
   53.16000     -7.8509573E-04
   53.22000     -7.8903011E-04
   53.28000     -7.9289364E-04
   53.34000     -7.9672964E-04
   53.40000     -8.0057950E-04
   53.46000     -8.0448197E-04
   53.52000     -8.0847327E-04
   53.58000     -8.1258599E-04
   53.64000     -8.1684947E-04
   53.70000     -8.2128914E-04
   53.76000     -8.2592620E-04
   53.82000     -8.3077734E-04
   53.88000     -8.3585439E-04
   53.94000     -8.4116415E-04
   54.00000     -8.4670831E-04
   54.06000     -8.5248391E-04
   54.12000     -8.5848308E-04
   54.18000     -8.6469355E-04
   54.24000     -8.7109854E-04
   54.30000     -8.7767717E-04
   54.36000     -8.8440458E-04
   54.42000     -8.9125230E-04
   54.48000     -8.9818885E-04
   54.54000     -9.0518018E-04
   54.60000     -9.1219018E-04
   54.66000     -9.1918116E-04
   54.72000     -9.2611421E-04
   54.78000     -9.3294994E-04
   54.84000     -9.3964901E-04
   54.90000     -9.4617245E-04
   54.96000     -9.5248269E-04
   55.02000     -9.5854350E-04
   55.08000     -9.6432125E-04
   55.14000     -9.6978468E-04
   55.20000     -9.7490544E-04
   55.26000     -9.7965880E-04
   55.32000     -9.8402356E-04
   55.38000     -9.8798238E-04
   55.44000     -9.9152233E-04
   55.50000     -9.9463447E-04
   55.56000     -9.9731365E-04