  -2.400000      0.0000000E+00
  -2.340000      0.0000000E+00
  -2.280000      0.0000000E+00
  -2.220000      0.0000000E+00
  -2.160000      0.0000000E+00
  -2.100000      0.0000000E+00
  -2.040000     -6.6997654E-23
  -1.980000     -5.8079075E-22
  -1.920000     -2.4323222E-21
  -1.860000     -6.1103787E-21
  -1.800000     -8.1635400E-21
  -1.740000      4.8414477E-21
  -1.680000      6.0314979E-20
  -1.620000      1.9223782E-19
  -1.560000      4.1335544E-19
  -1.500000      6.6856258E-19
  -1.440000      7.9085317E-19
  -1.380000      4.9971806E-19
  -1.320000     -5.1797507E-19
  -1.260000     -2.4366704E-18
  -1.200000     -5.0845705E-18
  -1.140000     -7.8188958E-18
  -1.080000     -9.6213323E-18
  -1.020000     -9.4731387E-18
 -0.9600000     -6.8840601E-18
 -0.9000000     -2.2247595E-18
 -0.8400000      3.5929918E-18
 -0.7800000      1.0340110E-17
 -0.7200000      2.0247512E-17
 -0.6600000      3.9157886E-17
 -0.6000000      7.5314365E-17
 -0.5400000      1.3442148E-16
 -0.4800000      2.1133815E-16
 -0.4200000      2.8152376E-16
 -0.3600000      2.9787039E-16
 -0.3000000      1.9891536E-16
 -0.2400000     -6.8896290E-17
 -0.1800000     -5.1912818E-16
 -0.1200000     -1.0957093E-15
 -5.9999999E-02 -1.6628075E-15
  0.0000000E+00 -2.0286105E-15
  5.9999999E-02 -2.0054788E-15
  0.1200000     -1.4905974E-15
  0.1800000     -5.3378767E-16
  0.2400000      6.4801832E-16
  0.3000000      1.7396090E-15
  0.3600000      2.4798336E-15
  0.4200000      2.8552409E-15
  0.4800000      3.2518537E-15
  0.5400000      4.4606508E-15
  0.6000000      7.4481157E-15
  0.6600000      1.2866072E-14
  0.7200000      2.0381320E-14
  0.7800000      2.8032596E-14
  0.8400000      3.1927287E-14
  0.9000000      2.6616926E-14
  0.9600000      6.3869126E-15
   1.020000     -3.2559164E-14
   1.080000     -8.9411971E-14
   1.140000     -1.5634366E-13
   1.200000     -2.1739865E-13
   1.260000     -2.4968116E-13
   1.320000     -2.2742699E-13
   1.380000     -1.2880259E-13
   1.440000      5.5638443E-14
   1.500000      3.1474991E-13
   1.560000      6.1125372E-13
   1.620000      8.8128945E-13
   1.680000      1.0409261E-12
   1.740000      1.0004439E-12
   1.800000      6.8568480E-13
   1.860000      6.3904346E-14
   1.920000     -8.3051941E-13
   1.980000     -1.8771367E-12
   2.040000     -2.8651062E-12
   2.100000     -3.5110599E-12
   2.160000     -3.5039634E-12
   2.220000     -2.5761895E-12
   2.280000     -5.9208953E-13
   2.340000      2.3633099E-12
   2.400000      5.9196272E-12
   2.460000      9.4066751E-12
   2.520000      1.1911624E-11
   2.580000      1.2416950E-11
   2.640000      1.0010244E-11
   2.700000      4.1364585E-12
   2.760000     -5.1548241E-12
   2.820000     -1.7025312E-11
   2.880000     -2.9784824E-11
   2.940000     -4.0993129E-11
   3.000000     -4.7745110E-11
   3.060000     -4.7123149E-11
   3.120000     -3.6764113E-11
   3.180000     -1.5456997E-11
   3.240000      1.6331101E-11
   3.300000      5.6104111E-11
   3.360000      9.9247568E-11
   3.420000      1.3925536E-10
   3.480000      1.6828819E-10
   3.540000      1.7804067E-10
   3.600000      1.6085926E-10
   3.660000      1.1102588E-10
   3.720000      2.6096562E-11
   3.780000     -9.1840792E-11
   3.840000     -2.3515070E-10
   3.900000     -3.9005876E-10
   3.960000     -5.3666938E-10
   4.020000     -6.4974781E-10
   4.080000     -7.0034972E-10
   4.140000     -6.5826905E-10
   4.200000     -4.9513027E-10
   4.260000     -1.8781339E-10
   4.320000      2.7820779E-10
   4.380000      9.0607255E-10
   4.440000      1.6856980E-09
   4.500000      2.5931874E-09
   4.560000      3.5915824E-09
   4.620000      4.6328585E-09
   4.680000      5.6608984E-09
   4.740000      6.6150760E-09
   4.800000      7.4340831E-09
   4.860000      8.0597085E-09
   4.920000      8.4403968E-09
   4.980000      8.5345508E-09
   5.040000      8.3135658E-09
   5.100000      7.7646094E-09
   5.160000      6.8930253E-09
   5.220000      5.7240745E-09
   5.280000      4.3035877E-09
   5.340000      2.6970166E-09
   5.400000      9.8640707E-10
   5.460000     -7.3497136E-10
   5.520000     -2.3702575E-09
   5.580000     -3.8283496E-09
   5.640000     -5.0339541E-09
   5.700000     -5.9369127E-09
   5.760000     -6.5191794E-09
   5.820000     -6.7979280E-09
   5.880000     -6.8236998E-09
   5.940000     -6.6732695E-09
   6.000000     -6.4378876E-09
   6.060000     -6.2085412E-09
   6.120000     -6.0606595E-09
   6.180000     -6.0410259E-09
   6.240000     -6.1594352E-09
   6.300000     -6.3868328E-09
   6.360000     -6.6604451E-09
   6.420000     -6.8950192E-09
   6.480000     -6.9980453E-09
   6.540000     -6.8860624E-09
   6.600000     -6.4989507E-09
   6.660000     -5.8096186E-09
   6.720000     -4.8274851E-09
   6.780000     -3.5954544E-09
   6.840000     -2.1813551E-09
   6.900000     -6.6581940E-10
   6.960000      8.7089813E-10
   7.020000      2.3606432E-09
   7.080000      3.7556189E-09
   7.140000      5.0320041E-09
   7.200000      6.1887766E-09
   7.260000      7.2425230E-09
   7.320000      8.2197511E-09
   7.380000      9.1485379E-09
   7.440000      1.0051298E-08
   7.500000      1.0939997E-08
   7.560000      1.1814454E-08
   7.620000      1.2663659E-08
   7.680000      1.3469380E-08
   7.740000      1.4210955E-08
   7.800000      1.4870110E-08
   7.860000      1.5434770E-08
   7.920000      1.5901177E-08
   7.980000      1.6274054E-08
   8.040000      1.6564826E-08
   8.100000      1.6788340E-08
   8.160000      1.6958646E-08
   8.220000      1.7084730E-08
   8.280000      1.7167068E-08
   8.340000      1.7195950E-08
   8.400000      1.7152233E-08
   8.460000      1.7010686E-08
   8.520000      1.6745556E-08
   8.580000      1.6337239E-08
   8.640000      1.5778554E-08
   8.700000      1.5079024E-08
   8.760000      1.4265865E-08
   8.820000      1.3381199E-08
   8.880000      1.2475961E-08
   8.940000      1.1601791E-08
   9.000000      1.0802809E-08
   9.060000      1.0109150E-08
   9.120000      9.5336397E-09
   9.180000      9.0721066E-09
   9.240000      8.7068344E-09
   9.300000      8.4118534E-09
   9.360000      8.1584055E-09
   9.420000      7.9191436E-09
   9.480000      7.6702040E-09
   9.540000      7.3912005E-09
   9.600000      7.0639050E-09
   9.660000      6.6707999E-09
   9.720000      6.1945333E-09
   9.780000      5.6187961E-09
   9.840000      4.9303472E-09
   9.900000      4.1212664E-09
   9.960000      3.1902669E-09
   10.02000      2.1421236E-09
   10.08000      9.8496689E-10
   10.14000     -2.7392771E-10
   10.20000     -1.6324986E-09
   10.26000     -3.0967169E-09
   10.32000     -4.6804316E-09
   10.38000     -6.4015762E-09
   10.44000     -8.2751832E-09
   10.50000     -1.0304761E-08
   10.56000     -1.2474379E-08
   10.62000     -1.4744020E-08
   10.68000     -1.7050199E-08
   10.74000     -1.9312667E-08
   10.80000     -2.1446322E-08
   10.86000     -2.3375881E-08
   10.92000     -2.5049546E-08
   10.98000     -2.6447809E-08
   11.04000     -2.7584381E-08
   11.10000     -2.8498230E-08
   11.16000     -2.9238368E-08
   11.22000     -2.9845356E-08
   11.28000     -3.0334999E-08
   11.34000     -3.0689531E-08
   11.40000     -3.0859731E-08
   11.46000     -3.0778224E-08
   11.52000     -3.0380740E-08
   11.58000     -2.9629165E-08
   11.64000     -2.8529346E-08
   11.70000     -2.7137574E-08
   11.76000     -2.5552897E-08
   11.82000     -2.3896563E-08
   11.88000     -2.2283917E-08
   11.94000     -2.0796641E-08
   12.00000     -1.9463368E-08
   12.06000     -1.8254541E-08
   12.12000     -1.7093255E-08
   12.18000     -1.5879294E-08
   12.24000     -1.4519648E-08
   12.30000     -1.2957003E-08
   12.36000     -1.1188241E-08
   12.42000     -9.2678993E-09
   12.48000     -7.2958040E-09
   12.54000     -5.3924714E-09
   12.60000     -3.6691628E-09
   12.66000     -2.2007605E-09
   12.72000     -1.0086267E-09
   12.78000     -5.7646533E-11
   12.84000      7.3232503E-10
   12.90000      1.4643180E-09
   12.96000      2.2378586E-09
   13.02000      3.1256515E-09
   13.08000      4.1594390E-09
   13.14000      5.3282521E-09
   13.20000      6.5886070E-09
   13.26000      7.8828224E-09
   13.32000      9.1595265E-09
   13.38000      1.0390198E-08
   13.44000      1.1577182E-08
   13.50000      1.2751498E-08
   13.56000      1.3961981E-08
   13.62000      1.5259813E-08
   13.68000      1.6683593E-08
   13.74000      1.8249516E-08
   13.80000      1.9949219E-08
   13.86000      2.1755234E-08
   13.92000      2.3631502E-08
   13.98000      2.5544951E-08
   14.04000      2.7474071E-08
   14.10000      2.9411648E-08
   14.16000      3.1361079E-08
   14.22000      3.3327876E-08
   14.28000      3.5309846E-08
   14.34000      3.7289873E-08
   14.40000      3.9234386E-08
   14.46000      4.1098811E-08
   14.52000      4.2838572E-08
   14.58000      4.4422325E-08
   14.64000      4.5842921E-08
   14.70000      4.7122064E-08
   14.76000      4.8306472E-08
   14.82000      4.9456084E-08
   14.88000      5.0627325E-08
   14.94000      5.1856311E-08
   15.00000      5.3147023E-08
   15.06000      5.4468000E-08
   15.12000      5.5758655E-08
   15.18000      5.6943520E-08
   15.24000      5.7950295E-08
   15.30000      5.8726616E-08
   15.36000      5.9250986E-08
   15.42000      5.9534948E-08
   15.48000      5.9616333E-08
   15.54000      5.9545897E-08
   15.60000      5.9371391E-08
   15.66000      5.9123938E-08
   15.72000      5.8810507E-08
   15.78000      5.8414454E-08
   15.84000      5.7903662E-08
   15.90000      5.7243422E-08
   15.96000      5.6409981E-08
   16.02000      5.5400484E-08
   16.08000      5.4236356E-08
   16.14000      5.2959219E-08
   16.20000      5.1620720E-08
   16.26000      5.0269449E-08
   16.32000      4.8938869E-08
   16.38000      4.7639709E-08
   16.44000      4.6358913E-08
   16.50000      4.5065192E-08
   16.56000      4.3719552E-08
   16.62000      4.2287795E-08
   16.68000      4.0751736E-08
   16.74000      3.9116259E-08
   16.80000      3.7410523E-08
   16.86000      3.5683232E-08
   16.92000      3.3993189E-08
   16.98000      3.2397384E-08
   17.04000      3.0939546E-08
   17.10000      2.9641660E-08
   17.16000      2.8500430E-08
   17.22000      2.7489401E-08
   17.28000      2.6566235E-08
   17.34000      2.5683480E-08
   17.40000      2.4800368E-08
   17.46000      2.3892859E-08
   17.52000      2.2959599E-08
   17.58000      2.2022203E-08
   17.64000      2.1119746E-08
   17.70000      2.0298650E-08
   17.76000      1.9600414E-08
   17.82000      1.9050239E-08
   17.88000      1.8649386E-08
   17.94000      1.8373123E-08
   18.00000      1.8174491E-08
   18.06000      1.7992518E-08
   18.12000      1.7762247E-08
   18.18000      1.7423684E-08
   18.24000      1.6927359E-08
   18.30000      1.6235719E-08
   18.36000      1.5321181E-08
   18.42000      1.4162998E-08
   18.48000      1.2745499E-08
   18.54000      1.1059670E-08
   18.60000      9.1086454E-09
   18.66000      6.9159474E-09
   18.72000      4.5338493E-09
   18.78000      2.0486097E-09
   18.84000     -4.2037235E-10
   18.90000     -2.7291494E-09
   18.96000     -4.7253308E-09
   19.02000     -6.2694698E-09
   19.08000     -7.2578912E-09
   19.14000     -7.6423508E-09
   19.20000     -7.4422477E-09
   19.26000     -6.7464816E-09
   19.32000     -5.7042131E-09
   19.38000     -4.5061732E-09
   19.44000     -3.3601759E-09
   19.50000     -2.4655753E-09
   19.56000     -1.9913062E-09
   19.62000     -2.0608748E-09
   19.68000     -2.7457185E-09
   19.74000     -4.0662735E-09
   19.80000     -5.9985354E-09
   19.86000     -8.4832381E-09
   19.92000     -1.1435136E-08
   19.98000     -1.4750938E-08
   20.04000     -1.8315820E-08
   20.10000     -2.2009495E-08
   20.16000     -2.5713282E-08
   20.22000     -2.9319148E-08
   20.28000     -3.2740651E-08
   20.34000     -3.5924273E-08
   20.40000     -3.8858513E-08
   20.46000     -4.1577646E-08
   20.52000     -4.4157790E-08
   20.58000     -4.6704447E-08
   20.64000     -4.9332961E-08
   20.70000     -5.2145548E-08
   20.76000     -5.5209764E-08
   20.82000     -5.8543510E-08
   20.88000     -6.2110210E-08
   20.94000     -6.5825425E-08
   21.00000     -6.9573296E-08
   21.06000     -7.3228890E-08
   21.12000     -7.6681182E-08
   21.18000     -7.9851347E-08
   21.24000     -8.2702627E-08
   21.30000     -8.5240131E-08
   21.36000     -8.7501341E-08
   21.42000     -8.9540414E-08
   21.48000     -9.1410435E-08
   21.54000     -9.3148330E-08
   21.60000     -9.4765852E-08
   21.66000     -9.6248804E-08
   21.72000     -9.7563969E-08
   21.78000     -9.8671322E-08
   21.84000     -9.9537552E-08
   21.90000     -1.0014632E-07
   21.96000     -1.0050193E-07
   22.02000     -1.0062509E-07
   22.08000     -1.0054192E-07
   22.14000     -1.0027005E-07
   22.20000     -9.9806677E-08
   22.26000     -9.9123248E-08
   22.32000     -9.8169373E-08
   22.38000     -9.6885941E-08
   22.44000     -9.5223996E-08
   22.50000     -9.3164267E-08
   22.56000     -9.0731220E-08
   22.62000     -8.7997059E-08
   22.68000     -8.5073580E-08
   22.74000     -8.2093095E-08
   22.80000     -7.9182755E-08
   22.86000     -7.6438752E-08
   22.92000     -7.3906861E-08
   22.98000     -7.1574689E-08
   23.04000     -6.9377847E-08
   23.10000     -6.7218778E-08
   23.16000     -6.4993621E-08
   23.22000     -6.2620188E-08
   23.28000     -6.0059904E-08
   23.34000     -5.7328055E-08
   23.40000     -5.4490094E-08
   23.46000     -5.1645355E-08
   23.52000     -4.8903146E-08
   23.58000     -4.6358018E-08
   23.64000     -4.4070916E-08
   23.70000     -4.2061043E-08
   23.76000     -4.0309764E-08
   23.82000     -3.8774605E-08
   23.88000     -3.7408402E-08
   23.94000     -3.6177703E-08
   24.00000     -3.5074859E-08
   24.06000     -3.4120475E-08
   24.12000     -3.3355871E-08
   24.18000     -3.2827980E-08
   24.24000     -3.2571478E-08
   24.30000     -3.2593540E-08
   24.36000     -3.2865966E-08
   24.42000     -3.3327289E-08
   24.48000     -3.3894651E-08
   24.54000     -3.4482351E-08
   24.60000     -3.5022044E-08
   24.66000     -3.5478894E-08
   24.72000     -3.5859060E-08
   24.78000     -3.6206117E-08
   24.84000     -3.6587185E-08
   24.90000     -3.7072311E-08
   24.96000     -3.7712493E-08
   25.02000     -3.8522270E-08
   25.08000     -3.9471391E-08
   25.14000     -4.0487677E-08
   25.20000     -4.1470223E-08
   25.26000     -4.2309296E-08
   25.32000     -4.2907558E-08
   25.38000     -4.3197339E-08
   25.44000     -4.3149647E-08
   25.50000     -4.2773390E-08
   25.56000     -4.2105949E-08
   25.62000     -4.1198625E-08
   25.68000     -4.0101675E-08
   25.74000     -3.8853276E-08
   25.80000     -3.7475171E-08
   25.86000     -3.5975187E-08
   25.92000     -3.4354599E-08
   25.98000     -3.2616736E-08
   26.04000     -3.0773219E-08
   26.10000     -2.8845166E-08
   26.16000     -2.6858961E-08
   26.22000     -2.4838052E-08
   26.28000     -2.2793873E-08
   26.34000     -2.0719341E-08
   26.40000     -1.8587581E-08
   26.46000     -1.6356987E-08
   26.52000     -1.3981799E-08
   26.58000     -1.1425716E-08
   26.64000     -8.6752294E-09
   26.70000     -5.7492149E-09
   26.76000     -2.7022000E-09
   26.82000      3.7995246E-10
   26.88000      3.3915379E-09
   26.94000      6.2236811E-09
   27.00000      8.7829557E-09
   27.06000      1.1008089E-08
   27.12000      1.2881039E-08
   27.18000      1.4429747E-08
   27.24000      1.5721547E-08
   27.30000      1.6848405E-08
   27.36000      1.7907134E-08
   27.42000      1.8979099E-08
   27.48000      2.0114152E-08
   27.54000      2.1322450E-08
   27.60000      2.2575755E-08
   27.66000      2.3817281E-08
   27.72000      2.4976986E-08
   27.78000      2.5988021E-08
   27.84000      2.6800157E-08
   27.90000      2.7387367E-08
   27.96000      2.7748703E-08
   28.02000      2.7903576E-08
   28.08000      2.7883951E-08
   28.14000      2.7726285E-08
   28.20000      2.7465569E-08
   28.26000      2.7132495E-08
   28.32000      2.6753574E-08
   28.38000      2.6352827E-08
   28.44000      2.5953412E-08
   28.50000      2.5577679E-08
   28.56000      2.5245145E-08
   28.62000      2.4968839E-08
   28.68000      2.4751403E-08
   28.74000      2.4582661E-08
   28.80000      2.4440050E-08
   28.86000      2.4292255E-08
   28.92000      2.4105280E-08
   28.98000      2.3849068E-08
   29.04000      2.3502489E-08
   29.10000      2.3054833E-08
   29.16000      2.2503242E-08
   29.22000      2.1846875E-08
   29.28000      2.1079861E-08
   29.34000      2.0185611E-08
   29.40000      1.9134704E-08
   29.46000      1.7887468E-08
   29.52000      1.6400881E-08
   29.58000      1.4638124E-08
   29.64000      1.2578194E-08
   29.70000      1.0222974E-08
   29.76000      7.5996676E-09
   29.82000      4.7576307E-09
   29.88000      1.7600423E-09
   29.94000     -1.3278693E-09
   30.00000     -4.4512736E-09
   30.06000     -7.5757312E-09
   30.12000     -1.0691982E-08
   30.18000     -1.3813973E-08
   30.24000     -1.6970354E-08
   30.30000     -2.0191557E-08
   30.36000     -2.3495970E-08
   30.42000     -2.6879196E-08
   30.48000     -3.0309565E-08
   30.54000     -3.3731311E-08
   30.60000     -3.7074564E-08
   30.66000     -4.0269434E-08
   30.72000     -4.3260350E-08
   30.78000     -4.6016947E-08
   30.84000     -4.8538965E-08
   30.90000     -5.0854251E-08
   30.96000     -5.3010559E-08
   31.02000     -5.5063239E-08
   31.08000     -5.7061371E-08
   31.14000     -5.9035283E-08
   31.20000     -6.0987766E-08
   31.26000     -6.2890976E-08
   31.32000     -6.4689708E-08
   31.38000     -6.6310761E-08
   31.44000     -6.7676439E-08
   31.50000     -6.8719316E-08
   31.56000     -6.9394652E-08
   31.62000     -6.9687538E-08
   31.68000     -6.9612987E-08
   31.74000     -6.9209385E-08
   31.80000     -6.8527527E-08
   31.86000     -6.7618814E-08
   31.92000     -6.6525985E-08
   31.98000     -6.5278954E-08
   32.04000     -6.3896032E-08
   32.10000     -6.2389361E-08
   32.16000     -6.0771676E-08
   32.22000     -5.9061783E-08
   32.28000     -5.7286339E-08
   32.34000     -5.5477411E-08
   32.40000     -5.3666302E-08
   32.46000     -5.1875652E-08
   32.52000     -5.0112160E-08
   32.58000     -4.8362200E-08
   32.64000     -4.6592131E-08
   32.70000     -4.4753769E-08
   32.76000     -4.2794454E-08
   32.82000     -4.0669789E-08
   32.88000     -3.8356262E-08
   32.94000     -3.5860541E-08
   33.00000     -3.3222854E-08
   33.06000     -3.0513000E-08
   33.12000     -2.7819345E-08
   33.18000     -2.5233060E-08
   33.24000     -2.2831195E-08
   33.30000     -2.0662613E-08
   33.36000     -1.8740227E-08
   33.42000     -1.7041414E-08
   33.48000     -1.5516495E-08
   33.54000     -1.4103124E-08
   33.60000     -1.2743034E-08
   33.66000     -1.1396971E-08
   33.72000     -1.0054110E-08
   33.78000     -8.7335899E-09
   33.84000     -7.4777802E-09
   33.90000     -6.3390591E-09
   33.96000     -5.3636224E-09
   34.02000     -4.5767750E-09
   34.08000     -3.9738586E-09
   34.14000     -3.5195109E-09
   34.20000     -3.1556442E-09
   34.26000     -2.8160849E-09
   34.32000     -2.4438576E-09
   34.38000     -2.0063089E-09
   34.44000     -1.5038185E-09
   34.50000     -9.6957886E-10
   34.56000     -4.6034493E-10
   34.62000     -4.0478704E-11
   34.68000      2.3659544E-10
   34.74000      3.4466685E-10
   34.80000      2.9435299E-10
   34.86000      1.3325654E-10
   34.92000     -6.3804184E-11
   34.98000     -2.1235148E-10
   35.04000     -2.3924301E-10
   35.10000     -1.0152095E-10
   35.16000      2.0224190E-10
   35.22000      6.3167926E-10
   35.28000      1.1160165E-09
   35.34000      1.5742284E-09
   35.40000      1.9382693E-09
   35.46000      2.1724500E-09
   35.52000      2.2829543E-09
   35.58000      2.3143887E-09
   35.64000      2.3342810E-09
   35.70000      2.4102864E-09
   35.76000      2.5872351E-09
   35.82000      2.8712144E-09
   35.88000      3.2256293E-09
   35.94000      3.5803405E-09
   36.00000      3.8508645E-09
   36.06000      3.9615498E-09
   36.12000      3.8656105E-09
   36.18000      3.5561352E-09
   36.24000      3.0651697E-09
   36.30000      2.4517390E-09
   36.36000      1.7829165E-09
   36.42000      1.1138921E-09
   36.48000      4.7291082E-10
   36.54000     -1.4485486E-10
   36.60000     -7.7332302E-10
   36.66000     -1.4632596E-09
   36.72000     -2.2659039E-09
   36.78000     -3.2175345E-09
   36.84000     -4.3294777E-09
   36.90000     -5.5862523E-09
   36.96000     -6.9520540E-09
   37.02000     -8.3833562E-09
   37.08000     -9.8436601E-09
   37.14000     -1.1315834E-08
   37.20000     -1.2808234E-08
   37.26000     -1.4352593E-08
   37.32000     -1.5994143E-08
   37.38000     -1.7776806E-08
   37.44000     -1.9727883E-08
   37.50000     -2.1846979E-08
   37.56000     -2.4102704E-08
   37.62000     -2.6438407E-08
   37.68000     -2.8785367E-08
   37.74000     -3.1079630E-08
   37.80000     -3.3277448E-08
   37.86000     -3.5364920E-08
   37.92000     -3.7359126E-08
   37.98000     -3.9300957E-08
   38.04000     -4.1242163E-08
   38.10000     -4.3230742E-08
   38.16000     -4.5299139E-08
   38.22000     -4.7458322E-08
   38.28000     -4.9698990E-08
   38.34000     -5.1998835E-08
   38.40000     -5.4333221E-08
   38.46000     -5.6685685E-08
   38.52000     -5.9055196E-08
   38.58000     -6.1457932E-08
   38.64000     -6.3923238E-08
   38.70000     -6.6485043E-08
   38.76000     -6.9171122E-08
   38.82000     -7.1993263E-08
   38.88000     -7.4941170E-08
   38.94000     -7.7981376E-08
   39.00000     -8.1061472E-08
   39.06000     -8.4117950E-08
   39.12000     -8.7085283E-08
   39.18000     -8.9903665E-08
   39.24000     -9.2523614E-08
   39.30000     -9.4906952E-08
   39.36000     -9.7024994E-08
   39.42000     -9.8855807E-08
   39.48000     -1.0038226E-07
   39.54000     -1.0159225E-07
   39.60000     -1.0248110E-07
   39.66000     -1.0305514E-07
   39.72000     -1.0333467E-07
   39.78000     -1.0335441E-07
   39.84000     -1.0315998E-07
   39.90000     -1.0280041E-07
   39.96000     -1.0231764E-07
   40.02000     -1.0173559E-07
   40.08000     -1.0105177E-07
   40.14000     -1.0023484E-07
   40.20000     -9.9229801E-08
   40.26000     -9.7971260E-08
   40.32000     -9.6402104E-08
   40.38000     -9.4493039E-08
   40.44000     -9.2257309E-08
   40.50000     -8.9755552E-08
   40.56000     -8.7088182E-08
   40.62000     -8.4376225E-08
   40.68000     -8.1735230E-08
   40.74000     -7.9249432E-08
   40.80000     -7.6953398E-08
   40.86000     -7.4826502E-08
   40.92000     -7.2802024E-08
   40.98000     -7.0788204E-08
   41.04000     -6.8695527E-08
   41.10000     -6.6462725E-08
   41.16000     -6.4074698E-08
   41.22000     -6.1567924E-08
   41.28000     -5.9022192E-08
   41.34000     -5.6541051E-08
   41.40000     -5.4226078E-08
   41.46000     -5.2151321E-08
   41.52000     -5.0344372E-08
   41.58000     -4.8778777E-08
   41.64000     -4.7379888E-08
   41.70000     -4.6042960E-08
   41.76000     -4.4659231E-08
   41.82000     -4.3143466E-08
   41.88000     -4.1455689E-08
   41.94000     -3.9611201E-08
   42.00000     -3.7675740E-08
   42.06000     -3.5746790E-08
   42.12000     -3.3925918E-08
   42.18000     -3.2289737E-08
   42.24000     -3.0867902E-08
   42.30000     -2.9634437E-08
   42.36000     -2.8515243E-08
   42.42000     -2.7409781E-08
   42.48000     -2.6220867E-08
   42.54000     -2.4884267E-08
   42.60000     -2.3389816E-08
   42.66000     -2.1788347E-08
   42.72000     -2.0182815E-08
   42.78000     -1.8706373E-08
   42.84000     -1.7493543E-08
   42.90000     -1.6652185E-08
   42.96000     -1.6243249E-08
   43.02000     -1.6272720E-08
   43.08000     -1.6696758E-08
   43.14000     -1.7437385E-08
   43.20000     -1.8403790E-08
   43.26000     -1.9513301E-08
   43.32000     -2.0706961E-08
   43.38000     -2.1956684E-08
   43.44000     -2.3263597E-08
   43.50000     -2.4649706E-08
   43.56000     -2.6146569E-08
   43.62000     -2.7785097E-08
   43.68000     -2.9589625E-08
   43.74000     -3.1577731E-08
   43.80000     -3.3764980E-08
   43.86000     -3.6172160E-08
   43.92000     -3.8831821E-08
   43.98000     -4.1791370E-08
   44.04000     -4.5111694E-08
   44.10000     -4.8862411E-08
   44.16000     -5.3116544E-08
   44.22000     -5.7948171E-08
   44.28000     -6.3435650E-08
   44.34000     -6.9671081E-08
   44.40000     -7.6774185E-08
   44.46000     -8.4906688E-08
   44.52000     -9.4283187E-08
   44.58000     -1.0517538E-07
   44.64000     -1.1790924E-07
   44.70000     -1.3285759E-07
   44.76000     -1.5043270E-07
   44.82000     -1.7108377E-07
   44.88000     -1.9530341E-07
   44.94000     -2.2364381E-07
   45.00000     -2.5674066E-07
   45.06000     -2.9534044E-07
   45.12000     -3.4032550E-07
   45.18000     -3.9273260E-07
   45.24000     -4.5376308E-07
   45.30000     -5.2478526E-07
   45.36000     -6.0733362E-07
   45.42000     -7.0310830E-07
   45.48000     -8.1398196E-07
   45.54000     -9.4201533E-07
   45.60000     -1.0894845E-06
   45.66000     -1.2589171E-06
   45.72000     -1.4531353E-06
   45.78000     -1.6752992E-06
   45.84000     -1.9289498E-06
   45.90000     -2.2180429E-06
   45.96000     -2.5469767E-06
   46.02000     -2.9206108E-06
   46.08000     -3.3442807E-06
   46.14000     -3.8238095E-06
   46.20000     -4.3655195E-06
   46.26000     -4.9762521E-06
   46.32000     -5.6633885E-06
   46.38000     -6.4348787E-06
   46.44000     -7.2992698E-06
   46.50000     -8.2657398E-06
   46.56000     -9.3441149E-06
   46.62000     -1.0544898E-05
   46.68000     -1.1879264E-05
   46.74000     -1.3359063E-05
   46.80000     -1.4996803E-05
   46.86000     -1.6805629E-05
   46.92000     -1.8799286E-05
   46.98000     -2.0992098E-05
   47.04000     -2.3398923E-05
   47.10000     -2.6035103E-05
   47.16000     -2.8916422E-05
   47.22000     -3.2059030E-05
   47.28000     -3.5479392E-05
   47.34000     -3.9194179E-05
   47.40000     -4.3220178E-05
   47.46000     -4.7574187E-05
   47.52000     -5.2272884E-05
   47.58000     -5.7332702E-05
   47.64000     -6.2769686E-05
   47.70000     -6.8599336E-05
   47.76000     -7.4836447E-05
   47.82000     -8.1494894E-05
   47.88000     -8.8587505E-05
   47.94000     -9.6125870E-05
   48.00000     -1.0412015E-04
   48.06000     -1.1257896E-04
   48.12000     -1.2150915E-04
   48.18000     -1.3091567E-04
   48.24000     -1.4080139E-04
   48.30000     -1.5116701E-04
   48.36000     -1.6201078E-04
   48.42000     -1.7332844E-04
   48.48000     -1.8511309E-04
   48.54000     -1.9735507E-04
   48.60000     -2.1004185E-04
   48.66000     -2.2315801E-04
   48.72000     -2.3668518E-04
   48.78000     -2.5060205E-04
   48.84000     -2.6488435E-04
   48.90000     -2.7950507E-04
   48.96000     -2.9443434E-04
   49.02000     -3.0963976E-04
   49.08000     -3.2508632E-04
   49.14000     -3.4073699E-04
   49.20000     -3.5655239E-04
   49.26000     -3.7249157E-04
   49.32000     -3.8851186E-04
   49.38000     -4.0456950E-04
   49.44000     -4.2061973E-04
   49.50000     -4.3661729E-04
   49.56000     -4.5251672E-04
   49.62000     -4.6827272E-04
   49.68000     -4.8384065E-04
   49.74000     -4.9917691E-04
   49.80000     -5.1423925E-04
   49.86000     -5.2898744E-04
   49.92000     -5.4338342E-04
   49.98000     -5.5739179E-04
   50.04000     -5.7098013E-04
   50.10000     -5.8411941E-04
   50.16000     -5.9678406E-04
   50.22000     -6.0895237E-04
   50.28000     -6.2060688E-04
   50.34000     -6.3173432E-04
   50.40000     -6.4232585E-04
   50.46000     -6.5237732E-04
   50.52000     -6.6188903E-04
   50.58000     -6.7086605E-04
   50.64000     -6.7931775E-04
   50.70000     -6.8725797E-04
   50.76000     -6.9470494E-04
   50.82000     -7.0168072E-04
   50.88000     -7.0821098E-04
   50.94000     -7.1432488E-04
   51.00000     -7.2005438E-04
   51.06000     -7.2543410E-04
   51.12000     -7.3050056E-04
   51.18000     -7.3529204E-04
   51.24000     -7.3984778E-04
   51.30000     -7.4420776E-04
   51.36000     -7.4841193E-04
   51.42000     -7.5249985E-04
   51.48000     -7.5651007E-04
   51.54000     -7.6047948E-04
   51.60000     -7.6444313E-04
   51.66000     -7.6843344E-04
   51.72000     -7.7247998E-04
   51.78000     -7.7660871E-04
   51.84000     -7.8084221E-04
   51.90000     -7.8519876E-04
   51.96000     -7.8969263E-04
   52.02000     -7.9433335E-04
   52.08000     -7.9912605E-04
   52.14000     -8.0407120E-04
   52.20000     -8.0916466E-04
   52.26000     -8.1439770E-04
   52.32000     -8.1975741E-04
   52.38000     -8.2522648E-04
   52.44000     -8.3078392E-04
   52.50000     -8.3640486E-04
   52.56000     -8.4206124E-04
   52.62000     -8.4772205E-04
   52.68000     -8.5335388E-04
   52.74000     -8.5892167E-04
   52.80000     -8.6438889E-04
   52.86000     -8.6971821E-04
   52.92000     -8.7487203E-04
   52.98000     -8.7981310E-04
   53.04000     -8.8450499E-04
   53.10000     -8.8891259E-04
   53.16000     -8.9300261E-04
   53.22000     -8.9674408E-04
   53.28000     -9.0010883E-04
   53.34000     -9.0307189E-04
   53.40000     -9.0561196E-04
   53.46000     -9.0771139E-04
   53.52000     -9.0935652E-04
   53.58000     -9.1053796E-04
   53.64000     -9.1125054E-04
   53.70000     -9.1149349E-04
   53.76000     -9.1127038E-04
   53.82000     -9.1058901E-04
   53.88000     -9.0946141E-04
   53.94000     -9.0790342E-04
   54.00000     -9.0593443E-04
   54.06000     -9.0357725E-04
   54.12000     -9.0085738E-04
   54.18000     -8.9780288E-04
   54.24000     -8.9444377E-04
   54.30000     -8.9081185E-04
   54.36000     -8.8693999E-04
   54.42000     -8.8286184E-04
   54.48000     -8.7861071E-04
   54.54000     -8.7421964E-04
   54.60000     -8.6972059E-04
   54.66000     -8.6514396E-04
   54.72000     -8.6051866E-04
   54.78000     -8.5587113E-04
   54.84000     -8.5122528E-04
   54.90000     -8.4660220E-04
   54.96000     -8.4201986E-04
   55.02000     -8.3749252E-04
   55.08000     -8.3303096E-04
   55.14000     -8.2864199E-04
   55.20000     -8.2432845E-04
   55.26000     -8.2008954E-04
   55.32000     -8.1592053E-04
   55.38000     -8.1181305E-04
   55.44000     -8.0775539E-04
   55.50000     -8.0373249E-04
   55.56000     -7.9972617E-04