  -2.400000      0.0000000E+00
  -2.340000      0.0000000E+00
  -2.280000      0.0000000E+00
  -2.220000      0.0000000E+00
  -2.160000      0.0000000E+00
  -2.100000      0.0000000E+00
  -2.040000      0.0000000E+00
  -1.980000      0.0000000E+00
  -1.920000      0.0000000E+00
  -1.860000      1.7534108E-28
  -1.800000      1.8663605E-27
  -1.740000      7.7070239E-27
  -1.680000      2.9823586E-27
  -1.620000     -1.3835066E-25
  -1.560000     -8.9286127E-25
  -1.500000     -3.3554412E-24
  -1.440000     -8.8073930E-24
  -1.380000     -1.5994276E-23
  -1.320000     -1.4705360E-23
  -1.260000      2.2064017E-23
  -1.200000      1.3643590E-22
  -1.140000      3.5422950E-22
  -1.080000      6.0752433E-22
  -1.020000      6.3080741E-22
 -0.9600000     -7.8178728E-23
 -0.9000000     -2.0736865E-21
 -0.8400000     -5.4205889E-21
 -0.7800000     -8.8827711E-21
 -0.7200000     -9.3360386E-21
 -0.6600000     -2.2793951E-21
 -0.6000000      1.5759862E-20
 -0.5400000      4.3068781E-20
 -0.4800000      6.8716653E-20
 -0.4200000      7.2184020E-20
 -0.3600000      3.0216055E-20
 -0.3000000     -6.8477830E-20
 -0.2400000     -2.0573495E-19
 -0.1800000     -3.2443730E-19
 -0.1200000     -3.3905123E-19
 -5.9999999E-02 -1.7144936E-19
  0.0000000E+00  1.9706287E-19
  5.9999999E-02  6.8183314E-19
  0.1200000      1.0892321E-18
  0.1800000      1.1681690E-18
  0.2400000      7.1082391E-19
  0.3000000     -3.3432728E-19
  0.3600000     -1.7867763E-18
  0.4200000     -3.2305390E-18
  0.4800000     -4.0838966E-18
  0.5400000     -3.7149525E-18
  0.6000000     -1.5792169E-18
  0.6600000      2.6074346E-18
  0.7200000      8.6130198E-18
  0.7800000      1.5332792E-17
  0.8400000      2.0444619E-17
  0.9000000      2.0384882E-17
  0.9600000      1.1079223E-17
   1.020000     -1.0267604E-17
   1.080000     -4.2524833E-17
   1.140000     -7.8131656E-17
   1.200000     -1.0245825E-16
   1.260000     -9.6828796E-17
   1.320000     -4.5921815E-17
   1.380000      5.2025855E-17
   1.440000      1.7655327E-16
   1.500000      2.8392163E-16
   1.560000      3.1866851E-16
   1.620000      2.3787279E-16
   1.680000      4.0414040E-17
   1.740000     -2.1388616E-16
   1.800000     -4.1231465E-16
   1.860000     -4.3377640E-16
   1.920000     -2.2104077E-16
   1.980000      1.5022802E-16
   2.040000      4.5122784E-16
   2.100000      3.6792832E-16
   2.160000     -3.3739355E-16
   2.220000     -1.6201654E-15
   2.280000     -3.0046186E-15
   2.340000     -3.6112775E-15
   2.400000     -2.4368403E-15
   2.460000      1.1442306E-15
   2.520000      6.8240820E-15
   2.580000      1.3023581E-14
   2.640000      1.7045440E-14
   2.700000      1.5850826E-14
   2.760000      7.3305526E-15
   2.820000     -8.3482602E-15
   2.880000     -2.7921801E-14
   2.940000     -4.5288643E-14
   3.000000     -5.3075877E-14
   3.060000     -4.5214246E-14
   3.120000     -1.9692478E-14
   3.180000      1.9630659E-14
   3.240000      6.3135939E-14
   3.300000      9.7841345E-14
   3.360000      1.1154442E-13
   3.420000      9.7307274E-14
   3.480000      5.6475519E-14
   3.540000     -1.2533631E-15
   3.600000     -6.1140329E-14
   3.660000     -1.0906267E-13
   3.720000     -1.3721301E-13
   3.780000     -1.4706952E-13
   3.840000     -1.4761448E-13
   3.900000     -1.4868057E-13
   3.960000     -1.5176852E-13
   4.020000     -1.4272095E-13
   4.080000     -9.1197673E-14
   4.140000      3.9714719E-14
   4.200000      2.7415377E-13
   4.260000      5.9966208E-13
   4.320000      9.4844206E-13
   4.380000      1.1948849E-12
   4.440000      1.1780290E-12
   4.500000      7.5049141E-13
   4.560000     -1.5494142E-13
   4.620000     -1.4604319E-12
   4.680000     -2.9059916E-12
   4.740000     -4.0652217E-12
   4.800000     -4.4281454E-12
   4.860000     -3.5457217E-12
   4.920000     -1.2066839E-12
   4.980000      2.4036146E-12
   5.040000      6.6222284E-12
   5.100000      1.0357309E-11
   5.160000      1.2290512E-11
   5.220000      1.1214272E-11
   5.280000      6.4373580E-12
   5.340000     -1.8462894E-12
   5.400000     -1.2345706E-11
   5.460000     -2.2721105E-11
   5.520000     -2.9944568E-11
   5.580000     -3.0950142E-11
   5.640000     -2.3466342E-11
   5.700000     -6.8531253E-12
   5.760000      1.7272520E-11
   5.820000      4.4828870E-11
   5.880000      6.9625125E-11
   5.940000      8.4320245E-11
   6.000000      8.1892680E-11
   6.060000      5.7395075E-11
   6.120000      9.6621400E-12
   6.180000     -5.7412419E-11
   6.240000     -1.3439366E-10
   6.300000     -2.0688291E-10
   6.360000     -2.5725130E-10
   6.420000     -2.6741262E-10
   6.480000     -2.2229756E-10
   6.540000     -1.1350624E-10
   6.600000      5.7492153E-11
   6.660000      2.7724362E-10
   6.720000      5.1979054E-10
   6.780000      7.4803680E-10
   6.840000      9.1698782E-10
   6.900000      9.7853903E-10
   6.960000      8.8721341E-10
   7.020000      6.0606792E-10
   7.080000      1.1194260E-10
   7.140000     -6.0068106E-10
   7.200000     -1.5177362E-09
   7.260000     -2.6057836E-09
   7.320000     -3.8143306E-09
   7.380000     -5.0799613E-09
   7.440000     -6.3317973E-09
   7.500000     -7.4977367E-09
   7.560000     -8.5108747E-09
   7.620000     -9.3155323E-09
   7.680000     -9.8723509E-09
   7.740000     -1.0161940E-08
   7.800000     -1.0186636E-08
   7.860000     -9.9700639E-09
   7.920000     -9.5543875E-09
   7.980000     -8.9954000E-09
   8.040000     -8.3559426E-09
   8.100000     -7.6984348E-09
   8.160000     -7.0774937E-09
   8.220000     -6.5336798E-09
   8.280000     -6.0892709E-09
   8.340000     -5.7466445E-09
   8.400000     -5.4894276E-09
   8.460000     -5.2860964E-09
   8.520000     -5.0953060E-09
   8.580000     -4.8719682E-09
   8.640000     -4.5730526E-09
   8.700000     -4.1622519E-09
   8.760000     -3.6129888E-09
   8.820000     -2.9096971E-09
   8.880000     -2.0476918E-09
   8.940000     -1.0322336E-09
   9.000000      1.2258809E-10
   9.060000      1.3947208E-09
   9.120000      2.7547018E-09
   9.180000      4.1662549E-09
   9.240000      5.5875664E-09
   9.300000      6.9739077E-09
   9.360000      8.2819707E-09
   9.420000      9.4757331E-09
   9.480000      1.0532976E-08
   9.540000      1.1451063E-08
   9.600000      1.2250319E-08
   9.660000      1.2973653E-08
   9.720000      1.3681724E-08
   9.780000      1.4444024E-08
   9.840000      1.5327279E-08
   9.900000      1.6383412E-08
   9.960000      1.7639541E-08
   10.02000      1.9092163E-08
   10.08000      2.0706779E-08
   10.14000      2.2422975E-08
   10.20000      2.4163754E-08
   10.26000      2.5847049E-08
   10.32000      2.7397123E-08
   10.38000      2.8753753E-08
   10.44000      2.9877963E-08
   10.50000      3.0753942E-08
   10.56000      3.1387721E-08
   10.62000      3.1803584E-08
   10.68000      3.2039360E-08
   10.74000      3.2141465E-08
   10.80000      3.2160067E-08
   10.86000      3.2144417E-08
   10.92000      3.2138164E-08
   10.98000      3.2174611E-08
   11.04000      3.2272222E-08
   11.10000      3.2431078E-08
   11.16000      3.2631323E-08
   11.22000      3.2834588E-08
   11.28000      3.2988957E-08
   11.34000      3.3037281E-08
   11.40000      3.2927666E-08
   11.46000      3.2624129E-08
   11.52000      3.2114922E-08
   11.58000      3.1416317E-08
   11.64000      3.0570423E-08
   11.70000      2.9637109E-08
   11.76000      2.8681605E-08
   11.82000      2.7760771E-08
   11.88000      2.6911469E-08
   11.94000      2.6144143E-08
   12.00000      2.5443425E-08
   12.06000      2.4775533E-08
   12.12000      2.4100366E-08
   12.18000      2.3384693E-08
   12.24000      2.2612500E-08
   12.30000      2.1789319E-08
   12.36000      2.0939231E-08
   12.42000      2.0095488E-08
   12.48000      1.9287794E-08
   12.54000      1.8530484E-08
   12.60000      1.7815669E-08
   12.66000      1.7114084E-08
   12.72000      1.6383840E-08
   12.78000      1.5584725E-08
   12.84000      1.4693697E-08
   12.90000      1.3716345E-08
   12.96000      1.2690036E-08
   13.02000      1.1676788E-08
   13.08000      1.0747049E-08
   13.14000      9.9586286E-09
   13.20000      9.3369072E-09
   13.26000      8.8625862E-09
   13.32000      8.4713321E-09
   13.38000      8.0663458E-09
   13.44000      7.5409963E-09
   13.50000      6.8055557E-09
   13.56000      5.8106866E-09
   13.62000      4.5610915E-09
   13.68000      3.1155452E-09
   13.74000      1.5734050E-09
   13.80000      5.1506185E-11
   13.86000     -1.3420323E-09
   13.92000     -2.5299076E-09
   13.98000     -3.4778462E-09
   14.04000     -4.1941255E-09
   14.10000     -4.7172799E-09
   14.16000     -5.0962008E-09
   14.22000     -5.3689035E-09
   14.28000     -5.5465232E-09
   14.34000     -5.6075025E-09
   14.40000     -5.5038956E-09
   14.46000     -5.1780829E-09
   14.52000     -4.5849275E-09
   14.58000     -3.7125514E-09
   14.64000     -2.5950166E-09
   14.70000     -1.3124176E-09
   14.76000      2.2455543E-11
   14.82000      1.2875965E-09
   14.88000      2.3788767E-09
   14.94000      3.2328853E-09
   15.00000      3.8386987E-09
   15.06000      4.2349382E-09
   15.12000      4.4927835E-09
   15.18000      4.6897388E-09
   15.24000      4.8816484E-09
   15.30000      5.0808935E-09
   15.36000      5.2468812E-09
   15.42000      5.2914109E-09
   15.48000      5.0973998E-09
   15.54000      4.5459245E-09
   15.60000      3.5445369E-09
   15.66000      2.0497948E-09
   15.72000      7.8737232E-11
   15.78000     -2.2929054E-09
   15.84000     -4.9445772E-09
   15.90000     -7.7327762E-09
   15.96000     -1.0515251E-08
   16.02000     -1.3171745E-08
   16.08000     -1.5616900E-08
   16.14000     -1.7803393E-08
   16.20000     -1.9716017E-08
   16.26000     -2.1359858E-08
   16.32000     -2.2746949E-08
   16.38000     -2.3885843E-08
   16.44000     -2.4777300E-08
   16.50000     -2.5417108E-08
   16.56000     -2.5804621E-08
   16.62000     -2.5953611E-08
   16.68000     -2.5900924E-08
   16.74000     -2.5708875E-08
   16.80000     -2.5458949E-08
   16.86000     -2.5237066E-08
   16.92000     -2.5113504E-08
   16.98000     -2.5122693E-08
   17.04000     -2.5248816E-08
   17.10000     -2.5422075E-08
   17.16000     -2.5527742E-08
   17.22000     -2.5426734E-08
   17.28000     -2.4983006E-08
   17.34000     -2.4091188E-08
   17.40000     -2.2697614E-08
   17.46000     -2.0809761E-08
   17.52000     -1.8492218E-08
   17.58000     -1.5850819E-08
   17.64000     -1.3009486E-08
   17.70000     -1.0085781E-08
   17.76000     -7.1710322E-09
   17.82000     -4.3191775E-09
   17.88000     -1.5459752E-09
   17.94000      1.1625119E-09
   18.00000      3.8354120E-09
   18.06000      6.5009185E-09
   18.12000      9.1729051E-09
   18.18000      1.1843478E-08
   18.24000      1.4482779E-08
   18.30000      1.7045277E-08
   18.36000      1.9480078E-08
   18.42000      2.1741885E-08
   18.48000      2.3799387E-08
   18.54000      2.5638872E-08
   18.60000      2.7262459E-08
   18.66000      2.8681951E-08
   18.72000      2.9910584E-08
   18.78000      3.0955409E-08
   18.84000      3.1812753E-08
   18.90000      3.2468272E-08
   18.96000      3.2901767E-08
   19.02000      3.3095464E-08
   19.08000      3.3043587E-08
   19.14000      3.2760344E-08
   19.20000      3.2284095E-08
   19.26000      3.1676095E-08
   19.32000      3.1013904E-08
   19.38000      3.0380882E-08
   19.44000      2.9854096E-08
   19.50000      2.9493506E-08
   19.56000      2.9334551E-08
   19.62000      2.9385394E-08
   19.68000      2.9628856E-08
   19.74000      3.0027930E-08
   19.80000      3.0533240E-08
   19.86000      3.1090654E-08
   19.92000      3.1647435E-08
   19.98000      3.2156066E-08
   20.04000      3.2575468E-08
   20.10000      3.2870133E-08
   20.16000      3.3008366E-08
   20.22000      3.2961029E-08
   20.28000      3.2701962E-08
   20.34000      3.2210497E-08
   20.40000      3.1475349E-08
   20.46000      3.0498310E-08
   20.52000      2.9295807E-08
   20.58000      2.7896812E-08
   20.64000      2.6337061E-08
   20.70000      2.4650872E-08
   20.76000      2.2863098E-08
   20.82000      2.0983995E-08
   20.88000      1.9008914E-08
   20.94000      1.6923236E-08
   21.00000      1.4711119E-08
   21.06000      1.2365378E-08
   21.12000      9.8953832E-09
   21.18000      7.3303363E-09
   21.24000      4.7165920E-09
   21.30000      2.1093021E-09
   21.36000     -4.3973014E-10
   21.42000     -2.8949703E-09
   21.48000     -5.2474145E-09
   21.54000     -7.5192625E-09
   21.60000     -9.7614414E-09
   21.66000     -1.2044369E-08
   21.72000     -1.4444297E-08
   21.78000     -1.7028926E-08
   21.84000     -1.9846119E-08
   21.90000     -2.2918503E-08
   21.96000     -2.6244647E-08
   22.02000     -2.9805328E-08
   22.08000     -3.3571851E-08
   22.14000     -3.7513015E-08
   22.20000     -4.1598344E-08
   22.26000     -4.5796806E-08
   22.32000     -5.0072309E-08
   22.38000     -5.4378301E-08
   22.44000     -5.8654219E-08
   22.50000     -6.2825734E-08
   22.56000     -6.6809577E-08
   22.62000     -7.0522162E-08
   22.68000     -7.3890142E-08
   22.74000     -7.6860189E-08
   22.80000     -7.9405559E-08
   22.86000     -8.1527489E-08
   22.92000     -8.3250775E-08
   22.98000     -8.4614584E-08
   23.04000     -8.5661014E-08
   23.10000     -8.6424656E-08
   23.16000     -8.6926320E-08
   23.22000     -8.7172722E-08
   23.28000     -8.7161993E-08
   23.34000     -8.6892790E-08
   23.40000     -8.6373767E-08
   23.46000     -8.5629814E-08
   23.52000     -8.4703053E-08
   23.58000     -8.3648146E-08
   23.64000     -8.2523435E-08
   23.70000     -8.1380591E-08
   23.76000     -8.0255738E-08
   23.82000     -7.9164259E-08
   23.88000     -7.8100655E-08
   23.94000     -7.7043090E-08
   24.00000     -7.5961644E-08
   24.06000     -7.4827994E-08
   24.12000     -7.3624150E-08
   24.18000     -7.2347802E-08
   24.24000     -7.1012870E-08
   24.30000     -6.9644948E-08
   24.36000     -6.8273117E-08
   24.42000     -6.6920975E-08
   24.48000     -6.5600034E-08
   24.54000     -6.4308260E-08
   24.60000     -6.3034499E-08
   24.66000     -6.1767530E-08
   24.72000     -6.0506473E-08
   24.78000     -5.9268686E-08
   24.84000     -5.8091871E-08
   24.90000     -5.7029006E-08
   24.96000     -5.6137388E-08
   25.02000     -5.5464920E-08
   25.08000     -5.5037997E-08
   25.14000     -5.4854883E-08
   25.20000     -5.4886755E-08
   25.26000     -5.5086275E-08
   25.32000     -5.5401252E-08
   25.38000     -5.5789322E-08
   25.44000     -5.6229418E-08
   25.50000     -5.6726638E-08
   25.56000     -5.7309339E-08
   25.62000     -5.8019353E-08
   25.68000     -5.8898443E-08
   25.74000     -5.9974916E-08
   25.80000     -6.1254013E-08
   25.86000     -6.2714506E-08
   25.92000     -6.4311656E-08
   25.98000     -6.5985233E-08
   26.04000     -6.7669923E-08
   26.10000     -6.9305486E-08
   26.16000     -7.0844507E-08
   26.22000     -7.2256860E-08
   26.28000     -7.3530771E-08
   26.34000     -7.4671206E-08
   26.40000     -7.5695979E-08
   26.46000     -7.6630442E-08
   26.52000     -7.7500772E-08
   26.58000     -7.8326728E-08
   26.64000     -7.9114599E-08
   26.70000     -7.9851837E-08
   26.76000     -8.0504719E-08
   26.82000     -8.1020339E-08
   26.88000     -8.1333056E-08
   26.94000     -8.1374701E-08
   27.00000     -8.1086512E-08
   27.06000     -8.0430283E-08
   27.12000     -7.9396102E-08
   27.18000     -7.8004618E-08
   27.24000     -7.6303017E-08
   27.30000     -7.4355292E-08
   27.36000     -7.2228644E-08
   27.42000     -6.9979258E-08
   27.48000     -6.7640627E-08
   27.54000     -6.5217634E-08
   27.60000     -6.2687960E-08
   27.66000     -6.0010855E-08
   27.72000     -5.7140888E-08
   27.78000     -5.4043252E-08
   27.84000     -5.0706067E-08
   27.90000     -4.7146315E-08
   27.96000     -4.3407542E-08
   28.02000     -3.9550144E-08
   28.08000     -3.5637143E-08
   28.14000     -3.1719864E-08
   28.20000     -2.7827790E-08
   28.26000     -2.3965571E-08
   28.32000     -2.0117731E-08
   28.38000     -1.6259376E-08
   28.44000     -1.2369283E-08
   28.50000     -8.4413108E-09
   28.56000     -4.4907469E-09
   28.62000     -5.5402855E-10
   28.68000      3.3176701E-09
   28.74000      7.0686625E-09
   28.80000      1.0649557E-08
   28.86000      1.4025578E-08
   28.92000      1.7180371E-08
   28.98000      2.0114792E-08
   29.04000      2.2841617E-08
   29.10000      2.5378121E-08
   29.16000      2.7738746E-08
   29.22000      2.9929769E-08
   29.28000      3.1947099E-08
   29.34000      3.3777496E-08
   29.40000      3.5402536E-08
   29.46000      3.6803989E-08
   29.52000      3.7969006E-08
   29.58000      3.8893397E-08
   29.64000      3.9581916E-08
   29.70000      4.0045368E-08
   29.76000      4.0295543E-08
   29.82000      4.0340097E-08
   29.88000      4.0179710E-08
   29.94000      3.9809425E-08
   30.00000      3.9224410E-08
   30.06000      3.8428432E-08
   30.12000      3.7441779E-08
   30.18000      3.6304815E-08
   30.24000      3.5074528E-08
   30.30000      3.3813940E-08
   30.36000      3.2576956E-08
   30.42000      3.1393533E-08
   30.48000      3.0260306E-08
   30.54000      2.9140457E-08
   30.60000      2.7973490E-08
   30.66000      2.6692321E-08
   30.72000      2.5242583E-08
   30.78000      2.3598391E-08
   30.84000      2.1770006E-08
   30.90000      1.9801524E-08
   30.96000      1.7759717E-08
   31.02000      1.5717655E-08
   31.08000      1.3737922E-08
   31.14000      1.1859957E-08
   31.20000      1.0094555E-08
   31.26000      8.4263858E-09
   31.32000      6.8231896E-09
   31.38000      5.2486042E-09
   31.44000      3.6747396E-09
   31.50000      2.0908613E-09
   31.56000      5.0578403E-10
   31.62000     -1.0564977E-09
   31.68000     -2.5662878E-09
   31.74000     -3.9994461E-09
   31.80000     -5.3464659E-09
   31.86000     -6.6160806E-09
   31.92000     -7.8319919E-09
   31.98000     -9.0237382E-09
   32.04000     -1.0214889E-08
   32.10000     -1.1412834E-08
   32.16000     -1.2603934E-08
   32.22000     -1.3755957E-08
   32.28000     -1.4827182E-08
   32.34000     -1.5779186E-08
   32.40000     -1.6589194E-08
   32.46000     -1.7258063E-08
   32.52000     -1.7811612E-08
   32.58000     -1.8295188E-08
   32.64000     -1.8763439E-08
   32.70000     -1.9268457E-08
   32.76000     -1.9849615E-08
   32.82000     -2.0527475E-08
   32.88000     -2.1302805E-08
   32.94000     -2.2160199E-08
   33.00000     -2.3074621E-08
   33.06000     -2.4018703E-08
   33.12000     -2.4968660E-08
   33.18000     -2.5907315E-08
   33.24000     -2.6823828E-08
   33.30000     -2.7710705E-08
   33.36000     -2.8559713E-08
   33.42000     -2.9358555E-08
   33.48000     -3.0090028E-08
   33.54000     -3.0734338E-08
   33.60000     -3.1274126E-08
   33.66000     -3.1700594E-08
   33.72000     -3.2018455E-08
   33.78000     -3.2247733E-08
   33.84000     -3.2421358E-08
   33.90000     -3.2578875E-08
   33.96000     -3.2757995E-08
   34.02000     -3.2986506E-08
   34.08000     -3.3277093E-08
   34.14000     -3.3626687E-08
   34.20000     -3.4020562E-08
   34.26000     -3.4439772E-08
   34.32000     -3.4869430E-08
   34.38000     -3.5305074E-08
   34.44000     -3.5754990E-08
   34.50000     -3.6237818E-08
   34.56000     -3.6776544E-08
   34.62000     -3.7391267E-08
   34.68000     -3.8093592E-08
   34.74000     -3.8884849E-08
   34.80000     -3.9758749E-08
   34.86000     -4.0707107E-08
   34.92000     -4.1725976E-08
   34.98000     -4.2819014E-08
   35.04000     -4.3996049E-08
   35.10000     -4.5266635E-08
   35.16000     -4.6630806E-08
   35.22000     -4.8070756E-08
   35.28000     -4.9547356E-08
   35.34000     -5.1004132E-08
   35.40000     -5.2378578E-08
   35.46000     -5.3618031E-08
   35.52000     -5.4695160E-08
   35.58000     -5.5617868E-08
   35.64000     -5.6429879E-08
   35.70000     -5.7201223E-08
   35.76000     -5.8010887E-08
   35.82000     -5.8926723E-08
   35.88000     -5.9988210E-08
   35.94000     -6.1196936E-08
   36.00000     -6.2517117E-08
   36.06000     -6.3885722E-08
   36.12000     -6.5228889E-08
   36.18000     -6.6480204E-08
   36.24000     -6.7596027E-08
   36.30000     -6.8564177E-08
   36.36000     -6.9404102E-08
   36.42000     -7.0158798E-08
   36.48000     -7.0880638E-08
   36.54000     -7.1614821E-08
   36.60000     -7.2384829E-08
   36.66000     -7.3183891E-08
   36.72000     -7.3975080E-08
   36.78000     -7.4700232E-08
   36.84000     -7.5295503E-08
   36.90000     -7.5708947E-08
   36.96000     -7.5915047E-08
   37.02000     -7.5921484E-08
   37.08000     -7.5766287E-08
   37.14000     -7.5506058E-08
   37.20000     -7.5199175E-08
   37.26000     -7.4889186E-08
   37.32000     -7.4593522E-08
   37.38000     -7.4300836E-08
   37.44000     -7.3977446E-08
   37.50000     -7.3580630E-08
   37.56000     -7.3074453E-08
   37.62000     -7.2443250E-08
   37.68000     -7.1698665E-08
   37.74000     -7.0878116E-08
   37.80000     -7.0035043E-08
   37.86000     -6.9223709E-08
   37.92000     -6.8482862E-08
   37.98000     -6.7823059E-08
   38.04000     -6.7221535E-08
   38.10000     -6.6626235E-08
   38.16000     -6.5968237E-08
   38.22000     -6.5179059E-08
   38.28000     -6.4208209E-08
   38.34000     -6.3035770E-08
   38.40000     -6.1676744E-08
   38.46000     -6.0175807E-08
   38.52000     -5.8594200E-08
   38.58000     -5.6992640E-08
   38.64000     -5.5414976E-08
   38.70000     -5.3877276E-08
   38.76000     -5.2365213E-08
   38.82000     -5.0840171E-08
   38.88000     -4.9252165E-08
   38.94000     -4.7555460E-08
   39.00000     -4.5722373E-08
   39.06000     -4.3751090E-08
   39.12000     -4.1665345E-08
   39.18000     -3.9506347E-08
   39.24000     -3.7319662E-08
   39.30000     -3.5141387E-08
   39.36000     -3.2988108E-08
   39.42000     -3.0853819E-08
   39.48000     -2.8714579E-08
   39.54000     -2.6539322E-08
   39.60000     -2.4302999E-08
   39.66000     -2.1997659E-08
   39.72000     -1.9637659E-08
   39.78000     -1.7257143E-08
   39.84000     -1.4900400E-08
   39.90000     -1.2608008E-08
   39.96000     -1.0403101E-08
   40.02000     -8.2822069E-09
   40.08000     -6.2138974E-09
   40.14000     -4.1462798E-09
   40.20000     -2.0217203E-09
   40.26000      2.0505596E-10
   40.32000      2.5506230E-09
   40.38000      4.9932258E-09
   40.44000      7.4731874E-09
   40.50000      9.9039301E-09
   40.56000      1.2191084E-08
   40.62000      1.4254577E-08
   40.68000      1.6047450E-08
   40.74000      1.7565792E-08
   40.80000      1.8846720E-08
   40.86000      1.9954866E-08
   40.92000      2.0961521E-08
   40.98000      2.1922856E-08
   41.04000      2.2863977E-08
   41.10000      2.3773543E-08
   41.16000      2.4609973E-08
   41.22000      2.5316357E-08
   41.28000      2.5838187E-08
   41.34000      2.6137418E-08
   41.40000      2.6198055E-08
   41.46000      2.6022040E-08
   41.52000      2.5618093E-08
   41.58000      2.4989017E-08
   41.64000      2.4123446E-08
   41.70000      2.2996186E-08
   41.76000      2.1577726E-08
   41.82000      1.9849614E-08
   41.88000      1.7819819E-08
   41.94000      1.5531818E-08
   42.00000      1.3063119E-08
   42.06000      1.0512605E-08
   42.12000      7.9799989E-09
   42.18000      5.5434954E-09
   42.24000      3.2424097E-09
   42.30000      1.0701855E-09
   42.36000     -1.0200134E-09
   42.42000     -3.0986387E-09
   42.48000     -5.2367226E-09
   42.54000     -7.4829618E-09
   42.60000     -9.8473558E-09
   42.66000     -1.2296056E-08
   42.72000     -1.4759029E-08
   42.78000     -1.7148636E-08
   42.84000     -1.9384101E-08
   42.90000     -2.1415026E-08
   42.96000     -2.3237053E-08
   43.02000     -2.4894863E-08
   43.08000     -2.6471275E-08
   43.14000     -2.8065523E-08
   43.20000     -2.9767270E-08
   43.26000     -3.1634706E-08
   43.32000     -3.3683961E-08
   43.38000     -3.5893688E-08
   43.44000     -3.8223792E-08
   43.50000     -4.0642508E-08
   43.56000     -4.3153360E-08
   43.62000     -4.5813554E-08
   43.68000     -4.8738233E-08
   43.74000     -5.2089938E-08
   43.80000     -5.6057345E-08
   43.86000     -6.0830708E-08
   43.92000     -6.6581997E-08
   43.98000     -7.3456064E-08
   44.04000     -8.1575550E-08
   44.10000     -9.1058489E-08
   44.16000     -1.0204452E-07
   44.22000     -1.1472397E-07
   44.28000     -1.2936388E-07
   44.34000     -1.4632603E-07
   44.40000     -1.6607380E-07
   44.46000     -1.8916771E-07
   44.52000     -2.1625183E-07
   44.58000     -2.4803725E-07
   44.64000     -2.8528981E-07
   44.70000     -3.2882943E-07
   44.76000     -3.7954624E-07
   44.82000     -4.3843301E-07
   44.88000     -5.0662840E-07
   44.94000     -5.8546226E-07
   45.00000     -6.7649228E-07
   45.06000     -7.8152522E-07
   45.12000     -9.0262120E-07
   45.18000     -1.0420866E-06
   45.24000     -1.2024647E-06
   45.30000     -1.3865346E-06
   45.36000     -1.5973282E-06
   45.42000     -1.8381651E-06
   45.48000     -2.1127039E-06
   45.54000     -2.4249980E-06
   45.60000     -2.7795495E-06
   45.66000     -3.1813493E-06
   45.72000     -3.6359040E-06
   45.78000     -4.1492435E-06
   45.84000     -4.7279250E-06
   45.90000     -5.3790318E-06
   45.96000     -6.1101787E-06
   46.02000     -6.9295243E-06
   46.08000     -7.8457961E-06
   46.14000     -8.8683155E-06
   46.20000     -1.0007036E-05
   46.26000     -1.1272567E-05
   46.32000     -1.2676188E-05
   46.38000     -1.4229849E-05
   46.44000     -1.5946165E-05
   46.50000     -1.7838376E-05
   46.56000     -1.9920304E-05
   46.62000     -2.2206299E-05
   46.68000     -2.4711182E-05
   46.74000     -2.7450173E-05
   46.80000     -3.0438847E-05
   46.86000     -3.3693064E-05
   46.92000     -3.7228918E-05
   46.98000     -4.1062656E-05
   47.04000     -4.5210600E-05
   47.10000     -4.9689035E-05
   47.16000     -5.4514087E-05
   47.22000     -5.9701568E-05
   47.28000     -6.5266831E-05
   47.34000     -7.1224604E-05
   47.40000     -7.7588782E-05
   47.46000     -8.4372288E-05
   47.52000     -9.1586895E-05
   47.58000     -9.9243072E-05
   47.64000     -1.0734984E-04
   47.70000     -1.1591461E-04
   47.76000     -1.2494308E-04
   47.82000     -1.3443897E-04
   47.88000     -1.4440401E-04
   47.94000     -1.5483767E-04
   48.00000     -1.6573707E-04
   48.06000     -1.7709688E-04
   48.12000     -1.8890915E-04
   48.18000     -2.0116326E-04
   48.24000     -2.1384587E-04
   48.30000     -2.2694087E-04
   48.36000     -2.4042939E-04
   48.42000     -2.5428977E-04
   48.48000     -2.6849762E-04
   48.54000     -2.8302599E-04
   48.60000     -2.9784531E-04
   48.66000     -3.1292369E-04
   48.72000     -3.2822698E-04
   48.78000     -3.4371894E-04
   48.84000     -3.5936176E-04
   48.90000     -3.7511598E-04
   48.96000     -3.9094090E-04
   49.02000     -4.0679495E-04
   49.08000     -4.2263602E-04
   49.14000     -4.3842164E-04
   49.20000     -4.5410951E-04
   49.26000     -4.6965762E-04
   49.32000     -4.8502488E-04
   49.38000     -5.0017133E-04
   49.44000     -5.1505858E-04
   49.50000     -5.2965031E-04
   49.56000     -5.4391252E-04
   49.62000     -5.5781408E-04
   49.68000     -5.7132676E-04
   49.74000     -5.8442552E-04
   49.80000     -5.9708912E-04
   49.86000     -6.0929975E-04
   49.92000     -6.2104379E-04
   49.98000     -6.3231174E-04
   50.04000     -6.4309832E-04
   50.10000     -6.5340259E-04
   50.16000     -6.6322781E-04
   50.22000     -6.7258155E-04
   50.28000     -6.8147521E-04
   50.34000     -6.8992435E-04
   50.40000     -6.9794792E-04
   50.46000     -7.0556853E-04
   50.52000     -7.1281195E-04
   50.58000     -7.1970664E-04
   50.64000     -7.2628359E-04
   50.70000     -7.3257572E-04
   50.76000     -7.3861721E-04
   50.82000     -7.4444356E-04
   50.88000     -7.5009069E-04
   50.94000     -7.5559452E-04
   51.00000     -7.6099060E-04
   51.06000     -7.6631363E-04
   51.12000     -7.7159674E-04
   51.18000     -7.7687122E-04
   51.24000     -7.8216573E-04
   51.30000     -7.8750611E-04
   51.36000     -7.9291494E-04
   51.42000     -7.9841120E-04
   51.48000     -8.0400985E-04
   51.54000     -8.0972200E-04
   51.60000     -8.1555441E-04
   51.66000     -8.2150940E-04
   51.72000     -8.2758500E-04
   51.78000     -8.3377468E-04
   51.84000     -8.4006734E-04
   51.90000     -8.4644766E-04
   51.96000     -8.5289613E-04
   52.02000     -8.5938972E-04
   52.08000     -8.6590176E-04
   52.14000     -8.7240280E-04
   52.20000     -8.7886065E-04
   52.26000     -8.8524079E-04
   52.32000     -8.9150679E-04
   52.38000     -8.9762098E-04
   52.44000     -9.0354466E-04
   52.50000     -9.0923923E-04
   52.56000     -9.1466651E-04
   52.62000     -9.1978919E-04
   52.68000     -9.2457159E-04
   52.74000     -9.2897995E-04
   52.80000     -9.3298289E-04
   52.86000     -9.3655149E-04
   52.92000     -9.3966018E-04
   52.98000     -9.4228715E-04
   53.04000     -9.4441423E-04
   53.10000     -9.4602793E-04
   53.16000     -9.4711926E-04
   53.22000     -9.4768353E-04
   53.28000     -9.4772078E-04
   53.34000     -9.4723538E-04
   53.40000     -9.4623608E-04
   53.46000     -9.4473577E-04
   53.52000     -9.4275142E-04
   53.58000     -9.4030390E-04
   53.64000     -9.3741756E-04
   53.70000     -9.3412009E-04
   53.76000     -9.3044189E-04
   53.82000     -9.2641561E-04
   53.88000     -9.2207571E-04
   53.94000     -9.1745798E-04
   54.00000     -9.1259886E-04
   54.06000     -9.0753514E-04
   54.12000     -9.0230332E-04
   54.18000     -8.9693913E-04
   54.24000     -8.9147704E-04
   54.30000     -8.8595005E-04
   54.36000     -8.8038901E-04
   54.42000     -8.7482232E-04
   54.48000     -8.6927559E-04
   54.54000     -8.6377125E-04
   54.60000     -8.5832854E-04
   54.66000     -8.5296301E-04
   54.72000     -8.4768643E-04
   54.78000     -8.4250688E-04
   54.84000     -8.3742861E-04
   54.90000     -8.3245215E-04
   54.96000     -8.2757452E-04
   55.02000     -8.2278927E-04
   55.08000     -8.1808690E-04
   55.14000     -8.1345474E-04
   55.20000     -8.0887764E-04
   55.26000     -8.0433820E-04
   55.32000     -7.9981692E-04
   55.38000     -7.9529296E-04
   55.44000     -7.9074438E-04
   55.50000     -7.8614854E-04
   55.56000     -7.8148267E-04