  -2.400000      0.0000000E+00
  -2.340000      0.0000000E+00
  -2.280000      0.0000000E+00
  -2.220000      0.0000000E+00
  -2.160000      0.0000000E+00
  -2.100000      0.0000000E+00
  -2.040000      0.0000000E+00
  -1.980000      0.0000000E+00
  -1.920000      0.0000000E+00
  -1.860000      1.2676595E-27
  -1.800000      1.5794339E-26
  -1.740000      9.3204125E-26
  -1.680000      3.2491679E-25
  -1.620000      6.0952575E-25
  -1.560000     -2.4912967E-25
  -1.500000     -6.1871548E-24
  -1.440000     -2.4350595E-23
  -1.380000     -5.8689061E-23
  -1.320000     -8.9073156E-23
  -1.260000     -3.7327850E-23
  -1.200000      2.4994958E-22
  -1.140000      9.3221195E-22
  -1.080000      1.9419331E-21
  -1.020000      2.6048091E-21
 -0.9600000      1.3656128E-21
 -0.9000000     -3.8492066E-21
 -0.8400000     -1.4075247E-20
 -0.7800000     -2.6612833E-20
 -0.7200000     -3.2595317E-20
 -0.6600000     -1.7707827E-20
 -0.6000000      3.0925957E-20
 -0.5400000      1.1149887E-19
 -0.4800000      1.9369485E-19
 -0.4200000      2.1632431E-19
 -0.3600000      1.0920022E-19
 -0.3000000     -1.5843854E-19
 -0.2400000     -5.2225356E-19
 -0.1800000     -8.0131069E-19
 -0.1200000     -7.5519522E-19
 -5.9999999E-02 -2.3040591E-19
  0.0000000E+00  6.6191065E-19
  5.9999999E-02  1.4639966E-18
  0.1200000      1.5224965E-18
  0.1800000      4.0974508E-19
  0.2400000     -1.5496561E-18
  0.3000000     -3.0174480E-18
  0.3600000     -2.0562008E-18
  0.4200000      2.6386036E-18
  0.4800000      1.0112692E-17
  0.5400000      1.6162689E-17
  0.6000000      1.4209261E-17
  0.6600000     -1.3534536E-18
  0.7200000     -3.0182375E-17
  0.7800000     -6.1971273E-17
  0.8400000     -7.6896821E-17
  0.9000000     -5.2991615E-17
  0.9600000      2.0423577E-17
   1.020000      1.2871490E-16
   1.080000      2.2621945E-16
   1.140000      2.4714722E-16
   1.200000      1.3516057E-16
   1.260000     -1.1698209E-16
   1.320000     -4.3683943E-16
   1.380000     -6.7367543E-16
   1.440000     -6.4652701E-16
   1.500000     -2.3308909E-16
   1.560000      5.3255767E-16
   1.620000      1.4042531E-15
   1.680000      1.9590962E-15
   1.740000      1.7431592E-15
   1.800000      4.9534074E-16
   1.860000     -1.6364893E-15
   1.920000     -4.0007492E-15
   1.980000     -5.5612698E-15
   2.040000     -5.2472679E-15
   2.100000     -2.4427659E-15
   2.160000      2.5729051E-15
   2.220000      8.4558198E-15
   2.280000      1.3058154E-14
   2.340000      1.4120767E-14
   2.400000      1.0200174E-14
   2.460000      1.4748608E-15
   2.520000     -9.9550554E-15
   2.580000     -2.0520127E-14
   2.640000     -2.6345411E-14
   2.700000     -2.4755453E-14
   2.760000     -1.5520669E-14
   2.820000     -1.2454869E-15
   2.880000      1.3422812E-14
   2.940000      2.3600555E-14
   3.000000      2.6319092E-14
   3.060000      2.2057588E-14
   3.120000      1.4798113E-14
   3.180000      1.0281364E-14
   3.240000      1.2951518E-14
   3.300000      2.2837841E-14
   3.360000      3.3960112E-14
   3.420000      3.5510945E-14
   3.480000      1.6061227E-14
   3.540000     -3.0340192E-14
   3.600000     -9.8511673E-14
   3.660000     -1.6973939E-13
   3.720000     -2.1479848E-13
   3.780000     -2.0280770E-13
   3.840000     -1.1393830E-13
   3.900000      4.8209175E-14
   3.960000      2.4983298E-13
   4.020000      4.3028721E-13
   4.080000      5.1732669E-13
   4.140000      4.5176154E-13
   4.200000      2.1457543E-13
   4.260000     -1.5345688E-13
   4.320000     -5.4960978E-13
   4.380000     -8.3054923E-13
   4.440000     -8.5581157E-13
   4.500000     -5.4304890E-13
   4.560000      8.2854208E-14
   4.620000      8.6734450E-13
   4.680000      1.5464508E-12
   4.740000      1.8138456E-12
   4.800000      1.4224042E-12
   4.860000      2.9214809E-13
   4.920000     -1.4125660E-12
   4.980000     -3.2712346E-12
   5.040000     -4.6800159E-12
   5.100000     -5.0034217E-12
   5.160000     -3.7718071E-12
   5.220000     -8.7096980E-13
   5.280000      3.3359400E-12
   5.340000      8.0020799E-12
   5.400000      1.1926274E-11
   5.460000      1.3802143E-11
   5.520000      1.2537047E-11
   5.580000      7.5687494E-12
   5.640000     -8.9645202E-13
   5.700000     -1.1785846E-11
   5.760000     -2.3235717E-11
   5.820000     -3.2838132E-11
   5.880000     -3.8024285E-11
   5.940000     -3.6525217E-11
   6.000000     -2.6838290E-11
   6.060000     -8.6274052E-12
   6.120000      1.7005253E-11
   6.180000      4.7421376E-11
   6.240000      7.8547245E-11
   6.300000      1.0517660E-10
   6.360000      1.2146061E-10
   6.420000      1.2155693E-10
   6.480000      1.0040236E-10
   6.540000      5.4569023E-11
   6.600000     -1.6840349E-11
   6.660000     -1.1131578E-10
   6.720000     -2.2216078E-10
   6.780000     -3.3791722E-10
   6.840000     -4.4212328E-10
   6.900000     -5.1353671E-10
   6.960000     -5.2692606E-10
   7.020000     -4.5446774E-10
   7.080000     -2.6769548E-10
   7.140000      6.0148560E-11
   7.200000      5.5158644E-10
   7.260000      1.2224655E-09
   7.320000      2.0798658E-09
   7.380000      3.1205725E-09
   7.440000      4.3302664E-09
   7.500000      5.6835292E-09
   7.560000      7.1446986E-09
   7.620000      8.6695424E-09
   7.680000      1.0207660E-08
   7.740000      1.1705432E-08
   7.800000      1.3109263E-08
   7.860000      1.4368810E-08
   7.920000      1.5439896E-08
   7.980000      1.6286814E-08
   8.040000      1.6883890E-08
   8.100000      1.7216243E-08
   8.160000      1.7279772E-08
   8.220000      1.7080490E-08
   8.280000      1.6633230E-08
   8.340000      1.5959857E-08
   8.400000      1.5087002E-08
   8.460000      1.4043428E-08
   8.520000      1.2857294E-08
   8.580000      1.1553593E-08
   8.640000      1.0152201E-08
   8.700000      8.6669090E-09
   8.760000      7.1056534E-09
   8.820000      5.4719536E-09
   8.880000      3.7672558E-09
   8.940000      1.9936859E-09
   9.000000      1.5658896E-10
   9.060000     -1.7337064E-09
   9.120000     -3.6612817E-09
   9.180000     -5.6052900E-09
   9.240000     -7.5417059E-09
   9.300000     -9.4457668E-09
   9.360000     -1.1294570E-08
   9.420000     -1.3069313E-08
   9.480000     -1.4756776E-08
   9.540000     -1.6349851E-08
   9.600000     -1.7847134E-08
   9.660000     -1.9251814E-08
   9.720000     -2.0570210E-08
   9.780000     -2.1810337E-08
   9.840000     -2.2980768E-08
   9.900000     -2.4089974E-08
   9.960000     -2.5146100E-08
   10.02000     -2.6156965E-08
   10.08000     -2.7130060E-08
   10.14000     -2.8072314E-08
   10.20000     -2.8989428E-08
   10.26000     -2.9884848E-08
   10.32000     -3.0758507E-08
   10.38000     -3.1605627E-08
   10.44000     -3.2415873E-08
   10.50000     -3.3173109E-08
   10.56000     -3.3855887E-08
   10.62000     -3.4438596E-08
   10.68000     -3.4893205E-08
   10.74000     -3.5191309E-08
   10.80000     -3.5306361E-08
   10.86000     -3.5215891E-08
   10.92000     -3.4903596E-08
   10.98000     -3.4361239E-08
   11.04000     -3.3590105E-08
   11.10000     -3.2601850E-08
   11.16000     -3.1418342E-08
   11.22000     -3.0070289E-08
   11.28000     -2.8594521E-08
   11.34000     -2.7030152E-08
   11.40000     -2.5414142E-08
   11.46000     -2.3777087E-08
   11.52000     -2.2140171E-08
   11.58000     -2.0513998E-08
   11.64000     -1.8899730E-08
   11.70000     -1.7292361E-08
   11.76000     -1.5685377E-08
   11.82000     -1.4075661E-08
   11.88000     -1.2467363E-08
   11.94000     -1.0873588E-08
   12.00000     -9.3152774E-09
   12.06000     -7.8173876E-09
   12.12000     -6.4031731E-09
   12.18000     -5.0880451E-09
   12.24000     -3.8747063E-09
   12.30000     -2.7511236E-09
   12.36000     -1.6922536E-09
   12.42000     -6.6547112E-10
   12.48000      3.6140965E-10
   12.54000      1.4115163E-09
   12.60000      2.4920774E-09
   12.66000      3.5914731E-09
   12.72000      4.6813797E-09
   12.78000      5.7238605E-09
   12.84000      6.6818338E-09
   12.90000      7.5302928E-09
   12.96000      8.2652587E-09
   13.02000      8.9079437E-09
   13.08000      9.5027683E-09
   13.14000      1.0109534E-08
   13.20000      1.0791578E-08
   13.26000      1.1602810E-08
   13.32000      1.2576747E-08
   13.38000      1.3720098E-08
   13.44000      1.5012109E-08
   13.50000      1.6409379E-08
   13.56000      1.7854470E-08
   13.62000      1.9285897E-08
   13.68000      2.0647015E-08
   13.74000      2.1892019E-08
   13.80000      2.2988431E-08
   13.86000      2.3916485E-08
   13.92000      2.4666715E-08
   13.98000      2.5237339E-08
   14.04000      2.5632605E-08
   14.10000      2.5862667E-08
   14.16000      2.5944569E-08
   14.22000      2.5903356E-08
   14.28000      2.5771941E-08
   14.34000      2.5588676E-08
   14.40000      2.5392195E-08
   14.46000      2.5214122E-08
   14.52000      2.5071181E-08
   14.58000      2.4958865E-08
   14.64000      2.4849038E-08
   14.70000      2.4693041E-08
   14.76000      2.4430664E-08
   14.82000      2.4003651E-08
   14.88000      2.3370680E-08
   14.94000      2.2519957E-08
   15.00000      2.1475625E-08
   15.06000      2.0295564E-08
   15.12000      1.9060490E-08
   15.18000      1.7856689E-08
   15.24000      1.6756696E-08
   15.30000      1.5802931E-08
   15.36000      1.4998497E-08
   15.42000      1.4307306E-08
   15.48000      1.3663151E-08
   15.54000      1.2984980E-08
   15.60000      1.2194284E-08
   15.66000      1.1230389E-08
   15.72000      1.0060441E-08
   15.78000      8.6826200E-09
   15.84000      7.1229271E-09
   15.90000      5.4274114E-09
   15.96000      3.6524612E-09
   16.02000      1.8558728E-09
   16.08000      9.0791680E-11
   16.14000     -1.5964557E-09
   16.20000     -3.1648713E-09
   16.26000     -4.5750230E-09
   16.32000     -5.7851115E-09
   16.38000     -6.7490000E-09
   16.44000     -7.4176434E-09
   16.50000     -7.7440534E-09
   16.56000     -7.6904429E-09
   16.62000     -7.2350894E-09
   16.68000     -6.3761534E-09
   16.74000     -5.1304561E-09
   16.80000     -3.5268803E-09
   16.86000     -1.5960226E-09
   16.92000      6.4069283E-10
   16.98000      3.1786633E-09
   17.04000      6.0315251E-09
   17.10000      9.2252153E-09
   17.16000      1.2785937E-08
   17.22000      1.6725366E-08
   17.28000      2.1027478E-08
   17.34000      2.5641013E-08
   17.40000      3.0479988E-08
   17.46000      3.5432304E-08
   17.52000      4.0374090E-08
   17.58000      4.5186002E-08
   17.64000      4.9767170E-08
   17.70000      5.4043682E-08
   17.76000      5.7970141E-08
   17.82000      6.1525185E-08
   17.88000      6.4703499E-08
   17.94000      6.7507571E-08
   18.00000      6.9942040E-08
   18.06000      7.2012078E-08
   18.12000      7.3725509E-08
   18.18000      7.5096985E-08
   18.24000      7.6151544E-08
   18.30000      7.6925652E-08
   18.36000      7.7464506E-08
   18.42000      7.7816068E-08
   18.48000      7.8023433E-08
   18.54000      7.8117537E-08
   18.60000      7.8112365E-08
   18.66000      7.8003580E-08
   18.72000      7.7770970E-08
   18.78000      7.7383831E-08
   18.84000      7.6807943E-08
   18.90000      7.6012640E-08
   18.96000      7.4976491E-08
   19.02000      7.3690614E-08
   19.08000      7.2158983E-08
   19.14000      7.0395998E-08
   19.20000      6.8422004E-08
   19.26000      6.6258288E-08
   19.32000      6.3922840E-08
   19.38000      6.1428473E-08
   19.44000      5.8783737E-08
   19.50000      5.5996324E-08
   19.56000      5.3077692E-08
   19.62000      5.0046985E-08
   19.68000      4.6932517E-08
   19.74000      4.3769951E-08
   19.80000      4.0597474E-08
   19.86000      3.7449436E-08
   19.92000      3.4350869E-08
   19.98000      3.1314844E-08
   20.04000      2.8343834E-08
   20.10000      2.5434614E-08
   20.16000      2.2584773E-08
   20.22000      1.9798184E-08
   20.28000      1.7087020E-08
   20.34000      1.4469296E-08
   20.40000      1.1962761E-08
   20.46000      9.5774757E-09
   20.52000      7.3101178E-09
   20.58000      5.1423195E-09
   20.64000      3.0437364E-09
   20.70000      9.7854402E-10
   20.76000     -1.0873177E-09
   20.82000     -3.1809928E-09
   20.88000     -5.3214508E-09
   20.94000     -7.5220505E-09
   21.00000     -9.7951460E-09
   21.06000     -1.2156072E-08
   21.12000     -1.4624176E-08
   21.18000     -1.7219985E-08
   21.24000     -1.9959289E-08
   21.30000     -2.2846333E-08
   21.36000     -2.5868792E-08
   21.42000     -2.8996597E-08
   21.48000     -3.2185422E-08
   21.54000     -3.5384090E-08
   21.60000     -3.8543920E-08
   21.66000     -4.1627437E-08
   21.72000     -4.4613991E-08
   21.78000     -4.7500674E-08
   21.84000     -5.0298112E-08
   21.90000     -5.3022298E-08
   21.96000     -5.5684524E-08
   22.02000     -5.8282556E-08
   22.08000     -6.0795671E-08
   22.14000     -6.3185539E-08
   22.20000     -6.5403043E-08
   22.26000     -6.7399313E-08
   22.32000     -6.9138039E-08
   22.38000     -7.0605289E-08
   22.44000     -7.1813993E-08
   22.50000     -7.2801626E-08
   22.56000     -7.3621884E-08
   22.62000     -7.4332682E-08
   22.68000     -7.4983987E-08
   22.74000     -7.5608781E-08
   22.80000     -7.6219067E-08
   22.86000     -7.6807488E-08
   22.92000     -7.7353057E-08
   22.98000     -7.7828680E-08
   23.04000     -7.8207847E-08
   23.10000     -7.8468581E-08
   23.16000     -7.8594013E-08
   23.22000     -7.8570459E-08
   23.28000     -7.8384495E-08
   23.34000     -7.8021159E-08
   23.40000     -7.7464470E-08
   23.46000     -7.6700580E-08
   23.52000     -7.5722596E-08
   23.58000     -7.4535599E-08
   23.64000     -7.3160074E-08
   23.70000     -7.1632705E-08
   23.76000     -7.0004077E-08
   23.82000     -6.8333648E-08
   23.88000     -6.6683086E-08
   23.94000     -6.5108843E-08
   24.00000     -6.3655392E-08
   24.06000     -6.2349962E-08
   24.12000     -6.1199984E-08
   24.18000     -6.0193727E-08
   24.24000     -5.9304153E-08
   24.30000     -5.8495477E-08
   24.36000     -5.7730713E-08
   24.42000     -5.6978493E-08
   24.48000     -5.6217523E-08
   24.54000     -5.5437802E-08
   24.60000     -5.4639081E-08
   24.66000     -5.3827762E-08
   24.72000     -5.3013839E-08
   24.78000     -5.2209050E-08
   24.84000     -5.1426536E-08
   24.90000     -5.0681301E-08
   24.96000     -4.9990454E-08
   25.02000     -4.9372336E-08
   25.08000     -4.8844267E-08
   25.14000     -4.8419572E-08
   25.20000     -4.8104855E-08
   25.26000     -4.7898631E-08
   25.32000     -4.7791811E-08
   25.38000     -4.7769948E-08
   25.44000     -4.7816616E-08
   25.50000     -4.7917005E-08
   25.56000     -4.8060912E-08
   25.62000     -4.8244651E-08
   25.68000     -4.8471556E-08
   25.74000     -4.8751023E-08
   25.80000     -4.9096279E-08
   25.86000     -4.9521059E-08
   25.92000     -5.0035744E-08
   25.98000     -5.0643717E-08
   26.04000     -5.1338795E-08
   26.10000     -5.2104575E-08
   26.16000     -5.2916018E-08
   26.22000     -5.3743062E-08
   26.28000     -5.4555340E-08
   26.34000     -5.5326751E-08
   26.40000     -5.6038562E-08
   26.46000     -5.6680225E-08
   26.52000     -5.7247814E-08
   26.58000     -5.7740937E-08
   26.64000     -5.8159301E-08
   26.70000     -5.8500461E-08
   26.76000     -5.8759618E-08
   26.82000     -5.8931622E-08
   26.88000     -5.9014237E-08
   26.94000     -5.9011047E-08
   27.00000     -5.8932244E-08
   27.06000     -5.8792185E-08
   27.12000     -5.8603725E-08
   27.18000     -5.8370880E-08
   27.24000     -5.8082293E-08
   27.30000     -5.7708267E-08
   27.36000     -5.7203192E-08
   27.42000     -5.6513592E-08
   27.48000     -5.5589894E-08
   27.54000     -5.4398594E-08
   27.60000     -5.2931039E-08
   27.66000     -5.1205824E-08
   27.72000     -4.9263875E-08
   27.78000     -4.7157435E-08
   27.84000     -4.4936225E-08
   27.90000     -4.2634849E-08
   27.96000     -4.0265075E-08
   28.02000     -3.7815088E-08
   28.08000     -3.5255720E-08
   28.14000     -3.2551583E-08
   28.20000     -2.9673936E-08
   28.26000     -2.6611733E-08
   28.32000     -2.3378252E-08
   28.38000     -2.0011912E-08
   28.44000     -1.6571727E-08
   28.50000     -1.3129006E-08
   28.56000     -9.7576054E-09
   28.62000     -6.5250658E-09
   28.68000     -3.4863046E-09
   28.74000     -6.8062028E-10
   28.80000      1.8681570E-09
   28.86000      4.1492383E-09
   28.92000      6.1613488E-09
   28.98000      7.9092208E-09
   29.04000      9.4008978E-09
   29.10000      1.0646176E-08
   29.16000      1.1656081E-08
   29.22000      1.2442991E-08
   29.28000      1.3020959E-08
   29.34000      1.3405887E-08
   29.40000      1.3615455E-08
   29.46000      1.3668924E-08
   29.52000      1.3587043E-08
   29.58000      1.3392184E-08
   29.64000      1.3108669E-08
   29.70000      1.2762950E-08
   29.76000      1.2383287E-08
   29.82000      1.1998576E-08
   29.88000      1.1636321E-08
   29.94000      1.1320084E-08
   30.00000      1.1067010E-08
   30.06000      1.0886112E-08
   30.12000      1.0777807E-08
   30.18000      1.0734874E-08
   30.24000      1.0744650E-08
   30.30000      1.0791934E-08
   30.36000      1.0861973E-08
   30.42000      1.0942823E-08
   30.48000      1.1026571E-08
   30.54000      1.1109196E-08
   30.60000      1.1189255E-08
   30.66000      1.1266023E-08
   30.72000      1.1338033E-08
   30.78000      1.1402939E-08
   30.84000      1.1459116E-08
   30.90000      1.1508603E-08
   30.96000      1.1560100E-08
   31.02000      1.1630261E-08
   31.08000      1.1741843E-08
   31.14000      1.1918400E-08
   31.20000      1.2176742E-08
   31.26000      1.2519615E-08
   31.32000      1.2931388E-08
   31.38000      1.3378580E-08
   31.44000      1.3815241E-08
   31.50000      1.4191230E-08
   31.56000      1.4460323E-08
   31.62000      1.4585311E-08
   31.68000      1.4538815E-08
   31.74000      1.4300562E-08
   31.80000      1.3853543E-08
   31.86000      1.3181779E-08
   31.92000      1.2271353E-08
   31.98000      1.1114483E-08
   32.04000      9.7146167E-09
   32.10000      8.0898221E-09
   32.16000      6.2724177E-09
   32.22000      4.3045749E-09
   32.28000      2.2315432E-09
   32.34000      9.5353392E-11
   32.40000     -2.0683502E-09
   32.46000     -4.2291797E-09
   32.52000     -6.3575594E-09
   32.58000     -8.4197262E-09
   32.64000     -1.0375552E-08
   32.70000     -1.2181619E-08
   32.76000     -1.3799843E-08
   32.82000     -1.5209309E-08
   32.88000     -1.6417120E-08
   32.94000     -1.7463579E-08
   33.00000     -1.8418431E-08
   33.06000     -1.9367734E-08
   33.12000     -2.0394285E-08
   33.18000     -2.1557156E-08
   33.24000     -2.2876680E-08
   33.30000     -2.4329891E-08
   33.36000     -2.5858000E-08
   33.42000     -2.7383491E-08
   33.48000     -2.8831154E-08
   33.54000     -3.0146030E-08
   33.60000     -3.1302662E-08
   33.66000     -3.2303451E-08
   33.72000     -3.3168028E-08
   33.78000     -3.3918798E-08
   33.84000     -3.4568686E-08
   33.90000     -3.5115601E-08
   33.96000     -3.5544751E-08
   34.02000     -3.5836546E-08
   34.08000     -3.5975631E-08
   34.14000     -3.5956742E-08
   34.20000     -3.5785266E-08
   34.26000     -3.5473271E-08
   34.32000     -3.5033999E-08
   34.38000     -3.4478369E-08
   34.44000     -3.3815525E-08
   34.50000     -3.3056970E-08
   34.56000     -3.2221813E-08
   34.62000     -3.1339844E-08
   34.68000     -3.0450387E-08
   34.74000     -2.9597118E-08
   34.80000     -2.8821335E-08
   34.86000     -2.8156913E-08
   34.92000     -2.7629303E-08
   34.98000     -2.7258579E-08
   35.04000     -2.7064148E-08
   35.10000     -2.7067466E-08
   35.16000     -2.7289891E-08
   35.22000     -2.7745207E-08
   35.28000     -2.8429415E-08
   35.34000     -2.9312378E-08
   35.40000     -3.0336011E-08
   35.46000     -3.1421475E-08
   35.52000     -3.2484277E-08
   35.58000     -3.3452771E-08
   35.64000     -3.4283971E-08
   35.70000     -3.4971116E-08
   35.76000     -3.5540427E-08
   35.82000     -3.6038397E-08
   35.88000     -3.6514066E-08
   35.94000     -3.7002394E-08
   36.00000     -3.7514020E-08
   36.06000     -3.8034159E-08
   36.12000     -3.8529993E-08
   36.18000     -3.8963421E-08
   36.24000     -3.9304378E-08
   36.30000     -3.9540538E-08
   36.36000     -3.9680760E-08
   36.42000     -3.9752081E-08
   36.48000     -3.9791960E-08
   36.54000     -3.9838920E-08
   36.60000     -3.9924579E-08
   36.66000     -4.0069384E-08
   36.72000     -4.0282597E-08
   36.78000     -4.0565624E-08
   36.84000     -4.0916706E-08
   36.90000     -4.1334562E-08
   36.96000     -4.1819440E-08
   37.02000     -4.2371045E-08
   37.08000     -4.2984418E-08
   37.14000     -4.3645578E-08
   37.20000     -4.4329227E-08
   37.26000     -4.4999886E-08
   37.32000     -4.5616957E-08
   37.38000     -4.6142461E-08
   37.44000     -4.6549566E-08
   37.50000     -4.6829342E-08
   37.56000     -4.6993705E-08
   37.62000     -4.7073431E-08
   37.68000     -4.7111367E-08
   37.74000     -4.7152191E-08
   37.80000     -4.7231008E-08
   37.86000     -4.7363454E-08
   37.92000     -4.7539888E-08
   37.98000     -4.7725322E-08
   38.04000     -4.7865669E-08
   38.10000     -4.7899274E-08
   38.16000     -4.7771376E-08
   38.22000     -4.7448172E-08
   38.28000     -4.6926935E-08
   38.34000     -4.6239293E-08
   38.40000     -4.5446246E-08
   38.46000     -4.4625519E-08
   38.52000     -4.3854026E-08
   38.58000     -4.3189722E-08
   38.64000     -4.2657742E-08
   38.70000     -4.2244899E-08
   38.76000     -4.1904276E-08
   38.82000     -4.1568732E-08
   38.88000     -4.1169105E-08
   38.94000     -4.0651180E-08
   39.00000     -3.9985867E-08
   39.06000     -3.9169290E-08
   39.12000     -3.8213191E-08
   39.18000     -3.7129933E-08
   39.24000     -3.5918408E-08
   39.30000     -3.4556930E-08
   39.36000     -3.3006433E-08
   39.42000     -3.1223056E-08
   39.48000     -2.9175451E-08
   39.54000     -2.6860034E-08
   39.60000     -2.4308418E-08
   39.66000     -2.1584256E-08
   39.72000     -1.8770901E-08
   39.78000     -1.5954697E-08
   39.84000     -1.3209893E-08
   39.90000     -1.0589979E-08
   39.96000     -8.1271736E-09
   40.02000     -5.8384040E-09
   40.08000     -3.7338186E-09
   40.14000     -1.8235027E-09
   40.20000     -1.1957700E-10
   40.26000      1.3665952E-09
   40.32000      2.6300340E-09
   40.38000      3.6773911E-09
   40.44000      4.5290234E-09
   40.50000      5.2167324E-09
   40.56000      5.7780172E-09
   40.62000      6.2491781E-09
   40.68000      6.6599335E-09
   40.74000      7.0313484E-09
   40.80000      7.3772770E-09
   40.86000      7.7079330E-09
   40.92000      8.0334015E-09
   40.98000      8.3651335E-09
   41.04000      8.7147205E-09
   41.10000      9.0907788E-09
   41.16000      9.4959542E-09
   41.22000      9.9261728E-09
   41.28000      1.0373297E-08
   41.34000      1.0830552E-08
   41.40000      1.1298490E-08
   41.46000      1.1788443E-08
   41.52000      1.2321064E-08
   41.58000      1.2919396E-08
   41.64000      1.3598303E-08
   41.70000      1.4353971E-08
   41.76000      1.5157759E-08
   41.82000      1.5957506E-08
   41.88000      1.6686876E-08
   41.94000      1.7280387E-08
   42.00000      1.7689356E-08
   42.06000      1.7893358E-08
   42.12000      1.7902968E-08
   42.18000      1.7752466E-08
   42.24000      1.7484687E-08
   42.30000      1.7133262E-08
   42.36000      1.6708670E-08
   42.42000      1.6193590E-08
   42.48000      1.5549952E-08
   42.54000      1.4735960E-08
   42.60000      1.3727743E-08
   42.66000      1.2538289E-08
   42.72000      1.1226989E-08
   42.78000      9.8961843E-09
   42.84000      8.6754515E-09
   42.90000      7.6986373E-09
   42.96000      7.0812161E-09
   43.02000      6.9055046E-09
   43.08000      7.2187527E-09
   43.14000      8.0448297E-09
   43.20000      9.4058121E-09
   43.26000      1.1346562E-08
   43.32000      1.3954604E-08
   43.38000      1.7369443E-08
   43.44000      2.1779277E-08
   43.50000      2.7407577E-08
   43.56000      3.4495741E-08
   43.62000      4.3289610E-08
   43.68000      5.4036647E-08
   43.74000      6.6997316E-08
   43.80000      8.2469889E-08
   43.86000      1.0082374E-07
   43.92000      1.2253400E-07
   43.98000      1.4821066E-07
   44.04000      1.7861728E-07
   44.10000      2.1467942E-07
   44.16000      2.5748594E-07
   44.22000      3.0829025E-07
   44.28000      3.6851813E-07
   44.34000      4.3978727E-07
   44.40000      5.2394040E-07
   44.46000      6.2308919E-07
   44.52000      7.3966464E-07
   44.58000      8.7646907E-07
   44.64000      1.0367261E-06
   44.70000      1.2241288E-06
   44.76000      1.4428886E-06
   44.82000      1.6977872E-06
   44.88000      1.9942365E-06
   44.94000      2.3383454E-06
   45.00000      2.7369963E-06
   45.06000      3.1979266E-06
   45.12000      3.7298157E-06
   45.18000      4.3423775E-06
   45.24000      5.0464555E-06
   45.30000      5.8541282E-06
   45.36000      6.7788142E-06
   45.42000      7.8353860E-06
   45.48000      9.0402846E-06
   45.54000      1.0411632E-05
   45.60000      1.1969341E-05
   45.66000      1.3735223E-05
   45.72000      1.5733081E-05
   45.78000      1.7988834E-05
   45.84000      2.0530593E-05
   45.90000      2.3388795E-05
   45.96000      2.6596286E-05
   46.02000      3.0188425E-05
   46.08000      3.4203156E-05
   46.14000      3.8681050E-05
   46.20000      4.3665354E-05
   46.26000      4.9201957E-05
   46.32000      5.5339384E-05
   46.38000      6.2128740E-05
   46.44000      6.9623638E-05
   46.50000      7.7880111E-05
   46.56000      8.6956512E-05
   46.62000      9.6913369E-05
   46.68000      1.0781316E-04
   46.74000      1.1972010E-04
   46.80000      1.3269982E-04
   46.86000      1.4681899E-04
   46.92000      1.6214495E-04
   46.98000      1.7874521E-04
   47.04000      1.9668696E-04
   47.10000      2.1603663E-04
   47.16000      2.3685921E-04
   47.22000      2.5921786E-04
   47.28000      2.8317311E-04
   47.34000      3.0878230E-04
   47.40000      3.3609878E-04
   47.46000      3.6517138E-04
   47.52000      3.9604335E-04
   47.58000      4.2875178E-04
   47.64000      4.6332678E-04
   47.70000      4.9979083E-04
   47.76000      5.3815782E-04
   47.82000      5.7843275E-04
   47.88000      6.2061072E-04
   47.94000      6.6467660E-04
   48.00000      7.1060430E-04
   48.06000      7.5835653E-04
   48.12000      8.0788403E-04
   48.18000      8.5912575E-04
   48.24000      9.1200822E-04
   48.30000      9.6644566E-04
   48.36000      1.0223400E-03
   48.42000      1.0795811E-03
   48.48000      1.1380471E-03
   48.54000      1.1976045E-03
   48.60000      1.2581092E-03
   48.66000      1.3194075E-03
   48.72000      1.3813361E-03
   48.78000      1.4437238E-03
   48.84000      1.5063920E-03
   48.90000      1.5691569E-03
   48.96000      1.6318298E-03
   49.02000      1.6942195E-03
   49.08000      1.7561332E-03
   49.14000      1.8173786E-03
   49.20000      1.8777649E-03
   49.26000      1.9371060E-03
   49.32000      1.9952205E-03
   49.38000      2.0519341E-03
   49.44000      2.1070822E-03
   49.50000      2.1605105E-03
   49.56000      2.2120771E-03
   49.62000      2.2616535E-03
   49.68000      2.3091261E-03
   49.74000      2.3543981E-03
   49.80000      2.3973905E-03
   49.86000      2.4380416E-03
   49.92000      2.4763097E-03
   49.98000      2.5121721E-03
   50.04000      2.5456261E-03
   50.10000      2.5766892E-03
   50.16000      2.6053980E-03
   50.22000      2.6318086E-03
   50.28000      2.6559955E-03
   50.34000      2.6780511E-03
   50.40000      2.6980848E-03
   50.46000      2.7162209E-03
   50.52000      2.7325968E-03
   50.58000      2.7473622E-03
   50.64000      2.7606771E-03
   50.70000      2.7727091E-03
   50.76000      2.7836326E-03
   50.82000      2.7936245E-03
   50.88000      2.8028646E-03
   50.94000      2.8115306E-03
   51.00000      2.8197977E-03
   51.06000      2.8278353E-03
   51.12000      2.8358048E-03
   51.18000      2.8438594E-03
   51.24000      2.8521395E-03
   51.30000      2.8607731E-03
   51.36000      2.8698728E-03
   51.42000      2.8795358E-03
   51.48000      2.8898413E-03
   51.54000      2.9008517E-03
   51.60000      2.9126089E-03
   51.66000      2.9251366E-03
   51.72000      2.9384389E-03
   51.78000      2.9525007E-03
   51.84000      2.9672890E-03
   51.90000      2.9827529E-03
   51.96000      2.9988256E-03
   52.02000      3.0154248E-03
   52.08000      3.0324538E-03
   52.14000      3.0498039E-03
   52.20000      3.0673561E-03
   52.26000      3.0849827E-03
   52.32000      3.1025503E-03
   52.38000      3.1199204E-03
   52.44000      3.1369543E-03
   52.50000      3.1535127E-03
   52.56000      3.1694602E-03
   52.62000      3.1846657E-03
   52.68000      3.1990046E-03
   52.74000      3.2123618E-03
   52.80000      3.2246327E-03
   52.86000      3.2357248E-03
   52.92000      3.2455591E-03
   52.98000      3.2540723E-03
   53.04000      3.2612162E-03
   53.10000      3.2669597E-03
   53.16000      3.2712889E-03
   53.22000      3.2742063E-03
   53.28000      3.2757316E-03
   53.34000      3.2759018E-03
   53.40000      3.2747686E-03
   53.46000      3.2723991E-03
   53.52000      3.2688745E-03
   53.58000      3.2642873E-03
   53.64000      3.2587415E-03
   53.70000      3.2523503E-03
   53.76000      3.2452336E-03
   53.82000      3.2375171E-03
   53.88000      3.2293289E-03
   53.94000      3.2207982E-03
   54.00000      3.2120531E-03
   54.06000      3.2032181E-03
   54.12000      3.1944127E-03
   54.18000      3.1857486E-03
   54.24000      3.1773283E-03
   54.30000      3.1692435E-03
   54.36000      3.1615726E-03
   54.42000      3.1543816E-03
   54.48000      3.1477208E-03
   54.54000      3.1416258E-03
   54.60000      3.1361145E-03
   54.66000      3.1311887E-03
   54.72000      3.1268322E-03
   54.78000      3.1230131E-03
   54.84000      3.1196815E-03
   54.90000      3.1167725E-03
   54.96000      3.1142063E-03
   55.02000      3.1118898E-03
   55.08000      3.1097173E-03
   55.14000      3.1075715E-03
   55.20000      3.1053261E-03
   55.26000      3.1028464E-03
   55.32000      3.0999919E-03
   55.38000      3.0966178E-03
   55.44000      3.0925779E-03
   55.50000      3.0877269E-03
   55.56000      3.0819208E-03