  -2.400000      0.0000000E+00
  -2.340000      0.0000000E+00
  -2.280000      0.0000000E+00
  -2.220000      0.0000000E+00
  -2.160000      0.0000000E+00
  -2.100000      0.0000000E+00
  -2.040000      0.0000000E+00
  -1.980000      0.0000000E+00
  -1.920000      0.0000000E+00
  -1.860000     -5.0122507E-29
  -1.800000     -1.6171023E-27
  -1.740000     -1.7664506E-26
  -1.680000     -1.0917065E-25
  -1.620000     -4.4680337E-25
  -1.560000     -1.2609945E-24
  -1.500000     -2.2528002E-24
  -1.440000     -9.2553816E-25
  -1.380000      9.6370033E-24
  -1.320000      3.9715701E-23
  -1.260000      9.0503494E-23
  -1.200000      1.2351737E-22
  -1.140000      2.3370282E-23
  -1.080000     -3.9510887E-22
  -1.020000     -1.2472628E-21
 -0.9600000     -2.2484225E-21
 -0.9000000     -2.3095824E-21
 -0.8400000      5.1023498E-22
 -0.7800000      8.0170652E-21
 -0.7200000      1.9432747E-20
 -0.6600000      2.8210901E-20
 -0.6000000      2.0757443E-20
 -0.5400000     -1.8873976E-20
 -0.4800000     -9.5508942E-20
 -0.4200000     -1.8362794E-19
 -0.3600000     -2.1490431E-19
 -0.3000000     -9.2489778E-20
 -0.2400000      2.5206496E-19
 -0.1800000      7.6681985E-19
 -0.1200000      1.1995876E-18
 -5.9999999E-02  1.1120971E-18
  0.0000000E+00  6.4324847E-20
  5.9999999E-02 -2.0311705E-18
  0.1200000     -4.5260068E-18
  0.1800000     -5.9051175E-18
  0.2400000     -4.2140514E-18
  0.3000000      1.8473964E-18
  0.3600000      1.1482671E-17
  0.4200000      2.0810529E-17
  0.4800000      2.3356240E-17
  0.5400000      1.2667451E-17
  0.6000000     -1.3378624E-17
  0.6600000     -4.8441358E-17
  0.7200000     -7.6606295E-17
  0.7800000     -7.6760131E-17
  0.8400000     -3.2676284E-17
  0.9000000      5.4514888E-17
  0.9600000      1.5798651E-16
   1.020000      2.2811773E-16
   1.080000      2.1018373E-16
   1.140000      7.3051662E-17
   1.200000     -1.6305548E-16
   1.260000     -4.1602849E-16
   1.320000     -5.6137177E-16
   1.380000     -4.8231522E-16
   1.440000     -1.3422610E-16
   1.500000      4.0647287E-16
   1.560000      9.4004447E-16
   1.620000      1.2038454E-15
   1.680000      9.8324167E-16
   1.740000      2.3129926E-16
   1.800000     -8.6020389E-16
   1.860000     -1.8862562E-15
   1.920000     -2.3625485E-15
   1.980000     -1.9300817E-15
   2.040000     -5.5055649E-16
   2.100000      1.4002650E-15
   2.160000      3.2064883E-15
   2.220000      4.0562464E-15
   2.280000      3.3837236E-15
   2.340000      1.1786297E-15
   2.400000     -1.8810103E-15
   2.460000     -4.5730093E-15
   2.520000     -5.5574149E-15
   2.580000     -3.9708011E-15
   2.640000      2.9393817E-17
   2.700000      5.0302038E-15
   2.760000      8.6421772E-15
   2.820000      8.3330271E-15
   2.880000      2.6182674E-15
   2.940000     -7.8237664E-15
   3.000000     -1.9665454E-14
   3.060000     -2.7527725E-14
   3.120000     -2.5765409E-14
   3.180000     -1.1011905E-14
   3.240000      1.5457289E-14
   3.300000      4.6712522E-14
   3.360000      7.1414954E-14
   3.420000      7.7434370E-14
   3.480000      5.6869209E-14
   3.540000      1.0563291E-14
   3.600000     -5.0069019E-14
   3.660000     -1.0541724E-13
   3.720000     -1.3419763E-13
   3.780000     -1.2216411E-13
   3.840000     -6.9600792E-14
   3.900000      6.0285986E-15
   3.960000      7.4540444E-14
   4.020000      1.0422166E-13
   4.080000      7.6346773E-14
   4.140000     -2.5825272E-15
   4.200000     -9.6796520E-14
   4.260000     -1.4930350E-13
   4.320000     -1.0188854E-13
   4.380000      7.7927411E-14
   4.440000      3.7201798E-13
   4.500000      6.9952833E-13
   4.560000      9.2619196E-13
   4.620000      8.9810971E-13
   4.680000      4.9475213E-13
   4.740000     -3.1259465E-13
   4.800000     -1.4165312E-12
   4.860000     -2.5632784E-12
   4.920000     -3.3896009E-12
   4.980000     -3.5071245E-12
   5.040000     -2.6183329E-12
   5.100000     -6.3470296E-13
   5.160000      2.2391184E-12
   5.220000      5.4871468E-12
   5.280000      8.3473783E-12
   5.340000      9.9567282E-12
   5.400000      9.5497811E-12
   5.460000      6.6694445E-12
   5.520000      1.3415344E-12
   5.580000     -5.8298401E-12
   5.640000     -1.3675878E-11
   5.700000     -2.0597475E-11
   5.760000     -2.4812968E-11
   5.820000     -2.4693039E-11
   5.880000     -1.9138507E-11
   5.940000     -7.9396663E-12
   6.000000      7.9575409E-12
   6.060000      2.6357925E-11
   6.120000      4.3964238E-11
   6.180000      5.6801001E-11
   6.240000      6.0897030E-11
   6.300000      5.3141620E-11
   6.360000      3.2164164E-11
   6.420000     -9.5589227E-13
   6.480000     -4.2345315E-11
   6.540000     -8.5509939E-11
   6.600000     -1.2208358E-10
   6.660000     -1.4309312E-10
   6.720000     -1.4056108E-10
   6.780000     -1.0917652E-10
   6.840000     -4.7729039E-11
   6.900000      3.9972147E-11
   6.960000      1.4488483E-10
   7.020000      2.5329072E-10
   7.080000      3.4804926E-10
   7.140000      4.1035786E-10
   7.200000      4.2175288E-10
   7.260000      3.6606626E-10
   7.320000      2.3108619E-10
   7.380000      9.7425271E-12
   7.440000     -2.9927330E-10
   7.500000     -6.9145811E-10
   7.560000     -1.1569564E-09
   7.620000     -1.6814298E-09
   7.680000     -2.2472206E-09
   7.740000     -2.8346916E-09
   7.800000     -3.4236198E-09
   7.860000     -3.9945172E-09
   7.920000     -4.5297428E-09
   7.980000     -5.0142672E-09
   8.040000     -5.4359743E-09
   8.100000     -5.7854432E-09
   8.160000     -6.0552461E-09
   8.220000     -6.2389329E-09
   8.280000     -6.3299694E-09
   8.340000     -6.3209908E-09
   8.400000     -6.2037135E-09
   8.460000     -5.9697332E-09
   8.520000     -5.6122209E-09
   8.580000     -5.1282516E-09
   8.640000     -4.5212203E-09
   8.700000     -3.8026351E-09
   8.760000     -2.9925795E-09
   8.820000     -2.1183677E-09
   8.880000     -1.2113466E-09
   8.940000     -3.0231928E-10
   9.000000      5.8344096E-10
   9.060000      1.4303726E-09
   9.120000      2.2348576E-09
   9.180000      3.0048017E-09
   9.240000      3.7565639E-09
   9.300000      4.5099950E-09
   9.360000      5.2829185E-09
   9.420000      6.0865779E-09
   9.480000      6.9232913E-09
   9.540000      7.7869000E-09
   9.600000      8.6657410E-09
   9.660000      9.5471364E-09
   9.720000      1.0421962E-08
   9.780000      1.1287876E-08
   9.840000      1.2150262E-08
   9.900000      1.3020617E-08
   9.960000      1.3912890E-08
   10.02000      1.4838867E-08
   10.08000      1.5803913E-08
   10.14000      1.6804325E-08
   10.20000      1.7827082E-08
   10.26000      1.8852081E-08
   10.32000      1.9856376E-08
   10.38000      2.0819250E-08
   10.44000      2.1726775E-08
   10.50000      2.2574516E-08
   10.56000      2.3367624E-08
   10.62000      2.4118194E-08
   10.68000      2.4840610E-08
   10.74000      2.5546287E-08
   10.80000      2.6239359E-08
   10.86000      2.6914682E-08
   10.92000      2.7558796E-08
   10.98000      2.8153529E-08
   11.04000      2.8681050E-08
   11.10000      2.9128673E-08
   11.16000      2.9491684E-08
   11.22000      2.9773096E-08
   11.28000      2.9980278E-08
   11.34000      3.0119395E-08
   11.40000      3.0189678E-08
   11.46000      3.0179596E-08
   11.52000      3.0066818E-08
   11.58000      2.9822740E-08
   11.64000      2.9420754E-08
   11.70000      2.8846282E-08
   11.76000      2.8105426E-08
   11.82000      2.7229259E-08
   11.88000      2.6271582E-08
   11.94000      2.5299844E-08
   12.00000      2.4380979E-08
   12.06000      2.3565715E-08
   12.12000      2.2875666E-08
   12.18000      2.2297201E-08
   12.24000      2.1784233E-08
   12.30000      2.1269777E-08
   12.36000      2.0683425E-08
   12.42000      1.9970244E-08
   12.48000      1.9105961E-08
   12.54000      1.8104284E-08
   12.60000      1.7014273E-08
   12.66000      1.5908393E-08
   12.72000      1.4864390E-08
   12.78000      1.3945735E-08
   12.84000      1.3185871E-08
   12.90000      1.2580364E-08
   12.96000      1.2089081E-08
   13.02000      1.1647782E-08
   13.08000      1.1186056E-08
   13.14000      1.0646690E-08
   13.20000      1.0001178E-08
   13.26000      9.2569712E-09
   13.32000      8.4543244E-09
   13.38000      7.6535258E-09
   13.44000      6.9160642E-09
   13.50000      6.2851941E-09
   13.56000      5.7716867E-09
   13.62000      5.3491442E-09
   13.68000      4.9605524E-09
   13.74000      4.5343977E-09
   13.80000      4.0058104E-09
   13.86000      3.3366130E-09
   13.92000      2.5283877E-09
   13.98000      1.6246272E-09
   14.04000      7.0115053E-10
   14.10000     -1.5271094E-10
   14.16000     -8.5705942E-10
   14.22000     -1.3622770E-09
   14.28000     -1.6621502E-09
   14.34000     -1.7958062E-09
   14.40000     -1.8380654E-09
   14.46000     -1.8809629E-09
   14.52000     -2.0115316E-09
   14.58000     -2.2918372E-09
   14.64000     -2.7464744E-09
   14.70000     -3.3604688E-09
   14.76000     -4.0874943E-09
   14.82000     -4.8653610E-09
   14.88000     -5.6337712E-09
   14.94000     -6.3489565E-09
   15.00000     -6.9910664E-09
   15.06000     -7.5626572E-09
   15.12000     -8.0795068E-09
   15.18000     -8.5573415E-09
   15.24000     -8.9992342E-09
   15.30000     -9.3880272E-09
   15.36000     -9.6864490E-09
   15.42000     -9.8451043E-09
   15.48000     -9.8160511E-09
   15.54000     -9.5679162E-09
   15.60000     -9.0980112E-09
   15.66000     -8.4377128E-09
   15.72000     -7.6493105E-09
   15.78000     -6.8150148E-09
   15.84000     -6.0210565E-09
   15.90000     -5.3412283E-09
   15.96000     -4.8243032E-09
   16.02000     -4.4885411E-09
   16.08000     -4.3243178E-09
   16.14000     -4.3035357E-09
   16.20000     -4.3925970E-09
   16.26000     -4.5649249E-09
   16.32000     -4.8094990E-09
   16.38000     -5.1333147E-09
   16.44000     -5.5576166E-09
   16.50000     -6.1095045E-09
   16.56000     -6.8116366E-09
   16.62000     -7.6729858E-09
   16.68000     -8.6830712E-09
   16.74000     -9.8109538E-09
   16.80000     -1.1008958E-08
   16.86000     -1.2219831E-08
   16.92000     -1.3385164E-08
   16.98000     -1.4452628E-08
   17.04000     -1.5379909E-08
   17.10000     -1.6134322E-08
   17.16000     -1.6688547E-08
   17.22000     -1.7014369E-08
   17.28000     -1.7077278E-08
   17.34000     -1.6834822E-08
   17.40000     -1.6240358E-08
   17.46000     -1.5252093E-08
   17.52000     -1.3845082E-08
   17.58000     -1.2022499E-08
   17.64000     -9.8222079E-09
   17.70000     -7.3158963E-09
   17.76000     -4.6002624E-09
   17.82000     -1.7822047E-09
   17.88000      1.0381385E-09
   17.94000      3.7820680E-09
   18.00000      6.4010570E-09
   18.06000      8.8777092E-09
   18.12000      1.1219374E-08
   18.18000      1.3446741E-08
   18.24000      1.5580877E-08
   18.30000      1.7632219E-08
   18.36000      1.9594255E-08
   18.42000      2.1443194E-08
   18.48000      2.3143357E-08
   18.54000      2.4656611E-08
   18.60000      2.5953115E-08
   18.66000      2.7020461E-08
   18.72000      2.7868634E-08
   18.78000      2.8529371E-08
   18.84000      2.9050032E-08
   18.90000      2.9483655E-08
   18.96000      2.9878009E-08
   19.02000      3.0266740E-08
   19.08000      3.0665053E-08
   19.14000      3.1070908E-08
   19.20000      3.1471000E-08
   19.26000      3.1849126E-08
   19.32000      3.2193984E-08
   19.38000      3.2503706E-08
   19.44000      3.2785767E-08
   19.50000      3.3052505E-08
   19.56000      3.3314180E-08
   19.62000      3.3572096E-08
   19.68000      3.3814249E-08
   19.74000      3.4014914E-08
   19.80000      3.4138168E-08
   19.86000      3.4144207E-08
   19.92000      3.3996564E-08
   19.98000      3.3668410E-08
   20.04000      3.3146744E-08
   20.10000      3.2433888E-08
   20.16000      3.1546534E-08
   20.22000      3.0512879E-08
   20.28000      2.9368566E-08
   20.34000      2.8152094E-08
   20.40000      2.6900365E-08
   20.46000      2.5644846E-08
   20.52000      2.4408777E-08
   20.58000      2.3205642E-08
   20.64000      2.2038865E-08
   20.70000      2.0902542E-08
   20.76000      1.9782826E-08
   20.82000      1.8659723E-08
   20.88000      1.7509141E-08
   20.94000      1.6305080E-08
   21.00000      1.5021875E-08
   21.06000      1.3636241E-08
   21.12000      1.2128753E-08
   21.18000      1.0484407E-08
   21.24000      8.6921892E-09
   21.30000      6.7439063E-09
   21.36000      4.6328861E-09
   21.42000      2.3532232E-09
   21.48000     -9.9995276E-11
   21.54000     -2.7295053E-09
   21.60000     -5.5341749E-09
   21.66000     -8.5074570E-09
   21.72000     -1.1636515E-08
   21.78000     -1.4902202E-08
   21.84000     -1.8279740E-08
   21.90000     -2.1739796E-08
   21.96000     -2.5249779E-08
   22.02000     -2.8775386E-08
   22.08000     -3.2282568E-08
   22.14000     -3.5739959E-08
   22.20000     -3.9121506E-08
   22.26000     -4.2408768E-08
   22.32000     -4.5592078E-08
   22.38000     -4.8670188E-08
   22.44000     -5.1648342E-08
   22.50000     -5.4535295E-08
   22.56000     -5.7339996E-08
   22.62000     -6.0068679E-08
   22.68000     -6.2722620E-08
   22.74000     -6.5296639E-08
   22.80000     -6.7778132E-08
   22.86000     -7.0146676E-08
   22.92000     -7.2374476E-08
   22.98000     -7.4427994E-08
   23.04000     -7.6270901E-08
   23.10000     -7.7868130E-08
   23.16000     -7.9190059E-08
   23.22000     -8.0215763E-08
   23.28000     -8.0934278E-08
   23.34000     -8.1343664E-08
   23.40000     -8.1448412E-08
   23.46000     -8.1256395E-08
   23.52000     -8.0776601E-08
   23.58000     -8.0018665E-08
   23.64000     -7.8994205E-08
   23.70000     -7.7719257E-08
   23.76000     -7.6216956E-08
   23.82000     -7.4519072E-08
   23.88000     -7.2666090E-08
   23.94000     -7.0705411E-08
   24.00000     -6.8688067E-08
   24.06000     -6.6664477E-08
   24.12000     -6.4679853E-08
   24.18000     -6.2769999E-08
   24.24000     -6.0958193E-08
   24.30000     -5.9253871E-08
   24.36000     -5.7653651E-08
   24.42000     -5.6144707E-08
   24.48000     -5.4709989E-08
   24.54000     -5.3334137E-08
   24.60000     -5.2008691E-08
   24.66000     -5.0735121E-08
   24.72000     -4.9525095E-08
   24.78000     -4.8397947E-08
   24.84000     -4.7376382E-08
   24.90000     -4.6481766E-08
   24.96000     -4.5730395E-08
   25.02000     -4.5131589E-08
   25.08000     -4.4687607E-08
   25.14000     -4.4394863E-08
   25.20000     -4.4245439E-08
   25.26000     -4.4228113E-08
   25.32000     -4.4328598E-08
   25.38000     -4.4529259E-08
   25.44000     -4.4808932E-08
   25.50000     -4.5143519E-08
   25.56000     -4.5507747E-08
   25.62000     -4.5877862E-08
   25.68000     -4.6234728E-08
   25.74000     -4.6566576E-08
   25.80000     -4.6870710E-08
   25.86000     -4.7153947E-08
   25.92000     -4.7431715E-08
   25.98000     -4.7725973E-08
   26.04000     -4.8062176E-08
   26.10000     -4.8465335E-08
   26.16000     -4.8955503E-08
   26.22000     -4.9543097E-08
   26.28000     -5.0224955E-08
   26.34000     -5.0982202E-08
   26.40000     -5.1780876E-08
   26.46000     -5.2575690E-08
   26.52000     -5.3316413E-08
   26.58000     -5.3955421E-08
   26.64000     -5.4454489E-08
   26.70000     -5.4788991E-08
   26.76000     -5.4948444E-08
   26.82000     -5.4933526E-08
   26.88000     -5.4750664E-08
   26.94000     -5.4406129E-08
   27.00000     -5.3901466E-08
   27.06000     -5.3231560E-08
   27.12000     -5.2385779E-08
   27.18000     -5.1351584E-08
   27.24000     -5.0119372E-08
   27.30000     -4.8687014E-08
   27.36000     -4.7062596E-08
   27.42000     -4.5264546E-08
   27.48000     -4.3318746E-08
   27.54000     -4.1253312E-08
   27.60000     -3.9092164E-08
   27.66000     -3.6849144E-08
   27.72000     -3.4524266E-08
   27.78000     -3.2103493E-08
   27.84000     -2.9562266E-08
   27.90000     -2.6872140E-08
   27.96000     -2.4008756E-08
   28.02000     -2.0958995E-08
   28.08000     -1.7725341E-08
   28.14000     -1.4326421E-08
   28.20000     -1.0793893E-08
   28.26000     -7.1670607E-09
   28.32000     -3.4871659E-09
   28.38000      2.0682053E-10
   28.44000      3.8798942E-09
   28.50000      7.5003248E-09
   28.56000      1.1037640E-08
   28.62000      1.4460822E-08
   28.68000      1.7738044E-08
   28.74000      2.0838568E-08
   28.80000      2.3736488E-08
   28.86000      2.6415190E-08
   28.92000      2.8870980E-08
   28.98000      3.1114453E-08
   29.04000      3.3168597E-08
   29.10000      3.5063636E-08
   29.16000      3.6829423E-08
   29.22000      3.8487102E-08
   29.28000      4.0042149E-08
   29.34000      4.1480860E-08
   29.40000      4.2771603E-08
   29.46000      4.3870944E-08
   29.52000      4.4733373E-08
   29.58000      4.5322231E-08
   29.64000      4.5618794E-08
   29.70000      4.5626926E-08
   29.76000      4.5371856E-08
   29.82000      4.4893344E-08
   29.88000      4.4235207E-08
   29.94000      4.3434401E-08
   30.00000      4.2512919E-08
   30.06000      4.1475094E-08
   30.12000      4.0310983E-08
   30.18000      3.9004831E-08
   30.24000      3.7545700E-08
   30.30000      3.5936900E-08
   30.36000      3.4200884E-08
   30.42000      3.2378011E-08
   30.48000      3.0519356E-08
   30.54000      2.8675815E-08
   30.60000      2.6887001E-08
   30.66000      2.5173540E-08
   30.72000      2.3535272E-08
   30.78000      2.1955991E-08
   30.84000      2.0413138E-08
   30.90000      1.8889251E-08
   30.96000      1.7381407E-08
   31.02000      1.5905544E-08
   31.08000      1.4494266E-08
   31.14000      1.3188769E-08
   31.20000      1.2027454E-08
   31.26000      1.1034712E-08
   31.32000      1.0213287E-08
   31.38000      9.5424166E-09
   31.44000      8.9822727E-09
   31.50000      8.4833234E-09
   31.56000      7.9979419E-09
   31.62000      7.4909678E-09
   31.68000      6.9463493E-09
   31.74000      6.3680994E-09
   31.80000      5.7754428E-09
   31.86000      5.1936735E-09
   31.92000      4.6434381E-09
   31.98000      4.1315809E-09
   32.04000      3.6461507E-09
   32.10000      3.1568581E-09
   32.16000      2.6205882E-09
   32.22000      1.9900908E-09
   32.28000      1.2231702E-09
   32.34000      2.8982014E-10
   32.40000     -8.2434415E-10
   32.46000     -2.1186848E-09
   32.52000     -3.5813104E-09
   32.58000     -5.1944289E-09
   32.64000     -6.9395747E-09
   32.70000     -8.8013312E-09
   32.76000     -1.0768766E-08
   32.82000     -1.2834374E-08
   32.88000     -1.4990887E-08
   32.94000     -1.7226832E-08
   33.00000     -1.9522181E-08
   33.06000     -2.1845649E-08
   33.12000     -2.4155048E-08
   33.18000     -2.6401365E-08
   33.24000     -2.8536061E-08
   33.30000     -3.0519686E-08
   33.36000     -3.2329179E-08
   33.42000     -3.3961200E-08
   33.48000     -3.5430006E-08
   33.54000     -3.6760412E-08
   33.60000     -3.7978051E-08
   33.66000     -3.9100343E-08
   33.72000     -4.0131393E-08
   33.78000     -4.1062464E-08
   33.84000     -4.1877598E-08
   33.90000     -4.2562071E-08
   33.96000     -4.3110362E-08
   34.02000     -4.3530800E-08
   34.08000     -4.3845407E-08
   34.14000     -4.4085411E-08
   34.20000     -4.4284253E-08
   34.26000     -4.4470632E-08
   34.32000     -4.4663707E-08
   34.38000     -4.4871520E-08
   34.44000     -4.5092648E-08
   34.50000     -4.5320217E-08
   34.56000     -4.5547054E-08
   34.62000     -4.5770740E-08
   34.68000     -4.5997552E-08
   34.74000     -4.6244324E-08
   34.80000     -4.6537366E-08
   34.86000     -4.6908134E-08
   34.92000     -4.7385800E-08
   34.98000     -4.7988323E-08
   35.04000     -4.8714373E-08
   35.10000     -4.9539040E-08
   35.16000     -5.0415640E-08
   35.22000     -5.1284097E-08
   35.28000     -5.2084182E-08
   35.34000     -5.2769824E-08
   35.40000     -5.3319994E-08
   35.46000     -5.3742625E-08
   35.52000     -5.4070313E-08
   35.58000     -5.4349563E-08
   35.64000     -5.4627549E-08
   35.70000     -5.4940987E-08
   35.76000     -5.5310696E-08
   35.82000     -5.5742845E-08
   35.88000     -5.6235343E-08
   35.94000     -5.6785947E-08
   36.00000     -5.7398452E-08
   36.06000     -5.8084545E-08
   36.12000     -5.8860870E-08
   36.18000     -5.9742852E-08
   36.24000     -6.0737847E-08
   36.30000     -6.1840005E-08
   36.36000     -6.3028452E-08
   36.42000     -6.4268868E-08
   36.48000     -6.5517604E-08
   36.54000     -6.6727033E-08
   36.60000     -6.7851040E-08
   36.66000     -6.8849623E-08
   36.72000     -6.9692383E-08
   36.78000     -7.0360578E-08
   36.84000     -7.0847349E-08
   36.90000     -7.1156229E-08
   36.96000     -7.1297961E-08
   37.02000     -7.1286394E-08
   37.08000     -7.1134700E-08
   37.14000     -7.0853119E-08
   37.20000     -7.0449040E-08
   37.26000     -6.9929420E-08
   37.32000     -6.9304328E-08
   37.38000     -6.8590126E-08
   37.44000     -6.7810824E-08
   37.50000     -6.6996918E-08
   37.56000     -6.6182217E-08
   37.62000     -6.5399732E-08
   37.68000     -6.4678083E-08
   37.74000     -6.4039071E-08
   37.80000     -6.3496337E-08
   37.86000     -6.3054536E-08
   37.92000     -6.2708452E-08
   37.98000     -6.2442076E-08
   38.04000     -6.2228558E-08
   38.10000     -6.2031894E-08
   38.16000     -6.1810994E-08
   38.22000     -6.1525625E-08
   38.28000     -6.1142522E-08
   38.34000     -6.0639714E-08
   38.40000     -6.0007743E-08
   38.46000     -5.9247760E-08
   38.52000     -5.8367814E-08
   38.58000     -5.7379523E-08
   38.64000     -5.6296720E-08
   38.70000     -5.5136201E-08
   38.76000     -5.3919432E-08
   38.82000     -5.2673080E-08
   38.88000     -5.1426898E-08
   38.94000     -5.0208762E-08
   39.00000     -4.9038508E-08
   39.06000     -4.7923081E-08
   39.12000     -4.6855178E-08
   39.18000     -4.5816339E-08
   39.24000     -4.4783270E-08
   39.30000     -4.3735106E-08
   39.36000     -4.2658904E-08
   39.42000     -4.1551722E-08
   39.48000     -4.0419025E-08
   39.54000     -3.9270716E-08
   39.60000     -3.8116600E-08
   39.66000     -3.6962923E-08
   39.72000     -3.5810707E-08
   39.78000     -3.4655699E-08
   39.84000     -3.3489279E-08
   39.90000     -3.2299589E-08
   39.96000     -3.1072641E-08
   40.02000     -2.9793558E-08
   40.08000     -2.8448358E-08
   40.14000     -2.7026571E-08
   40.20000     -2.5524498E-08
   40.26000     -2.3948415E-08
   40.32000     -2.2316666E-08
   40.38000     -2.0659519E-08
   40.44000     -1.9016191E-08
   40.50000     -1.7429102E-08
   40.56000     -1.5936497E-08
   40.62000     -1.4565223E-08
   40.68000     -1.3325621E-08
   40.74000     -1.2210016E-08
   40.80000     -1.1195106E-08
   40.86000     -1.0247359E-08
   40.92000     -9.3295993E-09
   40.98000     -8.4068503E-09
   41.04000     -7.4501543E-09
   41.10000     -6.4381789E-09
   41.16000     -5.3573905E-09
   41.22000     -4.2019135E-09
   41.28000     -2.9738600E-09
   41.34000     -1.6841453E-09
   41.40000     -3.5311232E-10
   41.46000      9.8990027E-10
   41.52000      2.3085338E-09
   41.58000      3.5627159E-09
   41.64000      4.7124997E-09
   41.70000      5.7214775E-09
   41.76000      6.5591204E-09
   41.82000      7.2019293E-09
   41.88000      7.6336812E-09
   41.94000      7.8451965E-09
   42.00000      7.8338633E-09
   42.06000      7.6029121E-09
   42.12000      7.1603794E-09
   42.18000      6.5177574E-09
   42.24000      5.6885434E-09
   42.30000      4.6870148E-09
   42.36000      3.5274448E-09
   42.42000      2.2237570E-09
   42.48000      7.8940787E-10
   42.54000     -7.6273332E-10
   42.60000     -2.4205613E-09
   42.66000     -4.1727928E-09
   42.72000     -6.0086447E-09
   42.78000     -7.9170333E-09
   42.84000     -9.8855706E-09
   42.90000     -1.1899932E-08
   42.96000     -1.3944264E-08
   43.02000     -1.6002987E-08
   43.08000     -1.8063760E-08
   43.14000     -2.0120906E-08
   43.20000     -2.2178249E-08
   43.26000     -2.4250555E-08
   43.32000     -2.6363271E-08
   43.38000     -2.8550859E-08
   43.44000     -3.0854522E-08
   43.50000     -3.3320166E-08
   43.56000     -3.5997257E-08
   43.62000     -3.8938730E-08
   43.68000     -4.2201801E-08
   43.74000     -4.5849379E-08
   43.80000     -4.9951915E-08
   43.86000     -5.4589947E-08
   43.92000     -5.9857634E-08
   43.98000     -6.5867638E-08
   44.04000     -7.2757203E-08
   44.10000     -8.0694434E-08
   44.16000     -8.9883535E-08
   44.22000     -1.0056748E-07
   44.28000     -1.1302749E-07
   44.34000     -1.2758034E-07
   44.40000     -1.4457552E-07
   44.46000     -1.6439584E-07
   44.52000     -1.8746395E-07
   44.58000     -2.1425627E-07
   44.64000     -2.4532312E-07
   44.70000     -2.8131163E-07
   44.76000     -3.2298681E-07
   44.82000     -3.7124698E-07
   44.88000     -4.2713179E-07
   44.94000     -4.9182404E-07
   45.00000     -5.6664834E-07
   45.06000     -6.5307188E-07
   45.12000     -7.5271100E-07
   45.18000     -8.6734553E-07
   45.24000     -9.9894191E-07
   45.30000     -1.1496827E-06
   45.36000     -1.3219986E-06
   45.42000     -1.5186007E-06
   45.48000     -1.7425087E-06
   45.54000     -1.9970742E-06
   45.60000     -2.2859977E-06
   45.66000     -2.6133407E-06
   45.72000     -2.9835364E-06
   45.78000     -3.4013976E-06
   45.84000     -3.8721314E-06
   45.90000     -4.4013555E-06
   45.96000     -4.9951163E-06
   46.02000     -5.6599160E-06
   46.08000     -6.4027245E-06
   46.14000     -7.2310027E-06
   46.20000     -8.1527050E-06
   46.26000     -9.1762868E-06
   46.32000     -1.0310691E-05
   46.38000     -1.1565348E-05
   46.44000     -1.2950145E-05
   46.50000     -1.4475418E-05
   46.56000     -1.6151918E-05
   46.62000     -1.7990786E-05
   46.68000     -2.0003508E-05
   46.74000     -2.2201873E-05
   46.80000     -2.4597926E-05
   46.86000     -2.7203900E-05
   46.92000     -3.0032150E-05
   46.98000     -3.3095072E-05
   47.04000     -3.6405021E-05
   47.10000     -3.9974209E-05
   47.16000     -4.3814587E-05
   47.22000     -4.7937760E-05
   47.28000     -5.2354855E-05
   47.34000     -5.7076406E-05
   47.40000     -6.2112231E-05
   47.46000     -6.7471308E-05
   47.52000     -7.3161646E-05
   47.58000     -7.9190169E-05
   47.64000     -8.5562540E-05
   47.70000     -9.2283059E-05
   47.76000     -9.9354540E-05
   47.82000     -1.0677815E-04
   47.88000     -1.1455331E-04
   47.94000     -1.2267759E-04
   48.00000     -1.3114659E-04
   48.06000     -1.3995386E-04
   48.12000     -1.4909085E-04
   48.18000     -1.5854690E-04
   48.24000     -1.6830917E-04
   48.30000     -1.7836261E-04
   48.36000     -1.8869001E-04
   48.42000     -1.9927206E-04
   48.48000     -2.1008730E-04
   48.54000     -2.2111222E-04
   48.60000     -2.3232150E-04
   48.66000     -2.4368803E-04
   48.72000     -2.5518305E-04
   48.78000     -2.6677639E-04
   48.84000     -2.7843667E-04
   48.90000     -2.9013146E-04
   48.96000     -3.0182759E-04
   49.02000     -3.1349136E-04
   49.08000     -3.2508885E-04
   49.14000     -3.3658615E-04
   49.20000     -3.4794974E-04
   49.26000     -3.5914668E-04
   49.32000     -3.7014516E-04
   49.38000     -3.8091454E-04
   49.44000     -3.9142580E-04
   49.50000     -4.0165181E-04
   49.56000     -4.1156763E-04
   49.62000     -4.2115079E-04
   49.68000     -4.3038157E-04
   49.74000     -4.3924316E-04
   49.80000     -4.4772172E-04
   49.86000     -4.5580676E-04
   49.92000     -4.6349122E-04
   49.98000     -4.7077137E-04
   50.04000     -4.7764709E-04
   50.10000     -4.8412191E-04
   50.16000     -4.9020268E-04
   50.22000     -4.9589970E-04
   50.28000     -5.0122640E-04
   50.34000     -5.0619955E-04
   50.40000     -5.1083852E-04
   50.46000     -5.1516562E-04
   50.52000     -5.1920553E-04
   50.58000     -5.2298512E-04
   50.64000     -5.2653294E-04
   50.70000     -5.2987901E-04
   50.76000     -5.3305412E-04
   50.82000     -5.3608970E-04
   50.88000     -5.3901738E-04
   50.94000     -5.4186833E-04
   51.00000     -5.4467324E-04
   51.06000     -5.4746162E-04
   51.12000     -5.5026152E-04
   51.18000     -5.5309897E-04
   51.24000     -5.5599777E-04
   51.30000     -5.5897929E-04
   51.36000     -5.6206179E-04
   51.42000     -5.6526030E-04
   51.48000     -5.6858663E-04
   51.54000     -5.7204900E-04
   51.60000     -5.7565200E-04
   51.66000     -5.7939655E-04
   51.72000     -5.8327953E-04
   51.78000     -5.8729434E-04
   51.84000     -5.9143058E-04
   51.90000     -5.9567433E-04
   51.96000     -6.0000829E-04
   52.02000     -6.0441246E-04
   52.08000     -6.0886360E-04
   52.14000     -6.1333610E-04
   52.20000     -6.1780238E-04
   52.26000     -6.2223279E-04
   52.32000     -6.2659645E-04
   52.38000     -6.3086173E-04
   52.44000     -6.3499634E-04
   52.50000     -6.3896808E-04
   52.56000     -6.4274541E-04
   52.62000     -6.4629741E-04
   52.68000     -6.4959464E-04
   52.74000     -6.5260951E-04
   52.80000     -6.5531628E-04
   52.86000     -6.5769162E-04
   52.92000     -6.5971509E-04
   52.98000     -6.6136918E-04
   53.04000     -6.6263974E-04
   53.10000     -6.6351629E-04
   53.16000     -6.6399202E-04
   53.22000     -6.6406390E-04
   53.28000     -6.6373264E-04
   53.34000     -6.6300243E-04
   53.40000     -6.6188077E-04
   53.46000     -6.6037860E-04
   53.52000     -6.5851025E-04
   53.58000     -6.5629306E-04
   53.64000     -6.5374741E-04
   53.70000     -6.5089623E-04
   53.76000     -6.4776448E-04
   53.82000     -6.4437877E-04
   53.88000     -6.4076687E-04
   53.94000     -6.3695735E-04
   54.00000     -6.3297909E-04
   54.06000     -6.2886137E-04
   54.12000     -6.2463275E-04
   54.18000     -6.2032125E-04
   54.24000     -6.1595388E-04
   54.30000     -6.1155576E-04
   54.36000     -6.0715032E-04
   54.42000     -6.0275872E-04
   54.48000     -5.9839967E-04
   54.54000     -5.9408910E-04
   54.60000     -5.8984023E-04
   54.66000     -5.8566302E-04
   54.72000     -5.8156421E-04
   54.78000     -5.7754735E-04
   54.84000     -5.7361287E-04
   54.90000     -5.6975818E-04
   54.96000     -5.6597777E-04
   55.02000     -5.6226313E-04
   55.08000     -5.5860321E-04
   55.14000     -5.5498414E-04
   55.20000     -5.5138988E-04
   55.26000     -5.4780242E-04
   55.32000     -5.4420240E-04
   55.38000     -5.4056919E-04
   55.44000     -5.3688162E-04
   55.50000     -5.3311797E-04
   55.56000     -5.2925647E-04