  -2.400000      0.0000000E+00
  -2.340000      0.0000000E+00
  -2.280000      0.0000000E+00
  -2.220000      0.0000000E+00
  -2.160000      0.0000000E+00
  -2.100000      0.0000000E+00
  -2.040000      0.0000000E+00
  -1.980000      0.0000000E+00
  -1.920000     -1.7001560E-26
  -1.860000     -1.8229847E-25
  -1.800000     -9.5101422E-25
  -1.740000     -3.1227311E-24
  -1.680000     -6.8581437E-24
  -1.620000     -9.2489437E-24
  -1.560000     -2.5900623E-24
  -1.500000      2.1033152E-23
  -1.440000      5.5695347E-23
  -1.380000      7.1770489E-23
  -1.320000      5.0336842E-23
  -1.260000      1.0337953E-22
  -1.200000      6.4035230E-22
  -1.140000      2.3544979E-21
  -1.080000      5.6128211E-21
  -1.020000      8.9239880E-21
 -0.9600000      6.8719362E-21
 -0.9000000     -1.0707566E-20
 -0.8400000     -5.5153579E-20
 -0.7800000     -1.2807871E-19
 -0.7200000     -2.0388119E-19
 -0.6600000     -2.1404387E-19
 -0.6000000     -5.0383542E-20
 -0.5400000      3.9256402E-19
 -0.4800000      1.1274154E-18
 -0.4200000      1.9583666E-18
 -0.3600000      2.4054265E-18
 -0.3000000      1.7647787E-18
 -0.2400000     -6.1451723E-19
 -0.1800000     -4.8481854E-18
 -0.1200000     -9.9971643E-18
 -5.9999999E-02 -1.3838278E-17
  0.0000000E+00 -1.3296908E-17
  5.9999999E-02 -5.7266036E-18
  0.1200000      9.2271121E-18
  0.1800000      2.8011820E-17
  0.2400000      4.3009173E-17
  0.3000000      4.4829086E-17
  0.3600000      2.7037642E-17
  0.4200000     -8.3257722E-18
  0.4800000     -4.7583747E-17
  0.5400000     -6.8038312E-17
  0.6000000     -4.7993257E-17
  0.6600000      1.8088299E-17
  0.7200000      1.0615648E-16
  0.7800000      1.6047365E-16
  0.8400000      1.1059836E-16
  0.9000000     -9.2393308E-17
  0.9600000     -4.3189614E-16
   1.020000     -7.9597332E-16
   1.080000     -9.8652477E-16
   1.140000     -7.8194545E-16
   1.200000     -4.4555845E-17
   1.260000      1.1647467E-15
   1.320000      2.5229274E-15
   1.380000      3.4884775E-15
   1.440000      3.4749165E-15
   1.500000      2.1170892E-15
   1.560000     -4.7106033E-16
   1.620000     -3.5846828E-15
   1.680000     -6.0765110E-15
   1.740000     -6.7857855E-15
   1.800000     -5.1244337E-15
   1.860000     -1.5629949E-15
   1.920000      2.2887489E-15
   1.980000      4.2093662E-15
   2.040000      2.4470782E-15
   2.100000     -3.0332525E-15
   2.160000     -9.7790784E-15
   2.220000     -1.3193989E-14
   2.280000     -8.2725007E-15
   2.340000      7.6629216E-15
   2.400000      3.2325207E-14
   2.460000      5.7412340E-14
   2.520000      7.0343051E-14
   2.580000      5.8931945E-14
   2.640000      1.7650964E-14
   2.700000     -4.7185935E-14
   2.760000     -1.1631906E-13
   2.820000     -1.6240249E-13
   2.880000     -1.6026144E-13
   2.940000     -9.9095604E-14
   3.000000      8.7720773E-15
   3.060000      1.2775502E-13
   3.120000      2.0972792E-13
   3.180000      2.1313437E-13
   3.240000      1.2335624E-13
   3.300000     -3.4973384E-14
   3.360000     -2.0115965E-13
   3.420000     -2.9872188E-13
   3.480000     -2.6657341E-13
   3.540000     -8.8686050E-14
   3.600000      1.9156562E-13
   3.660000      4.8120687E-13
   3.720000      6.7045067E-13
   3.780000      6.7635378E-13
   3.840000      4.7848650E-13
   3.900000      1.2917477E-13
   3.960000     -2.6899953E-13
   4.020000     -6.1055187E-13
   4.080000     -8.3785095E-13
   4.140000     -9.6888090E-13
   4.200000     -1.0831715E-12
   4.260000     -1.2655185E-12
   4.320000     -1.5293125E-12
   4.380000     -1.7570412E-12
   4.440000     -1.6960280E-12
   4.500000     -1.0296619E-12
   4.560000      4.8676590E-13
   4.620000      2.8691407E-12
   4.680000      5.7898113E-12
   4.740000      8.5646941E-12
   4.800000      1.0272724E-11
   4.860000      9.9924435E-12
   4.920000      7.0946148E-12
   4.980000      1.5017577E-12
   5.040000     -6.1724614E-12
   5.100000     -1.4658229E-11
   5.160000     -2.2240893E-11
   5.220000     -2.7097911E-11
   5.280000     -2.7677175E-11
   5.340000     -2.3028997E-11
   5.400000     -1.3029289E-11
   5.460000      1.5286494E-12
   5.520000      1.8961110E-11
   5.580000      3.6813073E-11
   5.640000      5.2054548E-11
   5.700000      6.1366551E-11
   5.760000      6.1550501E-11
   5.820000      5.0087857E-11
   5.880000      2.5829257E-11
   5.940000     -1.0287206E-11
   6.000000     -5.4673596E-11
   6.060000     -1.0091951E-10
   6.120000     -1.4022165E-10
   6.180000     -1.6252026E-10
   6.240000     -1.5827090E-10
   6.300000     -1.2058064E-10
   6.360000     -4.7279548E-11
   6.420000      5.7559672E-11
   6.480000      1.8306655E-10
   6.540000      3.1219652E-10
   6.600000      4.2347431E-10
   6.660000      4.9352888E-10
   6.720000      4.9990617E-10
   6.780000      4.2360490E-10
   6.840000      2.5089236E-10
   6.900000     -2.5808798E-11
   6.960000     -4.0790432E-10
   7.020000     -8.9120056E-10
   7.080000     -1.4666879E-09
   7.140000     -2.1212130E-09
   7.200000     -2.8378873E-09
   7.260000     -3.5962935E-09
   7.320000     -4.3727160E-09
   7.380000     -5.1406666E-09
   7.440000     -5.8718874E-09
   7.500000     -6.5378289E-09
   7.560000     -7.1114177E-09
   7.620000     -7.5687971E-09
   7.680000     -7.8907521E-09
   7.740000     -8.0636440E-09
   7.800000     -8.0798914E-09
   7.860000     -7.9381515E-09
   7.920000     -7.6434450E-09
   7.980000     -7.2073107E-09
   8.040000     -6.6479307E-09
   8.100000     -5.9899063E-09
   8.160000     -5.2632863E-09
   8.220000     -4.5014867E-09
   8.280000     -3.7380352E-09
   8.340000     -3.0024465E-09
   8.400000     -2.3159410E-09
   8.460000     -1.6879915E-09
   8.520000     -1.1146587E-09
   8.580000     -5.7939475E-10
   8.640000     -5.6454466E-11
   8.700000      4.8358584E-10
   8.760000      1.0672587E-09
   8.820000      1.7119710E-09
   8.880000      2.4214875E-09
   8.940000      3.1841829E-09
   9.000000      3.9745292E-09
   9.060000      4.7575792E-09
   9.120000      5.4955644E-09
   9.180000      6.1552505E-09
   9.240000      6.7145343E-09
   9.300000      7.1669093E-09
   9.360000      7.5228801E-09
   9.420000      7.8080511E-09
   9.480000      8.0583549E-09
   9.540000      8.3134530E-09
   9.600000      8.6097875E-09
   9.660000      8.9747410E-09
   9.720000      9.4231023E-09
   9.780000      9.9564446E-09
   9.840000      1.0565314E-08
   9.900000      1.1233443E-08
   9.960000      1.1942761E-08
   10.02000      1.2677813E-08
   10.08000      1.3428394E-08
   10.14000      1.4189762E-08
   10.20000      1.4960500E-08
   10.26000      1.5738838E-08
   10.32000      1.6518779E-08
   10.38000      1.7287610E-08
   10.44000      1.8025982E-08
   10.50000      1.8711061E-08
   10.56000      1.9322130E-08
   10.62000      1.9847029E-08
   10.68000      2.0287226E-08
   10.74000      2.0659343E-08
   10.80000      2.0991907E-08
   10.86000      2.1317602E-08
   10.92000      2.1662911E-08
   10.98000      2.2038263E-08
   11.04000      2.2432038E-08
   11.10000      2.2810886E-08
   11.16000      2.3126878E-08
   11.22000      2.3329811E-08
   11.28000      2.3381025E-08
   11.34000      2.3264434E-08
   11.40000      2.2991065E-08
   11.46000      2.2595431E-08
   11.52000      2.2124683E-08
   11.58000      2.1623913E-08
   11.64000      2.1122393E-08
   11.70000      2.0625329E-08
   11.76000      2.0114131E-08
   11.82000      1.9555385E-08
   11.88000      1.8915996E-08
   11.94000      1.8179755E-08
   12.00000      1.7359895E-08
   12.06000      1.6503122E-08
   12.12000      1.5682952E-08
   12.18000      1.4983264E-08
   12.24000      1.4476107E-08
   12.30000      1.4199742E-08
   12.36000      1.4143407E-08
   12.42000      1.4243829E-08
   12.48000      1.4395485E-08
   12.54000      1.4472844E-08
   12.60000      1.4359276E-08
   12.66000      1.3975088E-08
   12.72000      1.3297060E-08
   12.78000      1.2363907E-08
   12.84000      1.1265877E-08
   12.90000      1.0121146E-08
   12.96000      9.0453591E-09
   13.02000      8.1227043E-09
   13.08000      7.3864133E-09
   13.14000      6.8139663E-09
   13.20000      6.3380390E-09
   13.26000      5.8698313E-09
   13.32000      5.3279354E-09
   13.38000      4.6644484E-09
   13.44000      3.8809262E-09
   13.50000      3.0297589E-09
   13.56000      2.2007070E-09
   13.62000      1.4965171E-09
   13.68000      1.0045164E-09
   13.74000      7.7210821E-10
   13.80000      7.9293394E-10
   13.86000      1.0074794E-09
   13.92000      1.3180036E-09
   13.98000      1.6138576E-09
   14.04000      1.8005442E-09
   14.10000      1.8248937E-09
   14.16000      1.6897174E-09
   14.22000      1.4539961E-09
   14.28000      1.2184024E-09
   14.34000      1.0998011E-09
   14.40000      1.2013135E-09
   14.46000      1.5857221E-09
   14.52000      2.2590751E-09
   14.58000      3.1684948E-09
   14.64000      4.2142529E-09
   14.70000      5.2722910E-09
   14.76000      6.2207373E-09
   14.82000      6.9633317E-09
   14.88000      7.4441213E-09
   14.94000      7.6507396E-09
   15.00000      7.6070004E-09
   15.06000      7.3583859E-09
   15.12000      6.9554962E-09
   15.18000      6.4404024E-09
   15.24000      5.8393472E-09
   15.30000      5.1629159E-09
   15.36000      4.4124100E-09
   15.42000      3.5893091E-09
   15.48000      2.7039342E-09
   15.54000      1.7798744E-09
   15.60000      8.5232460E-10
   15.66000     -3.9298481E-11
   15.72000     -8.6192314E-10
   15.78000     -1.5986685E-09
   15.84000     -2.2540425E-09
   15.90000     -2.8519820E-09
   15.96000     -3.4266687E-09
   16.02000     -4.0086667E-09
   16.08000     -4.6107851E-09
   16.14000     -5.2184292E-09
   16.20000     -5.7879537E-09
   16.26000     -6.2539631E-09
   16.32000     -6.5436616E-09
   16.38000     -6.5940418E-09
   16.44000     -6.3668222E-09
   16.50000     -5.8567915E-09
   16.56000     -5.0913487E-09
   16.62000     -4.1217847E-09
   16.68000     -3.0093474E-09
   16.74000     -1.8105379E-09
   16.80000     -5.6604504E-10
   16.86000      7.0373957E-10
   16.92000      1.9960025E-09
   16.98000      3.3173275E-09
   17.04000      4.6734674E-09
   17.10000      6.0608851E-09
   17.16000      7.4629991E-09
   17.22000      8.8522709E-09
   17.28000      1.0197168E-08
   17.34000      1.1471420E-08
   17.40000      1.2662231E-08
   17.46000      1.3774499E-08
   17.52000      1.4829336E-08
   17.58000      1.5856902E-08
   17.64000      1.6885236E-08
   17.70000      1.7928055E-08
   17.76000      1.8974918E-08
   17.82000      1.9986834E-08
   17.88000      2.0899172E-08
   17.94000      2.1631925E-08
   18.00000      2.2105306E-08
   18.06000      2.2257012E-08
   18.12000      2.2056581E-08
   18.18000      2.1512736E-08
   18.24000      2.0671413E-08
   18.30000      1.9604647E-08
   18.36000      1.8393314E-08
   18.42000      1.7108448E-08
   18.48000      1.5796275E-08
   18.54000      1.4470791E-08
   18.60000      1.3115430E-08
   18.66000      1.1692526E-08
   18.72000      1.0157369E-08
   18.78000      8.4726981E-09
   18.84000      6.6200032E-09
   18.90000      4.6054520E-09
   18.96000      2.4600253E-09
   19.02000      2.3494928E-10
   19.08000     -2.0056459E-09
   19.14000     -4.1928141E-09
   19.20000     -6.2600334E-09
   19.26000     -8.1486800E-09
   19.32000     -9.8114734E-09
   19.38000     -1.1214037E-08
   19.44000     -1.2334914E-08
   19.50000     -1.3164380E-08
   19.56000     -1.3702319E-08
   19.62000     -1.3955436E-08
   19.68000     -1.3934119E-08
   19.74000     -1.3649457E-08
   19.80000     -1.3111019E-08
   19.86000     -1.2326060E-08
   19.92000     -1.1300562E-08
   19.98000     -1.0042140E-08
   20.04000     -8.5642426E-09
   20.10000     -6.8905437E-09
   20.16000     -5.0580984E-09
   20.22000     -3.1179350E-09
   20.28000     -1.1322240E-09
   20.34000      8.3192025E-10
   20.40000      2.7109213E-09
   20.46000      4.4535495E-09
   20.52000      6.0276579E-09
   20.58000      7.4227406E-09
   20.64000      8.6471870E-09
   20.70000      9.7206438E-09
   20.76000      1.0663459E-08
   20.82000      1.1486330E-08
   20.88000      1.2183444E-08
   20.94000      1.2731483E-08
   21.00000      1.3095091E-08
   21.06000      1.3237265E-08
   21.12000      1.3131553E-08
   21.18000      1.2772243E-08
   21.24000      1.2179433E-08
   21.30000      1.1397460E-08
   21.36000      1.0487240E-08
   21.42000      9.5147099E-09
   21.48000      8.5384597E-09
   21.54000      7.5994224E-09
   21.60000      6.7146400E-09
   21.66000      5.8758505E-09
   21.72000      5.0525890E-09
   21.78000      4.1987449E-09
   21.84000      3.2611991E-09
   21.90000      2.1890556E-09
   21.96000      9.4204200E-10
   22.02000     -5.0319893E-10
   22.08000     -2.1498789E-09
   22.14000     -3.9813228E-09
   22.20000     -5.9644560E-09
   22.26000     -8.0556175E-09
   22.32000     -1.0207379E-08
   22.38000     -1.2375020E-08
   22.44000     -1.4521667E-08
   22.50000     -1.6621543E-08
   22.56000     -1.8661257E-08
   22.62000     -2.0639316E-08
   22.68000     -2.2564112E-08
   22.74000     -2.4450717E-08
   22.80000     -2.6316883E-08
   22.86000     -2.8178963E-08
   22.92000     -3.0048511E-08
   22.98000     -3.1930416E-08
   23.04000     -3.3822992E-08
   23.10000     -3.5719935E-08
   23.16000     -3.7613361E-08
   23.22000     -3.9496758E-08
   23.28000     -4.1366761E-08
   23.34000     -4.3222883E-08
   23.40000     -4.5065274E-08
   23.46000     -4.6891156E-08
   23.52000     -4.8690989E-08
   23.58000     -5.0445855E-08
   23.64000     -5.2126946E-08
   23.70000     -5.3697740E-08
   23.76000     -5.5118640E-08
   23.82000     -5.6353155E-08
   23.88000     -5.7374265E-08
   23.94000     -5.8169508E-08
   24.00000     -5.8743517E-08
   24.06000     -5.9117415E-08
   24.12000     -5.9325117E-08
   24.18000     -5.9407338E-08
   24.24000     -5.9404549E-08
   24.30000     -5.9350235E-08
   24.36000     -5.9265776E-08
   24.42000     -5.9157838E-08
   24.48000     -5.9018710E-08
   24.54000     -5.8829428E-08
   24.60000     -5.8564986E-08
   24.66000     -5.8200335E-08
   24.72000     -5.7715912E-08
   24.78000     -5.7101314E-08
   24.84000     -5.6356630E-08
   24.90000     -5.5491459E-08
   24.96000     -5.4522665E-08
   25.02000     -5.3472007E-08
   25.08000     -5.2364598E-08
   25.14000     -5.1228479E-08
   25.20000     -5.0094688E-08
   25.26000     -4.8996721E-08
   25.32000     -4.7968388E-08
   25.38000     -4.7039702E-08
   25.44000     -4.6231591E-08
   25.50000     -4.5550792E-08
   25.56000     -4.4986674E-08
   25.62000     -4.4511257E-08
   25.68000     -4.4082689E-08
   25.74000     -4.3651635E-08
   25.80000     -4.3169155E-08
   25.86000     -4.2594515E-08
   25.92000     -4.1901441E-08
   25.98000     -4.1081940E-08
   26.04000     -4.0146997E-08
   26.10000     -3.9124302E-08
   26.16000     -3.8053305E-08
   26.22000     -3.6978580E-08
   26.28000     -3.5942723E-08
   26.34000     -3.4980310E-08
   26.40000     -3.4114148E-08
   26.46000     -3.3354528E-08
   26.52000     -3.2701397E-08
   26.58000     -3.2148382E-08
   26.64000     -3.1687218E-08
   26.70000     -3.1311068E-08
   26.76000     -3.1015777E-08
   26.82000     -3.0798802E-08
   26.88000     -3.0656544E-08
   26.94000     -3.0581116E-08
   27.00000     -3.0557771E-08
   27.06000     -3.0563957E-08
   27.12000     -3.0570320E-08
   27.18000     -3.0543610E-08
   27.24000     -3.0450941E-08
   27.30000     -3.0264530E-08
   27.36000     -2.9966081E-08
   27.42000     -2.9549819E-08
   27.48000     -2.9023401E-08
   27.54000     -2.8406227E-08
   27.60000     -2.7725140E-08
   27.66000     -2.7008264E-08
   27.72000     -2.6278340E-08
   27.78000     -2.5547411E-08
   27.84000     -2.4814561E-08
   27.90000     -2.4067688E-08
   27.96000     -2.3288999E-08
   28.02000     -2.2462592E-08
   28.08000     -2.1581506E-08
   28.14000     -2.0651692E-08
   28.20000     -1.9691244E-08
   28.26000     -1.8725094E-08
   28.32000     -1.7777008E-08
   28.38000     -1.6861868E-08
   28.44000     -1.5981163E-08
   28.50000     -1.5123282E-08
   28.56000     -1.4268399E-08
   28.62000     -1.3395920E-08
   28.68000     -1.2491506E-08
   28.74000     -1.1550941E-08
   28.80000     -1.0579337E-08
   28.86000     -9.5859898E-09
   28.92000     -8.5767136E-09
   28.98000     -7.5464284E-09
   29.04000     -6.4745893E-09
   29.10000     -5.3251683E-09
   29.16000     -4.0514925E-09
   29.22000     -2.6048377E-09
   29.28000     -9.4469099E-10
   29.34000      9.5180697E-10
   29.40000      3.0835015E-09
   29.46000      5.4234817E-09
   29.52000      7.9224503E-09
   29.58000      1.0516580E-08
   29.64000      1.3138208E-08
   29.70000      1.5727046E-08
   29.76000      1.8239305E-08
   29.82000      2.0652546E-08
   29.88000      2.2964953E-08
   29.94000      2.5189186E-08
   30.00000      2.7342386E-08
   30.06000      2.9435171E-08
   30.12000      3.1462793E-08
   30.18000      3.3401150E-08
   30.24000      3.5208860E-08
   30.30000      3.6834678E-08
   30.36000      3.8227885E-08
   30.42000      3.9348333E-08
   30.48000      4.0173063E-08
   30.54000      4.0697614E-08
   30.60000      4.0932164E-08
   30.66000      4.0894193E-08
   30.72000      4.0600636E-08
   30.78000      4.0062297E-08
   30.84000      3.9282618E-08
   30.90000      3.8261000E-08
   30.96000      3.6999491E-08
   31.02000      3.5510396E-08
   31.08000      3.3821824E-08
   31.14000      3.1978967E-08
   31.20000      3.0039999E-08
   31.26000      2.8067189E-08
   31.32000      2.6115604E-08
   31.38000      2.4222674E-08
   31.44000      2.2402027E-08
   31.50000      2.0643983E-08
   31.56000      1.8923025E-08
   31.62000      1.7210281E-08
   31.68000      1.5487082E-08
   31.74000      1.3755009E-08
   31.80000      1.2038664E-08
   31.86000      1.0379785E-08
   31.92000      8.8242382E-09
   31.98000      7.4060895E-09
   32.04000      6.1340457E-09
   32.10000      4.9849431E-09
   32.16000      3.9065120E-09
   32.22000      2.8285512E-09
   32.28000      1.6788791E-09
   32.34000      3.9906881E-10
   32.40000     -1.0445770E-09
   32.46000     -2.6574130E-09
   32.52000     -4.4201838E-09
   32.58000     -6.2978311E-09
   32.64000     -8.2499527E-09
   32.70000     -1.0239690E-08
   32.76000     -1.2239085E-08
   32.82000     -1.4230583E-08
   32.88000     -1.6205661E-08
   32.94000     -1.8162176E-08
   33.00000     -2.0101810E-08
   33.06000     -2.2028274E-08
   33.12000     -2.3946207E-08
   33.18000     -2.5860340E-08
   33.24000     -2.7774485E-08
   33.30000     -2.9690328E-08
   33.36000     -3.1606387E-08
   33.42000     -3.3517644E-08
   33.48000     -3.5416168E-08
   33.54000     -3.7292608E-08
   33.60000     -3.9138072E-08
   33.66000     -4.0945718E-08
   33.72000     -4.2711587E-08
   33.78000     -4.4434614E-08
   33.84000     -4.6116014E-08
   33.90000     -4.7758540E-08
   33.96000     -4.9365806E-08
   34.02000     -5.0941740E-08
   34.08000     -5.2489998E-08
   34.14000     -5.4013082E-08
   34.20000     -5.5511329E-08
   34.26000     -5.6981875E-08
   34.32000     -5.8418014E-08
   34.38000     -5.9809032E-08
   34.44000     -6.1140419E-08
   34.50000     -6.2394072E-08
   34.56000     -6.3548285E-08
   34.62000     -6.4577570E-08
   34.68000     -6.5452987E-08
   34.74000     -6.6143592E-08
   34.80000     -6.6619769E-08
   34.86000     -6.6858057E-08
   34.92000     -6.6846816E-08
   34.98000     -6.6590935E-08
   35.04000     -6.6114197E-08
   35.10000     -6.5458167E-08
   35.16000     -6.4677607E-08
   35.22000     -6.3833433E-08
   35.28000     -6.2984633E-08
   35.34000     -6.2181130E-08
   35.40000     -6.1458707E-08
   35.46000     -6.0836996E-08
   35.52000     -6.0320446E-08
   35.58000     -5.9901971E-08
   35.64000     -5.9568126E-08
   35.70000     -5.9304892E-08
   35.76000     -5.9102426E-08
   35.82000     -5.8957699E-08
   35.88000     -5.8874011E-08
   35.94000     -5.8857388E-08
   36.00000     -5.8910675E-08
   36.06000     -5.9027336E-08
   36.12000     -5.9187208E-08
   36.18000     -5.9356442E-08
   36.24000     -5.9492429E-08
   36.30000     -5.9553006E-08
   36.36000     -5.9507311E-08
   36.42000     -5.9344828E-08
   36.48000     -5.9079333E-08
   36.54000     -5.8746018E-08
   36.60000     -5.8392445E-08
   36.66000     -5.8066142E-08
   36.72000     -5.7803021E-08
   36.78000     -5.7620372E-08
   36.84000     -5.7516711E-08
   36.90000     -5.7477887E-08
   36.96000     -5.7486947E-08
   37.02000     -5.7533661E-08
   37.08000     -5.7620312E-08
   37.14000     -5.7761657E-08
   37.20000     -5.7979396E-08
   37.26000     -5.8293367E-08
   37.32000     -5.8712562E-08
   37.38000     -5.9228945E-08
   37.44000     -5.9815910E-08
   37.50000     -6.0431610E-08
   37.56000     -6.1026277E-08
   37.62000     -6.1551276E-08
   37.68000     -6.1967910E-08
   37.74000     -6.2253591E-08
   37.80000     -6.2403984E-08
   37.86000     -6.2430544E-08
   37.92000     -6.2353948E-08
   37.98000     -6.2195511E-08
   38.04000     -6.1969203E-08
   38.10000     -6.1677113E-08
   38.16000     -6.1310232E-08
   38.22000     -6.0854475E-08
   38.28000     -6.0299811E-08
   38.34000     -5.9648784E-08
   38.40000     -5.8920858E-08
   38.46000     -5.8150103E-08
   38.52000     -5.7376500E-08
   38.58000     -5.6633706E-08
   38.64000     -5.5937569E-08
   38.70000     -5.5279649E-08
   38.76000     -5.4628149E-08
   38.82000     -5.3936141E-08
   38.88000     -5.3154359E-08
   38.94000     -5.2244463E-08
   39.00000     -5.1188739E-08
   39.06000     -4.9993563E-08
   39.12000     -4.8685980E-08
   39.18000     -4.7304855E-08
   39.24000     -4.5889504E-08
   39.30000     -4.4469278E-08
   39.36000     -4.3057142E-08
   39.42000     -4.1649098E-08
   39.48000     -4.0229523E-08
   39.54000     -3.8780634E-08
   39.60000     -3.7292978E-08
   39.66000     -3.5773134E-08
   39.72000     -3.4245694E-08
   39.78000     -3.2748240E-08
   39.84000     -3.1320560E-08
   39.90000     -2.9991558E-08
   39.96000     -2.8768405E-08
   40.02000     -2.7632076E-08
   40.08000     -2.6541208E-08
   40.14000     -2.5443335E-08
   40.20000     -2.4289855E-08
   40.26000     -2.3049713E-08
   40.32000     -2.1717282E-08
   40.38000     -2.0312264E-08
   40.44000     -1.8872285E-08
   40.50000     -1.7441497E-08
   40.56000     -1.6059548E-08
   40.62000     -1.4754592E-08
   40.68000     -1.3541923E-08
   40.74000     -1.2427390E-08
   40.80000     -1.1412963E-08
   40.86000     -1.0501403E-08
   40.92000     -9.6979456E-09
   40.98000     -9.0086294E-09
   41.04000     -8.4365714E-09
   41.10000     -7.9783504E-09
   41.16000     -7.6224627E-09
   41.22000     -7.3507036E-09
   41.28000     -7.1420785E-09
   41.34000     -6.9777686E-09
   41.40000     -6.8454495E-09
   41.46000     -6.7416073E-09
   41.52000     -6.6712986E-09
   41.58000     -6.6455650E-09
   41.64000     -6.6772117E-09
   41.70000     -6.7758843E-09
   41.76000     -6.9434276E-09
   41.82000     -7.1705868E-09
   41.88000     -7.4361646E-09
   41.94000     -7.7096134E-09
   42.00000     -7.9574152E-09
   42.06000     -8.1524592E-09
   42.12000     -8.2841991E-09
   42.18000     -8.3663210E-09
   42.24000     -8.4386080E-09
   42.30000     -8.5610612E-09
   42.36000     -8.8008383E-09
   42.42000     -9.2152765E-09
   42.48000     -9.8361426E-09
   42.54000     -1.0660283E-08
   42.60000     -1.1649930E-08
   42.66000     -1.2742745E-08
   42.72000     -1.3868451E-08
   42.78000     -1.4966840E-08
   42.84000     -1.6001755E-08
   42.90000     -1.6967247E-08
   42.96000     -1.7884776E-08
   43.02000     -1.8793015E-08
   43.08000     -1.9733829E-08
   43.14000     -2.0738675E-08
   43.20000     -2.1819329E-08
   43.26000     -2.2965354E-08
   43.32000     -2.4148836E-08
   43.38000     -2.5334923E-08
   43.44000     -2.6494980E-08
   43.50000     -2.7618372E-08
   43.56000     -2.8719152E-08
   43.62000     -2.9835412E-08
   43.68000     -3.1021358E-08
   43.74000     -3.2334643E-08
   43.80000     -3.3823440E-08
   43.86000     -3.5517914E-08
   43.92000     -3.7429814E-08
   43.98000     -3.9561186E-08
   44.04000     -4.1920146E-08
   44.10000     -4.4539199E-08
   44.16000     -4.7490484E-08
   44.22000     -5.0893114E-08
   44.28000     -5.4910423E-08
   44.34000     -5.9738298E-08
   44.40000     -6.5588779E-08
   44.46000     -7.2674773E-08
   44.52000     -8.1201271E-08
   44.58000     -9.1366225E-08
   44.64000     -1.0337156E-07
   44.70000     -1.1744141E-07
   44.76000     -1.3384366E-07
   44.82000     -1.5291052E-07
   44.88000     -1.7505505E-07
   44.94000     -2.0078214E-07
   45.00000     -2.3069418E-07
   45.06000     -2.6549301E-07
   45.12000     -3.0597977E-07
   45.18000     -3.5305567E-07
   45.24000     -4.0772534E-07
   45.30000     -4.7110598E-07
   45.36000     -5.4444257E-07
   45.42000     -6.2912926E-07
   45.48000     -7.2673521E-07
   45.54000     -8.3903069E-07
   45.60000     -9.6801102E-07
   45.66000     -1.1159146E-06
   45.72000     -1.2852355E-06
   45.78000     -1.4787317E-06
   45.84000     -1.6994336E-06
   45.90000     -1.9506560E-06
   45.96000     -2.2360180E-06
   46.02000     -2.5594688E-06
   46.08000     -2.9253242E-06
   46.14000     -3.3382987E-06
   46.20000     -3.8035396E-06
   46.26000     -4.3266509E-06
   46.32000     -4.9137102E-06
   46.38000     -5.5712771E-06
   46.44000     -6.3063981E-06
   46.50000     -7.1266008E-06
   46.56000     -8.0398968E-06
   46.62000     -9.0547801E-06
   46.68000     -1.0180221E-05
   46.74000     -1.1425663E-05
   46.80000     -1.2801016E-05
   46.86000     -1.4316640E-05
   46.92000     -1.5983325E-05
   46.98000     -1.7812263E-05
   47.04000     -1.9815008E-05
   47.10000     -2.2003433E-05
   47.16000     -2.4389665E-05
   47.22000     -2.6986037E-05
   47.28000     -2.9805016E-05
   47.34000     -3.2859116E-05
   47.40000     -3.6160818E-05
   47.46000     -3.9722479E-05
   47.52000     -4.3556225E-05
   47.58000     -4.7673835E-05
   47.64000     -5.2086623E-05
   47.70000     -5.6805296E-05
   47.76000     -6.1839819E-05
   47.82000     -6.7199282E-05
   47.88000     -7.2891758E-05
   47.94000     -7.8924189E-05
   48.00000     -8.5302236E-05
   48.06000     -9.2030132E-05
   48.12000     -9.9110606E-05
   48.18000     -1.0654470E-04
   48.24000     -1.1433169E-04
   48.30000     -1.2246895E-04
   48.36000     -1.3095187E-04
   48.42000     -1.3977369E-04
   48.48000     -1.4892551E-04
   48.54000     -1.5839616E-04
   48.60000     -1.6817222E-04
   48.66000     -1.7823803E-04
   48.72000     -1.8857561E-04
   48.78000     -1.9916486E-04
   48.84000     -2.0998350E-04
   48.90000     -2.2100710E-04
   48.96000     -2.3220929E-04
   49.02000     -2.4356181E-04
   49.08000     -2.5503471E-04
   49.14000     -2.6659638E-04
   49.20000     -2.7821393E-04
   49.26000     -2.8985331E-04
   49.32000     -3.0147962E-04
   49.38000     -3.1305748E-04
   49.44000     -3.2455116E-04
   49.50000     -3.3592503E-04
   49.56000     -3.4714380E-04
   49.62000     -3.5817278E-04
   49.68000     -3.6897836E-04
   49.74000     -3.7952821E-04
   49.80000     -3.8979150E-04
   49.86000     -3.9973948E-04
   49.92000     -4.0934555E-04
   49.98000     -4.1858567E-04
   50.04000     -4.2743859E-04
   50.10000     -4.3588597E-04
   50.16000     -4.4391284E-04
   50.22000     -4.5150760E-04
   50.28000     -4.5866214E-04
   50.34000     -4.6537211E-04
   50.40000     -4.7163680E-04
   50.46000     -4.7745931E-04
   50.52000     -4.8284640E-04
   50.58000     -4.8780852E-04
   50.64000     -4.9235957E-04
   50.70000     -4.9651694E-04
   50.76000     -5.0030102E-04
   50.82000     -5.0373538E-04
   50.88000     -5.0684606E-04
   50.94000     -5.0966151E-04
   51.00000     -5.1221217E-04
   51.06000     -5.1453023E-04
   51.12000     -5.1664887E-04
   51.18000     -5.1860203E-04
   51.24000     -5.2042387E-04
   51.30000     -5.2214868E-04
   51.36000     -5.2381010E-04
   51.42000     -5.2544079E-04
   51.48000     -5.2707229E-04
   51.54000     -5.2873429E-04
   51.60000     -5.3045410E-04
   51.66000     -5.3225650E-04
   51.72000     -5.3416332E-04
   51.78000     -5.3619320E-04
   51.84000     -5.3836132E-04
   51.90000     -5.4067926E-04
   51.96000     -5.4315489E-04
   52.02000     -5.4579211E-04
   52.08000     -5.4859091E-04
   52.14000     -5.5154733E-04
   52.20000     -5.5465370E-04
   52.26000     -5.5789854E-04
   52.32000     -5.6126679E-04
   52.38000     -5.6474027E-04
   52.44000     -5.6829746E-04
   52.50000     -5.7191437E-04
   52.56000     -5.7556434E-04
   52.62000     -5.7921879E-04
   52.68000     -5.8284745E-04
   52.74000     -5.8641878E-04
   52.80000     -5.8990053E-04
   52.86000     -5.9326034E-04
   52.92000     -5.9646595E-04
   52.98000     -5.9948565E-04
   53.04000     -6.0228899E-04
   53.10000     -6.0484681E-04
   53.16000     -6.0713210E-04
   53.22000     -6.0911995E-04
   53.28000     -6.1078841E-04
   53.34000     -6.1211840E-04
   53.40000     -6.1309402E-04
   53.46000     -6.1370287E-04
   53.52000     -6.1393593E-04
   53.58000     -6.1378774E-04
   53.64000     -6.1325647E-04
   53.70000     -6.1234407E-04
   53.76000     -6.1105622E-04
   53.82000     -6.0940214E-04
   53.88000     -6.0739450E-04
   53.94000     -6.0504896E-04
   54.00000     -6.0238427E-04
   54.06000     -5.9942139E-04
   54.12000     -5.9618364E-04
   54.18000     -5.9269601E-04
   54.24000     -5.8898510E-04
   54.30000     -5.8507873E-04
   54.36000     -5.8100524E-04
   54.42000     -5.7679333E-04
   54.48000     -5.7247141E-04
   54.54000     -5.6806736E-04
   54.60000     -5.6360784E-04
   54.66000     -5.5911817E-04
   54.72000     -5.5462192E-04
   54.78000     -5.5014080E-04
   54.84000     -5.4569403E-04
   54.90000     -5.4129842E-04
   54.96000     -5.3696794E-04
   55.02000     -5.3271372E-04
   55.08000     -5.2854361E-04
   55.14000     -5.2446243E-04
   55.20000     -5.2047172E-04
   55.26000     -5.1657011E-04
   55.32000     -5.1275303E-04
   55.38000     -5.0901348E-04
   55.44000     -5.0534168E-04
   55.50000     -5.0172553E-04
   55.56000     -4.9815048E-04