  -2.400000      0.0000000E+00
  -2.340000      0.0000000E+00
  -2.280000      0.0000000E+00
  -2.220000      0.0000000E+00
  -2.160000      0.0000000E+00
  -2.100000      0.0000000E+00
  -2.040000      0.0000000E+00
  -1.980000      0.0000000E+00
  -1.920000     -5.8470256E-28
  -1.860000      1.0824097E-26
  -1.800000      1.7702079E-25
  -1.740000      1.1442462E-24
  -1.680000      4.4617862E-24
  -1.620000      1.1393053E-23
  -1.560000      1.6975263E-23
  -1.500000     -1.5503541E-24
  -1.440000     -9.1552142E-23
  -1.380000     -2.9932601E-22
  -1.320000     -5.8235535E-22
  -1.260000     -6.7776218E-22
  -1.200000     -4.9745004E-23
  -1.140000      1.8745397E-21
  -1.080000      5.0599704E-21
  -1.020000      8.0674028E-21
 -0.9600000      7.8816717E-21
 -0.9000000      1.2658034E-21
 -0.8400000     -1.2333552E-20
 -0.7800000     -2.8151619E-20
 -0.7200000     -3.7039355E-20
 -0.6600000     -3.2085480E-20
 -0.6000000     -1.7958663E-20
 -0.5400000     -1.3410712E-20
 -0.4800000     -3.6038072E-20
 -0.4200000     -6.9424959E-20
 -0.3600000     -3.5487341E-20
 -0.3000000      1.8596788E-19
 -0.2400000      6.5854459E-19
 -0.1800000      1.2361135E-18
 -0.1200000      1.4653581E-18
 -5.9999999E-02  7.0433928E-19
  0.0000000E+00 -1.4507097E-18
  5.9999999E-02 -4.5582255E-18
  0.1200000     -6.9558577E-18
  0.1800000     -6.1592096E-18
  0.2400000     -3.1422252E-19
  0.3000000      9.7314805E-18
  0.3600000      1.9036521E-17
  0.4200000      1.9526866E-17
  0.4800000      4.2278334E-18
  0.5400000     -2.6320791E-17
  0.6000000     -5.8990769E-17
  0.6600000     -6.9085549E-17
  0.7200000     -3.0598562E-17
  0.7800000      6.5969513E-17
  0.8400000      1.9616754E-16
  0.9000000      2.9646780E-16
  0.9600000      2.8136325E-16
   1.020000      8.3166711E-17
   1.080000     -2.9881649E-16
   1.140000     -7.6427269E-16
   1.200000     -1.1183393E-15
   1.260000     -1.1303193E-15
   1.320000     -6.3210262E-16
   1.380000      3.8055573E-16
   1.440000      1.6916793E-15
   1.500000      2.8904074E-15
   1.560000      3.4838186E-15
   1.620000      3.0650097E-15
   1.680000      1.4771086E-15
   1.740000     -1.0887642E-15
   1.800000     -4.1001871E-15
   1.860000     -6.7952735E-15
   1.920000     -8.3650263E-15
   1.980000     -8.1536815E-15
   2.040000     -5.8274571E-15
   2.100000     -1.4786726E-15
   2.160000      4.3487231E-15
   2.220000      1.0712041E-14
   2.280000      1.6391663E-14
   2.340000      2.0064330E-14
   2.400000      2.0503241E-14
   2.460000      1.6779379E-14
   2.520000      8.4500142E-15
   2.580000     -4.2591671E-15
   2.640000     -2.0261546E-14
   2.700000     -3.7415949E-14
   2.760000     -5.2414822E-14
   2.820000     -6.0930129E-14
   2.880000     -5.8236022E-14
   2.940000     -4.0438945E-14
   3.000000     -6.1912039E-15
   3.060000      4.1593783E-14
   3.120000      9.4798830E-14
   3.180000      1.4072363E-13
   3.240000      1.6466466E-13
   3.300000      1.5409654E-13
   3.360000      1.0326225E-13
   3.420000      1.6471454E-14
   3.480000     -9.1423918E-14
   3.540000     -1.9799128E-13
   3.600000     -2.7887341E-13
   3.660000     -3.1420260E-13
   3.720000     -2.9343154E-13
   3.780000     -2.1692258E-13
   3.840000     -9.4173577E-14
   3.900000      5.9798412E-14
   3.960000      2.2754633E-13
   4.020000      3.8991729E-13
   4.080000      5.2436121E-13
   4.140000      6.0292868E-13
   4.200000      5.9331663E-13
   4.260000      4.6566266E-13
   4.320000      2.0510405E-13
   4.380000     -1.7359393E-13
   4.440000     -6.1596984E-13
   4.500000     -1.0293544E-12
   4.560000     -1.2998568E-12
   4.620000     -1.3229856E-12
   4.680000     -1.0396241E-12
   4.740000     -4.6484843E-13
   4.800000      3.0269279E-13
   4.860000      1.0977468E-12
   4.920000      1.7296609E-12
   4.980000      2.0362197E-12
   5.040000      1.9323904E-12
   5.100000      1.4363962E-12
   5.160000      6.6261655E-13
   5.220000     -2.1724626E-13
   5.280000     -1.0308426E-12
   5.340000     -1.6578852E-12
   5.400000     -2.0575154E-12
   5.460000     -2.2584612E-12
   5.520000     -2.3157301E-12
   5.580000     -2.2532354E-12
   5.640000     -2.0206426E-12
   5.700000     -1.4899690E-12
   5.760000     -5.0270562E-13
   5.820000      1.0437193E-12
   5.880000      3.1017023E-12
   5.940000      5.4125602E-12
   6.000000      7.5129677E-12
   6.060000      8.8197982E-12
   6.120000      8.7736537E-12
   6.180000      6.9954533E-12
   6.240000      3.4015516E-12
   6.300000     -1.7629962E-12
   6.360000     -7.9800853E-12
   6.420000     -1.4571119E-11
   6.480000     -2.0807793E-11
   6.540000     -2.5962517E-11
   6.600000     -2.9270513E-11
   6.660000     -2.9825399E-11
   6.720000     -2.6476816E-11
   6.780000     -1.7817669E-11
   6.840000     -2.3252526E-12
   6.900000      2.1341387E-11
   6.960000      5.3962803E-11
   7.020000      9.5432669E-11
   7.080000      1.4462648E-10
   7.140000      1.9955644E-10
   7.200000      2.5780436E-10
   7.260000      3.1711375E-10
   7.320000      3.7594525E-10
   7.380000      4.3378970E-10
   7.440000      4.9110221E-10
   7.500000      5.4884403E-10
   7.560000      6.0775768E-10
   7.620000      6.6760042E-10
   7.680000      7.2658485E-10
   7.740000      7.8121587E-10
   7.800000      8.2659274E-10
   7.860000      8.5710677E-10
   7.920000      8.6736229E-10
   7.980000      8.5311430E-10
   8.040000      8.1205337E-10
   8.100000      7.4435491E-10
   8.160000      6.5299188E-10
   8.220000      5.4385607E-10
   8.280000      4.2571666E-10
   8.340000      3.0997899E-10
   8.400000      2.1013610E-10
   8.460000      1.4077350E-10
   8.520000      1.1602545E-10
   8.580000      1.4749625E-10
   8.640000      2.4181682E-10
   8.700000      3.9816131E-10
   8.760000      6.0615130E-10
   8.820000      8.4459606E-10
   8.880000      1.0814487E-09
   8.940000      1.2752133E-09
   9.000000      1.3778428E-09
   9.060000      1.3389505E-09
   9.120000      1.1109487E-09
   9.180000      6.5456329E-10
   9.240000     -5.5920320E-11
   9.300000     -1.0283241E-09
   9.360000     -2.2496909E-09
   9.420000     -3.6851897E-09
   9.480000     -5.2789306E-09
   9.540000     -6.9565842E-09
   9.600000     -8.6295495E-09
   9.660000     -1.0200353E-08
   9.720000     -1.1568924E-08
   9.780000     -1.2639436E-08
   9.840000     -1.3327387E-08
   9.900000     -1.3566506E-08
   9.960000     -1.3315011E-08
   10.02000     -1.2560561E-08
   10.08000     -1.1323224E-08
   10.14000     -9.6558255E-09
   10.20000     -7.6411828E-09
   10.26000     -5.3861338E-09
   10.32000     -3.0126504E-09
   10.38000     -6.4680999E-10
   10.44000      1.5931763E-09
   10.50000      3.6084300E-09
   10.56000      5.3288445E-09
   10.62000      6.7191550E-09
   10.68000      7.7807485E-09
   10.74000      8.5489225E-09
   10.80000      9.0860164E-09
   10.86000      9.4715249E-09
   10.92000      9.7907344E-09
   10.98000      1.0123637E-08
   11.04000      1.0535699E-08
   11.10000      1.1071588E-08
   11.16000      1.1752358E-08
   11.22000      1.2575874E-08
   11.28000      1.3519834E-08
   11.34000      1.4546433E-08
   11.40000      1.5607791E-08
   11.46000      1.6651482E-08
   11.52000      1.7625899E-08
   11.58000      1.8485309E-08
   11.64000      1.9194644E-08
   11.70000      1.9733791E-08
   11.76000      2.0100963E-08
   11.82000      2.0314376E-08
   11.88000      2.0411512E-08
   11.94000      2.0445423E-08
   12.00000      2.0478119E-08
   12.06000      2.0571772E-08
   12.12000      2.0779131E-08
   12.18000      2.1134928E-08
   12.24000      2.1650045E-08
   12.30000      2.2309882E-08
   12.36000      2.3077430E-08
   12.42000      2.3900718E-08
   12.48000      2.4723162E-08
   12.54000      2.5494687E-08
   12.60000      2.6181027E-08
   12.66000      2.6768985E-08
   12.72000      2.7266260E-08
   12.78000      2.7695899E-08
   12.84000      2.8086914E-08
   12.90000      2.8463855E-08
   12.96000      2.8838421E-08
   13.02000      2.9205738E-08
   13.08000      2.9546413E-08
   13.14000      2.9833657E-08
   13.20000      3.0043157E-08
   13.26000      3.0162404E-08
   13.32000      3.0196471E-08
   13.38000      3.0168234E-08
   13.44000      3.0112847E-08
   13.50000      3.0068026E-08
   13.56000      3.0063049E-08
   13.62000      3.0109732E-08
   13.68000      3.0198262E-08
   13.74000      3.0299120E-08
   13.80000      3.0370622E-08
   13.86000      3.0369772E-08
   13.92000      3.0263006E-08
   13.98000      3.0033320E-08
   14.04000      2.9681487E-08
   14.10000      2.9220876E-08
   14.16000      2.8667554E-08
   14.22000      2.8028984E-08
   14.28000      2.7295137E-08
   14.34000      2.6435174E-08
   14.40000      2.5401187E-08
   14.46000      2.4138382E-08
   14.52000      2.2599195E-08
   14.58000      2.0757630E-08
   14.64000      1.8619932E-08
   14.70000      1.6228563E-08
   14.76000      1.3658040E-08
   14.82000      1.1003323E-08
   14.88000      8.3633545E-09
   14.94000      5.8237388E-09
   15.00000      3.4428875E-09
   15.06000      1.2450465E-09
   15.12000     -7.7823664E-10
   15.18000     -2.6590647E-09
   15.24000     -4.4395314E-09
   15.30000     -6.1576291E-09
   15.36000     -7.8368254E-09
   15.42000     -9.4821084E-09
   15.48000     -1.1083227E-08
   15.54000     -1.2623677E-08
   15.60000     -1.4092361E-08
   15.66000     -1.5494031E-08
   15.72000     -1.6855005E-08
   15.78000     -1.8221847E-08
   15.84000     -1.9652669E-08
   15.90000     -2.1202766E-08
   15.96000     -2.2908207E-08
   16.02000     -2.4771948E-08
   16.08000     -2.6756803E-08
   16.14000     -2.8787991E-08
   16.20000     -3.0765413E-08
   16.26000     -3.2582868E-08
   16.32000     -3.4149281E-08
   16.38000     -3.5406160E-08
   16.44000     -3.6336655E-08
   16.50000     -3.6963876E-08
   16.56000     -3.7339397E-08
   16.62000     -3.7525499E-08
   16.68000     -3.7576271E-08
   16.74000     -3.7522561E-08
   16.80000     -3.7364465E-08
   16.86000     -3.7072702E-08
   16.92000     -3.6597946E-08
   16.98000     -3.5885307E-08
   17.04000     -3.4890029E-08
   17.10000     -3.3590418E-08
   17.16000     -3.1994823E-08
   17.22000     -3.0141020E-08
   17.28000     -2.8088470E-08
   17.34000     -2.5905862E-08
   17.40000     -2.3657808E-08
   17.46000     -2.1394740E-08
   17.52000     -1.9149011E-08
   17.58000     -1.6938023E-08
   17.64000     -1.4772622E-08
   17.70000     -1.2667028E-08
   17.76000     -1.0645905E-08
   17.82000     -8.7452676E-09
   17.88000     -7.0061823E-09
   17.94000     -5.4631184E-09
   18.00000     -4.1309498E-09
   18.06000     -2.9954754E-09
   18.12000     -2.0114446E-09
   18.18000     -1.1098129E-09
   18.24000     -2.1305067E-10
   18.30000      7.4531803E-10
   18.36000      1.8023375E-09
   18.42000      2.9537988E-09
   18.48000      4.1527750E-09
   18.54000      5.3195039E-09
   18.60000      6.3603731E-09
   18.66000      7.1910349E-09
   18.72000      7.7573157E-09
   18.78000      8.0481115E-09
   18.84000      8.0967366E-09
   18.90000      7.9705726E-09
   18.96000      7.7523081E-09
   19.02000      7.5183610E-09
   19.08000      7.3206690E-09
   19.14000      7.1767383E-09
   19.20000      7.0701662E-09
   19.26000      6.9607644E-09
   19.32000      6.8007679E-09
   19.38000      6.5521859E-09
   19.44000      6.2003513E-09
   19.50000      5.7601146E-09
   19.56000      5.2734097E-09
   19.62000      4.7994764E-09
   19.68000      4.4011332E-09
   19.74000      4.1315484E-09
   19.80000      4.0255492E-09
   19.86000      4.0978043E-09
   19.92000      4.3477120E-09
   19.98000      4.7684843E-09
   20.04000      5.3565818E-09
   20.10000      6.1178085E-09
   20.16000      7.0679844E-09
   20.22000      8.2283123E-09
   20.28000      9.6175468E-09
   20.34000      1.1243907E-08
   20.40000      1.3099271E-08
   20.46000      1.5156825E-08
   20.52000      1.7371796E-08
   20.58000      1.9683901E-08
   20.64000      2.2020179E-08
   20.70000      2.4297476E-08
   20.76000      2.6425036E-08
   20.82000      2.8308200E-08
   20.88000      2.9854320E-08
   20.94000      3.0981067E-08
   21.00000      3.1626250E-08
   21.06000      3.1756951E-08
   21.12000      3.1375418E-08
   21.18000      3.0519555E-08
   21.24000      2.9257077E-08
   21.30000      2.7674318E-08
   21.36000      2.5862347E-08
   21.42000      2.3904065E-08
   21.48000      2.1865796E-08
   21.54000      1.9795495E-08
   21.60000      1.7727395E-08
   21.66000      1.5690745E-08
   21.72000      1.3718607E-08
   21.78000      1.1852576E-08
   21.84000      1.0140699E-08
   21.90000      8.6283469E-09
   21.96000      7.3446427E-09
   22.02000      6.2891066E-09
   22.08000      5.4236988E-09
   22.14000      4.6740372E-09
   22.20000      3.9406394E-09
   22.26000      3.1175797E-09
   22.32000      2.1131108E-09
   22.38000      8.6578178E-10
   22.44000     -6.4916889E-10
   22.50000     -2.4251396E-09
   22.56000     -4.4391304E-09
   22.62000     -6.6707679E-09
   22.68000     -9.1182821E-09
   22.74000     -1.1805302E-08
   22.80000     -1.4775578E-08
   22.86000     -1.8076966E-08
   22.92000     -2.1739831E-08
   22.98000     -2.5757075E-08
   23.04000     -3.0072428E-08
   23.10000     -3.4581344E-08
   23.16000     -3.9144805E-08
   23.22000     -4.3612737E-08
   23.28000     -4.7850989E-08
   23.34000     -5.1764985E-08
   23.40000     -5.5313947E-08
   23.46000     -5.8512253E-08
   23.52000     -6.1417524E-08
   23.58000     -6.4108626E-08
   23.64000     -6.6659382E-08
   23.70000     -6.9114847E-08
   23.76000     -7.1476798E-08
   23.82000     -7.3702509E-08
   23.88000     -7.5717296E-08
   23.94000     -7.7437392E-08
   24.00000     -7.8796674E-08
   24.06000     -7.9769308E-08
   24.12000     -8.0381639E-08
   24.18000     -8.0709427E-08
   24.24000     -8.0861113E-08
   24.30000     -8.0951544E-08
   24.36000     -8.1073750E-08
   24.42000     -8.1276674E-08
   24.48000     -8.1555271E-08
   24.54000     -8.1855831E-08
   24.60000     -8.2095049E-08
   24.66000     -8.2187178E-08
   24.72000     -8.2071104E-08
   24.78000     -8.1729020E-08
   24.84000     -8.1190841E-08
   24.90000     -8.0522653E-08
   24.96000     -7.9803300E-08
   25.02000     -7.9096701E-08
   25.08000     -7.8429807E-08
   25.14000     -7.7783987E-08
   25.20000     -7.7103060E-08
   25.26000     -7.6315288E-08
   25.32000     -7.5361598E-08
   25.38000     -7.4219685E-08
   25.44000     -7.2915434E-08
   25.50000     -7.1517356E-08
   25.56000     -7.0115995E-08
   25.62000     -6.8795423E-08
   25.68000     -6.7606550E-08
   25.74000     -6.6551500E-08
   25.80000     -6.5584409E-08
   25.86000     -6.4628594E-08
   25.92000     -6.3604908E-08
   25.98000     -6.2462220E-08
   26.04000     -6.1200353E-08
   26.10000     -5.9877749E-08
   26.16000     -5.8600886E-08
   26.22000     -5.7498060E-08
   26.28000     -5.6685248E-08
   26.34000     -5.6234686E-08
   26.40000     -5.6156011E-08
   26.46000     -5.6396253E-08
   26.52000     -5.6858777E-08
   26.58000     -5.7435155E-08
   26.64000     -5.8039717E-08
   26.70000     -5.8635720E-08
   26.76000     -5.9244861E-08
   26.82000     -5.9937349E-08
   26.88000     -6.0806030E-08
   26.94000     -6.1932944E-08
   27.00000     -6.3358783E-08
   27.06000     -6.5064697E-08
   27.12000     -6.6971808E-08
   27.18000     -6.8958379E-08
   27.24000     -7.0889428E-08
   27.30000     -7.2649868E-08
   27.36000     -7.4171503E-08
   27.42000     -7.5445897E-08
   27.48000     -7.6519619E-08
   27.54000     -7.7473437E-08
   27.60000     -7.8391807E-08
   27.66000     -7.9331990E-08
   27.72000     -8.0301831E-08
   27.78000     -8.1252665E-08
   27.84000     -8.2088981E-08
   27.90000     -8.2691500E-08
   27.96000     -8.2946414E-08
   28.02000     -8.2771891E-08
   28.08000     -8.2134257E-08
   28.14000     -8.1049556E-08
   28.20000     -7.9570917E-08
   28.26000     -7.7766309E-08
   28.32000     -7.5694118E-08
   28.38000     -7.3384463E-08
   28.44000     -7.0832058E-08
   28.50000     -6.8002834E-08
   28.56000     -6.4851790E-08
   28.62000     -6.1346100E-08
   28.68000     -5.7485462E-08
   28.74000     -5.3312640E-08
   28.80000     -4.8910131E-08
   28.86000     -4.4383693E-08
   28.92000     -3.9837708E-08
   28.98000     -3.5350499E-08
   29.04000     -3.0957619E-08
   29.10000     -2.6648848E-08
   29.16000     -2.2379876E-08
   29.22000     -1.8094880E-08
   29.28000     -1.3752384E-08
   29.34000     -9.3456984E-09
   29.40000     -4.9110622E-09
   29.46000     -5.2073662E-10
   29.52000      3.7365298E-09
   29.58000      7.7809332E-09
   29.64000      1.1564173E-08
   29.70000      1.5081294E-08
   29.76000      1.8367654E-08
   29.82000      2.1481927E-08
   29.88000      2.4480931E-08
   29.94000      2.7394865E-08
   30.00000      3.0211545E-08
   30.06000      3.2875146E-08
   30.12000      3.5300122E-08
   30.18000      3.7395857E-08
   30.24000      3.9094036E-08
   30.30000      4.0369994E-08
   30.36000      4.1251273E-08
   30.42000      4.1810956E-08
   30.48000      4.2148219E-08
   30.54000      4.2362238E-08
   30.60000      4.2527514E-08
   30.66000      4.2677495E-08
   30.72000      4.2800547E-08
   30.78000      4.2848221E-08
   30.84000      4.2752227E-08
   30.90000      4.2444373E-08
   30.96000      4.1873559E-08
   31.02000      4.1015578E-08
   31.08000      3.9874315E-08
   31.14000      3.8475761E-08
   31.20000      3.6858331E-08
   31.26000      3.5063550E-08
   31.32000      3.3130164E-08
   31.38000      3.1092714E-08
   31.44000      2.8983425E-08
   31.50000      2.6834755E-08
   31.56000      2.4679712E-08
   31.62000      2.2548491E-08
   31.68000      2.0461883E-08
   31.74000      1.8424089E-08
   31.80000      1.6418506E-08
   31.86000      1.4409402E-08
   31.92000      1.2350423E-08
   31.98000      1.0198039E-08
   32.04000      7.9258458E-09
   32.10000      5.5347273E-09
   32.16000      3.0549621E-09
   32.22000      5.3898486E-10
   32.28000     -1.9532169E-09
   32.34000     -4.3713921E-09
   32.40000     -6.6892065E-09
   32.46000     -8.9104262E-09
   32.52000     -1.1064887E-08
   32.58000     -1.3195534E-08
   32.64000     -1.5340959E-08
   32.70000     -1.7519577E-08
   32.76000     -1.9721208E-08
   32.82000     -2.1909374E-08
   32.88000     -2.4033996E-08
   32.94000     -2.6050342E-08
   33.00000     -2.7937666E-08
   33.06000     -2.9710570E-08
   33.12000     -3.1418313E-08
   33.18000     -3.3131258E-08
   33.24000     -3.4918052E-08
   33.30000     -3.6820644E-08
   33.36000     -3.8835370E-08
   33.42000     -4.0906670E-08
   33.48000     -4.2936140E-08
   33.54000     -4.4804814E-08
   33.60000     -4.6402270E-08
   33.66000     -4.7654073E-08
   33.72000     -4.8539793E-08
   33.78000     -4.9096666E-08
   33.84000     -4.9408399E-08
   33.90000     -4.9582873E-08
   33.96000     -4.9725248E-08
   34.02000     -4.9913780E-08
   34.08000     -5.0184227E-08
   34.14000     -5.0525902E-08
   34.20000     -5.0889138E-08
   34.26000     -5.1201141E-08
   34.32000     -5.1385445E-08
   34.38000     -5.1379974E-08
   34.44000     -5.1149524E-08
   34.50000     -5.0690399E-08
   34.56000     -5.0027019E-08
   34.62000     -4.9202331E-08
   34.68000     -4.8265395E-08
   34.74000     -4.7259956E-08
   34.80000     -4.6217291E-08
   34.86000     -4.5155076E-08
   34.92000     -4.4081879E-08
   34.98000     -4.3004832E-08
   35.04000     -4.1936936E-08
   35.10000     -4.0900609E-08
   35.16000     -3.9925634E-08
   35.22000     -3.9042099E-08
   35.28000     -3.8271107E-08
   35.34000     -3.7617209E-08
   35.40000     -3.7066005E-08
   35.46000     -3.6588393E-08
   35.52000     -3.6150308E-08
   35.58000     -3.5724618E-08
   35.64000     -3.5300875E-08
   35.70000     -3.4889386E-08
   35.76000     -3.4518230E-08
   35.82000     -3.4224257E-08
   35.88000     -3.4041175E-08
   35.94000     -3.3988712E-08
   36.00000     -3.4066378E-08
   36.06000     -3.4253684E-08
   36.12000     -3.4516603E-08
   36.18000     -3.4818083E-08
   36.24000     -3.5129197E-08
   36.30000     -3.5437228E-08
   36.36000     -3.5748080E-08
   36.42000     -3.6082156E-08
   36.48000     -3.6465011E-08
   36.54000     -3.6915960E-08
   36.60000     -3.7438340E-08
   36.66000     -3.8014825E-08
   36.72000     -3.8609198E-08
   36.78000     -3.9174051E-08
   36.84000     -3.9661824E-08
   36.90000     -4.0035896E-08
   36.96000     -4.0278554E-08
   37.02000     -4.0393971E-08
   37.08000     -4.0405787E-08
   37.14000     -4.0350294E-08
   37.20000     -4.0267164E-08
   37.26000     -4.0189963E-08
   37.32000     -4.0138680E-08
   37.38000     -4.0115946E-08
   37.44000     -4.0107903E-08
   37.50000     -4.0089425E-08
   37.56000     -4.0032319E-08
   37.62000     -3.9914084E-08
   37.68000     -3.9724682E-08
   37.74000     -3.9469281E-08
   37.80000     -3.9166217E-08
   37.86000     -3.8840991E-08
   37.92000     -3.8518298E-08
   37.98000     -3.8214566E-08
   38.04000     -3.7933194E-08
   38.10000     -3.7663735E-08
   38.16000     -3.7385231E-08
   38.22000     -3.7072734E-08
   38.28000     -3.6705337E-08
   38.34000     -3.6273391E-08
   38.40000     -3.5782779E-08
   38.46000     -3.5254523E-08
   38.52000     -3.4719346E-08
   38.58000     -3.4208476E-08
   38.64000     -3.3743365E-08
   38.70000     -3.3327861E-08
   38.76000     -3.2945767E-08
   38.82000     -3.2565008E-08
   38.88000     -3.2147444E-08
   38.94000     -3.1661244E-08
   39.00000     -3.1091886E-08
   39.06000     -3.0448213E-08
   39.12000     -2.9761706E-08
   39.18000     -2.9079070E-08
   39.24000     -2.8450279E-08
   39.30000     -2.7915428E-08
   39.36000     -2.7494035E-08
   39.42000     -2.7179874E-08
   39.48000     -2.6942990E-08
   39.54000     -2.6738698E-08
   39.60000     -2.6521219E-08
   39.66000     -2.6258039E-08
   39.72000     -2.5940471E-08
   39.78000     -2.5586763E-08
   39.84000     -2.5236334E-08
   39.90000     -2.4936519E-08
   39.96000     -2.4725818E-08
   40.02000     -2.4618943E-08
   40.08000     -2.4598465E-08
   40.14000     -2.4616005E-08
   40.20000     -2.4602974E-08
   40.26000     -2.4488116E-08
   40.32000     -2.4217170E-08
   40.38000     -2.3769157E-08
   40.44000     -2.3164544E-08
   40.50000     -2.2462464E-08
   40.56000     -2.1747017E-08
   40.62000     -2.1105839E-08
   40.68000     -2.0606782E-08
   40.74000     -2.0279588E-08
   40.80000     -2.0108525E-08
   40.86000     -2.0038716E-08
   40.92000     -1.9994586E-08
   40.98000     -1.9904640E-08
   41.04000     -1.9724474E-08
   41.10000     -1.9450486E-08
   41.16000     -1.9119923E-08
   41.22000     -1.8797794E-08
   41.28000     -1.8555529E-08
   41.34000     -1.8448974E-08
   41.40000     -1.8502949E-08
   41.46000     -1.8706997E-08
   41.52000     -1.9022824E-08
   41.58000     -1.9400074E-08
   41.64000     -1.9794729E-08
   41.70000     -2.0184050E-08
   41.76000     -2.0573648E-08
   41.82000     -2.0995069E-08
   41.88000     -2.1495300E-08
   41.94000     -2.2121919E-08
   42.00000     -2.2908566E-08
   42.06000     -2.3864995E-08
   42.12000     -2.4974188E-08
   42.18000     -2.6196794E-08
   42.24000     -2.7480954E-08
   42.30000     -2.8774217E-08
   42.36000     -3.0033991E-08
   42.42000     -3.1233931E-08
   42.48000     -3.2365204E-08
   42.54000     -3.3433384E-08
   42.60000     -3.4452825E-08
   42.66000     -3.5440731E-08
   42.72000     -3.6412654E-08
   42.78000     -3.7380058E-08
   42.84000     -3.8349562E-08
   42.90000     -3.9322913E-08
   42.96000     -4.0296840E-08
   43.02000     -4.1262510E-08
   43.08000     -4.2205205E-08
   43.14000     -4.3105238E-08
   43.20000     -4.3941000E-08
   43.26000     -4.4694239E-08
   43.32000     -4.5356533E-08
   43.38000     -4.5935117E-08
   43.44000     -4.6455959E-08
   43.50000     -4.6962683E-08
   43.56000     -4.7511431E-08
   43.62000     -4.8163027E-08
   43.68000     -4.8974879E-08
   43.74000     -4.9995055E-08
   43.80000     -5.1260095E-08
   43.86000     -5.2796889E-08
   43.92000     -5.4627634E-08
   43.98000     -5.6776354E-08
   44.04000     -5.9275436E-08
   44.10000     -6.2171218E-08
   44.16000     -6.5528354E-08
   44.22000     -6.9433270E-08
   44.28000     -7.3997022E-08
   44.34000     -7.9358124E-08
   44.40000     -8.5685500E-08
   44.46000     -9.3181612E-08
   44.52000     -1.0208618E-07
   44.58000     -1.1268047E-07
   44.64000     -1.2529212E-07
   44.70000     -1.4030068E-07
   44.76000     -1.5814341E-07
   44.82000     -1.7932074E-07
   44.88000     -2.0440149E-07
   44.94000     -2.3402777E-07
   45.00000     -2.6892022E-07
   45.06000     -3.0988519E-07
   45.12000     -3.5782543E-07
   45.18000     -4.1375583E-07
   45.24000     -4.7882457E-07
   45.30000     -5.5433929E-07
   45.36000     -6.4179511E-07
   45.42000     -7.4290222E-07
   45.48000     -8.5960897E-07
   45.54000     -9.9411966E-07
   45.60000     -1.1489057E-06
   45.66000     -1.3267141E-06
   45.72000     -1.5305769E-06
   45.78000     -1.7638247E-06
   45.84000     -2.0301100E-06
   45.90000     -2.3334385E-06
   45.96000     -2.6782109E-06
   46.02000     -3.0692670E-06
   46.08000     -3.5119258E-06
   46.14000     -4.0120231E-06
   46.20000     -4.5759330E-06
   46.26000     -5.2105856E-06
   46.32000     -5.9234717E-06
   46.38000     -6.7226520E-06
   46.44000     -7.6167657E-06
   46.50000     -8.6150476E-06
   46.56000     -9.7273523E-06
   46.62000     -1.0964185E-05
   46.68000     -1.2336711E-05
   46.74000     -1.3856777E-05
   46.80000     -1.5536894E-05
   46.86000     -1.7390226E-05
   46.92000     -1.9430530E-05
   46.98000     -2.1672124E-05
   47.04000     -2.4129800E-05
   47.10000     -2.6818791E-05
   47.16000     -2.9754678E-05
   47.22000     -3.2953358E-05
   47.28000     -3.6430964E-05
   47.34000     -4.0203795E-05
   47.40000     -4.4288245E-05
   47.46000     -4.8700680E-05
   47.52000     -5.3457337E-05
   47.58000     -5.8574195E-05
   47.64000     -6.4066786E-05
   47.70000     -6.9950089E-05
   47.76000     -7.6238270E-05
   47.82000     -8.2944593E-05
   47.88000     -9.0081179E-05
   47.94000     -9.7658864E-05
   48.00000     -1.0568705E-04
   48.06000     -1.1417356E-04
   48.12000     -1.2312445E-04
   48.18000     -1.3254394E-04
   48.24000     -1.4243416E-04
   48.30000     -1.5279511E-04
   48.36000     -1.6362440E-04
   48.42000     -1.7491719E-04
   48.48000     -1.8666600E-04
   48.54000     -1.9886070E-04
   48.60000     -2.1148838E-04
   48.66000     -2.2453329E-04
   48.72000     -2.3797684E-04
   48.78000     -2.5179770E-04
   48.84000     -2.6597173E-04
   48.90000     -2.8047216E-04
   48.96000     -2.9526965E-04
   49.02000     -3.1033237E-04
   49.08000     -3.2562623E-04
   49.14000     -3.4111497E-04
   49.20000     -3.5676043E-04
   49.26000     -3.7252277E-04
   49.32000     -3.8836082E-04
   49.38000     -4.0423230E-04
   49.44000     -4.2009429E-04
   49.50000     -4.3590346E-04
   49.56000     -4.5161642E-04
   49.62000     -4.6719000E-04
   49.68000     -4.8258185E-04
   49.74000     -4.9775059E-04
   49.80000     -5.1265641E-04
   49.86000     -5.2726135E-04
   49.92000     -5.4152962E-04
   49.98000     -5.5542827E-04
   50.04000     -5.6892709E-04
   50.10000     -5.8199908E-04
   50.16000     -5.9462083E-04
   50.22000     -6.0677255E-04
   50.28000     -6.1843841E-04
   50.34000     -6.2960683E-04
   50.40000     -6.4027042E-04
   50.46000     -6.5042608E-04
   50.52000     -6.6007511E-04
   50.58000     -6.6922302E-04
   50.64000     -6.7787949E-04
   50.70000     -6.8605813E-04
   50.76000     -6.9377664E-04
   50.82000     -7.0105621E-04
   50.88000     -7.0792146E-04
   50.94000     -7.1439991E-04
   51.00000     -7.2052196E-04
   51.06000     -7.2632014E-04
   51.12000     -7.3182886E-04
   51.18000     -7.3708396E-04
   51.24000     -7.4212212E-04
   51.30000     -7.4698054E-04
   51.36000     -7.5169641E-04
   51.42000     -7.5630622E-04
   51.48000     -7.6084543E-04
   51.54000     -7.6534809E-04
   51.60000     -7.6984579E-04
   51.66000     -7.7436777E-04
   51.72000     -7.7894010E-04
   51.78000     -7.8358589E-04
   51.84000     -7.8832457E-04
   51.90000     -7.9317181E-04
   51.96000     -7.9813920E-04
   52.02000     -8.0323388E-04
   52.08000     -8.0845918E-04
   52.14000     -8.1381382E-04
   52.20000     -8.1929233E-04
   52.26000     -8.2488504E-04
   52.32000     -8.3057838E-04
   52.38000     -8.3635451E-04
   52.44000     -8.4219209E-04
   52.50000     -8.4806618E-04
   52.56000     -8.5394934E-04
   52.62000     -8.5981132E-04
   52.68000     -8.6562010E-04
   52.74000     -8.7134185E-04
   52.80000     -8.7694137E-04
   52.86000     -8.8238303E-04
   52.92000     -8.8763080E-04
   52.98000     -8.9264911E-04
   53.04000     -8.9740369E-04
   53.10000     -9.0186147E-04
   53.16000     -9.0599147E-04
   53.22000     -9.0976525E-04
   53.28000     -9.1315678E-04
   53.34000     -9.1614312E-04
   53.40000     -9.1870484E-04
   53.46000     -9.2082628E-04
   53.52000     -9.2249573E-04
   53.58000     -9.2370569E-04
   53.64000     -9.2445285E-04
   53.70000     -9.2473795E-04
   53.76000     -9.2456600E-04
   53.82000     -9.2394609E-04
   53.88000     -9.2289143E-04
   53.94000     -9.2141889E-04
   54.00000     -9.1954926E-04
   54.06000     -9.1730640E-04
   54.12000     -9.1471709E-04
   54.18000     -9.1181073E-04
   54.24000     -9.0861873E-04
   54.30000     -9.0517395E-04
   54.36000     -9.0151012E-04
   54.42000     -8.9766178E-04
   54.48000     -8.9366344E-04
   54.54000     -8.8954932E-04
   54.60000     -8.8535273E-04
   54.66000     -8.8110601E-04
   54.72000     -8.7683968E-04
   54.78000     -8.7258220E-04
   54.84000     -8.6835941E-04
   54.90000     -8.6419436E-04
   54.96000     -8.6010701E-04
   55.02000     -8.5611426E-04
   55.08000     -8.5222925E-04
   55.14000     -8.4846164E-04
   55.20000     -8.4481726E-04
   55.26000     -8.4129797E-04
   55.32000     -8.3790172E-04
   55.38000     -8.3462283E-04
   55.44000     -8.3145237E-04
   55.50000     -8.2837825E-04
   55.56000     -8.2538545E-04