  -2.400000      0.0000000E+00
  -2.340000      0.0000000E+00
  -2.280000      0.0000000E+00
  -2.220000      0.0000000E+00
  -2.160000      0.0000000E+00
  -2.100000      0.0000000E+00
  -2.040000      0.0000000E+00
  -1.980000      0.0000000E+00
  -1.920000      2.8888317E-27
  -1.860000     -1.2737436E-26
  -1.800000     -3.7711153E-25
  -1.740000     -2.7070377E-24
  -1.680000     -1.1147005E-23
  -1.620000     -3.0013863E-23
  -1.560000     -4.9784056E-23
  -1.500000     -1.7922380E-23
  -1.440000      1.8249223E-22
  -1.380000      6.7916663E-22
  -1.320000      1.4004722E-21
  -1.260000      1.7264829E-21
  -1.200000      2.7235262E-22
  -1.140000     -4.6470522E-21
  -1.080000     -1.3374064E-20
  -1.020000     -2.2363059E-20
 -0.9600000     -2.2481438E-20
 -0.9000000     -1.1792324E-21
 -0.8400000      4.9063817E-20
 -0.7800000      1.1753921E-19
 -0.7200000      1.6550015E-19
 -0.6600000      1.3309019E-19
 -0.6000000     -2.6536162E-20
 -0.5400000     -2.9153764E-19
 -0.4800000     -5.2615651E-19
 -0.4200000     -4.9917176E-19
 -0.3600000     -1.0739461E-20
 -0.3000000      8.8539200E-19
 -0.2400000      1.6764749E-18
 -0.1800000      1.4038484E-18
 -0.1200000     -9.1020411E-19
 -5.9999999E-02 -5.4053387E-18
  0.0000000E+00 -1.0424966E-17
  5.9999999E-02 -1.2151507E-17
  0.1200000     -5.6365588E-18
  0.1800000      1.2408349E-17
  0.2400000      3.9744887E-17
  0.3000000      6.5667189E-17
  0.3600000      7.1785063E-17
  0.4200000      3.8664007E-17
  0.4800000     -4.2165201E-17
  0.5400000     -1.5530561E-16
  0.6000000     -2.5563888E-16
  0.6600000     -2.7770542E-16
  0.7200000     -1.6350618E-16
  0.7800000      9.8050536E-17
  0.8400000      4.3804851E-16
  0.9000000      7.0477450E-16
  0.9600000      7.0941683E-16
   1.020000      3.1839804E-16
   1.080000     -4.3869131E-16
   1.140000     -1.3017721E-15
   1.200000     -1.8139230E-15
   1.260000     -1.4868436E-15
   1.320000     -6.7183384E-17
   1.380000      2.2004811E-15
   1.440000      4.4658296E-15
   1.500000      5.4546131E-15
   1.560000      3.9724541E-15
   1.620000     -4.0400242E-16
   1.680000     -6.7490505E-15
   1.740000     -1.2693106E-14
   1.800000     -1.5072545E-14
   1.860000     -1.1282527E-14
   1.920000     -8.8184362E-16
   1.980000      1.3329208E-14
   2.040000      2.5563288E-14
   2.100000      2.9023086E-14
   2.160000      1.9189674E-14
   2.220000     -2.8787277E-15
   2.280000     -2.9049242E-14
   2.340000     -4.5928207E-14
   2.400000     -4.0244057E-14
   2.460000     -6.1980543E-15
   2.520000      4.8473758E-14
   2.580000      1.0145347E-13
   2.640000      1.2215330E-13
   2.700000      8.4625618E-14
   2.760000     -1.7408531E-14
   2.820000     -1.6043373E-13
   2.880000     -2.9259681E-13
   2.940000     -3.4952732E-13
   3.000000     -2.8086482E-13
   3.060000     -7.7486242E-14
   3.120000      2.1355087E-13
   3.180000      4.9656357E-13
   3.240000      6.5898177E-13
   3.300000      6.1760216E-13
   3.360000      3.6056005E-13
   3.420000     -3.5652613E-14
   3.480000     -4.2693719E-13
   3.540000     -6.5722747E-13
   3.600000     -6.2878088E-13
   3.660000     -3.5605866E-13
   3.720000      2.5632039E-14
   3.780000      3.0895124E-13
   3.840000      3.0748773E-13
   3.900000     -4.4130535E-14
   3.960000     -6.3015153E-13
   4.020000     -1.1703153E-12
   4.080000     -1.3201994E-12
   4.140000     -8.2432439E-13
   4.200000      3.3894320E-13
   4.260000      1.8885336E-12
   4.320000      3.2928929E-12
   4.380000      3.9417710E-12
   4.440000      3.3833810E-12
   4.500000      1.5364724E-12
   4.560000     -1.2149078E-12
   4.620000     -4.0984616E-12
   4.680000     -6.1915638E-12
   4.740000     -6.7412035E-12
   4.800000     -5.4456595E-12
   4.860000     -2.5830889E-12
   4.920000      1.0731926E-12
   4.980000      4.5282584E-12
   5.040000      6.9224548E-12
   5.100000      7.8244676E-12
   5.160000      7.3328817E-12
   5.220000      5.9364965E-12
   5.280000      4.1911565E-12
   5.340000      2.3629753E-12
   5.400000      2.2122533E-13
   5.460000     -2.8834040E-12
   5.520000     -7.6370334E-12
   5.580000     -1.4203628E-11
   5.640000     -2.1725970E-11
   5.700000     -2.8147552E-11
   5.760000     -3.0530512E-11
   5.820000     -2.5870348E-11
   5.880000     -1.2205945E-11
   5.940000      1.0327899E-11
   6.000000      3.8892906E-11
   6.060000      6.8064769E-11
   6.120000      9.0736210E-11
   6.180000      9.9609820E-11
   6.240000      8.8886926E-11
   6.300000      5.5696191E-11
   6.360000      9.0624448E-13
   6.420000     -7.0806326E-11
   6.480000     -1.5149655E-10
   6.540000     -2.3076555E-10
   6.600000     -2.9647618E-10
   6.660000     -3.3512937E-10
   6.720000     -3.3191985E-10
   6.780000     -2.7075953E-10
   6.840000     -1.3470973E-10
   6.900000      9.2786327E-11
   6.960000      4.2574838E-10
   7.020000      8.7285063E-10
   7.080000      1.4346028E-09
   7.140000      2.1013498E-09
   7.200000      2.8528220E-09
   7.260000      3.6595864E-09
   7.320000      4.4862087E-09
   7.380000      5.2954259E-09
   7.440000      6.0523226E-09
   7.500000      6.7275647E-09
   7.560000      7.2990880E-09
   7.620000      7.7521998E-09
   7.680000      8.0785743E-09
   7.740000      8.2749096E-09
   7.800000      8.3419831E-09
   7.860000      8.2844664E-09
   7.920000      8.1113614E-09
   7.980000      7.8364302E-09
   8.040000      7.4778752E-09
   8.100000      7.0566513E-09
   8.160000      6.5933805E-09
   8.220000      6.1044383E-09
   8.280000      5.5983103E-09
   8.340000      5.0734643E-09
   8.400000      4.5186894E-09
   8.460000      3.9161638E-09
   8.520000      3.2466838E-09
   8.580000      2.4957951E-09
   8.640000      1.6592795E-09
   8.700000      7.4663503E-10
   8.760000     -2.1817823E-10
   8.820000     -1.1986397E-09
   8.880000     -2.1494102E-09
   8.940000     -3.0207428E-09
   9.000000     -3.7624921E-09
   9.060000     -4.3271506E-09
   9.120000     -4.6720210E-09
   9.180000     -4.7611763E-09
   9.240000     -4.5680433E-09
   9.300000     -4.0791162E-09
   9.360000     -3.2986074E-09
   9.420000     -2.2530253E-09
   9.480000     -9.9407993E-10
   9.540000      4.0167913E-10
   9.600000      1.8374681E-09
   9.660000      3.2049370E-09
   9.720000      4.3954578E-09
   9.780000      5.3116866E-09
   9.840000      5.8768999E-09
   9.900000      6.0403043E-09
   9.960000      5.7778347E-09
   10.02000      5.0894124E-09
   10.08000      3.9946402E-09
   10.14000      2.5290225E-09
   10.20000      7.4205608E-10
   10.26000     -1.3028725E-09
   10.32000     -3.5281615E-09
   10.38000     -5.8433316E-09
   10.44000     -8.1497911E-09
   10.50000     -1.0349503E-08
   10.56000     -1.2356274E-08
   10.62000     -1.4106884E-08
   10.68000     -1.5568677E-08
   10.74000     -1.6741037E-08
   10.80000     -1.7649869E-08
   10.86000     -1.8336657E-08
   10.92000     -1.8845428E-08
   10.98000     -1.9211802E-08
   11.04000     -1.9457447E-08
   11.10000     -1.9591276E-08
   11.16000     -1.9616095E-08
   11.22000     -1.9537392E-08
   11.28000     -1.9370100E-08
   11.34000     -1.9140090E-08
   11.40000     -1.8879279E-08
   11.46000     -1.8615927E-08
   11.52000     -1.8363783E-08
   11.58000     -1.8114385E-08
   11.64000     -1.7835887E-08
   11.70000     -1.7479445E-08
   11.76000     -1.6991493E-08
   11.82000     -1.6328185E-08
   11.88000     -1.5467519E-08
   11.94000     -1.4415462E-08
   12.00000     -1.3204542E-08
   12.06000     -1.1885785E-08
   12.12000     -1.0516933E-08
   12.18000     -9.1508863E-09
   12.24000     -7.8278184E-09
   12.30000     -6.5729835E-09
   12.36000     -5.4000657E-09
   12.42000     -4.3180095E-09
   12.48000     -3.3380927E-09
   12.54000     -2.4780387E-09
   12.60000     -1.7611682E-09
   12.66000     -1.2105568E-09
   12.72000     -8.4020646E-10
   12.78000     -6.4656674E-10
   12.84000     -6.0383853E-10
   12.90000     -6.6525335E-10
   12.96000     -7.7039380E-10
   13.02000     -8.5641888E-10
   13.08000     -8.6965585E-10
   13.14000     -7.7395845E-10
   13.20000     -5.5351895E-10
   13.26000     -2.0990389E-10
   13.32000      2.4489824E-10
   13.38000      7.9645790E-10
   13.44000      1.4340092E-09
   13.50000      2.1529247E-09
   13.56000      2.9534692E-09
   13.62000      3.8372070E-09
   13.68000      4.8031343E-09
   13.74000      5.8453429E-09
   13.80000      6.9529826E-09
   13.86000      8.1120115E-09
   13.92000      9.3072456E-09
   13.98000      1.0523043E-08
   14.04000      1.1741582E-08
   14.10000      1.2939001E-08
   14.16000      1.4080960E-08
   14.22000      1.5119928E-08
   14.28000      1.5996319E-08
   14.34000      1.6644348E-08
   14.40000      1.7001723E-08
   14.46000      1.7020660E-08
   14.52000      1.6676983E-08
   14.58000      1.5974459E-08
   14.64000      1.4943183E-08
   14.70000      1.3632656E-08
   14.76000      1.2102030E-08
   14.82000      1.0410616E-08
   14.88000      8.6114085E-09
   14.94000      6.7489867E-09
   15.00000      4.8615361E-09
   15.06000      2.9852520E-09
   15.12000      1.1587546E-09
   15.18000     -5.7469168E-10
   15.24000     -2.1683653E-09
   15.30000     -3.5765482E-09
   15.36000     -4.7608131E-09
   15.42000     -5.6958860E-09
   15.48000     -6.3728316E-09
   15.54000     -6.7981896E-09
   15.60000     -6.9890884E-09
   15.66000     -6.9658972E-09
   15.72000     -6.7449228E-09
   15.78000     -6.3336785E-09
   15.84000     -5.7302558E-09
   15.90000     -4.9267452E-09
   15.96000     -3.9150949E-09
   16.02000     -2.6929692E-09
   16.08000     -1.2672996E-09
   16.14000      3.4569322E-10
   16.20000      2.1237971E-09
   16.26000      4.0439709E-09
   16.32000      6.0873337E-09
   16.38000      8.2421288E-09
   16.44000      1.0503657E-08
   16.50000      1.2871193E-08
   16.56000      1.5342897E-08
   16.62000      1.7910327E-08
   16.68000      2.0554365E-08
   16.74000      2.3244015E-08
   16.80000      2.5938808E-08
   16.86000      2.8594503E-08
   16.92000      3.1170607E-08
   16.98000      3.3637573E-08
   17.04000      3.5981259E-08
   17.10000      3.8202977E-08
   17.16000      4.0314674E-08
   17.22000      4.2330552E-08
   17.28000      4.4257558E-08
   17.34000      4.6087919E-08
   17.40000      4.7796263E-08
   17.46000      4.9342759E-08
   17.52000      5.0681770E-08
   17.58000      5.1773874E-08
   17.64000      5.2597940E-08
   17.70000      5.3159681E-08
   17.76000      5.3493832E-08
   17.82000      5.3658724E-08
   17.88000      5.3724079E-08
   17.94000      5.3754786E-08
   18.00000      5.3794874E-08
   18.06000      5.3856070E-08
   18.12000      5.3914317E-08
   18.18000      5.3915368E-08
   18.24000      5.3788121E-08
   18.30000      5.3461942E-08
   18.36000      5.2883252E-08
   18.42000      5.2026767E-08
   18.48000      5.0898645E-08
   18.54000      4.9531280E-08
   18.60000      4.7971934E-08
   18.66000      4.6269214E-08
   18.72000      4.4461700E-08
   18.78000      4.2572079E-08
   18.84000      4.0608061E-08
   18.90000      3.8568974E-08
   18.96000      3.6455070E-08
   19.02000      3.4275686E-08
   19.08000      3.2053144E-08
   19.14000      2.9820988E-08
   19.20000      2.7617340E-08
   19.26000      2.5476341E-08
   19.32000      2.3421181E-08
   19.38000      2.1461632E-08
   19.44000      1.9597094E-08
   19.50000      1.7823634E-08
   19.56000      1.6141765E-08
   19.62000      1.4561138E-08
   19.68000      1.3099631E-08
   19.74000      1.1776621E-08
   19.80000      1.0603017E-08
   19.86000      9.5722603E-09
   19.92000      8.6565937E-09
   19.98000      7.8109457E-09
   20.04000      6.9838282E-09
   20.10000      6.1316436E-09
   20.16000      5.2311946E-09
   20.22000      4.2855959E-09
   20.28000      3.3211458E-09
   20.34000      2.3760804E-09
   20.40000      1.4851994E-09
   20.46000      6.6583911E-10
   20.52000     -8.9887979E-11
   20.58000     -8.1405532E-10
   20.64000     -1.5537092E-09
   20.70000     -2.3568152E-09
   20.76000     -3.2579905E-09
   20.82000     -4.2682076E-09
   20.88000     -5.3708815E-09
   20.94000     -6.5245436E-09
   21.00000     -7.6704723E-09
   21.06000     -8.7428571E-09
   21.12000     -9.6791926E-09
   21.18000     -1.0429283E-08
   21.24000     -1.0961963E-08
   21.30000     -1.1268996E-08
   21.36000     -1.1365682E-08
   21.42000     -1.1287766E-08
   21.48000     -1.1084722E-08
   21.54000     -1.0810326E-08
   21.60000     -1.0512574E-08
   21.66000     -1.0225639E-08
   21.72000     -9.9663806E-09
   21.78000     -9.7365511E-09
   21.84000     -9.5298525E-09
   21.90000     -9.3410284E-09
   21.96000     -9.1732364E-09
   22.02000     -9.0405514E-09
   22.08000     -8.9644603E-09
   22.14000     -8.9659125E-09
   22.20000     -9.0566230E-09
   22.26000     -9.2340784E-09
   22.32000     -9.4833279E-09
   22.38000     -9.7859019E-09
   22.44000     -1.0132894E-08
   22.50000     -1.0536875E-08
   22.56000     -1.1037041E-08
   22.62000     -1.1693989E-08
   22.68000     -1.2574427E-08
   22.74000     -1.3730154E-08
   22.80000     -1.5178527E-08
   22.86000     -1.6891709E-08
   22.92000     -1.8799311E-08
   22.98000     -2.0804260E-08
   23.04000     -2.2806860E-08
   23.10000     -2.4728864E-08
   23.16000     -2.6529463E-08
   23.22000     -2.8208150E-08
   23.28000     -2.9794624E-08
   23.34000     -3.1330600E-08
   23.40000     -3.2851226E-08
   23.46000     -3.4373098E-08
   23.52000     -3.5892715E-08
   23.58000     -3.7394301E-08
   23.64000     -3.8862169E-08
   23.70000     -4.0291166E-08
   23.76000     -4.1690125E-08
   23.82000     -4.3076867E-08
   23.88000     -4.4467289E-08
   23.94000     -4.5864088E-08
   24.00000     -4.7250964E-08
   24.06000     -4.8595819E-08
   24.12000     -4.9862670E-08
   24.18000     -5.1027794E-08
   24.24000     -5.2093370E-08
   24.30000     -5.3092297E-08
   24.36000     -5.4080928E-08
   24.42000     -5.5121195E-08
   24.48000     -5.6258038E-08
   24.54000     -5.7500365E-08
   24.60000     -5.8812940E-08
   24.66000     -6.0122872E-08
   24.72000     -6.1338888E-08
   24.78000     -6.2376927E-08
   24.84000     -6.3183201E-08
   24.90000     -6.3746974E-08
   24.96000     -6.4099289E-08
   25.02000     -6.4299243E-08
   25.08000     -6.4413626E-08
   25.14000     -6.4497790E-08
   25.20000     -6.4584206E-08
   25.26000     -6.4681480E-08
   25.32000     -6.4782242E-08
   25.38000     -6.4875074E-08
   25.44000     -6.4954506E-08
   25.50000     -6.5024899E-08
   25.56000     -6.5097097E-08
   25.62000     -6.5180153E-08
   25.68000     -6.5272424E-08
   25.74000     -6.5356701E-08
   25.80000     -6.5401593E-08
   25.86000     -6.5368937E-08
   25.92000     -6.5223915E-08
   25.98000     -6.4943734E-08
   26.04000     -6.4521103E-08
   26.10000     -6.3961551E-08
   26.16000     -6.3276225E-08
   26.22000     -6.2473902E-08
   26.28000     -6.1556477E-08
   26.34000     -6.0520222E-08
   26.40000     -5.9362549E-08
   26.46000     -5.8090979E-08
   26.52000     -5.6729714E-08
   26.58000     -5.5319990E-08
   26.64000     -5.3913080E-08
   26.70000     -5.2558086E-08
   26.76000     -5.1289433E-08
   26.82000     -5.0119194E-08
   26.88000     -4.9037730E-08
   26.94000     -4.8022461E-08
   27.00000     -4.7051017E-08
   27.06000     -4.6113062E-08
   27.12000     -4.5215494E-08
   27.18000     -4.4378645E-08
   27.24000     -4.3624897E-08
   27.30000     -4.2964452E-08
   27.36000     -4.2384123E-08
   27.42000     -4.1843720E-08
   27.48000     -4.1281634E-08
   27.54000     -4.0627562E-08
   27.60000     -3.9817898E-08
   27.66000     -3.8808835E-08
   27.72000     -3.7583373E-08
   27.78000     -3.6150926E-08
   27.84000     -3.4540562E-08
   27.90000     -3.2790584E-08
   27.96000     -3.0937855E-08
   28.02000     -2.9009660E-08
   28.08000     -2.7020102E-08
   28.14000     -2.4971465E-08
   28.20000     -2.2859757E-08
   28.26000     -2.0682284E-08
   28.32000     -1.8444524E-08
   28.38000     -1.6163609E-08
   28.44000     -1.3866877E-08
   28.50000     -1.1585699E-08
   28.56000     -9.3466497E-09
   28.62000     -7.1633166E-09
   28.68000     -5.0318985E-09
   28.74000     -2.9323732E-09
   28.80000     -8.3487611E-10
   28.86000      1.2910014E-09
   28.92000      3.4672356E-09
   28.98000      5.7015970E-09
   29.04000      7.9865581E-09
   29.10000      1.0302601E-08
   29.16000      1.2624239E-08
   29.22000      1.4926439E-08
   29.28000      1.7189368E-08
   29.34000      1.9400158E-08
   29.40000      2.1551395E-08
   29.46000      2.3637098E-08
   29.52000      2.5647582E-08
   29.58000      2.7565088E-08
   29.64000      2.9361864E-08
   29.70000      3.1001765E-08
   29.76000      3.2445367E-08
   29.82000      3.3657379E-08
   29.88000      3.4614271E-08
   29.94000      3.5309739E-08
   30.00000      3.5756425E-08
   30.06000      3.5983277E-08
   30.12000      3.6029554E-08
   30.18000      3.5937230E-08
   30.24000      3.5744062E-08
   30.30000      3.5478894E-08
   30.36000      3.5160035E-08
   30.42000      3.4796301E-08
   30.48000      3.4389767E-08
   30.54000      3.3938765E-08
   30.60000      3.3440006E-08
   30.66000      3.2889254E-08
   30.72000      3.2280603E-08
   30.78000      3.1605268E-08
   30.84000      3.0850931E-08
   30.90000      3.0002674E-08
   30.96000      2.9045900E-08
   31.02000      2.7970708E-08
   31.08000      2.6776368E-08
   31.14000      2.5474028E-08
   31.20000      2.4086205E-08
   31.26000      2.2642514E-08
   31.32000      2.1172584E-08
   31.38000      1.9698330E-08
   31.44000      1.8228189E-08
   31.50000      1.6755433E-08
   31.56000      1.5261195E-08
   31.62000      1.3721109E-08
   31.68000      1.2113178E-08
   31.74000      1.0424198E-08
   31.80000      8.6528802E-09
   31.86000      6.8092958E-09
   31.92000      4.9117004E-09
   31.98000      2.9824210E-09
   32.04000      1.0442185E-09
   32.10000     -8.8243224E-10
   32.16000     -2.7815963E-09
   32.22000     -4.6443493E-09
   32.28000     -6.4715131E-09
   32.34000     -8.2756415E-09
   32.40000     -1.0080513E-08
   32.46000     -1.1916713E-08
   32.52000     -1.3813334E-08
   32.58000     -1.5787842E-08
   32.64000     -1.7837706E-08
   32.70000     -1.9937458E-08
   32.76000     -2.2043251E-08
   32.82000     -2.4104061E-08
   32.88000     -2.6075970E-08
   32.94000     -2.7934346E-08
   33.00000     -2.9679397E-08
   33.06000     -3.1333027E-08
   33.12000     -3.2928302E-08
   33.18000     -3.4495610E-08
   33.24000     -3.6050714E-08
   33.30000     -3.7588965E-08
   33.36000     -3.9087141E-08
   33.42000     -4.0511605E-08
   33.48000     -4.1828997E-08
   33.54000     -4.3015426E-08
   33.60000     -4.4061252E-08
   33.66000     -4.4970943E-08
   33.72000     -4.5759489E-08
   33.78000     -4.6448157E-08
   33.84000     -4.7061647E-08
   33.90000     -4.7627328E-08
   33.96000     -4.8175259E-08
   34.02000     -4.8736855E-08
   34.08000     -4.9340372E-08
   34.14000     -5.0003351E-08
   34.20000     -5.0724228E-08
   34.26000     -5.1476711E-08
   34.32000     -5.2210538E-08
   34.38000     -5.2859985E-08
   34.44000     -5.3358672E-08
   34.50000     -5.3656311E-08
   34.56000     -5.3731640E-08
   34.62000     -5.3596885E-08
   34.68000     -5.3291867E-08
   34.74000     -5.2869712E-08
   34.80000     -5.2379409E-08
   34.86000     -5.1851522E-08
   34.92000     -5.1292218E-08
   34.98000     -5.0687305E-08
   35.04000     -5.0014073E-08
   35.10000     -4.9255622E-08
   35.16000     -4.8411479E-08
   35.22000     -4.7500329E-08
   35.28000     -4.6553961E-08
   35.34000     -4.5605681E-08
   35.40000     -4.4678568E-08
   35.46000     -4.3778932E-08
   35.52000     -4.2897913E-08
   35.58000     -4.2020247E-08
   35.64000     -4.1136090E-08
   35.70000     -4.0250452E-08
   35.76000     -3.9385817E-08
   35.82000     -3.8576843E-08
   35.88000     -3.7859351E-08
   35.94000     -3.7258310E-08
   36.00000     -3.6779948E-08
   36.06000     -3.6410924E-08
   36.12000     -3.6124664E-08
   36.18000     -3.5891819E-08
   36.24000     -3.5690302E-08
   36.30000     -3.5510990E-08
   36.36000     -3.5357235E-08
   36.42000     -3.5239317E-08
   36.48000     -3.5167066E-08
   36.54000     -3.5144414E-08
   36.60000     -3.5168394E-08
   36.66000     -3.5232642E-08
   36.72000     -3.5332910E-08
   36.78000     -3.5470944E-08
   36.84000     -3.5653702E-08
   36.90000     -3.5887247E-08
   36.96000     -3.6167556E-08
   37.02000     -3.6472770E-08
   37.08000     -3.6761566E-08
   37.14000     -3.6980207E-08
   37.20000     -3.7077207E-08
   37.26000     -3.7020893E-08
   37.32000     -3.6813063E-08
   37.38000     -3.6492754E-08
   37.44000     -3.6127421E-08
   37.50000     -3.5793686E-08
   37.56000     -3.5554059E-08
   37.62000     -3.5437857E-08
   37.68000     -3.5433242E-08
   37.74000     -3.5493184E-08
   37.80000     -3.5552773E-08
   37.86000     -3.5551206E-08
   37.92000     -3.5450192E-08
   37.98000     -3.5242415E-08
   38.04000     -3.4947949E-08
   38.10000     -3.4601374E-08
   38.16000     -3.4235732E-08
   38.22000     -3.3869938E-08
   38.28000     -3.3504012E-08
   38.34000     -3.3122586E-08
   38.40000     -3.2703376E-08
   38.46000     -3.2225831E-08
   38.52000     -3.1675874E-08
   38.58000     -3.1045456E-08
   38.64000     -3.0328764E-08
   38.70000     -2.9518779E-08
   38.76000     -2.8607461E-08
   38.82000     -2.7590531E-08
   38.88000     -2.6474723E-08
   38.94000     -2.5283310E-08
   39.00000     -2.4055769E-08
   39.06000     -2.2839766E-08
   39.12000     -2.1677279E-08
   39.18000     -2.0589839E-08
   39.24000     -1.9568992E-08
   39.30000     -1.8576523E-08
   39.36000     -1.7555308E-08
   39.42000     -1.6447316E-08
   39.48000     -1.5212230E-08
   39.54000     -1.3839708E-08
   39.60000     -1.2350626E-08
   39.66000     -1.0786860E-08
   39.72000     -9.1936965E-09
   39.78000     -7.6017885E-09
   39.84000     -6.0158012E-09
   39.90000     -4.4143000E-09
   39.96000     -2.7610052E-09
   40.02000     -1.0230158E-09
   40.08000      8.1129198E-10
   40.14000      2.7220253E-09
   40.20000      4.6595536E-09
   40.26000      6.5578059E-09
   40.32000      8.3537186E-09
   40.38000      1.0004750E-08
   40.44000      1.1497044E-08
   40.50000      1.2840846E-08
   40.56000      1.4055437E-08
   40.62000      1.5150780E-08
   40.68000      1.6114791E-08
   40.74000      1.6912884E-08
   40.80000      1.7500875E-08
   40.86000      1.7846219E-08
   40.92000      1.7948302E-08
   40.98000      1.7848517E-08
   41.04000      1.7624901E-08
   41.10000      1.7372635E-08
   41.16000      1.7177607E-08
   41.22000      1.7093207E-08
   41.28000      1.7129127E-08
   41.34000      1.7255951E-08
   41.40000      1.7422883E-08
   41.46000      1.7580826E-08
   41.52000      1.7701174E-08
   41.58000      1.7782869E-08
   41.64000      1.7845451E-08
   41.70000      1.7911839E-08
   41.76000      1.7988958E-08
   41.82000      1.8055236E-08
   41.88000      1.8061039E-08
   41.94000      1.7942513E-08
   42.00000      1.7643419E-08
   42.06000      1.7135790E-08
   42.12000      1.6430521E-08
   42.18000      1.5573091E-08
   42.24000      1.4625869E-08
   42.30000      1.3644230E-08
   42.36000      1.2656365E-08
   42.42000      1.1654983E-08
   42.48000      1.0604032E-08
   42.54000      9.4571080E-09
   42.60000      8.1794447E-09
   42.66000      6.7642674E-09
   42.72000      5.2371512E-09
   42.78000      3.6475956E-09
   42.84000      2.0525956E-09
   42.90000      5.0025734E-10
   42.96000     -9.7898145E-10
   43.02000     -2.3697544E-09
   43.08000     -3.6594123E-09
   43.14000     -4.8220339E-09
   43.20000     -5.8065868E-09
   43.26000     -6.5351227E-09
   43.32000     -6.9122867E-09
   43.38000     -6.8421819E-09
   43.44000     -6.2450756E-09
   43.50000     -5.0662488E-09
   43.56000     -3.2725427E-09
   43.62000     -8.3748380E-10
   43.68000      2.2791988E-09
   43.74000      6.1495902E-09
   43.80000      1.0886559E-08
   43.86000      1.6641717E-08
   43.92000      2.3595975E-08
   43.98000      3.1950236E-08
   44.04000      4.1924121E-08
   44.10000      5.3767206E-08
   44.16000      6.7781777E-08
   44.22000      8.4350923E-08
   44.28000      1.0396359E-07
   44.34000      1.2723018E-07
   44.40000      1.5488685E-07
   44.46000      1.8779312E-07
   44.52000      2.2693094E-07
   44.58000      2.7341372E-07
   44.64000      3.2851091E-07
   44.70000      3.9368717E-07
   44.76000      4.7065035E-07
   44.82000      5.6139942E-07
   44.88000      6.6826584E-07
   44.94000      7.9394511E-07
   45.00000      9.4152267E-07
   45.06000      1.1145021E-06
   45.12000      1.3168429E-06
   45.18000      1.5530145E-06
   45.24000      1.8280673E-06
   45.30000      2.1477144E-06
   45.36000      2.5184197E-06
   45.42000      2.9474834E-06
   45.48000      3.4431255E-06
   45.54000      4.0145655E-06
   45.60000      4.6721061E-06
   45.66000      5.4272227E-06
   45.72000      6.2926611E-06
   45.78000      7.2825487E-06
   45.84000      8.4125077E-06
   45.90000      9.6997683E-06
   45.96000      1.1163287E-05
   46.02000      1.2823853E-05
   46.08000      1.4704195E-05
   46.14000      1.6829086E-05
   46.20000      1.9225447E-05
   46.26000      2.1922448E-05
   46.32000      2.4951609E-05
   46.38000      2.8346880E-05
   46.44000      3.2144726E-05
   46.50000      3.6384150E-05
   46.56000      4.1106745E-05
   46.62000      4.6356705E-05
   46.68000      5.2180811E-05
   46.74000      5.8628393E-05
   46.80000      6.5751294E-05
   46.86000      7.3603806E-05
   46.92000      8.2242557E-05
   46.98000      9.1726397E-05
   47.04000      1.0211617E-04
   47.10000      1.1347447E-04
   47.16000      1.2586534E-04
   47.22000      1.3935393E-04
   47.28000      1.5400616E-04
   47.34000      1.6988830E-04
   47.40000      1.8706644E-04
   47.46000      2.0560609E-04
   47.52000      2.2557162E-04
   47.58000      2.4702578E-04
   47.64000      2.7002886E-04
   47.70000      2.9463827E-04
   47.76000      3.2090762E-04
   47.82000      3.4888621E-04
   47.88000      3.7861810E-04
   47.94000      4.1014154E-04
   48.00000      4.4348816E-04
   48.06000      4.7868225E-04
   48.12000      5.1574019E-04
   48.18000      5.5466953E-04
   48.24000      5.9546868E-04
   48.30000      6.3812581E-04
   48.36000      6.8261888E-04
   48.42000      7.2891451E-04
   48.48000      7.7696802E-04
   48.54000      8.2672277E-04
   48.60000      8.7811041E-04
   48.66000      9.3105069E-04
   48.72000      9.8545104E-04
   48.78000      1.0412075E-03
   48.84000      1.0982041E-03
   48.90000      1.1563137E-03
   48.96000      1.2153989E-03
   49.02000      1.2753118E-03
   49.08000      1.3358954E-03
   49.14000      1.3969846E-03
   49.20000      1.4584069E-03
   49.26000      1.5199841E-03
   49.32000      1.5815333E-03
   49.38000      1.6428686E-03
   49.44000      1.7038020E-03
   49.50000      1.7641454E-03
   49.56000      1.8237124E-03
   49.62000      1.8823198E-03
   49.68000      1.9397896E-03
   49.74000      1.9959502E-03
   49.80000      2.0506382E-03
   49.86000      2.1037005E-03
   49.92000      2.1549962E-03
   49.98000      2.2043963E-03
   50.04000      2.2517871E-03
   50.10000      2.2970710E-03
   50.16000      2.3401661E-03
   50.22000      2.3810100E-03
   50.28000      2.4195572E-03
   50.34000      2.4557821E-03
   50.40000      2.4896786E-03
   50.46000      2.5212599E-03
   50.52000      2.5505596E-03
   50.58000      2.5776292E-03
   50.64000      2.6025395E-03
   50.70000      2.6253795E-03
   50.76000      2.6462534E-03
   50.82000      2.6652825E-03
   50.88000      2.6826006E-03
   50.94000      2.6983551E-03
   51.00000      2.7127033E-03
   51.06000      2.7258112E-03
   51.12000      2.7378520E-03
   51.18000      2.7490032E-03
   51.24000      2.7594445E-03
   51.30000      2.7693547E-03
   51.36000      2.7789108E-03
   51.42000      2.7882848E-03
   51.48000      2.7976427E-03
   51.54000      2.8071413E-03
   51.60000      2.8169274E-03
   51.66000      2.8271344E-03
   51.72000      2.8378821E-03
   51.78000      2.8492745E-03
   51.84000      2.8613985E-03
   51.90000      2.8743239E-03
   51.96000      2.8881005E-03
   52.02000      2.9027597E-03
   52.08000      2.9183137E-03
   52.14000      2.9347548E-03
   52.20000      2.9520576E-03
   52.26000      2.9701777E-03
   52.32000      2.9890533E-03
   52.38000      3.0086057E-03
   52.44000      3.0287416E-03
   52.50000      3.0493538E-03
   52.56000      3.0703230E-03
   52.62000      3.0915202E-03
   52.68000      3.1128079E-03
   52.74000      3.1340430E-03
   52.80000      3.1550792E-03
   52.86000      3.1757674E-03
   52.92000      3.1959601E-03
   52.98000      3.2155116E-03
   53.04000      3.2342810E-03
   53.10000      3.2521347E-03
   53.16000      3.2689478E-03
   53.22000      3.2846057E-03
   53.28000      3.2990056E-03
   53.34000      3.3120583E-03
   53.40000      3.3236893E-03
   53.46000      3.3338396E-03
   53.52000      3.3424662E-03
   53.58000      3.3495422E-03
   53.64000      3.3550579E-03
   53.70000      3.3590195E-03
   53.76000      3.3614496E-03
   53.82000      3.3623858E-03
   53.88000      3.3618810E-03
   53.94000      3.3600021E-03
   54.00000      3.3568270E-03
   54.06000      3.3524465E-03
   54.12000      3.3469591E-03
   54.18000      3.3404718E-03
   54.24000      3.3330962E-03
   54.30000      3.3249480E-03
   54.36000      3.3161445E-03
   54.42000      3.3068035E-03
   54.48000      3.2970405E-03
   54.54000      3.2869675E-03
   54.60000      3.2766911E-03
   54.66000      3.2663092E-03
   54.72000      3.2559114E-03
   54.78000      3.2455761E-03
   54.84000      3.2353697E-03
   54.90000      3.2253459E-03
   54.96000      3.2155453E-03
   55.02000      3.2059939E-03
   55.08000      3.1967030E-03
   55.14000      3.1876697E-03
   55.20000      3.1788750E-03
   55.26000      3.1702858E-03
   55.32000      3.1618546E-03
   55.38000      3.1535209E-03
   55.44000      3.1452118E-03
   55.50000      3.1368430E-03
   55.56000      3.1283204E-03