  -2.400000      0.0000000E+00
  -2.340000      0.0000000E+00
  -2.280000      0.0000000E+00
  -2.220000      0.0000000E+00
  -2.160000      0.0000000E+00
  -2.100000      0.0000000E+00
  -2.040000      0.0000000E+00
  -1.980000      0.0000000E+00
  -1.920000     -2.4539703E-26
  -1.860000     -3.6994463E-25
  -1.800000     -2.5366633E-24
  -1.740000     -1.0345486E-23
  -1.680000     -2.6130806E-23
  -1.620000     -3.1054649E-23
  -1.560000      5.2068606E-23
  -1.500000      3.6738189E-22
  -1.440000      9.8967566E-22
  -1.380000      1.5440692E-21
  -1.320000      7.5270114E-22
  -1.260000     -3.4043123E-21
  -1.200000     -1.1937295E-20
  -1.140000     -2.1348401E-20
  -1.080000     -2.0631450E-20
  -1.020000      6.2368041E-21
 -0.9600000      6.7619585E-20
 -0.9000000      1.4352230E-19
 -0.8400000      1.7161365E-19
 -0.7800000      6.4128172E-20
 -0.7200000     -2.2831591E-19
 -0.6600000     -6.2420962E-19
 -0.6000000     -8.5643628E-19
 -0.5400000     -5.4627669E-19
 -0.4800000      5.4747549E-19
 -0.4200000      2.1844535E-18
 -0.3600000      3.4366068E-18
 -0.3000000      2.9113240E-18
 -0.2400000     -4.5925243E-19
 -0.1800000     -6.3028838E-18
 -0.1200000     -1.2033583E-17
 -5.9999999E-02 -1.3249864E-17
  0.0000000E+00 -5.7518786E-18
  5.9999999E-02  1.1312692E-17
  0.1200000      3.2752044E-17
  0.1800000      4.7195025E-17
  0.2400000      4.0977224E-17
  0.3000000      5.5790197E-18
  0.3600000     -5.4344691E-17
  0.4200000     -1.1700603E-16
  0.4800000     -1.4782411E-16
  0.5400000     -1.1318075E-16
  0.6000000      2.3677482E-19
  0.6600000      1.6898389E-16
  0.7200000      3.2948698E-16
  0.7800000      3.9480454E-16
  0.8400000      2.9056676E-16
  0.9000000     -1.3000678E-18
  0.9600000     -4.1086447E-16
   1.020000     -7.8163385E-16
   1.080000     -9.1715817E-16
   1.140000     -6.6585546E-16
   1.200000     -1.4323569E-17
   1.260000      8.5659992E-16
   1.320000      1.5964752E-15
   1.380000      1.8070817E-15
   1.440000      1.2312106E-15
   1.500000     -6.9760409E-17
   1.560000     -1.6498423E-15
   1.620000     -2.7975186E-15
   1.680000     -2.8347279E-15
   1.740000     -1.4869030E-15
   1.800000      8.6063365E-16
   1.860000      3.1976785E-15
   1.920000      4.2794866E-15
   1.980000      3.2497645E-15
   2.040000      2.0422155E-16
   2.100000     -3.6414082E-15
   2.160000     -6.3704382E-15
   2.220000     -6.2664789E-15
   2.280000     -2.7854092E-15
   2.340000      2.9435142E-15
   2.400000      8.4602913E-15
   2.460000      1.1103054E-14
   2.520000      9.3868810E-15
   2.580000      3.8607749E-15
   2.640000     -3.1234564E-15
   2.700000     -8.6985244E-15
   2.760000     -1.1118883E-14
   2.820000     -1.0720667E-14
   2.880000     -9.4873399E-15
   2.940000     -9.3540711E-15
   3.000000     -1.0298215E-14
   3.060000     -9.6269081E-15
   3.120000     -3.3222830E-15
   3.180000      1.0975003E-14
   3.240000      3.1053810E-14
   3.300000      4.9421750E-14
   3.360000      5.5994001E-14
   3.420000      4.3409839E-14
   3.480000      1.2261800E-14
   3.540000     -2.7127535E-14
   3.600000     -5.8398043E-14
   3.660000     -6.7399184E-14
   3.720000     -5.1045837E-14
   3.780000     -2.1529626E-14
   3.840000     -2.1921647E-15
   3.900000     -1.5445644E-14
   3.960000     -6.7841498E-14
   4.020000     -1.4017525E-13
   4.080000     -1.8945684E-13
   4.140000     -1.6458371E-13
   4.200000     -3.0678788E-14
   4.260000      2.0832102E-13
   4.320000      5.0008776E-13
   4.380000      7.5389060E-13
   4.440000      8.6821278E-13
   4.500000      7.6574348E-13
   4.560000      4.2160063E-13
   4.620000     -1.2652761E-13
   4.680000     -7.8919461E-13
   4.740000     -1.4499571E-12
   4.800000     -1.9910241E-12
   4.860000     -2.3080782E-12
   4.920000     -2.3108074E-12
   4.980000     -1.9165817E-12
   5.040000     -1.0516475E-12
   5.100000      3.2751419E-13
   5.160000      2.1910492E-12
   5.220000      4.3846372E-12
   5.280000      6.5959131E-12
   5.340000      8.3644923E-12
   5.400000      9.1484815E-12
   5.460000      8.4377297E-12
   5.520000      5.8817560E-12
   5.580000      1.3893577E-12
   5.640000     -4.8359806E-12
   5.700000     -1.2336679E-11
   5.760000     -2.0498664E-11
   5.820000     -2.8663488E-11
   5.880000     -3.6208824E-11
   5.940000     -4.2570444E-11
   6.000000     -4.7213553E-11
   6.060000     -4.9593784E-11
   6.120000     -4.9161390E-11
   6.180000     -4.5446209E-11
   6.240000     -3.8221069E-11
   6.300000     -2.7696354E-11
   6.360000     -1.4670818E-11
   6.420000     -5.7004271E-13
   6.480000      1.2657560E-11
   6.540000      2.2764740E-11
   6.600000      2.7486395E-11
   6.660000      2.4806939E-11
   6.720000      1.3167274E-11
   6.780000     -8.3957754E-12
   6.840000     -4.0155539E-11
   6.900000     -8.1625456E-11
   6.960000     -1.3151964E-10
   7.020000     -1.8778229E-10
   7.080000     -2.4773436E-10
   7.140000     -3.0835870E-10
   7.200000     -3.6668757E-10
   7.260000     -4.2020301E-10
   7.320000     -4.6713922E-10
   7.380000     -5.0660381E-10
   7.440000     -5.3850024E-10
   7.500000     -5.6330468E-10
   7.560000     -5.8178823E-10
   7.620000     -5.9477312E-10
   7.680000     -6.0296818E-10
   7.740000     -6.0688232E-10
   7.800000     -6.0678695E-10
   7.860000     -6.0270006E-10
   7.920000     -5.9438704E-10
   7.980000     -5.8139565E-10
   8.040000     -5.6314697E-10
   8.100000     -5.3909066E-10
   8.160000     -5.0890153E-10
   8.220000     -4.7267223E-10
   8.280000     -4.3104623E-10
   8.340000     -3.8524434E-10
   8.400000     -3.3696648E-10
   8.460000     -2.8818964E-10
   8.520000     -2.4092003E-10
   8.580000     -1.9697667E-10
   8.640000     -1.5787316E-10
   8.700000     -1.2482287E-10
   8.760000     -9.8836168E-11
   8.820000     -8.0833243E-11
   8.880000     -7.1691840E-11
   8.940000     -7.2186972E-11
   9.000000     -8.2842282E-11
   9.060000     -1.0376299E-10
   9.120000     -1.3452889E-10
   9.180000     -1.7419169E-10
   9.240000     -2.2136921E-10
   9.300000     -2.7439395E-10
   9.360000     -3.3147554E-10
   9.420000     -3.9086262E-10
   9.480000     -4.5101262E-10
   9.540000     -5.1077448E-10
   9.600000     -5.6956073E-10
   9.660000     -6.2746203E-10
   9.720000     -6.8526029E-10
   9.780000     -7.4433293E-10
   9.840000     -8.0648643E-10
   9.900000     -8.7376739E-10
   9.960000     -9.4827912E-10
   10.02000     -1.0319791E-09
   10.08000     -1.1264133E-09
   10.14000     -1.2323743E-09
   10.20000     -1.3495477E-09
   10.26000     -1.4762790E-09
   10.32000     -1.6096046E-09
   10.38000     -1.7456089E-09
   10.44000     -1.8800372E-09
   10.50000     -2.0089752E-09
   10.56000     -2.1293745E-09
   10.62000     -2.2392728E-09
   10.68000     -2.3377023E-09
   10.74000     -2.4244133E-09
   10.80000     -2.4995954E-09
   10.86000     -2.5637381E-09
   10.92000     -2.6176523E-09
   10.98000     -2.6625491E-09
   11.04000     -2.7000029E-09
   11.10000     -2.7316813E-09
   11.16000     -2.7588498E-09
   11.22000     -2.7818163E-09
   11.28000     -2.7995897E-09
   11.34000     -2.8099805E-09
   11.40000     -2.8102207E-09
   11.46000     -2.7979283E-09
   11.52000     -2.7720726E-09
   11.58000     -2.7335665E-09
   11.64000     -2.6852676E-09
   11.70000     -2.6314426E-09
   11.76000     -2.5769795E-09
   11.82000     -2.5267193E-09
   11.88000     -2.4851361E-09
   11.94000     -2.4563609E-09
   12.00000     -2.4443152E-09
   12.06000     -2.4526894E-09
   12.12000     -2.4846254E-09
   12.18000     -2.5422007E-09
   12.24000     -2.6259626E-09
   12.30000     -2.7347482E-09
   12.36000     -2.8658416E-09
   12.42000     -3.0153091E-09
   12.48000     -3.1782490E-09
   12.54000     -3.3487793E-09
   12.60000     -3.5198313E-09
   12.66000     -3.6830197E-09
   12.72000     -3.8289034E-09
   12.78000     -3.9477701E-09
   12.84000     -4.0307473E-09
   12.90000     -4.0707957E-09
   12.96000     -4.0630992E-09
   13.02000     -4.0046420E-09
   13.08000     -3.8931756E-09
   13.14000     -3.7261212E-09
   13.20000     -3.5000025E-09
   13.26000     -3.2107008E-09
   13.32000     -2.8543103E-09
   13.38000     -2.4279903E-09
   13.44000     -1.9301716E-09
   13.50000     -1.3598935E-09
   13.56000     -7.1568518E-10
   13.62000      5.1086236E-12
   13.68000      8.0564544E-10
   13.74000      1.6871787E-09
   13.80000      2.6453932E-09
   13.86000      3.6666354E-09
   13.92000      4.7253623E-09
   13.98000      5.7837068E-09
   14.04000      6.7932788E-09
   14.10000      7.6986675E-09
   14.16000      8.4418037E-09
   14.22000      8.9665653E-09
   14.28000      9.2233350E-09
   14.34000      9.1735366E-09
   14.40000      8.7940633E-09
   14.46000      8.0812548E-09
   14.52000      7.0537172E-09
   14.58000      5.7532463E-09
   14.64000      4.2433235E-09
   14.70000      2.6050850E-09
   14.76000      9.3109565E-10
   14.82000     -6.8246891E-10
   14.88000     -2.1444675E-09
   14.94000     -3.3774152E-09
   15.00000     -4.3251243E-09
   15.06000     -4.9583520E-09
   15.12000     -5.2775304E-09
   15.18000     -5.3120233E-09
   15.24000     -5.1159330E-09
   15.30000     -4.7611821E-09
   15.36000     -4.3290713E-09
   15.42000     -3.9017283E-09
   15.48000     -3.5545902E-09
   15.54000     -3.3505769E-09
   15.60000     -3.3360079E-09
   15.66000     -3.5379293E-09
   15.72000     -3.9624610E-09
   15.78000     -4.5940656E-09
   15.84000     -5.3961124E-09
   15.90000     -6.3134320E-09
   15.96000     -7.2774706E-09
   16.02000     -8.2140508E-09
   16.08000     -9.0528074E-09
   16.14000     -9.7365396E-09
   16.20000     -1.0228383E-08
   16.26000     -1.0515252E-08
   16.32000     -1.0607065E-08
   16.38000     -1.0532623E-08
   16.44000     -1.0333849E-08
   16.50000     -1.0060264E-08
   16.56000     -9.7649107E-09
   16.62000     -9.5019264E-09
   16.68000     -9.3250252E-09
   16.74000     -9.2857286E-09
   16.80000     -9.4303667E-09
   16.86000     -9.7955644E-09
   16.92000     -1.0402798E-08
   16.98000     -1.1253412E-08
   17.04000     -1.2325801E-08
   17.10000     -1.3576213E-08
   17.16000     -1.4943723E-08
   17.22000     -1.6358637E-08
   17.28000     -1.7752388E-08
   17.34000     -1.9066380E-08
   17.40000     -2.0257643E-08
   17.46000     -2.1300345E-08
   17.52000     -2.2183873E-08
   17.58000     -2.2909203E-08
   17.64000     -2.3485629E-08
   17.70000     -2.3929021E-08
   17.76000     -2.4261590E-08
   17.82000     -2.4512008E-08
   17.88000     -2.4714410E-08
   17.94000     -2.4905315E-08
   18.00000     -2.5118457E-08
   18.06000     -2.5378567E-08
   18.12000     -2.5695821E-08
   18.18000     -2.6062761E-08
   18.24000     -2.6455062E-08
   18.30000     -2.6836544E-08
   18.36000     -2.7167463E-08
   18.42000     -2.7413854E-08
   18.48000     -2.7554924E-08
   18.54000     -2.7585887E-08
   18.60000     -2.7515243E-08
   18.66000     -2.7357787E-08
   18.72000     -2.7126580E-08
   18.78000     -2.6827633E-08
   18.84000     -2.6459686E-08
   18.90000     -2.6018872E-08
   18.96000     -2.5505562E-08
   19.02000     -2.4929575E-08
   19.08000     -2.4310827E-08
   19.14000     -2.3674797E-08
   19.20000     -2.3044656E-08
   19.26000     -2.2433337E-08
   19.32000     -2.1838686E-08
   19.38000     -2.1243398E-08
   19.44000     -2.0619826E-08
   19.50000     -1.9938099E-08
   19.56000     -1.9175395E-08
   19.62000     -1.8323780E-08
   19.68000     -1.7394486E-08
   19.74000     -1.6417166E-08
   19.80000     -1.5434146E-08
   19.86000     -1.4491296E-08
   19.92000     -1.3628671E-08
   19.98000     -1.2874240E-08
   20.04000     -1.2242859E-08
   20.10000     -1.1740192E-08
   20.16000     -1.1368908E-08
   20.22000     -1.1133296E-08
   20.28000     -1.1039298E-08
   20.34000     -1.1089440E-08
   20.40000     -1.1274909E-08
   20.46000     -1.1568866E-08
   20.52000     -1.1924784E-08
   20.58000     -1.2281688E-08
   20.64000     -1.2575260E-08
   20.70000     -1.2751392E-08
   20.76000     -1.2777669E-08
   20.82000     -1.2648913E-08
   20.88000     -1.2384979E-08
   20.94000     -1.2021695E-08
   21.00000     -1.1598297E-08
   21.06000     -1.1146030E-08
   21.12000     -1.0682128E-08
   21.18000     -1.0211246E-08
   21.24000     -9.7332347E-09
   21.30000     -9.2533501E-09
   21.36000     -8.7897565E-09
   21.42000     -8.3743199E-09
   21.48000     -8.0457481E-09
   21.54000     -7.8376710E-09
   21.60000     -7.7667197E-09
   21.66000     -7.8257854E-09
   21.72000     -7.9854345E-09
   21.78000     -8.2031200E-09
   21.84000     -8.4366736E-09
   21.90000     -8.6571115E-09
   21.96000     -8.8563397E-09
   22.02000     -9.0474286E-09
   22.08000     -9.2579659E-09
   22.14000     -9.5193569E-09
   22.20000     -9.8561665E-09
   22.26000     -1.0279306E-08
   22.32000     -1.0785237E-08
   22.38000     -1.1360837E-08
   22.44000     -1.1991229E-08
   22.50000     -1.2666542E-08
   22.56000     -1.3384058E-08
   22.62000     -1.4144417E-08
   22.68000     -1.4943529E-08
   22.74000     -1.5764410E-08
   22.80000     -1.6573670E-08
   22.86000     -1.7325734E-08
   22.92000     -1.7974392E-08
   22.98000     -1.8487709E-08
   23.04000     -1.8860282E-08
   23.10000     -1.9117369E-08
   23.16000     -1.9308342E-08
   23.22000     -1.9491265E-08
   23.28000     -1.9714070E-08
   23.34000     -1.9999423E-08
   23.40000     -2.0339179E-08
   23.46000     -2.0700597E-08
   23.52000     -2.1041648E-08
   23.58000     -2.1329102E-08
   23.64000     -2.1551591E-08
   23.70000     -2.1722002E-08
   23.76000     -2.1867967E-08
   23.82000     -2.2014440E-08
   23.88000     -2.2166017E-08
   23.94000     -2.2297026E-08
   24.00000     -2.2354401E-08
   24.06000     -2.2273040E-08
   24.12000     -2.1998240E-08
   24.18000     -2.1506729E-08
   24.24000     -2.0818323E-08
   24.30000     -1.9993610E-08
   24.36000     -1.9118247E-08
   24.42000     -1.8279058E-08
   24.48000     -1.7539886E-08
   24.54000     -1.6925018E-08
   24.60000     -1.6415324E-08
   24.66000     -1.5958049E-08
   24.72000     -1.5486572E-08
   24.78000     -1.4943444E-08
   24.84000     -1.4298936E-08
   24.90000     -1.3559234E-08
   24.96000     -1.2762086E-08
   25.02000     -1.1962197E-08
   25.08000     -1.1212077E-08
   25.14000     -1.0545262E-08
   25.20000     -9.9673798E-09
   25.26000     -9.4572483E-09
   25.32000     -8.9764880E-09
   25.38000     -8.4834442E-09
   25.44000     -7.9464275E-09
   25.50000     -7.3522681E-09
   25.56000     -6.7083827E-09
   25.62000     -6.0388512E-09
   25.68000     -5.3766107E-09
   25.74000     -4.7546047E-09
   25.80000     -4.1983972E-09
   25.86000     -3.7218990E-09
   25.92000     -3.3267511E-09
   25.98000     -3.0049205E-09
   26.04000     -2.7434426E-09
   26.10000     -2.5299838E-09
   26.16000     -2.3579634E-09
   26.22000     -2.2301481E-09
   26.28000     -2.1598230E-09
   26.34000     -2.1689079E-09
   26.40000     -2.2828843E-09
   26.46000     -2.5232660E-09
   26.52000     -2.8994849E-09
   26.58000     -3.4029639E-09
   26.64000     -4.0062500E-09
   26.70000     -4.6688569E-09
   26.76000     -5.3491491E-09
   26.82000     -6.0189094E-09
   26.88000     -6.6754287E-09
   26.94000     -7.3460140E-09
   27.00000     -8.0820497E-09
   27.06000     -8.9434815E-09
   27.12000     -9.9783728E-09
   27.18000     -1.1204551E-08
   27.24000     -1.2600125E-08
   27.30000     -1.4106917E-08
   27.36000     -1.5646441E-08
   27.42000     -1.7143620E-08
   27.48000     -1.8550541E-08
   27.54000     -1.9862263E-08
   27.60000     -2.1119266E-08
   27.66000     -2.2395385E-08
   27.72000     -2.3775074E-08
   27.78000     -2.5327243E-08
   27.84000     -2.7084077E-08
   27.90000     -2.9031506E-08
   27.96000     -3.1113945E-08
   28.02000     -3.3251222E-08
   28.08000     -3.5361474E-08
   28.14000     -3.7382151E-08
   28.20000     -3.9282146E-08
   28.26000     -4.1061480E-08
   28.32000     -4.2739714E-08
   28.38000     -4.4338091E-08
   28.44000     -4.5862755E-08
   28.50000     -4.7295433E-08
   28.56000     -4.8594945E-08
   28.62000     -4.9708511E-08
   28.68000     -5.0588060E-08
   28.74000     -5.1205117E-08
   28.80000     -5.1558789E-08
   28.86000     -5.1674398E-08
   28.92000     -5.1594039E-08
   28.98000     -5.1362939E-08
   29.04000     -5.1016563E-08
   29.10000     -5.0572247E-08
   29.16000     -5.0027225E-08
   29.22000     -4.9362622E-08
   29.28000     -4.8551694E-08
   29.34000     -4.7569714E-08
   29.40000     -4.6403066E-08
   29.46000     -4.5055156E-08
   29.52000     -4.3547416E-08
   29.58000     -4.1914543E-08
   29.64000     -4.0194728E-08
   29.70000     -3.8417394E-08
   29.76000     -3.6592258E-08
   29.82000     -3.4703799E-08
   29.88000     -3.2713672E-08
   29.94000     -3.0571094E-08
   30.00000     -2.8228094E-08
   30.06000     -2.5654840E-08
   30.12000     -2.2849889E-08
   30.18000     -1.9841876E-08
   30.24000     -1.6682106E-08
   30.30000     -1.3430317E-08
   30.36000     -1.0138046E-08
   30.42000     -6.8348345E-09
   30.48000     -3.5217340E-09
   30.54000     -1.7466981E-10
   30.60000      3.2426057E-09
   30.66000      6.7592625E-09
   30.72000      1.0377629E-08
   30.78000      1.4059636E-08
   30.84000      1.7724940E-08
   30.90000      2.1262649E-08
   30.96000      2.4553760E-08
   31.02000      2.7497057E-08
   31.08000      3.0029351E-08
   31.14000      3.2132547E-08
   31.20000      3.3824904E-08
   31.26000      3.5140008E-08
   31.32000      3.6101849E-08
   31.38000      3.6705949E-08
   31.44000      3.6913899E-08
   31.50000      3.6663273E-08
   31.56000      3.5888881E-08
   31.62000      3.4547156E-08
   31.68000      3.2634805E-08
   31.74000      3.0195334E-08
   31.80000      2.7311739E-08
   31.86000      2.4088621E-08
   31.92000      2.0630097E-08
   31.98000      1.7020776E-08
   32.04000      1.3315447E-08
   32.10000      9.5396517E-09
   32.16000      5.6996448E-09
   32.22000      1.7971997E-09
   32.28000     -2.1563917E-09
   32.34000     -6.1318906E-09
   32.40000     -1.0081536E-08
   32.46000     -1.3945569E-08
   32.52000     -1.7662760E-08
   32.58000     -2.1181037E-08
   32.64000     -2.4465166E-08
   32.70000     -2.7500244E-08
   32.76000     -3.0291606E-08
   32.82000     -3.2862644E-08
   32.88000     -3.5251791E-08
   32.94000     -3.7509029E-08
   33.00000     -3.9691361E-08
   33.06000     -4.1856570E-08
   33.12000     -4.4055376E-08
   33.18000     -4.6323386E-08
   33.24000     -4.8675236E-08
   33.30000     -5.1103211E-08
   33.36000     -5.3581651E-08
   33.42000     -5.6076150E-08
   33.48000     -5.8554768E-08
   33.54000     -6.0997174E-08
   33.60000     -6.3398204E-08
   33.66000     -6.5764382E-08
   33.72000     -6.8104463E-08
   33.78000     -7.0417954E-08
   33.84000     -7.2686106E-08
   33.90000     -7.4869313E-08
   33.96000     -7.6911931E-08
   34.02000     -7.8752521E-08
   34.08000     -8.0335404E-08
   34.14000     -8.1618985E-08
   34.20000     -8.2578289E-08
   34.26000     -8.3201691E-08
   34.32000     -8.3484800E-08
   34.38000     -8.3425270E-08
   34.44000     -8.3021526E-08
   34.50000     -8.2276152E-08
   34.56000     -8.1202209E-08
   34.62000     -7.9828986E-08
   34.68000     -7.8204046E-08
   34.74000     -7.6389888E-08
   34.80000     -7.4455812E-08
   34.86000     -7.2467692E-08
   34.92000     -7.0478947E-08
   34.98000     -6.8525395E-08
   35.04000     -6.6625077E-08
   35.10000     -6.4782043E-08
   35.16000     -6.2992186E-08
   35.22000     -6.1248819E-08
   35.28000     -5.9546601E-08
   35.34000     -5.7883671E-08
   35.40000     -5.6262817E-08
   35.46000     -5.4692503E-08
   35.52000     -5.3187957E-08
   35.58000     -5.1771526E-08
   35.64000     -5.0470977E-08
   35.70000     -4.9314774E-08
   35.76000     -4.8324743E-08
   35.82000     -4.7507935E-08
   35.88000     -4.6850573E-08
   35.94000     -4.6316654E-08
   36.00000     -4.5852502E-08
   36.06000     -4.5396398E-08
   36.12000     -4.4890793E-08
   36.18000     -4.4293568E-08
   36.24000     -4.3585182E-08
   36.30000     -4.2769912E-08
   36.36000     -4.1871139E-08
   36.42000     -4.0922409E-08
   36.48000     -3.9957026E-08
   36.54000     -3.8999325E-08
   36.60000     -3.8060119E-08
   36.66000     -3.7137514E-08
   36.72000     -3.6222552E-08
   36.78000     -3.5307568E-08
   36.84000     -3.4394120E-08
   36.90000     -3.3497649E-08
   36.96000     -3.2646994E-08
   37.02000     -3.1879125E-08
   37.08000     -3.1230904E-08
   37.14000     -3.0730927E-08
   37.20000     -3.0393981E-08
   37.26000     -3.0219578E-08
   37.32000     -3.0194126E-08
   37.38000     -3.0295329E-08
   37.44000     -3.0497002E-08
   37.50000     -3.0773162E-08
   37.56000     -3.1101177E-08
   37.62000     -3.1464278E-08
   37.68000     -3.1853720E-08
   37.74000     -3.2270197E-08
   37.80000     -3.2723666E-08
   37.86000     -3.3230698E-08
   37.92000     -3.3809414E-08
   37.98000     -3.4473153E-08
   38.04000     -3.5225135E-08
   38.10000     -3.6056207E-08
   38.16000     -3.6947011E-08
   38.22000     -3.7873932E-08
   38.28000     -3.8816761E-08
   38.34000     -3.9765048E-08
   38.40000     -4.0720543E-08
   38.46000     -4.1694488E-08
   38.52000     -4.2700556E-08
   38.58000     -4.3745871E-08
   38.64000     -4.4823430E-08
   38.70000     -4.5908973E-08
   38.76000     -4.6963766E-08
   38.82000     -4.7942819E-08
   38.88000     -4.8806026E-08
   38.94000     -4.9528587E-08
   39.00000     -5.0107325E-08
   39.06000     -5.0560786E-08
   39.12000     -5.0923163E-08
   39.18000     -5.1234121E-08
   39.24000     -5.1527675E-08
   39.30000     -5.1823545E-08
   39.36000     -5.2123294E-08
   39.42000     -5.2412194E-08
   39.48000     -5.2666053E-08
   39.54000     -5.2860951E-08
   39.60000     -5.2983097E-08
   39.66000     -5.3035784E-08
   39.72000     -5.3041255E-08
   39.78000     -5.3036405E-08
   39.84000     -5.3063410E-08
   39.90000     -5.3157880E-08
   39.96000     -5.3338269E-08
   40.02000     -5.3600051E-08
   40.08000     -5.3916594E-08
   40.14000     -5.4246293E-08
   40.20000     -5.4543552E-08
   40.26000     -5.4769817E-08
   40.32000     -5.4901250E-08
   40.38000     -5.4930975E-08
   40.44000     -5.4865861E-08
   40.50000     -5.4719518E-08
   40.56000     -5.4504373E-08
   40.62000     -5.4225616E-08
   40.68000     -5.3878981E-08
   40.74000     -5.3452947E-08
   40.80000     -5.2934269E-08
   40.86000     -5.2314761E-08
   40.92000     -5.1596643E-08
   40.98000     -5.0794355E-08
   41.04000     -4.9932002E-08
   41.10000     -4.9037087E-08
   41.16000     -4.8132673E-08
   41.22000     -4.7230721E-08
   41.28000     -4.6329092E-08
   41.34000     -4.5413696E-08
   41.40000     -4.4465530E-08
   41.46000     -4.3470578E-08
   41.52000     -4.2429310E-08
   41.58000     -4.1361911E-08
   41.64000     -4.0306748E-08
   41.70000     -3.9311612E-08
   41.76000     -3.8420378E-08
   41.82000     -3.7659849E-08
   41.88000     -3.7031935E-08
   41.94000     -3.6514329E-08
   42.00000     -3.6069288E-08
   42.06000     -3.5656750E-08
   42.12000     -3.5246313E-08
   42.18000     -3.4823717E-08
   42.24000     -3.4390375E-08
   42.30000     -3.3957502E-08
   42.36000     -3.3538452E-08
   42.42000     -3.3142371E-08
   42.48000     -3.2770796E-08
   42.54000     -3.2417383E-08
   42.60000     -3.2070176E-08
   42.66000     -3.1716180E-08
   42.72000     -3.1347856E-08
   42.78000     -3.0970504E-08
   42.84000     -3.0607730E-08
   42.90000     -3.0301475E-08
   42.96000     -3.0104005E-08
   43.02000     -3.0062672E-08
   43.08000     -3.0202262E-08
   43.14000     -3.0512119E-08
   43.20000     -3.0944594E-08
   43.26000     -3.1426598E-08
   43.32000     -3.1880681E-08
   43.38000     -3.2247716E-08
   43.44000     -3.2502768E-08
   43.50000     -3.2659059E-08
   43.56000     -3.2759750E-08
   43.62000     -3.2861838E-08
   43.68000     -3.3018132E-08
   43.74000     -3.3262872E-08
   43.80000     -3.3604163E-08
   43.86000     -3.4024197E-08
   43.92000     -3.4486312E-08
   43.98000     -3.4946844E-08
   44.04000     -3.5368494E-08
   44.10000     -3.5731489E-08
   44.16000     -3.6038919E-08
   44.22000     -3.6314333E-08
   44.28000     -3.6592304E-08
   44.34000     -3.6905536E-08
   44.40000     -3.7273633E-08
   44.46000     -3.7697930E-08
   44.52000     -3.8164142E-08
   44.58000     -3.8651123E-08
   44.64000     -3.9141586E-08
   44.70000     -3.9630116E-08
   44.76000     -4.0125389E-08
   44.82000     -4.0646206E-08
   44.88000     -4.1213468E-08
   44.94000     -4.1841552E-08
   45.00000     -4.2532257E-08
   45.06000     -4.3273293E-08
   45.12000     -4.4041361E-08
   45.18000     -4.4808431E-08
   45.24000     -4.5549022E-08
   45.30000     -4.6246001E-08
   45.36000     -4.6893405E-08
   45.42000     -4.7495679E-08
   45.48000     -4.8064038E-08
   45.54000     -4.8611408E-08
   45.60000     -4.9147804E-08
   45.66000     -4.9677457E-08
   45.72000     -5.0198274E-08
   45.78000     -5.0703218E-08
   45.84000     -5.1182557E-08
   45.90000     -5.1625726E-08
   45.96000     -5.2021850E-08
   46.02000     -5.2358850E-08
   46.08000     -5.2621733E-08
   46.14000     -5.2791378E-08
   46.20000     -5.2845209E-08
   46.26000     -5.2760637E-08
   46.32000     -5.2521155E-08
   46.38000     -5.2123564E-08
   46.44000     -5.1583978E-08
   46.50000     -5.0939743E-08
   46.56000     -5.0245450E-08
   46.62000     -4.9563020E-08
   46.68000     -4.8948216E-08
   46.74000     -4.8437958E-08
   46.80000     -4.8043368E-08
   46.86000     -4.7751662E-08
   46.92000     -4.7537231E-08
   46.98000     -4.7378119E-08
   47.04000     -4.7272049E-08
   47.10000     -4.7246001E-08
   47.16000     -4.7356338E-08
   47.22000     -4.7680512E-08
   47.28000     -4.8305075E-08
   47.34000     -4.9315847E-08
   47.40000     -5.0794224E-08
   47.46000     -5.2820649E-08
   47.52000     -5.5482779E-08
   47.58000     -5.8884936E-08
   47.64000     -6.3155952E-08
   47.70000     -6.8454597E-08
   47.76000     -7.4973002E-08
   47.82000     -8.2939003E-08
   47.88000     -9.2617782E-08
   47.94000     -1.0431327E-07
   48.00000     -1.1837003E-07
   48.06000     -1.3517771E-07
   48.12000     -1.5517992E-07
   48.18000     -1.7888850E-07
   48.24000     -2.0690091E-07
   48.30000     -2.3991714E-07
   48.36000     -2.7875200E-07
   48.42000     -3.2434122E-07
   48.48000     -3.7774421E-07
   48.54000     -4.4014809E-07
   48.60000     -5.1287793E-07
   48.66000     -5.9741564E-07
   48.72000     -6.9542483E-07
   48.78000     -8.0877862E-07
   48.84000     -9.3958528E-07
   48.90000     -1.0902119E-06
   48.96000     -1.2633047E-06
   49.02000     -1.4618100E-06
   49.08000     -1.6889940E-06
   49.14000     -1.9484646E-06
   49.20000     -2.2441907E-06
   49.26000     -2.5805264E-06
   49.32000     -2.9622345E-06
   49.38000     -3.3945196E-06
   49.44000     -3.8830631E-06
   49.50000     -4.4340622E-06
   49.56000     -5.0542581E-06
   49.62000     -5.7509615E-06
   49.68000     -6.5320596E-06
   49.74000     -7.4060240E-06
   49.80000     -8.3819123E-06
   49.86000     -9.4693714E-06
   49.92000     -1.0678639E-05
   49.98000     -1.2020548E-05
   50.04000     -1.3506527E-05
   50.10000     -1.5148609E-05
   50.16000     -1.6959404E-05
   50.22000     -1.8952087E-05
   50.28000     -2.1140360E-05
   50.34000     -2.3538398E-05
   50.40000     -2.6160773E-05
   50.46000     -2.9022389E-05
   50.52000     -3.2138400E-05
   50.58000     -3.5524143E-05
   50.64000     -3.9195056E-05
   50.70000     -4.3166583E-05
   50.76000     -4.7454065E-05
   50.82000     -5.2072599E-05
   50.88000     -5.7036894E-05
   50.94000     -6.2361098E-05
   51.00000     -6.8058653E-05
   51.06000     -7.4142168E-05
   51.12000     -8.0623286E-05
   51.18000     -8.7512439E-05
   51.24000     -9.4818715E-05
   51.30000     -1.0254969E-04
   51.36000     -1.1071122E-04
   51.42000     -1.1930735E-04
   51.48000     -1.2834015E-04
   51.54000     -1.3780950E-04
   51.60000     -1.4771301E-04
   51.66000     -1.5804579E-04
   51.72000     -1.6880028E-04
   51.78000     -1.7996620E-04
   51.84000     -1.9153050E-04
   51.90000     -2.0347732E-04
   51.96000     -2.1578786E-04
   52.02000     -2.2844045E-04
   52.08000     -2.4141055E-04
   52.14000     -2.5467077E-04
   52.20000     -2.6819090E-04
   52.26000     -2.8193812E-04
   52.32000     -2.9587702E-04
   52.38000     -3.0996991E-04
   52.44000     -3.2417697E-04
   52.50000     -3.3845633E-04
   52.56000     -3.5276450E-04
   52.62000     -3.6705664E-04
   52.68000     -3.8128669E-04
   52.74000     -3.9540807E-04
   52.80000     -4.0937378E-04
   52.86000     -4.2313681E-04
   52.92000     -4.3665073E-04
   52.98000     -4.4986975E-04
   53.04000     -4.6274927E-04
   53.10000     -4.7524634E-04
   53.16000     -4.8731998E-04
   53.22000     -4.9893180E-04
   53.28000     -5.1004637E-04
   53.34000     -5.2063150E-04
   53.40000     -5.3065870E-04
   53.46000     -5.4010306E-04
   53.52000     -5.4894370E-04
   53.58000     -5.5716396E-04
   53.64000     -5.6475215E-04
   53.70000     -5.7170127E-04
   53.76000     -5.7800935E-04
   53.82000     -5.8367936E-04
   53.88000     -5.8871898E-04
   53.94000     -5.9314084E-04
   54.00000     -5.9696217E-04
   54.06000     -6.0020486E-04
   54.12000     -6.0289539E-04
   54.18000     -6.0506427E-04
   54.24000     -6.0674606E-04
   54.30000     -6.0797879E-04
   54.36000     -6.0880365E-04
   54.42000     -6.0926453E-04
   54.48000     -6.0940738E-04
   54.54000     -6.0927978E-04
   54.60000     -6.0893036E-04
   54.66000     -6.0840847E-04
   54.72000     -6.0776348E-04
   54.78000     -6.0704455E-04
   54.84000     -6.0629979E-04
   54.90000     -6.0557545E-04
   54.96000     -6.0491549E-04
   55.02000     -6.0436095E-04
   55.08000     -6.0394983E-04
   55.14000     -6.0371676E-04
   55.20000     -6.0369232E-04
   55.26000     -6.0390320E-04
   55.32000     -6.0437102E-04
   55.38000     -6.0511252E-04
   55.44000     -6.0613907E-04
   55.50000     -6.0745684E-04
   55.56000     -6.0906663E-04