  -2.400000      0.0000000E+00
  -2.340000      0.0000000E+00
  -2.280000      0.0000000E+00
  -2.220000      0.0000000E+00
  -2.160000      0.0000000E+00
  -2.100000      0.0000000E+00
  -2.040000      0.0000000E+00
  -1.980000      0.0000000E+00
  -1.920000      1.4484655E-25
  -1.860000      1.2720026E-24
  -1.800000      4.6103414E-24
  -1.740000      5.3997592E-24
  -1.680000     -2.3477316E-23
  -1.620000     -1.3728444E-22
  -1.560000     -3.4602299E-22
  -1.500000     -3.8856903E-22
  -1.440000      5.4718523E-22
  -1.380000      3.6616046E-21
  -1.320000      9.1145634E-21
  -1.260000      1.2995460E-20
  -1.200000      4.3742232E-21
  -1.140000     -3.2791498E-20
  -1.080000     -1.0665005E-19
  -1.020000     -1.9174230E-19
 -0.9600000     -2.0265783E-19
 -0.9000000      2.2355531E-21
 -0.8400000      5.4783040E-19
 -0.7800000      1.3849906E-18
 -0.7200000      2.1040720E-18
 -0.6600000      1.8714248E-18
 -0.6000000     -3.0369652E-19
 -0.5400000     -4.8515243E-18
 -0.4800000     -1.0647988E-17
 -0.4200000     -1.4351977E-17
 -0.3600000     -1.0982389E-17
 -0.3000000      3.5868040E-18
 -0.2400000      2.8574362E-17
 -0.1800000      5.4679977E-17
 -0.1200000      6.4221297E-17
 -5.9999999E-02  3.7921129E-17
  0.0000000E+00 -3.1885983E-17
  5.9999999E-02 -1.2716768E-16
  0.1200000     -1.9947681E-16
  0.1800000     -1.8471061E-16
  0.2400000     -3.9263259E-17
  0.3000000      2.1557531E-16
  0.3600000      4.6867985E-16
  0.4200000      5.4382930E-16
  0.4800000      2.8571750E-16
  0.5400000     -3.1913356E-16
  0.6000000     -1.0528546E-15
  0.6600000     -1.4881063E-15
  0.7200000     -1.1652329E-15
  0.7800000      1.1679904E-16
  0.8400000      2.0357202E-15
  0.9000000      3.6970468E-15
  0.9600000      3.9343677E-15
   1.020000      1.9219243E-15
   1.080000     -2.1570541E-15
   1.140000     -6.7871179E-15
   1.200000     -9.4879887E-15
   1.260000     -7.9212404E-15
   1.320000     -1.3443480E-15
   1.380000      8.3398457E-15
   1.440000      1.6718032E-14
   1.500000      1.8530155E-14
   1.560000      1.0417208E-14
   1.620000     -6.4775286E-15
   1.680000     -2.5601899E-14
   1.740000     -3.6852320E-14
   1.800000     -3.1029073E-14
   1.860000     -5.2168099E-15
   1.920000      3.3587198E-14
   1.980000      6.9081425E-14
   2.040000      8.1387588E-14
   2.100000      5.6281433E-14
   2.160000     -5.9554311E-15
   2.220000     -8.6708649E-14
   2.280000     -1.5338064E-13
   2.340000     -1.7159825E-13
   2.400000     -1.2091498E-13
   2.460000     -7.0210637E-15
   2.520000      1.3607663E-13
   2.580000      2.5657826E-13
   2.640000      3.0491289E-13
   2.700000      2.5489005E-13
   2.760000      1.1599070E-13
   2.820000     -6.9857098E-14
   2.880000     -2.4640042E-13
   2.940000     -3.6757847E-13
   3.000000     -4.1564218E-13
   3.060000     -4.0231783E-13
   3.120000     -3.5103561E-13
   3.180000     -2.6944392E-13
   3.240000     -1.2940831E-13
   3.300000      1.2867981E-13
   3.360000      5.6071369E-13
   3.420000      1.1628609E-12
   3.480000      1.8202518E-12
   3.540000      2.2918787E-12
   3.600000      2.2547086E-12
   3.660000      1.4082722E-12
   3.720000     -3.8632753E-13
   3.780000     -2.9805936E-12
   3.840000     -5.8793842E-12
   3.900000     -8.2872147E-12
   3.960000     -9.2682164E-12
   4.020000     -7.9907504E-12
   4.080000     -3.9972929E-12
   4.140000      2.5731869E-12
   4.200000      1.0875557E-11
   4.260000      1.9401617E-11
   4.320000      2.6182031E-11
   4.380000      2.9120012E-11
   4.440000      2.6405158E-11
   4.500000      1.6942277E-11
   4.560000      7.2684854E-13
   4.620000     -2.0898172E-11
   4.680000     -4.5161947E-11
   4.740000     -6.8008377E-11
   4.800000     -8.4490970E-11
   4.860000     -8.9422178E-11
   4.920000     -7.8240636E-11
   4.980000     -4.8010564E-11
   5.040000      1.5850855E-12
   5.100000      6.7440331E-11
   5.160000      1.4261281E-10
   5.220000      2.1648310E-10
   5.280000      2.7559877E-10
   5.340000      3.0519856E-10
   5.400000      2.9126682E-10
   5.460000      2.2282692E-10
   5.520000      9.4083401E-11
   5.580000     -9.3995998E-11
   5.640000     -3.3299130E-10
   5.700000     -6.0740407E-10
   5.760000     -8.9605412E-10
   5.820000     -1.1742567E-09
   5.880000     -1.4164036E-09
   5.940000     -1.5985350E-09
   6.000000     -1.7005618E-09
   6.060000     -1.7079319E-09
   6.120000     -1.6126885E-09
   6.180000     -1.4139740E-09
   6.240000     -1.1180664E-09
   6.300000     -7.3800677E-10
   6.360000     -2.9281463E-10
   6.420000      1.9373832E-10
   6.480000      6.9479472E-10
   6.540000      1.1824224E-09
   6.600000      1.6297593E-09
   6.660000      2.0130129E-09
   6.720000      2.3130473E-09
   6.780000      2.5164113E-09
   6.840000      2.6158211E-09
   6.900000      2.6102569E-09
   6.960000      2.5048803E-09
   7.020000      2.3108973E-09
   7.080000      2.0453244E-09
   7.140000      1.7304465E-09
   7.200000      1.3926650E-09
   7.260000      1.0605209E-09
   7.320000      7.6190060E-10
   7.380000      5.2073340E-10
   7.440000      3.5374173E-10
   7.500000      2.6791022E-10
   7.560000      2.5923272E-10
   7.620000      3.1301406E-10
   7.680000      4.0564879E-10
   7.740000      5.0748561E-10
   7.800000      5.8621957E-10
   7.860000      6.1026934E-10
   7.920000      5.5175364E-10
   7.980000      3.8889264E-10
   8.040000      1.0782854E-10
   8.100000     -2.9607378E-10
   8.160000     -8.1743678E-10
   8.220000     -1.4406901E-09
   8.280000     -2.1406985E-09
   8.340000     -2.8844123E-09
   8.400000     -3.6336469E-09
   8.460000     -4.3488830E-09
   8.520000     -4.9936948E-09
   8.580000     -5.5391642E-09
   8.640000     -5.9674634E-09
   8.700000     -6.2738197E-09
   8.760000     -6.4663022E-09
   8.820000     -6.5632753E-09
   8.880000     -6.5889010E-09
   8.940000     -6.5675594E-09
   9.000000     -6.5183658E-09
   9.060000     -6.4509735E-09
   9.120000     -6.3635168E-09
   9.180000     -6.2430092E-09
   9.240000     -6.0678778E-09
   9.300000     -5.8118785E-09
   9.360000     -5.4484772E-09
   9.420000     -4.9549174E-09
   9.480000     -4.3155213E-09
   9.540000     -3.5240495E-09
   9.600000     -2.5850393E-09
   9.660000     -1.5139574E-09
   9.720000     -3.3582734E-10
   9.780000      9.1796665E-10
   9.840000      2.2146789E-09
   9.900000      3.5263292E-09
   9.960000      4.8355875E-09
   10.02000      6.1396488E-09
   10.08000      7.4505597E-09
   10.14000      8.7913516E-09
   10.20000      1.0188665E-08
   10.26000      1.1663851E-08
   10.32000      1.3225205E-08
   10.38000      1.4863817E-08
   10.44000      1.6554436E-08
   10.50000      1.8261128E-08
   10.56000      1.9945983E-08
   10.62000      2.1578167E-08
   10.68000      2.3140556E-08
   10.74000      2.4632030E-08
   10.80000      2.6064951E-08
   10.86000      2.7458817E-08
   10.92000      2.8832233E-08
   10.98000      3.0195714E-08
   11.04000      3.1547465E-08
   11.10000      3.2873235E-08
   11.16000      3.4150087E-08
   11.22000      3.5352770E-08
   11.28000      3.6460690E-08
   11.34000      3.7463536E-08
   11.40000      3.8364039E-08
   11.46000      3.9177493E-08
   11.52000      3.9928430E-08
   11.58000      4.0645734E-08
   11.64000      4.1357563E-08
   11.70000      4.2087311E-08
   11.76000      4.2851042E-08
   11.82000      4.3656232E-08
   11.88000      4.4501181E-08
   11.94000      4.5374417E-08
   12.00000      4.6254048E-08
   12.06000      4.7107495E-08
   12.12000      4.7892765E-08
   12.18000      4.8562296E-08
   12.24000      4.9069580E-08
   12.30000      4.9377839E-08
   12.36000      4.9468451E-08
   12.42000      4.9346642E-08
   12.48000      4.9041894E-08
   12.54000      4.8602207E-08
   12.60000      4.8083056E-08
   12.66000      4.7533806E-08
   12.72000      4.6985463E-08
   12.78000      4.6443368E-08
   12.84000      4.5887283E-08
   12.90000      4.5278977E-08
   12.96000      4.4575334E-08
   13.02000      4.3743047E-08
   13.08000      4.2770665E-08
   13.14000      4.1674202E-08
   13.20000      4.0494665E-08
   13.26000      3.9287958E-08
   13.32000      3.8109910E-08
   13.38000      3.7000596E-08
   13.44000      3.5972210E-08
   13.50000      3.5003907E-08
   13.56000      3.4045247E-08
   13.62000      3.3027543E-08
   13.68000      3.1880575E-08
   13.74000      3.0550467E-08
   13.80000      2.9014220E-08
   13.86000      2.7287030E-08
   13.92000      2.5420192E-08
   13.98000      2.3489898E-08
   14.04000      2.1579520E-08
   14.10000      1.9759888E-08
   14.16000      1.8072614E-08
   14.22000      1.6520776E-08
   14.28000      1.5069373E-08
   14.34000      1.3655498E-08
   14.40000      1.2205631E-08
   14.46000      1.0655747E-08
   14.52000      8.9690797E-09
   14.58000      7.1469262E-09
   14.64000      5.2295350E-09
   14.70000      3.2867149E-09
   14.76000      1.4005627E-09
   14.82000     -3.5499870E-10
   14.88000     -1.9322508E-09
   14.94000     -3.3203926E-09
   15.00000     -4.5462940E-09
   15.06000     -5.6656746E-09
   15.12000     -6.7478405E-09
   15.18000     -7.8586986E-09
   15.24000     -9.0467678E-09
   15.30000     -1.0335493E-08
   15.36000     -1.1722920E-08
   15.42000     -1.3187537E-08
   15.48000     -1.4697432E-08
   15.54000     -1.6219269E-08
   15.60000     -1.7724076E-08
   15.66000     -1.9188210E-08
   15.72000     -2.0589864E-08
   15.78000     -2.1903261E-08
   15.84000     -2.3093811E-08
   15.90000     -2.4117352E-08
   15.96000     -2.4925219E-08
   16.02000     -2.5474732E-08
   16.08000     -2.5742448E-08
   16.14000     -2.5736314E-08
   16.20000     -2.5502878E-08
   16.26000     -2.5127120E-08
   16.32000     -2.4724528E-08
   16.38000     -2.4427139E-08
   16.44000     -2.4366669E-08
   16.50000     -2.4658201E-08
   16.56000     -2.5387411E-08
   16.62000     -2.6603074E-08
   16.68000     -2.8315220E-08
   16.74000     -3.0498089E-08
   16.80000     -3.3096306E-08
   16.86000     -3.6032496E-08
   16.92000     -3.9215035E-08
   16.98000     -4.2545270E-08
   17.04000     -4.5924256E-08
   17.10000     -4.9259338E-08
   17.16000     -5.2470813E-08
   17.22000     -5.5498273E-08
   17.28000     -5.8305680E-08
   17.34000     -6.0883799E-08
   17.40000     -6.3248706E-08
   17.46000     -6.5435565E-08
   17.52000     -6.7488294E-08
   17.58000     -6.9446244E-08
   17.64000     -7.1330547E-08
   17.70000     -7.3132910E-08
   17.76000     -7.4809549E-08
   17.82000     -7.6282269E-08
   17.88000     -7.7447019E-08
   17.94000     -7.8188798E-08
   18.00000     -7.8400426E-08
   18.06000     -7.8001371E-08
   18.12000     -7.6953171E-08
   18.18000     -7.5268467E-08
   18.24000     -7.3011719E-08
   18.30000     -7.0291897E-08
   18.36000     -6.7248315E-08
   18.42000     -6.4032420E-08
   18.48000     -6.0788985E-08
   18.54000     -5.7639625E-08
   18.60000     -5.4671492E-08
   18.66000     -5.1932222E-08
   18.72000     -4.9431272E-08
   18.78000     -4.7146308E-08
   18.84000     -4.5032806E-08
   18.90000     -4.3034671E-08
   18.96000     -4.1094207E-08
   19.02000     -3.9160284E-08
   19.08000     -3.7194145E-08
   19.14000     -3.5172892E-08
   19.20000     -3.3090753E-08
   19.26000     -3.0958390E-08
   19.32000     -2.8800510E-08
   19.38000     -2.6652051E-08
   19.44000     -2.4553321E-08
   19.50000     -2.2544580E-08
   19.56000     -2.0660641E-08
   19.62000     -1.8926183E-08
   19.68000     -1.7352338E-08
   19.74000     -1.5935118E-08
   19.80000     -1.4655977E-08
   19.86000     -1.3484438E-08
   19.92000     -1.2382357E-08
   19.98000     -1.1308971E-08
   20.04000     -1.0225727E-08
   20.10000     -9.1000283E-09
   20.16000     -7.9074844E-09
   20.22000     -6.6328418E-09
   20.28000     -5.2701821E-09
   20.34000     -3.8229753E-09
   20.40000     -2.3041620E-09
   20.46000     -7.3581863E-10
   20.52000      8.5240426E-10
   20.58000      2.4267344E-09
   20.64000      3.9545518E-09
   20.70000      5.4104743E-09
   20.76000      6.7815749E-09
   20.82000      8.0700362E-09
   20.88000      9.2922505E-09
   20.94000      1.0474488E-08
   21.00000      1.1646269E-08
   21.06000      1.2833180E-08
   21.12000      1.4050925E-08
   21.18000      1.5301989E-08
   21.24000      1.6575630E-08
   21.30000      1.7851146E-08
   21.36000      1.9103503E-08
   21.42000      2.0309706E-08
   21.48000      2.1453927E-08
   21.54000      2.2529633E-08
   21.60000      2.3537911E-08
   21.66000      2.4482576E-08
   21.72000      2.5363912E-08
   21.78000      2.6173510E-08
   21.84000      2.6892289E-08
   21.90000      2.7492710E-08
   21.96000      2.7944813E-08
   22.02000      2.8224536E-08
   22.08000      2.8322264E-08
   22.14000      2.8249248E-08
   22.20000      2.8039945E-08
   22.26000      2.7748786E-08
   22.32000      2.7441043E-08
   22.38000      2.7179061E-08
   22.44000      2.7006784E-08
   22.50000      2.6936920E-08
   22.56000      2.6944951E-08
   22.62000      2.6972662E-08
   22.68000      2.6941047E-08
   22.74000      2.6769397E-08
   22.80000      2.6395275E-08
   22.86000      2.5789717E-08
   22.92000      2.4963446E-08
   22.98000      2.3962560E-08
   23.04000      2.2855158E-08
   23.10000      2.1712962E-08
   23.16000      2.0593315E-08
   23.22000      1.9526837E-08
   23.28000      1.8514386E-08
   23.34000      1.7533882E-08
   23.40000      1.6554290E-08
   23.46000      1.5551324E-08
   23.52000      1.4518680E-08
   23.58000      1.3470375E-08
   23.64000      1.2433182E-08
   23.70000      1.1432358E-08
   23.76000      1.0476594E-08
   23.82000      9.5486001E-09
   23.88000      8.6055927E-09
   23.94000      7.5903079E-09
   24.00000      6.4493459E-09
   24.06000      5.1530753E-09
   24.12000      3.7106276E-09
   24.18000      2.1747357E-09
   24.24000      6.3395050E-10
   24.30000     -8.0665247E-10
   24.36000     -2.0515847E-09
   24.42000     -3.0406511E-09
   24.48000     -3.7664578E-09
   24.54000     -4.2778718E-09
   24.60000     -4.6676663E-09
   24.66000     -5.0476250E-09
   24.72000     -5.5184990E-09
   24.78000     -6.1439223E-09
   24.84000     -6.9360206E-09
   24.90000     -7.8565545E-09
   24.96000     -8.8325462E-09
   25.02000     -9.7810613E-09
   25.08000     -1.0635430E-08
   25.14000     -1.1365138E-08
   25.20000     -1.1983674E-08
   25.26000     -1.2542181E-08
   25.32000     -1.3110925E-08
   25.38000     -1.3754335E-08
   25.44000     -1.4507679E-08
   25.50000     -1.5363341E-08
   25.56000     -1.6271882E-08
   25.62000     -1.7158326E-08
   25.68000     -1.7948663E-08
   25.74000     -1.8597717E-08
   25.80000     -1.9108510E-08
   25.86000     -1.9535840E-08
   25.92000     -1.9972070E-08
   25.98000     -2.0519263E-08
   26.04000     -2.1256664E-08
   26.10000     -2.2214378E-08
   26.16000     -2.3362279E-08
   26.22000     -2.4618217E-08
   26.28000     -2.5873151E-08
   26.34000     -2.7025040E-08
   26.40000     -2.8010211E-08
   26.46000     -2.8821653E-08
   26.52000     -2.9508193E-08
   26.58000     -3.0155160E-08
   26.64000     -3.0853570E-08
   26.70000     -3.1668730E-08
   26.76000     -3.2619017E-08
   26.82000     -3.3671654E-08
   26.88000     -3.4756180E-08
   26.94000     -3.5790382E-08
   27.00000     -3.6709547E-08
   27.06000     -3.7489325E-08
   27.12000     -3.8154976E-08
   27.18000     -3.8774349E-08
   27.24000     -3.9437055E-08
   27.30000     -4.0226634E-08
   27.36000     -4.1194767E-08
   27.42000     -4.2346141E-08
   27.48000     -4.3639339E-08
   27.54000     -4.5003919E-08
   27.60000     -4.6368260E-08
   27.66000     -4.7688690E-08
   27.72000     -4.8969525E-08
   27.78000     -5.0266706E-08
   27.84000     -5.1673350E-08
   27.90000     -5.3292030E-08
   27.96000     -5.5203145E-08
   28.02000     -5.7439827E-08
   28.08000     -5.9977204E-08
   28.14000     -6.2738543E-08
   28.20000     -6.5615311E-08
   28.26000     -6.8493819E-08
   28.32000     -7.1280020E-08
   28.38000     -7.3915103E-08
   28.44000     -7.6377781E-08
   28.50000     -7.8673736E-08
   28.56000     -8.0815909E-08
   28.62000     -8.2802551E-08
   28.68000     -8.4600060E-08
   28.74000     -8.6136794E-08
   28.80000     -8.7310447E-08
   28.86000     -8.8007802E-08
   28.92000     -8.8131344E-08
   28.98000     -8.7625118E-08
   29.04000     -8.6491852E-08
   29.10000     -8.4795687E-08
   29.16000     -8.2649173E-08
   29.22000     -8.0187846E-08
   29.28000     -7.7539667E-08
   29.34000     -7.4798287E-08
   29.40000     -7.2008255E-08
   29.46000     -6.9166617E-08
   29.52000     -6.6240354E-08
   29.58000     -6.3193902E-08
   29.64000     -6.0017747E-08
   29.70000     -5.6748572E-08
   29.76000     -5.3473961E-08
   29.82000     -5.0319958E-08
   29.88000     -4.7425250E-08
   29.94000     -4.4910017E-08
   30.00000     -4.2849177E-08
   30.06000     -4.1258144E-08
   30.12000     -4.0095017E-08
   30.18000     -3.9278145E-08
   30.24000     -3.8713317E-08
   30.30000     -3.8322053E-08
   30.36000     -3.8062485E-08
   30.42000     -3.7936505E-08
   30.48000     -3.7981369E-08
   30.54000     -3.8248753E-08
   30.60000     -3.8778452E-08
   30.66000     -3.9575660E-08
   30.72000     -4.0599623E-08
   30.78000     -4.1767425E-08
   30.84000     -4.2971298E-08
   30.90000     -4.4103110E-08
   30.96000     -4.5077261E-08
   31.02000     -4.5844324E-08
   31.08000     -4.6391513E-08
   31.14000     -4.6731202E-08
   31.20000     -4.6882992E-08
   31.26000     -4.6856726E-08
   31.32000     -4.6643073E-08
   31.38000     -4.6214893E-08
   31.44000     -4.5538631E-08
   31.50000     -4.4591157E-08
   31.56000     -4.3375806E-08
   31.62000     -4.1931479E-08
   31.68000     -4.0331329E-08
   31.74000     -3.8671057E-08
   31.80000     -3.7050409E-08
   31.86000     -3.5554063E-08
   31.92000     -3.4238024E-08
   31.98000     -3.3125787E-08
   32.04000     -3.2214896E-08
   32.10000     -3.1490845E-08
   32.16000     -3.0942832E-08
   32.22000     -3.0575485E-08
   32.28000     -3.0412640E-08
   32.34000     -3.0492295E-08
   32.40000     -3.0855091E-08
   32.46000     -3.1530750E-08
   32.52000     -3.2527279E-08
   32.58000     -3.3826396E-08
   32.64000     -3.5386314E-08
   32.70000     -3.7150375E-08
   32.76000     -3.9058193E-08
   32.82000     -4.1055252E-08
   32.88000     -4.3097682E-08
   32.94000     -4.5150987E-08
   33.00000     -4.7183836E-08
   33.06000     -4.9160050E-08
   33.12000     -5.1032728E-08
   33.18000     -5.2743513E-08
   33.24000     -5.4228121E-08
   33.30000     -5.5426526E-08
   33.36000     -5.6294585E-08
   33.42000     -5.6813256E-08
   33.48000     -5.6992459E-08
   33.54000     -5.6868494E-08
   33.60000     -5.6495992E-08
   33.66000     -5.5936852E-08
   33.72000     -5.5249021E-08
   33.78000     -5.4477805E-08
   33.84000     -5.3651352E-08
   33.90000     -5.2780784E-08
   33.96000     -5.1864305E-08
   34.02000     -5.0893654E-08
   34.08000     -4.9860741E-08
   34.14000     -4.8762320E-08
   34.20000     -4.7601421E-08
   34.26000     -4.6385292E-08
   34.32000     -4.5121375E-08
   34.38000     -4.3813380E-08
   34.44000     -4.2459856E-08
   34.50000     -4.1056364E-08
   34.56000     -3.9600675E-08
   34.62000     -3.8098808E-08
   34.68000     -3.6568949E-08
   34.74000     -3.5040959E-08
   34.80000     -3.3550865E-08
   34.86000     -3.2131890E-08
   34.92000     -3.0805019E-08
   34.98000     -2.9572407E-08
   35.04000     -2.8415968E-08
   35.10000     -2.7301576E-08
   35.16000     -2.6187591E-08
   35.22000     -2.5035208E-08
   35.28000     -2.3817778E-08
   35.34000     -2.2526805E-08
   35.40000     -2.1173095E-08
   35.46000     -1.9782730E-08
   35.52000     -1.8388699E-08
   35.58000     -1.7020241E-08
   35.64000     -1.5692937E-08
   35.70000     -1.4402909E-08
   35.76000     -1.3127627E-08
   35.82000     -1.1833814E-08
   35.88000     -1.0490279E-08
   35.94000     -9.0812993E-09
   36.00000     -7.6154860E-09
   36.06000     -6.1264824E-09
   36.12000     -4.6648392E-09
   36.18000     -3.2839163E-09
   36.24000     -2.0249136E-09
   36.30000     -9.0640112E-10
   36.36000      7.8185985E-11
   36.42000      9.5468844E-10
   36.48000      1.7565228E-09
   36.54000      2.5113196E-09
   36.60000      3.2300935E-09
   36.66000      3.9018309E-09
   36.72000      4.4944826E-09
   36.78000      4.9615765E-09
   36.84000      5.2524074E-09
   36.90000      5.3231428E-09
   36.96000      5.1461324E-09
   37.02000      4.7151993E-09
   37.08000      4.0456993E-09
   37.14000      3.1695417E-09
   37.20000      2.1268434E-09
   37.26000      9.5698993E-10
   37.32000     -3.0792532E-10
   37.38000     -1.6451785E-09
   37.44000     -3.0386560E-09
   37.50000     -4.4728616E-09
   37.56000     -5.9266969E-09
   37.62000     -7.3702107E-09
   37.68000     -8.7663734E-09
   37.74000     -1.0077831E-08
   37.80000     -1.1276406E-08
   37.86000     -1.2351735E-08
   37.92000     -1.3315471E-08
   37.98000     -1.4199047E-08
   38.04000     -1.5045437E-08
   38.10000     -1.5897736E-08
   38.16000     -1.6788688E-08
   38.22000     -1.7734838E-08
   38.28000     -1.8737135E-08
   38.34000     -1.9787125E-08
   38.40000     -2.0875625E-08
   38.46000     -2.1999941E-08
   38.52000     -2.3166542E-08
   38.58000     -2.4388184E-08
   38.64000     -2.5676892E-08
   38.70000     -2.7035789E-08
   38.76000     -2.8453057E-08
   38.82000     -2.9900228E-08
   38.88000     -3.1335286E-08
   38.94000     -3.2709412E-08
   39.00000     -3.3975230E-08
   39.06000     -3.5094196E-08
   39.12000     -3.6041289E-08
   39.18000     -3.6805975E-08
   39.24000     -3.7389370E-08
   39.30000     -3.7798625E-08
   39.36000     -3.8040518E-08
   39.42000     -3.8116710E-08
   39.48000     -3.8023011E-08
   39.54000     -3.7753821E-08
   39.60000     -3.7310880E-08
   39.66000     -3.6713509E-08
   39.72000     -3.6006227E-08
   39.78000     -3.5259799E-08
   39.84000     -3.4563634E-08
   39.90000     -3.4010430E-08
   39.96000     -3.3676717E-08
   40.02000     -3.3604920E-08
   40.08000     -3.3792613E-08
   40.14000     -3.4192734E-08
   40.20000     -3.4725556E-08
   40.26000     -3.5299557E-08
   40.32000     -3.5835480E-08
   40.38000     -3.6286632E-08
   40.44000     -3.6649382E-08
   40.50000     -3.6960657E-08
   40.56000     -3.7283431E-08
   40.62000     -3.7684920E-08
   40.68000     -3.8214555E-08
   40.74000     -3.8888512E-08
   40.80000     -3.9685101E-08
   40.86000     -4.0551495E-08
   40.92000     -4.1418737E-08
   40.98000     -4.2219838E-08
   41.04000     -4.2905594E-08
   41.10000     -4.3454097E-08
   41.16000     -4.3872156E-08
   41.22000     -4.4189118E-08
   41.28000     -4.4445279E-08
   41.34000     -4.4678487E-08
   41.40000     -4.4912689E-08
   41.46000     -4.5151861E-08
   41.52000     -4.5381022E-08
   41.58000     -4.5573845E-08
   41.64000     -4.5704024E-08
   41.70000     -4.5756241E-08
   41.76000     -4.5733014E-08
   41.82000     -4.5655373E-08
   41.88000     -4.5558039E-08
   41.94000     -4.5481642E-08
   42.00000     -4.5465182E-08
   42.06000     -4.5540904E-08
   42.12000     -4.5732229E-08
   42.18000     -4.6053707E-08
   42.24000     -4.6511563E-08
   42.30000     -4.7103864E-08
   42.36000     -4.7820173E-08
   42.42000     -4.8641233E-08
   42.48000     -4.9539430E-08
   42.54000     -5.0480317E-08
   42.60000     -5.1425172E-08
   42.66000     -5.2334183E-08
   42.72000     -5.3169991E-08
   42.78000     -5.3901260E-08
   42.84000     -5.4506014E-08
   42.90000     -5.4974272E-08
   42.96000     -5.5309425E-08
   43.02000     -5.5527867E-08
   43.08000     -5.5656660E-08
   43.14000     -5.5729519E-08
   43.20000     -5.5781697E-08
   43.26000     -5.5844517E-08
   43.32000     -5.5940394E-08
   43.38000     -5.6079262E-08
   43.44000     -5.6257093E-08
   43.50000     -5.6457260E-08
   43.56000     -5.6654923E-08
   43.62000     -5.6823971E-08
   43.68000     -5.6945208E-08
   43.74000     -5.7013654E-08
   43.80000     -5.7042637E-08
   43.86000     -5.7062827E-08
   43.92000     -5.7115418E-08
   43.98000     -5.7240598E-08
   44.04000     -5.7464071E-08
   44.10000     -5.7785737E-08
   44.16000     -5.8174834E-08
   44.22000     -5.8574287E-08
   44.28000     -5.8914516E-08
   44.34000     -5.9133374E-08
   44.40000     -5.9196250E-08
   44.46000     -5.9109407E-08
   44.52000     -5.8921259E-08
   44.58000     -5.8709940E-08
   44.64000     -5.8560541E-08
   44.70000     -5.8538980E-08
   44.76000     -5.8671034E-08
   44.82000     -5.8933576E-08
   44.88000     -5.9260966E-08
   44.94000     -5.9564655E-08
   45.00000     -5.9759707E-08
   45.06000     -5.9790132E-08
   45.12000     -5.9645181E-08
   45.18000     -5.9361824E-08
   45.24000     -5.9012756E-08
   45.30000     -5.8683401E-08
   45.36000     -5.8444769E-08
   45.42000     -5.8330102E-08
   45.48000     -5.8322414E-08
   45.54000     -5.8357173E-08
   45.60000     -5.8339928E-08
   45.66000     -5.8174287E-08
   45.72000     -5.7792072E-08
   45.78000     -5.7175999E-08
   45.84000     -5.6367057E-08
   45.90000     -5.5453025E-08
   45.96000     -5.4540891E-08
   46.02000     -5.3721568E-08
   46.08000     -5.3038768E-08
   46.14000     -5.2472984E-08
   46.20000     -5.1946561E-08
   46.26000     -5.1348636E-08
   46.32000     -5.0571622E-08
   46.38000     -4.9547037E-08
   46.44000     -4.8269140E-08
   46.50000     -4.6799190E-08
   46.56000     -4.5249887E-08
   46.62000     -4.3755378E-08
   46.68000     -4.2436159E-08
   46.74000     -4.1368878E-08
   46.80000     -4.0569411E-08
   46.86000     -3.9994081E-08
   46.92000     -3.9559136E-08
   46.98000     -3.9173742E-08
   47.04000     -3.8777234E-08
   47.10000     -3.8369251E-08
   47.16000     -3.8022769E-08
   47.22000     -3.7875328E-08
   47.28000     -3.8101341E-08
   47.34000     -3.8875651E-08
   47.40000     -4.0341881E-08
   47.46000     -4.2597243E-08
   47.52000     -4.5699085E-08
   47.58000     -4.9690275E-08
   47.64000     -5.4634352E-08
   47.70000     -6.0649057E-08
   47.76000     -6.7928852E-08
   47.82000     -7.6751896E-08
   47.88000     -8.7471953E-08
   47.94000     -1.0050051E-07
   48.00000     -1.1628672E-07
   48.06000     -1.3530374E-07
   48.12000     -1.5804835E-07
   48.18000     -1.8505720E-07
   48.24000     -2.1693745E-07
   48.30000     -2.5440471E-07
   48.36000     -2.9831853E-07
   48.42000     -3.4970651E-07
   48.48000     -4.0977420E-07
   48.54000     -4.7990329E-07
   48.60000     -5.6164606E-07
   48.66000     -6.5672481E-07
   48.72000     -7.6704259E-07
   48.78000     -8.9470706E-07
   48.84000     -1.0420646E-06
   48.90000     -1.2117412E-06
   48.96000     -1.4066862E-06
   49.02000     -1.6302129E-06
   49.08000     -1.8860330E-06
   49.14000     -2.1782816E-06
   49.20000     -2.5115326E-06
   49.26000     -2.8908066E-06
   49.32000     -3.3215858E-06
   49.38000     -3.8098349E-06
   49.44000     -4.3620466E-06
   49.50000     -4.9852943E-06
   49.56000     -5.6872909E-06
   49.62000     -6.4764345E-06
   49.68000     -7.3618316E-06
   49.74000     -8.3532987E-06
   49.80000     -9.4613533E-06
   49.86000     -1.0697197E-05
   49.92000     -1.2072707E-05
   49.98000     -1.3600445E-05
   50.04000     -1.5293661E-05
   50.10000     -1.7166310E-05
   50.16000     -1.9233066E-05
   50.22000     -2.1509310E-05
   50.28000     -2.4011111E-05
   50.34000     -2.6755204E-05
   50.40000     -2.9758912E-05
   50.46000     -3.3040073E-05
   50.52000     -3.6616904E-05
   50.58000     -4.0507897E-05
   50.64000     -4.4731692E-05
   50.70000     -4.9306975E-05
   50.76000     -5.4252359E-05
   50.82000     -5.9586324E-05
   50.88000     -6.5327054E-05
   50.94000     -7.1492323E-05
   51.00000     -7.8099307E-05
   51.06000     -8.5164385E-05
   51.12000     -9.2702969E-05
   51.18000     -1.0072923E-04
   51.24000     -1.0925596E-04
   51.30000     -1.1829438E-04
   51.36000     -1.2785391E-04
   51.42000     -1.3794201E-04
   51.48000     -1.4856401E-04
   51.54000     -1.5972285E-04
   51.60000     -1.7141907E-04
   51.66000     -1.8365047E-04
   51.72000     -1.9641206E-04
   51.78000     -2.0969592E-04
   51.84000     -2.2349098E-04
   51.90000     -2.3778297E-04
   51.96000     -2.5255437E-04
   52.02000     -2.6778443E-04
   52.08000     -2.8344919E-04
   52.14000     -2.9952140E-04
   52.20000     -3.1597077E-04
   52.26000     -3.3276386E-04
   52.32000     -3.4986439E-04
   52.38000     -3.6723321E-04
   52.44000     -3.8482863E-04
   52.50000     -4.0260650E-04
   52.56000     -4.2052066E-04
   52.62000     -4.3852322E-04
   52.68000     -4.5656474E-04
   52.74000     -4.7459474E-04
   52.80000     -4.9256219E-04
   52.86000     -5.1041570E-04
   52.92000     -5.2810408E-04
   52.98000     -5.4557656E-04
   53.04000     -5.6278339E-04
   53.10000     -5.7967630E-04
   53.16000     -5.9620867E-04
   53.22000     -6.1233668E-04
   53.28000     -6.2801916E-04
   53.34000     -6.4321840E-04
   53.40000     -6.5790024E-04
   53.46000     -6.7203440E-04
   53.52000     -6.8559515E-04
   53.58000     -6.9856120E-04
   53.64000     -7.1091607E-04
   53.70000     -7.2264875E-04
   53.76000     -7.3375343E-04
   53.82000     -7.4422930E-04
   53.88000     -7.5408129E-04
   53.94000     -7.6331932E-04
   54.00000     -7.7195902E-04
   54.06000     -7.8002113E-04
   54.12000     -7.8753172E-04
   54.18000     -7.9452188E-04
   54.24000     -8.0102705E-04
   54.30000     -8.0708694E-04
   54.36000     -8.1274495E-04
   54.42000     -8.1804796E-04
   54.48000     -8.2304538E-04
   54.54000     -8.2778931E-04
   54.60000     -8.3233352E-04
   54.66000     -8.3673297E-04
   54.72000     -8.4104325E-04
   54.78000     -8.4532012E-04
   54.84000     -8.4961898E-04
   54.90000     -8.5399428E-04
   54.96000     -8.5849868E-04
   55.02000     -8.6318259E-04
   55.08000     -8.6809305E-04
   55.14000     -8.7327365E-04
   55.20000     -8.7876414E-04
   55.26000     -8.8459993E-04
   55.32000     -8.9081196E-04
   55.38000     -8.9742645E-04
   55.44000     -9.0446393E-04
   55.50000     -9.1193925E-04
   55.56000     -9.1986131E-04