  -2.400000      0.0000000E+00
  -2.340000      0.0000000E+00
  -2.280000      0.0000000E+00
  -2.220000      0.0000000E+00
  -2.160000      0.0000000E+00
  -2.100000     -1.1157472E-20
  -2.040000      7.5977786E-20
  -1.980000      1.0023468E-18
  -1.920000      4.3880327E-18
  -1.860000      1.0410731E-17
  -1.800000      1.1131542E-17
  -1.740000     -1.5948949E-17
  -1.680000     -9.9575486E-17
  -1.620000     -2.3624363E-16
  -1.560000     -3.2974254E-16
  -1.500000     -1.6296711E-16
  -1.440000      5.1195021E-16
  -1.380000      1.7197142E-15
  -1.320000      2.9395904E-15
  -1.260000      2.9887812E-15
  -1.200000      4.4217462E-16
  -1.140000     -5.3082797E-15
  -1.080000     -1.2764785E-14
  -1.020000     -1.7744322E-14
 -0.9600000     -1.4526210E-14
 -0.9000000      9.8367313E-16
 -0.8400000      2.7194237E-14
 -0.7800000      5.4343906E-14
 -0.7200000      6.6258312E-14
 -0.6600000      4.7368369E-14
 -0.6000000     -7.1462959E-15
 -0.5400000     -8.3296258E-14
 -0.4800000     -1.4836926E-13
 -0.4200000     -1.6246505E-13
 -0.3600000     -9.8885777E-14
 -0.3000000      3.5574723E-14
 -0.2400000      1.9247256E-13
 -0.1800000      2.9463227E-13
 -0.1200000      2.6979685E-13
 -5.9999999E-02  9.2680576E-14
  0.0000000E+00 -1.8558008E-13
  5.9999999E-02 -4.4113888E-13
  0.1200000     -5.2285601E-13
  0.1800000     -3.2749945E-13
  0.2400000      1.2744433E-13
  0.3000000      6.7439560E-13
  0.3600000      1.0397877E-12
  0.4200000      9.6057851E-13
  0.4800000      3.3169995E-13
  0.5400000     -6.8707659E-13
  0.6000000     -1.6760085E-12
  0.6600000     -2.1031282E-12
  0.7200000     -1.5768658E-12
  0.7800000     -9.7463711E-14
  0.8400000      1.8277573E-12
  0.9000000      3.3035382E-12
  0.9600000      3.4000658E-12
   1.020000      1.6192604E-12
   1.080000     -1.7314261E-12
   1.140000     -5.4587342E-12
   1.200000     -7.7925652E-12
   1.260000     -7.0129701E-12
   1.320000     -2.1721160E-12
   1.380000      6.3720435E-12
   1.440000      1.6827695E-11
   1.500000      2.6301454E-11
   1.560000      3.1467703E-11
   1.620000      2.9348034E-11
   1.680000      1.7992637E-11
   1.740000     -3.0265187E-12
   1.800000     -3.2267477E-11
   1.860000     -6.6120207E-11
   1.920000     -9.8546227E-11
   1.980000     -1.2102938E-10
   2.040000     -1.2309533E-10
   2.100000     -9.3808294E-11
   2.160000     -2.4485197E-11
   2.220000      8.7514260E-11
   2.280000      2.3454505E-10
   2.340000      3.9501477E-10
   2.400000      5.3150268E-10
   2.460000      5.9168942E-10
   2.520000      5.1262639E-10
   2.580000      2.2815733E-10
   2.640000     -3.2145139E-10
   2.700000     -1.1792302E-09
   2.760000     -2.3624420E-09
   2.820000     -3.8565369E-09
   2.880000     -5.6134528E-09
   2.940000     -7.5548492E-09
   3.000000     -9.5798862E-09
   3.060000     -1.1576352E-08
   3.120000     -1.3433267E-08
   3.180000     -1.5052930E-08
   3.240000     -1.6360639E-08
   3.300000     -1.7310931E-08
   3.360000     -1.7890015E-08
   3.420000     -1.8114759E-08
   3.480000     -1.8029084E-08
   3.540000     -1.7698650E-08
   3.600000     -1.7204624E-08
   3.660000     -1.6636966E-08
   3.720000     -1.6087542E-08
   3.780000     -1.5643275E-08
   3.840000     -1.5379625E-08
   3.900000     -1.5354786E-08
   3.960000     -1.5604957E-08
   4.020000     -1.6141007E-08
   4.080000     -1.6946700E-08
   4.140000     -1.7978701E-08
   4.200000     -1.9168693E-08
   4.260000     -2.0428168E-08
   4.320000     -2.1656380E-08
   4.380000     -2.2751664E-08
   4.440000     -2.3625239E-08
   4.500000     -2.4215700E-08
   4.560000     -2.4501086E-08
   4.620000     -2.4505304E-08
   4.680000     -2.4296236E-08
   4.740000     -2.3974655E-08
   4.800000     -2.3655506E-08
   4.860000     -2.3445269E-08
   4.920000     -2.3420561E-08
   4.980000     -2.3612998E-08
   5.040000     -2.4003882E-08
   5.100000     -2.4529731E-08
   5.160000     -2.5096980E-08
   5.220000     -2.5602064E-08
   5.280000     -2.5952138E-08
   5.340000     -2.6082020E-08
   5.400000     -2.5964166E-08
   5.460000     -2.5610415E-08
   5.520000     -2.5065987E-08
   5.580000     -2.4397679E-08
   5.640000     -2.3679091E-08
   5.700000     -2.2975968E-08
   5.760000     -2.2334415E-08
   5.820000     -2.1774053E-08
   5.880000     -2.1287024E-08
   5.940000     -2.0842569E-08
   6.000000     -2.0395751E-08
   6.060000     -1.9898167E-08
   6.120000     -1.9308251E-08
   6.180000     -1.8599078E-08
   6.240000     -1.7762314E-08
   6.300000     -1.6807867E-08
   6.360000     -1.5759689E-08
   6.420000     -1.4648885E-08
   6.480000     -1.3505846E-08
   6.540000     -1.2353344E-08
   6.600000     -1.1202395E-08
   6.660000     -1.0052164E-08
   6.720000     -8.8940908E-09
   6.780000     -7.7191213E-09
   6.840000     -6.5256858E-09
   6.900000     -5.3254956E-09
   6.960000     -4.1446580E-09
   7.020000     -3.0190068E-09
   7.080000     -1.9845914E-09
   7.140000     -1.0660972E-09
   7.200000     -2.6694008E-10
   7.260000      4.3556156E-10
   7.320000      1.0880994E-09
   7.380000      1.7527260E-09
   7.440000      2.4940343E-09
   7.500000      3.3657630E-09
   7.560000      4.4004427E-09
   7.620000      5.6046341E-09
   7.680000      6.9606072E-09
   7.740000      8.4335268E-09
   7.800000      9.9818536E-09
   7.860000      1.1568107E-08
   7.920000      1.3167300E-08
   7.980000      1.4771225E-08
   8.040000      1.6387958E-08
   8.100000      1.8037094E-08
   8.160000      1.9742199E-08
   8.220000      2.1522355E-08
   8.280000      2.3384827E-08
   8.340000      2.5320420E-08
   8.400000      2.7302617E-08
   8.460000      2.9290680E-08
   8.520000      3.1236159E-08
   8.580000      3.3091361E-08
   8.640000      3.4817795E-08
   8.700000      3.6392485E-08
   8.760000      3.7810409E-08
   8.820000      3.9082419E-08
   8.880000      4.0229207E-08
   8.940000      4.1273200E-08
   9.000000      4.2230930E-08
   9.060000      4.3108184E-08
   9.120000      4.3899501E-08
   9.180000      4.4592039E-08
   9.240000      4.5172371E-08
   9.300000      4.5634017E-08
   9.360000      4.5983118E-08
   9.420000      4.6240398E-08
   9.480000      4.6438604E-08
   9.540000      4.6616037E-08
   9.600000      4.6807909E-08
   9.660000      4.7037972E-08
   9.720000      4.7312874E-08
   9.780000      4.7620855E-08
   9.840000      4.7935320E-08
   9.900000      4.8222130E-08
   9.960000      4.8448452E-08
   10.02000      4.8590429E-08
   10.08000      4.8637556E-08
   10.14000      4.8592753E-08
   10.20000      4.8468749E-08
   10.26000      4.8282573E-08
   10.32000      4.8050293E-08
   10.38000      4.7783626E-08
   10.44000      4.7488932E-08
   10.50000      4.7167980E-08
   10.56000      4.6819395E-08
   10.62000      4.6439787E-08
   10.68000      4.6024194E-08
   10.74000      4.5566136E-08
   10.80000      4.5057810E-08
   10.86000      4.4490797E-08
   10.92000      4.3857124E-08
   10.98000      4.3150383E-08
   11.04000      4.2366491E-08
   11.10000      4.1504165E-08
   11.16000      4.0565311E-08
   11.22000      3.9555612E-08
   11.28000      3.8485169E-08
   11.34000      3.7368572E-08
   11.40000      3.6223703E-08
   11.46000      3.5068894E-08
   11.52000      3.3919019E-08
   11.58000      3.2781795E-08
   11.64000      3.1655880E-08
   11.70000      3.0531822E-08
   11.76000      2.9395691E-08
   11.82000      2.8233991E-08
   11.88000      2.7037997E-08
   11.94000      2.5805800E-08
   12.00000      2.4541642E-08
   12.06000      2.3253222E-08
   12.12000      2.1948630E-08
   12.18000      2.0634362E-08
   12.24000      1.9315147E-08
   12.30000      1.7995172E-08
   12.36000      1.6679534E-08
   12.42000      1.5374686E-08
   12.48000      1.4087233E-08
   12.54000      1.2821355E-08
   12.60000      1.1575920E-08
   12.66000      1.0342542E-08
   12.72000      9.1055394E-09
   12.78000      7.8441094E-09
   12.84000      6.5362959E-09
   12.90000      5.1638192E-09
   12.96000      3.7165595E-09
   13.02000      2.1954452E-09
   13.08000      6.1267630E-10
   13.14000     -1.0113097E-09
   13.20000     -2.6539182E-09
   13.26000     -4.2982324E-09
   13.32000     -5.9403118E-09
   13.38000     -7.5932096E-09
   13.44000     -9.2855394E-09
   13.50000     -1.1054068E-08
   13.56000     -1.2932072E-08
   13.62000     -1.4937171E-08
   13.68000     -1.7063069E-08
   13.74000     -1.9278545E-08
   13.80000     -2.1534582E-08
   13.86000     -2.3777387E-08
   13.92000     -2.5962930E-08
   13.98000     -2.8068067E-08
   14.04000     -3.0094846E-08
   14.10000     -3.2067096E-08
   14.16000     -3.4021131E-08
   14.22000     -3.5993974E-08
   14.28000     -3.8012555E-08
   14.34000     -4.0086451E-08
   14.40000     -4.2205148E-08
   14.46000     -4.4339711E-08
   14.52000     -4.6448033E-08
   14.58000     -4.8482576E-08
   14.64000     -5.0399176E-08
   14.70000     -5.2165095E-08
   14.76000     -5.3764328E-08
   14.82000     -5.5198402E-08
   14.88000     -5.6482197E-08
   14.94000     -5.7636015E-08
   15.00000     -5.8676758E-08
   15.06000     -5.9611580E-08
   15.12000     -6.0436449E-08
   15.18000     -6.1139858E-08
   15.24000     -6.1709649E-08
   15.30000     -6.2139527E-08
   15.36000     -6.2432022E-08
   15.42000     -6.2596762E-08
   15.48000     -6.2645100E-08
   15.54000     -6.2583879E-08
   15.60000     -6.2411544E-08
   15.66000     -6.2118332E-08
   15.72000     -6.1690315E-08
   15.78000     -6.1115479E-08
   15.84000     -6.0389084E-08
   15.90000     -5.9516370E-08
   15.96000     -5.8511851E-08
   16.02000     -5.7396004E-08
   16.08000     -5.6190796E-08
   16.14000     -5.4915716E-08
   16.20000     -5.3585403E-08
   16.26000     -5.2209305E-08
   16.32000     -5.0793069E-08
   16.38000     -4.9341011E-08
   16.44000     -4.7858776E-08
   16.50000     -4.6355204E-08
   16.56000     -4.4842547E-08
   16.62000     -4.3334758E-08
   16.68000     -4.1844118E-08
   16.74000     -4.0377348E-08
   16.80000     -3.8932750E-08
   16.86000     -3.7499962E-08
   16.92000     -3.6063032E-08
   16.98000     -3.4606281E-08
   17.04000     -3.3121282E-08
   17.10000     -3.1612462E-08
   17.16000     -3.0099159E-08
   17.22000     -2.8612989E-08
   17.28000     -2.7190961E-08
   17.34000     -2.5866321E-08
   17.40000     -2.4659947E-08
   17.46000     -2.3574914E-08
   17.52000     -2.2595964E-08
   17.58000     -2.1693920E-08
   17.64000     -2.0833614E-08
   17.70000     -1.9982828E-08
   17.76000     -1.9119534E-08
   17.82000     -1.8235447E-08
   17.88000     -1.7335100E-08
   17.94000     -1.6431111E-08
   18.00000     -1.5537394E-08
   18.06000     -1.4662599E-08
   18.12000     -1.3805750E-08
   18.18000     -1.2955318E-08
   18.24000     -1.2091798E-08
   18.30000     -1.1192872E-08
   18.36000     -1.0239510E-08
   18.42000     -9.2211891E-09
   18.48000     -8.1387155E-09
   18.54000     -7.0038468E-09
   18.60000     -5.8358469E-09
   18.66000     -4.6559911E-09
   18.72000     -3.4816658E-09
   18.78000     -2.3218198E-09
   18.84000     -1.1751280E-09
   18.90000     -3.1353430E-11
   18.96000      1.1245778E-09
   19.02000      2.3070654E-09
   19.08000      3.5244481E-09
   19.14000      4.7750346E-09
   19.20000      6.0451923E-09
   19.26000      7.3094202E-09
   19.32000      8.5318757E-09
   19.38000      9.6687520E-09
   19.44000      1.0671177E-08
   19.50000      1.1488614E-08
   19.56000      1.2072973E-08
   19.62000      1.2383516E-08
   19.68000      1.2392322E-08
   19.74000      1.2089683E-08
   19.80000      1.1488387E-08
   19.86000      1.0625786E-08
   19.92000      9.5626138E-09
   19.98000      8.3779632E-09
   20.04000      7.1605419E-09
   20.10000      5.9971930E-09
   20.16000      4.9606128E-09
   20.22000      4.0987782E-09
   20.28000      3.4286185E-09
   20.34000      2.9356886E-09
   20.40000      2.5801430E-09
   20.46000      2.3076210E-09
   20.52000      2.0622912E-09
   20.58000      1.7988131E-09
   20.64000      1.4905008E-09
   20.70000      1.1322996E-09
   20.76000      7.3876172E-10
   20.82000      3.3844241E-10
   20.88000     -3.3329055E-11
   20.94000     -3.4152481E-10
   21.00000     -5.5716581E-10
   21.06000     -6.6123518E-10
   21.12000     -6.4672084E-10
   21.18000     -5.1897203E-10
   21.24000     -2.9463618E-10
   21.30000      4.9820093E-13
   21.36000      3.3435432E-10
   21.42000      6.7169403E-10
   21.48000      9.7720654E-10
   21.54000      1.2184611E-09
   21.60000      1.3688298E-09
   21.66000      1.4104905E-09
   21.72000      1.3373566E-09
   21.78000      1.1573539E-09
   21.84000      8.9314184E-10
   21.90000      5.8044830E-10
   21.96000      2.6374469E-10
   22.02000     -1.0127938E-11
   22.08000     -1.9897292E-10
   22.14000     -2.7115646E-10
   22.20000     -2.0905441E-10
   22.26000     -9.5314598E-12
   22.32000      3.1804814E-10
   22.38000      7.5512868E-10
   22.44000      1.2773902E-09
   22.50000      1.8575543E-09
   22.56000      2.4674451E-09
   22.62000      3.0795864E-09
   22.68000      3.6686050E-09
   22.74000      4.2124246E-09
   22.80000      4.6929785E-09
   22.86000      5.0962075E-09
   22.92000      5.4114730E-09
   22.98000      5.6309544E-09
   23.04000      5.7497260E-09
   23.10000      5.7668528E-09
   23.16000      5.6871308E-09
   23.22000      5.5224483E-09
   23.28000      5.2916489E-09
   23.34000      5.0183546E-09
   23.40000      4.7272728E-09
   23.46000      4.4403765E-09
   23.52000      4.1745634E-09
   23.58000      3.9416985E-09
   23.64000      3.7507348E-09
   23.70000      3.6105254E-09
   23.76000      3.5316172E-09
   23.82000      3.5259140E-09
   23.88000      3.6042465E-09
   23.94000      3.7729722E-09
   24.00000      4.0311314E-09
   24.06000      4.3693387E-09
   24.12000      4.7707838E-09
   24.18000      5.2139857E-09
   24.24000      5.6766165E-09
   24.30000      6.1397487E-09
   24.36000      6.5919550E-09
   24.42000      7.0325186E-09
   24.48000      7.4726048E-09
   24.54000      7.9330826E-09
   24.60000      8.4381719E-09
   24.66000      9.0054613E-09
   24.72000      9.6346406E-09
   24.78000      1.0298570E-08
   24.84000      1.0940340E-08
   24.90000      1.1478340E-08
   24.96000      1.1818641E-08
   25.02000      1.1871467E-08
   25.08000      1.1567097E-08
   25.14000      1.0867023E-08
   25.20000      9.7680468E-09
   25.26000      8.2993123E-09
   25.32000      6.5140560E-09
   25.38000      4.4785269E-09
   25.44000      2.2602760E-09
   25.50000     -8.2505620E-11
   25.56000     -2.5091920E-09
   25.62000     -5.0010951E-09
   25.68000     -7.5607538E-09
   25.74000     -1.0205759E-08
   25.80000     -1.2958324E-08
   25.86000     -1.5833688E-08
   25.92000     -1.8831445E-08
   25.98000     -2.1933337E-08
   26.04000     -2.5108594E-08
   26.10000     -2.8324761E-08
   26.16000     -3.1559178E-08
   26.22000     -3.4805794E-08
   26.28000     -3.8073736E-08
   26.34000     -4.1377710E-08
   26.40000     -4.4724082E-08
   26.46000     -4.8098510E-08
   26.52000     -5.1460695E-08
   26.58000     -5.4748934E-08
   26.64000     -5.7893409E-08
   26.70000     -6.0833962E-08
   26.76000     -6.3536582E-08
   26.82000     -6.6003601E-08
   26.88000     -6.8274588E-08
   26.94000     -7.0417620E-08
   27.00000     -7.2512975E-08
   27.06000     -7.4632823E-08
   27.12000     -7.6821394E-08
   27.18000     -7.9080642E-08
   27.24000     -8.1365457E-08
   27.30000     -8.3591061E-08
   27.36000     -8.5651891E-08
   27.42000     -8.7447738E-08
   27.48000     -8.8909708E-08
   27.54000     -9.0017814E-08
   27.60000     -9.0803944E-08
   27.66000     -9.1338933E-08
   27.72000     -9.1707925E-08
   27.78000     -9.1982827E-08
   27.84000     -9.2201162E-08
   27.90000     -9.2358349E-08
   27.96000     -9.2414595E-08
   28.02000     -9.2312895E-08
   28.08000     -9.2000597E-08
   28.14000     -9.1447028E-08
   28.20000     -9.0652087E-08
   28.26000     -8.9644203E-08
   28.32000     -8.8469548E-08
   28.38000     -8.7176709E-08
   28.44000     -8.5801624E-08
   28.50000     -8.4357104E-08
   28.56000     -8.2830297E-08
   28.62000     -8.1189121E-08
   28.68000     -7.9396486E-08
   28.74000     -7.7428389E-08
   28.80000     -7.5290004E-08
   28.86000     -7.3023628E-08
   28.92000     -7.0704537E-08
   28.98000     -6.8424768E-08
   29.04000     -6.6269557E-08
   29.10000     -6.4294504E-08
   29.16000     -6.2511646E-08
   29.22000     -6.0889768E-08
   29.28000     -5.9369039E-08
   29.34000     -5.7884684E-08
   29.40000     -5.6391325E-08
   29.46000     -5.4879497E-08
   29.52000     -5.3379129E-08
   29.58000     -5.1949577E-08
   29.64000     -5.0660272E-08
   29.70000     -4.9568804E-08
   29.76000     -4.8703530E-08
   29.82000     -4.8055803E-08
   29.88000     -4.7583818E-08
   29.94000     -4.7226393E-08
   30.00000     -4.6922501E-08
   30.06000     -4.6630507E-08
   30.12000     -4.6341384E-08
   30.18000     -4.6081524E-08
   30.24000     -4.5903882E-08
   30.30000     -4.5869800E-08
   30.36000     -4.6027218E-08
   30.42000     -4.6392476E-08
   30.48000     -4.6942450E-08
   30.54000     -4.7620144E-08
   30.60000     -4.8352369E-08
   30.66000     -4.9073424E-08
   30.72000     -4.9746429E-08
   30.78000     -5.0374560E-08
   30.84000     -5.0998199E-08
   30.90000     -5.1679180E-08
   30.96000     -5.2477851E-08
   31.02000     -5.3431119E-08
   31.08000     -5.4538909E-08
   31.14000     -5.5763252E-08
   31.20000     -5.7039863E-08
   31.26000     -5.8297942E-08
   31.32000     -5.9481795E-08
   31.38000     -6.0567160E-08
   31.44000     -6.1567150E-08
   31.50000     -6.2525565E-08
   31.56000     -6.3498945E-08
   31.62000     -6.4532600E-08
   31.68000     -6.5637877E-08
   31.74000     -6.6778426E-08
   31.80000     -6.7871085E-08
   31.86000     -6.8802599E-08
   31.92000     -6.9458096E-08
   31.98000     -6.9752623E-08
   32.04000     -6.9655464E-08
   32.10000     -6.9198876E-08
   32.16000     -6.8467777E-08
   32.22000     -6.7573787E-08
   32.28000     -6.6622270E-08
   32.34000     -6.5683274E-08
   32.40000     -6.4775776E-08
   32.46000     -6.3869628E-08
   32.52000     -6.2903339E-08
   32.58000     -6.1810844E-08
   32.64000     -6.0547890E-08
   32.70000     -5.9109375E-08
   32.76000     -5.7532379E-08
   32.82000     -5.5884435E-08
   32.88000     -5.4241077E-08
   32.94000     -5.2659953E-08
   33.00000     -5.1159869E-08
   33.06000     -4.9711833E-08
   33.12000     -4.8245756E-08
   33.18000     -4.6671850E-08
   33.24000     -4.4910763E-08
   33.30000     -4.2923247E-08
   33.36000     -4.0729180E-08
   33.42000     -3.8408789E-08
   33.48000     -3.6084252E-08
   33.54000     -3.3886803E-08
   33.60000     -3.1919949E-08
   33.66000     -3.0231288E-08
   33.72000     -2.8802768E-08
   33.78000     -2.7562793E-08
   33.84000     -2.6415549E-08
   33.90000     -2.5276730E-08
   33.96000     -2.4102706E-08
   34.02000     -2.2902935E-08
   34.08000     -2.1731944E-08
   34.14000     -2.0664730E-08
   34.20000     -1.9765112E-08
   34.26000     -1.9058493E-08
   34.32000     -1.8518213E-08
   34.38000     -1.8069576E-08
   34.44000     -1.7609594E-08
   34.50000     -1.7035642E-08
   34.56000     -1.6273924E-08
   34.62000     -1.5299008E-08
   34.68000     -1.4138705E-08
   34.74000     -1.2862921E-08
   34.80000     -1.1559923E-08
   34.86000     -1.0307456E-08
   34.92000     -9.1480032E-09
   34.98000     -8.0766274E-09
   35.04000     -7.0460691E-09
   35.10000     -5.9879293E-09
   35.16000     -4.8429425E-09
   35.22000     -3.5894325E-09
   35.28000     -2.2590545E-09
   35.34000     -9.3306929E-10
   35.40000      2.8052699E-10
   35.46000      1.2813416E-09
   35.52000      2.0099751E-09
   35.58000      2.4679530E-09
   35.64000      2.7163962E-09
   35.70000      2.8533977E-09
   35.76000      2.9778959E-09
   35.82000      3.1527352E-09
   35.88000      3.3798229E-09
   35.94000      3.5958760E-09
   36.00000      3.6900640E-09
   36.06000      3.5375145E-09
   36.12000      3.0377283E-09
   36.18000      2.1457875E-09
   36.24000      8.8695989E-10
   36.30000     -6.4938660E-10
   36.36000     -2.3343931E-09
   36.42000     -4.0354338E-09
   36.48000     -5.6524692E-09
   36.54000     -7.1445205E-09
   36.60000     -8.5385397E-09
   36.66000     -9.9180673E-09
   36.72000     -1.1395059E-08
   36.78000     -1.3073508E-08
   36.84000     -1.5016369E-08
   36.90000     -1.7226437E-08
   36.96000     -1.9647494E-08
   37.02000     -2.2185141E-08
   37.08000     -2.4739895E-08
   37.14000     -2.7240707E-08
   37.20000     -2.9666930E-08
   37.26000     -3.2051126E-08
   37.32000     -3.4462332E-08
   37.38000     -3.6976530E-08
   37.44000     -3.9645677E-08
   37.50000     -4.2476398E-08
   37.56000     -4.5425391E-08
   37.62000     -4.8411827E-08
   37.68000     -5.1340862E-08
   37.74000     -5.4128943E-08
   37.80000     -5.6721841E-08
   37.86000     -5.9100092E-08
   37.92000     -6.1271393E-08
   37.98000     -6.3254312E-08
   38.04000     -6.5060021E-08
   38.10000     -6.6678901E-08
   38.16000     -6.8076389E-08
   38.22000     -6.9199416E-08
   38.28000     -6.9990826E-08
   38.34000     -7.0407154E-08
   38.40000     -7.0433614E-08
   38.46000     -7.0091119E-08
   38.52000     -6.9432637E-08
   38.58000     -6.8529253E-08
   38.64000     -6.7450152E-08
   38.70000     -6.6242762E-08
   38.76000     -6.4919860E-08
   38.82000     -6.3458288E-08
   38.88000     -6.1809970E-08
   38.94000     -5.9921803E-08
   39.00000     -5.7757614E-08
   39.06000     -5.5314807E-08
   39.12000     -5.2630178E-08
   39.18000     -4.9773522E-08
   39.24000     -4.6832035E-08
   39.30000     -4.3891589E-08
   39.36000     -4.1021735E-08
   39.42000     -3.8269125E-08
   39.48000     -3.5660584E-08
   39.54000     -3.3212970E-08
   39.60000     -3.0944616E-08
   39.66000     -2.8882866E-08
   39.72000     -2.7064187E-08
   39.78000     -2.5526589E-08
   39.84000     -2.4297217E-08
   39.90000     -2.3379910E-08
   39.96000     -2.2747486E-08
   40.02000     -2.2341926E-08
   40.08000     -2.2082896E-08
   40.14000     -2.1882546E-08
   40.20000     -2.1662647E-08
   40.26000     -2.1369509E-08
   40.32000     -2.0982798E-08
   40.38000     -2.0515932E-08
   40.44000     -2.0008008E-08
   40.50000     -1.9509502E-08
   40.56000     -1.9065835E-08
   40.62000     -1.8703599E-08
   40.68000     -1.8423640E-08
   40.74000     -1.8202954E-08
   40.80000     -1.8004506E-08
   40.86000     -1.7791217E-08
   40.92000     -1.7538961E-08
   40.98000     -1.7243906E-08
   41.04000     -1.6921957E-08
   41.10000     -1.6601199E-08
   41.16000     -1.6311064E-08
   41.22000     -1.6072837E-08
   41.28000     -1.5895100E-08
   41.34000     -1.5775074E-08
   41.40000     -1.5704090E-08
   41.46000     -1.5673796E-08
   41.52000     -1.5679786E-08
   41.58000     -1.5721252E-08
   41.64000     -1.5797463E-08
   41.70000     -1.5903641E-08
   41.76000     -1.6028990E-08
   41.82000     -1.6158426E-08
   41.88000     -1.6277532E-08
   41.94000     -1.6378673E-08
   42.00000     -1.6465524E-08
   42.06000     -1.6554106E-08
   42.12000     -1.6669865E-08
   42.18000     -1.6842025E-08
   42.24000     -1.7097346E-08
   42.30000     -1.7455514E-08
   42.36000     -1.7927619E-08
   42.42000     -1.8518019E-08
   42.48000     -1.9228818E-08
   42.54000     -2.0065221E-08
   42.60000     -2.1039716E-08
   42.66000     -2.2172953E-08
   42.72000     -2.3490086E-08
   42.78000     -2.5012559E-08
   42.84000     -2.6747264E-08
   42.90000     -2.8676578E-08
   42.96000     -3.0753441E-08
   43.02000     -3.2904683E-08
   43.08000     -3.5043147E-08
   43.14000     -3.7085783E-08
   43.20000     -3.8971898E-08
   43.26000     -4.0675122E-08
   43.32000     -4.2204327E-08
   43.38000     -4.3592994E-08
   43.44000     -4.4880917E-08
   43.50000     -4.6095426E-08
   43.56000     -4.7239531E-08
   43.62000     -4.8291586E-08
   43.68000     -4.9216478E-08
   43.74000     -4.9983743E-08
   43.80000     -5.0585403E-08
   43.86000     -5.1046545E-08
   43.92000     -5.1424500E-08
   43.98000     -5.1796462E-08
   44.04000     -5.2239486E-08
   44.10000     -5.2808979E-08
   44.16000     -5.3522424E-08
   44.22000     -5.4353453E-08
   44.28000     -5.5238466E-08
   44.34000     -5.6094450E-08
   44.40000     -5.6843135E-08
   44.46000     -5.7434324E-08
   44.52000     -5.7860724E-08
   44.58000     -5.8158626E-08
   44.64000     -5.8393056E-08
   44.70000     -5.8631279E-08
   44.76000     -5.8913329E-08
   44.82000     -5.9230000E-08
   44.88000     -5.9517017E-08
   44.94000     -5.9668579E-08
   45.00000     -5.9566549E-08
   45.06000     -5.9115401E-08
   45.12000     -5.8270739E-08
   45.18000     -5.7051174E-08
   45.24000     -5.5529483E-08
   45.30000     -5.3806442E-08
   45.36000     -5.1976837E-08
   45.42000     -5.0099761E-08
   45.48000     -4.8183306E-08
   45.54000     -4.6188440E-08
   45.60000     -4.4050033E-08
   45.66000     -4.1707363E-08
   45.72000     -3.9133216E-08
   45.78000     -3.6351484E-08
   45.84000     -3.3436883E-08
   45.90000     -3.0496199E-08
   45.96000     -2.7636611E-08
   46.02000     -2.4931177E-08
   46.08000     -2.2393234E-08
   46.14000     -1.9969134E-08
   46.20000     -1.7553301E-08
   46.26000     -1.5021982E-08
   46.32000     -1.2275375E-08
   46.38000     -9.2741299E-09
   46.44000     -6.0573968E-09
   46.50000     -2.7356080E-09
   46.56000      5.4013055E-10
   46.62000      3.6218293E-09
   46.68000      6.4066605E-09
   46.74000      8.8630001E-09
   46.80000      1.1032009E-08
   46.86000      1.3004966E-08
   46.92000      1.4884888E-08
   46.98000      1.6745981E-08
   47.04000      1.8604618E-08
   47.10000      2.0411084E-08
   47.16000      2.2064082E-08
   47.22000      2.3442515E-08
   47.28000      2.4443803E-08
   47.34000      2.5016256E-08
   47.40000      2.5175407E-08
   47.46000      2.4999398E-08
   47.52000      2.4605185E-08
   47.58000      2.4113142E-08
   47.64000      2.3611145E-08
   47.70000      2.3129282E-08
   47.76000      2.2632925E-08
   47.82000      2.2036165E-08
   47.88000      2.1231227E-08
   47.94000      2.0124338E-08
   48.00000      1.8666544E-08
   48.06000      1.6869590E-08
   48.12000      1.4802027E-08
   48.18000      1.2567188E-08
   48.24000      1.0270687E-08
   48.30000      7.9882039E-09
   48.36000      5.7437464E-09
   48.42000      3.5043883E-09
   48.48000      1.1917003E-09
   48.54000     -1.2954448E-09
   48.60000     -4.0550541E-09
   48.66000     -7.1615203E-09
   48.72000     -1.0656033E-08
   48.78000     -1.4549371E-08
   48.84000     -1.8834619E-08
   48.90000     -2.3504818E-08
   48.96000     -2.8569868E-08
   49.02000     -3.4068162E-08
   49.08000     -4.0070823E-08
   49.14000     -4.6679386E-08
   49.20000     -5.4020166E-08
   49.26000     -6.2239835E-08
   49.32000     -7.1506015E-08
   49.38000     -8.2014431E-08
   49.44000     -9.4001230E-08
   49.50000     -1.0775653E-07
   49.56000     -1.2363515E-07
   49.62000     -1.4206137E-07
   49.68000     -1.6352831E-07
   49.74000     -1.8859451E-07
   49.80000     -2.1788243E-07
   49.86000     -2.5208283E-07
   49.92000     -2.9196767E-07
   49.98000     -3.3841150E-07
   50.04000     -3.9241965E-07
   50.10000     -4.5515984E-07
   50.16000     -5.2799254E-07
   50.22000     -6.1249784E-07
   50.28000     -7.1049396E-07
   50.34000     -8.2404927E-07
   50.40000     -9.5549080E-07
   50.46000     -1.1074148E-06
   50.52000     -1.2827053E-06
   50.58000     -1.4845656E-06
   50.64000     -1.7165618E-06
   50.70000     -1.9826705E-06
   50.76000     -2.2873267E-06
   50.82000     -2.6354608E-06
   50.88000     -3.0325300E-06
   50.94000     -3.4845407E-06
   51.00000     -3.9980710E-06
   51.06000     -4.5803040E-06
   51.12000     -5.2390628E-06
   51.18000     -5.9828612E-06
   51.24000     -6.8209483E-06
   51.30000     -7.7633540E-06
   51.36000     -8.8209326E-06
   51.42000     -1.0005383E-05
   51.48000     -1.1329279E-05
   51.54000     -1.2806066E-05
   51.60000     -1.4450065E-05
   51.66000     -1.6276466E-05
   51.72000     -1.8301324E-05
   51.78000     -2.0541549E-05
   51.84000     -2.3014909E-05
   51.90000     -2.5740010E-05
   51.96000     -2.8736267E-05
   52.02000     -3.2023865E-05
   52.08000     -3.5623689E-05
   52.14000     -3.9557232E-05
   52.20000     -4.3846510E-05
   52.26000     -4.8513950E-05
   52.32000     -5.3582262E-05
   52.38000     -5.9074333E-05
   52.44000     -6.5013075E-05
   52.50000     -7.1421309E-05
   52.56000     -7.8321602E-05
   52.62000     -8.5736094E-05
   52.68000     -9.3686293E-05
   52.74000     -1.0219290E-04
   52.80000     -1.1127553E-04
   52.86000     -1.2095250E-04
   52.92000     -1.3124055E-04
   52.98000     -1.4215465E-04
   53.04000     -1.5370779E-04
   53.10000     -1.6591078E-04
   53.16000     -1.7877207E-04
   53.22000     -1.9229752E-04
   53.28000     -2.0649027E-04
   53.34000     -2.2135035E-04
   53.40000     -2.3687468E-04
   53.46000     -2.5305682E-04
   53.52000     -2.6988669E-04
   53.58000     -2.8735079E-04
   53.64000     -3.0543169E-04
   53.70000     -3.2410835E-04
   53.76000     -3.4335587E-04
   53.82000     -3.6314584E-04
   53.88000     -3.8344602E-04
   53.94000     -4.0422071E-04
   54.00000     -4.2543080E-04
   54.06000     -4.4703379E-04
   54.12000     -4.6898419E-04
   54.18000     -4.9123348E-04
   54.24000     -5.1373063E-04
   54.30000     -5.3642230E-04
   54.36000     -5.5925315E-04
   54.42000     -5.8216654E-04
   54.48000     -6.0510467E-04
   54.54000     -6.2800874E-04
   54.60000     -6.5082015E-04
   54.66000     -6.7348033E-04
   54.72000     -6.9593138E-04
   54.78000     -7.1811676E-04
   54.84000     -7.3998159E-04
   54.90000     -7.6147303E-04
   54.96000     -7.8254053E-04
   55.02000     -8.0313691E-04
   55.08000     -8.2321814E-04
   55.14000     -8.4274460E-04
   55.20000     -8.6168066E-04
   55.26000     -8.7999570E-04
   55.32000     -8.9766370E-04
   55.38000     -9.1466401E-04
   55.44000     -9.3098119E-04
   55.50000     -9.4660511E-04
   55.56000     -9.6153136E-04