  -2.400000      0.0000000E+00
  -2.340000      0.0000000E+00
  -2.280000      0.0000000E+00
  -2.220000      0.0000000E+00
  -2.160000      0.0000000E+00
  -2.100000      0.0000000E+00
  -2.040000      0.0000000E+00
  -1.980000      0.0000000E+00
  -1.920000     -5.0317177E-27
  -1.860000     -1.0130660E-26
  -1.800000      2.3964606E-25
  -1.740000      2.1543673E-24
  -1.680000      9.8996798E-24
  -1.620000      3.0765992E-23
  -1.560000      6.8940025E-23
  -1.500000      1.0370166E-22
  -1.440000      4.2389826E-23
  -1.380000     -3.4741381E-22
  -1.320000     -1.4628439E-21
  -1.260000     -3.6543139E-21
  -1.200000     -6.4609979E-21
  -1.140000     -7.1581052E-21
  -1.080000      6.1595224E-22
  -1.020000      2.5794036E-20
 -0.9600000      7.3046097E-20
 -0.9000000      1.2909834E-19
 -0.8400000      1.4849337E-19
 -0.7800000      5.4942461E-20
 -0.7200000     -2.2259872E-19
 -0.6600000     -6.7579260E-19
 -0.6000000     -1.1381119E-18
 -0.5400000     -1.2722203E-18
 -0.4800000     -6.9249390E-19
 -0.4200000      7.8136902E-19
 -0.3600000      2.8683460E-18
 -0.3000000      4.7826892E-18
 -0.2400000      5.5501532E-18
 -0.1800000      4.5736917E-18
 -0.1200000      2.0335603E-18
 -5.9999999E-02 -1.3557999E-18
  0.0000000E+00 -5.2980083E-18
  5.9999999E-02 -1.0866955E-17
  0.1200000     -2.0180849E-17
  0.1800000     -3.3905763E-17
  0.2400000     -4.7329772E-17
  0.3000000     -4.7891752E-17
  0.3600000     -1.8006640E-17
  0.4200000      5.4844990E-17
  0.4800000      1.6360338E-16
  0.5400000      2.7094575E-16
  0.6000000      3.1271411E-16
  0.6600000      2.2120203E-16
  0.7200000     -3.6623484E-17
  0.7800000     -4.2266550E-16
  0.8400000     -8.1513713E-16
  0.9000000     -1.0357528E-15
  0.9600000     -9.1534266E-16
   1.020000     -3.7602461E-16
   1.080000      5.0529962E-16
   1.140000      1.4859413E-15
   1.200000      2.2158160E-15
   1.260000      2.3556876E-15
   1.320000      1.7188254E-15
   1.380000      3.8119863E-16
   1.440000     -1.2966935E-15
   1.500000     -2.7716614E-15
   1.560000     -3.5305182E-15
   1.620000     -3.3358461E-15
   1.680000     -2.3749673E-15
   1.740000     -1.1868607E-15
   1.800000     -3.3499200E-16
   1.860000      4.0789226E-17
   1.920000      5.0741064E-16
   1.980000      2.1547790E-15
   2.040000      5.8484686E-15
   2.100000      1.1205260E-14
   2.160000      1.5934546E-14
   2.220000      1.6238694E-14
   2.280000      8.5329481E-15
   2.340000     -8.0635978E-15
   2.400000     -2.9777663E-14
   2.460000     -4.8251533E-14
   2.520000     -5.3356987E-14
   2.580000     -3.7999988E-14
   2.640000     -2.7149356E-15
   2.700000      4.2624443E-14
   2.760000      8.1595178E-14
   2.820000      9.7864249E-14
   2.880000      8.2705727E-14
   2.940000      3.9484617E-14
   3.000000     -1.7552933E-14
   3.060000     -6.9849386E-14
   3.120000     -1.0301250E-13
   3.180000     -1.1242774E-13
   3.240000     -1.0274876E-13
   3.300000     -8.1708010E-14
   3.360000     -5.2453952E-14
   3.420000     -1.0036188E-14
   3.480000      5.4476307E-14
   3.540000      1.4353625E-13
   3.600000      2.4234957E-13
   3.660000      3.1555178E-13
   3.720000      3.1630043E-13
   3.780000      2.0647676E-13
   3.840000     -1.9966374E-14
   3.900000     -3.2189507E-13
   3.960000     -6.1356291E-13
   4.020000     -7.8747133E-13
   4.080000     -7.5135682E-13
   4.140000     -4.6629925E-13
   4.200000      2.8921140E-14
   4.260000      6.1811748E-13
   4.320000      1.1352350E-12
   4.380000      1.4121667E-12
   4.440000      1.3324135E-12
   4.500000      8.7327422E-13
   4.560000      1.2191375E-13
   4.620000     -7.4185683E-13
   4.680000     -1.4930152E-12
   4.740000     -1.9259067E-12
   4.800000     -1.9162868E-12
   4.860000     -1.4604494E-12
   4.920000     -6.7720379E-13
   4.980000      2.2976944E-13
   5.040000      1.0377754E-12
   5.100000      1.5766705E-12
   5.160000      1.7800235E-12
   5.220000      1.6961424E-12
   5.280000      1.4543230E-12
   5.340000      1.2001466E-12
   5.400000      1.0277458E-12
   5.460000      9.3961460E-13
   5.520000      8.5306778E-13
   5.580000      6.5062642E-13
   5.640000      2.4916286E-13
   5.700000     -3.4895247E-13
   5.760000     -1.0527644E-12
   5.820000     -1.7338676E-12
   5.880000     -2.3076061E-12
   5.940000     -2.7991606E-12
   6.000000     -3.3505880E-12
   6.060000     -4.1508489E-12
   6.120000     -5.3110155E-12
   6.180000     -6.7416645E-12
   6.240000     -8.0996156E-12
   6.300000     -8.8488643E-12
   6.360000     -8.4331639E-12
   6.420000     -6.5064742E-12
   6.480000     -3.1367073E-12
   6.540000      1.0968865E-12
   6.600000      5.1530390E-12
   6.660000      7.7088119E-12
   6.720000      7.4078191E-12
   6.780000      3.0948239E-12
   6.840000     -6.0283107E-12
   6.900000     -2.0349293E-11
   6.960000     -3.9874555E-11
   7.020000     -6.4293917E-11
   7.080000     -9.3034344E-11
   7.140000     -1.2528016E-10
   7.200000     -1.5996937E-10
   7.260000     -1.9579921E-10
   7.320000     -2.3127879E-10
   7.380000     -2.6485081E-10
   7.440000     -2.9507793E-10
   7.500000     -3.2086336E-10
   7.560000     -3.4165779E-10
   7.620000     -3.5760167E-10
   7.680000     -3.6955966E-10
   7.740000     -3.7901987E-10
   7.800000     -3.8785769E-10
   7.860000     -3.9799275E-10
   7.920000     -4.1099871E-10
   7.980000     -4.2774989E-10
   8.040000     -4.4819254E-10
   8.100000     -4.7130694E-10
   8.160000     -4.9527860E-10
   8.220000     -5.1783816E-10
   8.280000     -5.3668059E-10
   8.340000     -5.4985694E-10
   8.400000     -5.5605176E-10
   8.460000     -5.5470994E-10
   8.520000     -5.4602900E-10
   8.580000     -5.3086818E-10
   8.640000     -5.1062199E-10
   8.700000     -4.8707566E-10
   8.760000     -4.6222451E-10
   8.820000     -4.3802598E-10
   8.880000     -4.1607578E-10
   8.940000     -3.9725770E-10
   9.000000     -3.8147219E-10
   9.060000     -3.6757514E-10
   9.120000     -3.5362296E-10
   9.180000     -3.3742781E-10
   9.240000     -3.1730640E-10
   9.300000     -2.9280758E-10
   9.360000     -2.6517308E-10
   9.420000     -2.3734931E-10
   9.480000     -2.1350913E-10
   9.540000     -1.9821188E-10
   9.600000     -1.9545779E-10
   9.660000     -2.0792602E-10
   9.720000     -2.3660243E-10
   9.780000     -2.8084046E-10
   9.840000     -3.3872946E-10
   9.900000     -4.0754761E-10
   9.960000     -4.8409970E-10
   10.02000     -5.6486887E-10
   10.08000     -6.4607375E-10
   10.14000     -7.2382927E-10
   10.20000     -7.9458362E-10
   10.26000     -8.5585172E-10
   10.32000     -9.0705438E-10
   10.38000     -9.5011787E-10
   10.44000     -9.8949238E-10
   10.50000     -1.0314289E-09
   10.56000     -1.0826561E-09
   10.62000     -1.1488702E-09
   10.68000     -1.2335651E-09
   10.74000     -1.3376059E-09
   10.80000     -1.4596330E-09
   10.86000     -1.5970198E-09
   10.92000     -1.7468677E-09
   10.98000     -1.9065316E-09
   11.04000     -2.0734339E-09
   11.10000     -2.2443110E-09
   11.16000     -2.4143754E-09
   11.22000     -2.5769660E-09
   11.28000     -2.7240974E-09
   11.34000     -2.8479346E-09
   11.40000     -2.9428107E-09
   11.46000     -3.0071576E-09
   11.52000     -3.0446901E-09
   11.58000     -3.0644094E-09
   11.64000     -3.0793395E-09
   11.70000     -3.1042628E-09
   11.76000     -3.1529774E-09
   11.82000     -3.2357084E-09
   11.88000     -3.3572840E-09
   11.94000     -3.5165144E-09
   12.00000     -3.7069594E-09
   12.06000     -3.9189212E-09
   12.12000     -4.1421910E-09
   12.18000     -4.3688404E-09
   12.24000     -4.5953303E-09
   12.30000     -4.8233875E-09
   12.36000     -5.0594968E-09
   12.42000     -5.3132512E-09
   12.48000     -5.5951093E-09
   12.54000     -5.9142020E-09
   12.60000     -6.2766605E-09
   12.66000     -6.6846990E-09
   12.72000     -7.1363790E-09
   12.78000     -7.6258457E-09
   12.84000     -8.1438047E-09
   12.90000     -8.6781169E-09
   12.96000     -9.2144781E-09
   13.02000     -9.7372821E-09
   13.08000     -1.0230667E-08
   13.14000     -1.0679752E-08
   13.20000     -1.1071924E-08
   13.26000     -1.1398003E-08
   13.32000     -1.1653083E-08
   13.38000     -1.1836906E-08
   13.44000     -1.1953675E-08
   13.50000     -1.2011331E-08
   13.56000     -1.2020329E-08
   13.62000     -1.1992060E-08
   13.68000     -1.1937066E-08
   13.74000     -1.1863215E-08
   13.80000     -1.1774105E-08
   13.86000     -1.1667979E-08
   13.92000     -1.1537527E-08
   13.98000     -1.1370926E-08
   14.04000     -1.1154265E-08
   14.10000     -1.0875246E-08
   14.16000     -1.0527549E-08
   14.22000     -1.0114893E-08
   14.28000     -9.6536077E-09
   14.34000     -9.1727568E-09
   14.40000     -8.7113614E-09
   14.46000     -8.3130951E-09
   14.52000     -8.0195797E-09
   14.58000     -7.8638216E-09
   14.64000     -7.8652738E-09
   14.70000     -8.0274667E-09
   14.76000     -8.3383727E-09
   14.82000     -8.7729237E-09
   14.88000     -9.2967287E-09
   14.94000     -9.8699955E-09
   15.00000     -1.0451050E-08
   15.06000     -1.0999247E-08
   15.12000     -1.1477449E-08
   15.18000     -1.1854315E-08
   15.24000     -1.2106511E-08
   15.30000     -1.2220634E-08
   15.36000     -1.2194390E-08
   15.42000     -1.2036425E-08
   15.48000     -1.1764427E-08
   15.54000     -1.1401484E-08
   15.60000     -1.0971273E-08
   15.66000     -1.0493094E-08
   15.72000     -9.9780726E-09
   15.78000     -9.4275929E-09
   15.84000     -8.8345180E-09
   15.90000     -8.1869773E-09
   15.96000     -7.4737372E-09
   16.02000     -6.6897288E-09
   16.08000     -5.8402483E-09
   16.14000     -4.9427178E-09
   16.20000     -4.0254622E-09
   16.26000     -3.1236742E-09
   16.32000     -2.2733861E-09
   16.38000     -1.5047409E-09
   16.44000     -8.3612439E-10
   16.50000     -2.7063421E-10
   16.56000      2.0409985E-10
   16.62000      6.1252503E-10
   16.68000      9.8494846E-10
   16.74000      1.3500489E-09
   16.80000      1.7280593E-09
   16.86000      2.1263595E-09
   16.92000      2.5384885E-09
   16.98000      2.9466074E-09
   17.04000      3.3265102E-09
   17.10000      3.6536918E-09
   17.16000      3.9088226E-09
   17.22000      4.0812540E-09
   17.28000      4.1697499E-09
   17.34000      4.1804107E-09
   17.40000      4.1225325E-09
   17.46000      4.0037720E-09
   17.52000      3.8262642E-09
   17.58000      3.5851233E-09
   17.64000      3.2700294E-09
   17.70000      2.8696179E-09
   17.76000      2.3773967E-09
   17.82000      1.7973326E-09
   17.88000      1.1472402E-09
   17.94000      4.5867857E-10
   18.00000     -2.2700820E-10
   18.06000     -8.6587065E-10
   18.12000     -1.4202858E-09
   18.18000     -1.8676845E-09
   18.24000     -2.2070326E-09
   18.30000     -2.4613669E-09
   18.36000     -2.6754339E-09
   18.42000     -2.9085463E-09
   18.48000     -3.2239307E-09
   18.54000     -3.6768035E-09
   18.60000     -4.3038488E-09
   18.66000     -5.1165028E-09
   18.72000     -6.0994974E-09
   18.78000     -7.2147812E-09
   18.84000     -8.4095868E-09
   18.90000     -9.6264534E-09
   18.96000     -1.0812707E-08
   19.02000     -1.1927247E-08
   19.08000     -1.2943355E-08
   19.14000     -1.3847461E-08
   19.20000     -1.4634867E-08
   19.26000     -1.5304211E-08
   19.32000     -1.5852631E-08
   19.38000     -1.6273038E-08
   19.44000     -1.6554054E-08
   19.50000     -1.6682010E-08
   19.56000     -1.6643783E-08
   19.62000     -1.6429089E-08
   19.68000     -1.6031448E-08
   19.74000     -1.5447851E-08
   19.80000     -1.4677952E-08
   19.86000     -1.3723821E-08
   19.92000     -1.2590993E-08
   19.98000     -1.1290834E-08
   20.04000     -9.8435269E-09
   20.10000     -8.2805842E-09
   20.16000     -6.6457835E-09
   20.22000     -4.9937956E-09
   20.28000     -3.3862972E-09
   20.34000     -1.8858848E-09
   20.40000     -5.4861493E-10
   20.46000      5.8359040E-10
   20.52000      1.4891490E-09
   20.58000      2.1700970E-09
   20.64000      2.6513174E-09
   20.70000      2.9754561E-09
   20.76000      3.1943796E-09
   20.82000      3.3590444E-09
   20.88000      3.5101402E-09
   20.94000      3.6716672E-09
   21.00000      3.8487231E-09
   21.06000      4.0296229E-09
   21.12000      4.1913903E-09
   21.18000      4.3070347E-09
   21.24000      4.3528918E-09
   21.30000      4.3145691E-09
   21.36000      4.1904786E-09
   21.42000      3.9924712E-09
   21.48000      3.7435823E-09
   21.54000      3.4734504E-09
   21.60000      3.2124368E-09
   21.66000      2.9858274E-09
   21.72000      2.8094636E-09
   21.78000      2.6877376E-09
   21.84000      2.6141511E-09
   21.90000      2.5738376E-09
   21.96000      2.5469482E-09
   22.02000      2.5117628E-09
   22.08000      2.4468199E-09
   22.14000      2.3320312E-09
   22.20000      2.1492770E-09
   22.26000      1.8831734E-09
   22.32000      1.5224486E-09
   22.38000      1.0618693E-09
   22.44000      5.0416382E-10
   22.50000     -1.3882173E-10
   22.56000     -8.4637480E-10
   22.62000     -1.5908022E-09
   22.68000     -2.3407059E-09
   22.74000     -3.0650620E-09
   22.80000     -3.7374077E-09
   22.86000     -4.3395327E-09
   22.92000     -4.8642437E-09
   22.98000     -5.3168860E-09
   23.04000     -5.7153562E-09
   23.10000     -6.0883805E-09
   23.16000     -6.4719692E-09
   23.22000     -6.9043069E-09
   23.28000     -7.4197679E-09
   23.34000     -8.0431644E-09
   23.40000     -8.7854630E-09
   23.46000     -9.6419681E-09
   23.52000     -1.0593389E-08
   23.58000     -1.1609463E-08
   23.64000     -1.2654223E-08
   23.70000     -1.3691673E-08
   23.76000     -1.4690659E-08
   23.82000     -1.5628071E-08
   23.88000     -1.6489961E-08
   23.94000     -1.7270597E-08
   24.00000     -1.7969940E-08
   24.06000     -1.8590299E-08
   24.12000     -1.9133161E-08
   24.18000     -1.9597113E-08
   24.24000     -1.9977504E-08
   24.30000     -2.0267937E-08
   24.36000     -2.0463069E-08
   24.42000     -2.0561551E-08
   24.48000     -2.0567871E-08
   24.54000     -2.0492159E-08
   24.60000     -2.0347754E-08
   24.66000     -2.0147413E-08
   24.72000     -1.9899693E-08
   24.78000     -1.9607157E-08
   24.84000     -1.9267516E-08
   24.90000     -1.8877520E-08
   24.96000     -1.8438270E-08
   25.02000     -1.7959856E-08
   25.08000     -1.7463364E-08
   25.14000     -1.6979293E-08
   25.20000     -1.6542812E-08
   25.26000     -1.6187414E-08
   25.32000     -1.5939023E-08
   25.38000     -1.5812114E-08
   25.44000     -1.5808549E-08
   25.50000     -1.5918717E-08
   25.56000     -1.6124119E-08
   25.62000     -1.6400303E-08
   25.68000     -1.6719582E-08
   25.74000     -1.7053265E-08
   25.80000     -1.7373567E-08
   25.86000     -1.7655433E-08
   25.92000     -1.7878444E-08
   25.98000     -1.8028922E-08
   26.04000     -1.8102082E-08
   26.10000     -1.8103913E-08
   26.16000     -1.8052246E-08
   26.22000     -1.7976332E-08
   26.28000     -1.7914434E-08
   26.34000     -1.7909386E-08
   26.40000     -1.8002574E-08
   26.46000     -1.8227443E-08
   26.52000     -1.8603744E-08
   26.58000     -1.9133724E-08
   26.64000     -1.9801014E-08
   26.70000     -2.0572624E-08
   26.76000     -2.1403919E-08
   26.82000     -2.2246084E-08
   26.88000     -2.3055048E-08
   26.94000     -2.3800306E-08
   27.00000     -2.4471698E-08
   27.06000     -2.5082215E-08
   27.12000     -2.5665559E-08
   27.18000     -2.6268353E-08
   27.24000     -2.6938482E-08
   27.30000     -2.7712137E-08
   27.36000     -2.8602958E-08
   27.42000     -2.9596238E-08
   27.48000     -3.0650163E-08
   27.54000     -3.1704182E-08
   27.60000     -3.2692675E-08
   27.66000     -3.3560465E-08
   27.72000     -3.4275793E-08
   27.78000     -3.4837054E-08
   27.84000     -3.5271302E-08
   27.90000     -3.5625114E-08
   27.96000     -3.5951199E-08
   28.02000     -3.6295386E-08
   28.08000     -3.6688338E-08
   28.14000     -3.7144332E-08
   28.20000     -3.7666339E-08
   28.26000     -3.8254139E-08
   28.32000     -3.8911040E-08
   28.38000     -3.9645727E-08
   28.44000     -4.0468123E-08
   28.50000     -4.1381053E-08
   28.56000     -4.2371575E-08
   28.62000     -4.3406420E-08
   28.68000     -4.4434543E-08
   28.74000     -4.5397393E-08
   28.80000     -4.6244331E-08
   28.86000     -4.6948724E-08
   28.92000     -4.7519109E-08
   28.98000     -4.8001223E-08
   29.04000     -4.8469001E-08
   29.10000     -4.9006232E-08
   29.16000     -4.9683596E-08
   29.22000     -5.0537736E-08
   29.28000     -5.1558803E-08
   29.34000     -5.2690723E-08
   29.40000     -5.3844538E-08
   29.46000     -5.4921045E-08
   29.52000     -5.5835816E-08
   29.58000     -5.6538632E-08
   29.64000     -5.7021122E-08
   29.70000     -5.7310213E-08
   29.76000     -5.7449892E-08
   29.82000     -5.7478065E-08
   29.88000     -5.7406940E-08
   29.94000     -5.7214447E-08
   30.00000     -5.6850041E-08
   30.06000     -5.6253175E-08
   30.12000     -5.5377718E-08
   30.18000     -5.4213526E-08
   30.24000     -5.2796828E-08
   30.30000     -5.1205241E-08
   30.36000     -4.9538336E-08
   30.42000     -4.7890012E-08
   30.48000     -4.6321865E-08
   30.54000     -4.4846818E-08
   30.60000     -4.3429036E-08
   30.66000     -4.2000906E-08
   30.72000     -4.0492171E-08
   30.78000     -3.8862002E-08
   30.84000     -3.7123399E-08
   30.90000     -3.5351480E-08
   30.96000     -3.3672013E-08
   31.02000     -3.2232936E-08
   31.08000     -3.1167097E-08
   31.14000     -3.0557384E-08
   31.20000     -3.0414775E-08
   31.26000     -3.0675828E-08
   31.32000     -3.1220079E-08
   31.38000     -3.1901866E-08
   31.44000     -3.2586851E-08
   31.50000     -3.3182403E-08
   31.56000     -3.3653354E-08
   31.62000     -3.4019305E-08
   31.68000     -3.4335439E-08
   31.74000     -3.4663877E-08
   31.80000     -3.5045229E-08
   31.86000     -3.5479786E-08
   31.92000     -3.5924423E-08
   31.98000     -3.6306208E-08
   32.04000     -3.6548240E-08
   32.10000     -3.6599246E-08
   32.16000     -3.6457244E-08
   32.22000     -3.6179383E-08
   32.28000     -3.5874265E-08
   32.34000     -3.5678493E-08
   32.40000     -3.5724039E-08
   32.46000     -3.6105938E-08
   32.52000     -3.6859735E-08
   32.58000     -3.7955424E-08
   32.64000     -3.9309434E-08
   32.70000     -4.0810846E-08
   32.76000     -4.2353395E-08
   32.82000     -4.3863075E-08
   32.88000     -4.5312717E-08
   32.94000     -4.6719340E-08
   33.00000     -4.8125930E-08
   33.06000     -4.9574780E-08
   33.12000     -5.1082139E-08
   33.18000     -5.2623445E-08
   33.24000     -5.4134389E-08
   33.30000     -5.5527465E-08
   33.36000     -5.6718193E-08
   33.42000     -5.7651896E-08
   33.48000     -5.8321756E-08
   33.54000     -5.8771946E-08
   33.60000     -5.9084520E-08
   33.66000     -5.9354349E-08
   33.72000     -5.9660124E-08
   33.78000     -6.0040875E-08
   33.84000     -6.0485341E-08
   33.90000     -6.0937445E-08
   33.96000     -6.1315561E-08
   34.02000     -6.1538984E-08
   34.08000     -6.1552953E-08
   34.14000     -6.1344096E-08
   34.20000     -6.0942178E-08
   34.26000     -6.0408219E-08
   34.32000     -5.9813601E-08
   34.38000     -5.9217289E-08
   34.44000     -5.8648247E-08
   34.50000     -5.8098138E-08
   34.56000     -5.7525870E-08
   34.62000     -5.6871933E-08
   34.68000     -5.6077816E-08
   34.74000     -5.5104540E-08
   34.80000     -5.3944920E-08
   34.86000     -5.2626273E-08
   34.92000     -5.1203198E-08
   34.98000     -4.9742891E-08
   35.04000     -4.8307527E-08
   35.10000     -4.6938830E-08
   35.16000     -4.5648992E-08
   35.22000     -4.4419966E-08
   35.28000     -4.3210736E-08
   35.34000     -4.1969898E-08
   35.40000     -4.0649983E-08
   35.46000     -3.9219650E-08
   35.52000     -3.7671050E-08
   35.58000     -3.6020925E-08
   35.64000     -3.4305785E-08
   35.70000     -3.2572913E-08
   35.76000     -3.0869735E-08
   35.82000     -2.9234659E-08
   35.88000     -2.7691653E-08
   35.94000     -2.6249738E-08
   36.00000     -2.4906894E-08
   36.06000     -2.3656389E-08
   36.12000     -2.2492856E-08
   36.18000     -2.1415753E-08
   36.24000     -2.0429129E-08
   36.30000     -1.9538323E-08
   36.36000     -1.8745579E-08
   36.42000     -1.8047057E-08
   36.48000     -1.7433127E-08
   36.54000     -1.6892473E-08
   36.60000     -1.6418712E-08
   36.66000     -1.6017072E-08
   36.72000     -1.5708176E-08
   36.78000     -1.5526620E-08
   36.84000     -1.5513624E-08
   36.90000     -1.5705114E-08
   36.96000     -1.6118394E-08
   37.02000     -1.6741621E-08
   37.08000     -1.7529906E-08
   37.14000     -1.8410070E-08
   37.20000     -1.9293438E-08
   37.26000     -2.0093307E-08
   37.32000     -2.0742050E-08
   37.38000     -2.1202828E-08
   37.44000     -2.1472667E-08
   37.50000     -2.1576597E-08
   37.56000     -2.1555493E-08
   37.62000     -2.1452143E-08
   37.68000     -2.1300336E-08
   37.74000     -2.1120249E-08
   37.80000     -2.0920927E-08
   37.86000     -2.0707958E-08
   37.92000     -2.0492651E-08
   37.98000     -2.0298508E-08
   38.04000     -2.0161906E-08
   38.10000     -2.0126153E-08
   38.16000     -2.0230697E-08
   38.22000     -2.0499485E-08
   38.28000     -2.0933040E-08
   38.34000     -2.1507963E-08
   38.40000     -2.2184741E-08
   38.46000     -2.2921588E-08
   38.52000     -2.3689413E-08
   38.58000     -2.4482173E-08
   38.64000     -2.5318380E-08
   38.70000     -2.6232872E-08
   38.76000     -2.7261757E-08
   38.82000     -2.8426344E-08
   38.88000     -2.9722301E-08
   38.94000     -3.1118308E-08
   39.00000     -3.2564767E-08
   39.06000     -3.4009162E-08
   39.12000     -3.5412185E-08
   39.18000     -3.6758561E-08
   39.24000     -3.8058673E-08
   39.30000     -3.9340684E-08
   39.36000     -4.0636195E-08
   39.42000     -4.1964803E-08
   39.48000     -4.3322945E-08
   39.54000     -4.4680693E-08
   39.60000     -4.5987459E-08
   39.66000     -4.7184493E-08
   39.72000     -4.8220066E-08
   39.78000     -4.9062564E-08
   39.84000     -4.9707502E-08
   39.90000     -5.0176453E-08
   39.96000     -5.0508412E-08
   40.02000     -5.0746447E-08
   40.08000     -5.0923912E-08
   40.14000     -5.1054698E-08
   40.20000     -5.1130638E-08
   40.26000     -5.1127053E-08
   40.32000     -5.1014695E-08
   40.38000     -5.0774343E-08
   40.44000     -5.0409128E-08
   40.50000     -4.9950184E-08
   40.56000     -4.9453188E-08
   40.62000     -4.8985928E-08
   40.68000     -4.8610268E-08
   40.74000     -4.8363926E-08
   40.80000     -4.8248044E-08
   40.86000     -4.8225271E-08
   40.92000     -4.8229772E-08
   40.98000     -4.8186703E-08
   41.04000     -4.8035258E-08
   41.10000     -4.7747850E-08
   41.16000     -4.7339064E-08
   41.22000     -4.6861317E-08
   41.28000     -4.6388660E-08
   41.34000     -4.5993964E-08
   41.40000     -4.5726985E-08
   41.46000     -4.5600210E-08
   41.52000     -4.5586866E-08
   41.58000     -4.5631669E-08
   41.64000     -4.5670799E-08
   41.70000     -4.5654815E-08
   41.76000     -4.5567194E-08
   41.82000     -4.5432202E-08
   41.88000     -4.5309079E-08
   41.94000     -4.5273822E-08
   42.00000     -4.5394160E-08
   42.06000     -4.5706081E-08
   42.12000     -4.6200078E-08
   42.18000     -4.6822176E-08
   42.24000     -4.7489685E-08
   42.30000     -4.8116235E-08
   42.36000     -4.8637428E-08
   42.42000     -4.9028465E-08
   42.48000     -4.9308042E-08
   42.54000     -4.9528065E-08
   42.60000     -4.9753233E-08
   42.66000     -5.0037674E-08
   42.72000     -5.0405941E-08
   42.78000     -5.0843759E-08
   42.84000     -5.1300315E-08
   42.90000     -5.1700692E-08
   42.96000     -5.1964342E-08
   43.02000     -5.2024383E-08
   43.08000     -5.1842658E-08
   43.14000     -5.1416958E-08
   43.20000     -5.0778990E-08
   43.26000     -4.9984031E-08
   43.32000     -4.9095473E-08
   43.38000     -4.8168729E-08
   43.44000     -4.7239148E-08
   43.50000     -4.6317300E-08
   43.56000     -4.5392923E-08
   43.62000     -4.4445901E-08
   43.68000     -4.3460588E-08
   43.74000     -4.2438320E-08
   43.80000     -4.1403666E-08
   43.86000     -4.0401670E-08
   43.92000     -3.9486647E-08
   43.98000     -3.8705817E-08
   44.04000     -3.8083400E-08
   44.10000     -3.7610565E-08
   44.16000     -3.7245243E-08
   44.22000     -3.6922312E-08
   44.28000     -3.6571414E-08
   44.34000     -3.6136861E-08
   44.40000     -3.5593413E-08
   44.46000     -3.4952819E-08
   44.52000     -3.4258989E-08
   44.58000     -3.3573293E-08
   44.64000     -3.2954794E-08
   44.70000     -3.2441832E-08
   44.76000     -3.2041253E-08
   44.82000     -3.1728881E-08
   44.88000     -3.1461170E-08
   44.94000     -3.1193952E-08
   45.00000     -3.0901557E-08
   45.06000     -3.0588978E-08
   45.12000     -3.0292234E-08
   45.18000     -3.0066076E-08
   45.24000     -2.9963051E-08
   45.30000     -3.0011392E-08
   45.36000     -3.0200155E-08
   45.42000     -3.0477633E-08
   45.48000     -3.0764511E-08
   45.54000     -3.0977660E-08
   45.60000     -3.1056544E-08
   45.66000     -3.0983141E-08
   45.72000     -3.0788538E-08
   45.78000     -3.0544204E-08
   45.84000     -3.0341216E-08
   45.90000     -3.0264555E-08
   45.96000     -3.0370625E-08
   46.02000     -3.0674542E-08
   46.08000     -3.1150002E-08
   46.14000     -3.1740651E-08
   46.20000     -3.2378725E-08
   46.26000     -3.3005271E-08
   46.32000     -3.3586222E-08
   46.38000     -3.4120070E-08
   46.44000     -3.4635146E-08
   46.50000     -3.5177298E-08
   46.56000     -3.5791533E-08
   46.62000     -3.6503288E-08
   46.68000     -3.7305465E-08
   46.74000     -3.8155996E-08
   46.80000     -3.8987359E-08
   46.86000     -3.9725389E-08
   46.92000     -4.0311441E-08
   46.98000     -4.0720540E-08
   47.04000     -4.0969557E-08
   47.10000     -4.1112781E-08
   47.16000     -4.1226592E-08
   47.22000     -4.1388105E-08
   47.28000     -4.1654467E-08
   47.34000     -4.2048587E-08
   47.40000     -4.2554912E-08
   47.46000     -4.3125826E-08
   47.52000     -4.3696463E-08
   47.58000     -4.4203883E-08
   47.64000     -4.4605695E-08
   47.70000     -4.4893582E-08
   47.76000     -4.5098481E-08
   47.82000     -4.5286164E-08
   47.88000     -4.5544315E-08
   47.94000     -4.5964654E-08
   48.00000     -4.6625228E-08
   48.06000     -4.7578276E-08
   48.12000     -4.8847834E-08
   48.18000     -5.0438352E-08
   48.24000     -5.2352160E-08
   48.30000     -5.4610823E-08
   48.36000     -5.7274072E-08
   48.42000     -6.0451299E-08
   48.48000     -6.4303130E-08
   48.54000     -6.9034371E-08
   48.60000     -7.4882202E-08
   48.66000     -8.2104506E-08
   48.72000     -9.0972897E-08
   48.78000     -1.0177282E-07
   48.84000     -1.1481158E-07
   48.90000     -1.3043314E-07
   48.96000     -1.4903756E-07
   49.02000     -1.7110266E-07
   49.08000     -1.9720406E-07
   49.14000     -2.2803086E-07
   49.20000     -2.6439491E-07
   49.26000     -3.0723345E-07
   49.32000     -3.5760837E-07
   49.38000     -4.1670597E-07
   49.44000     -4.8584371E-07
   49.50000     -5.6648696E-07
   49.56000     -6.6027633E-07
   49.62000     -7.6906321E-07
   49.68000     -8.9494813E-07
   49.74000     -1.0403165E-06
   49.80000     -1.2078672E-06
   49.86000     -1.4006337E-06
   49.92000     -1.6219993E-06
   49.98000     -1.8757106E-06
   50.04000     -2.1658932E-06
   50.10000     -2.4970761E-06
   50.16000     -2.8742245E-06
   50.22000     -3.3027816E-06
   50.28000     -3.7887160E-06
   50.34000     -4.3385703E-06
   50.40000     -4.9594983E-06
   50.46000     -5.6593017E-06
   50.52000     -6.4464498E-06
   50.58000     -7.3300912E-06
   50.64000     -8.3200639E-06
   50.70000     -9.4269099E-06
   50.76000     -1.0661879E-05
   50.82000     -1.2036950E-05
   50.88000     -1.3564842E-05
   50.94000     -1.5259026E-05
   51.00000     -1.7133723E-05
   51.06000     -1.9203897E-05
   51.12000     -2.1485230E-05
   51.18000     -2.3994064E-05
   51.24000     -2.6747352E-05
   51.30000     -2.9762579E-05
   51.36000     -3.3057695E-05
   51.42000     -3.6651039E-05
   51.48000     -4.0561274E-05
   51.54000     -4.4807293E-05
   51.60000     -4.9408132E-05
   51.66000     -5.4382854E-05
   51.72000     -5.9750397E-05
   51.78000     -6.5529399E-05
   51.84000     -7.1738039E-05
   51.90000     -7.8393816E-05
   51.96000     -8.5513391E-05
   52.02000     -9.3112329E-05
   52.08000     -1.0120496E-04
   52.14000     -1.0980414E-04
   52.20000     -1.1892106E-04
   52.26000     -1.2856512E-04
   52.32000     -1.3874372E-04
   52.38000     -1.4946202E-04
   52.44000     -1.6072279E-04
   52.50000     -1.7252615E-04
   52.56000     -1.8486942E-04
   52.62000     -1.9774688E-04
   52.68000     -2.1114960E-04
   52.74000     -2.2506533E-04
   52.80000     -2.3947845E-04
   52.86000     -2.5436986E-04
   52.92000     -2.6971690E-04
   52.98000     -2.8549341E-04
   53.04000     -3.0166973E-04
   53.10000     -3.1821273E-04
   53.16000     -3.3508573E-04
   53.22000     -3.5224896E-04
   53.28000     -3.6965925E-04
   53.34000     -3.8727050E-04
   53.40000     -4.0503388E-04
   53.46000     -4.2289801E-04
   53.52000     -4.4080932E-04
   53.58000     -4.5871246E-04
   53.64000     -4.7655049E-04
   53.70000     -4.9426540E-04
   53.76000     -5.1179877E-04
   53.82000     -5.2909163E-04
   53.88000     -5.4608524E-04
   53.94000     -5.6272175E-04
   54.00000     -5.7894411E-04
   54.06000     -5.9469719E-04
   54.12000     -6.0992793E-04
   54.18000     -6.2458584E-04
   54.24000     -6.3862343E-04
   54.30000     -6.5199664E-04
   54.36000     -6.6466513E-04
   54.42000     -6.7659310E-04
   54.48000     -6.8774936E-04
   54.54000     -6.9810794E-04
   54.60000     -7.0764776E-04
   54.66000     -7.1635342E-04
   54.72000     -7.2421506E-04
   54.78000     -7.3122850E-04
   54.84000     -7.3739520E-04
   54.90000     -7.4272259E-04
   54.96000     -7.4722385E-04
   55.02000     -7.5091771E-04
   55.08000     -7.5382873E-04
   55.14000     -7.5598661E-04
   55.20000     -7.5742608E-04
   55.26000     -7.5818651E-04
   55.32000     -7.5831119E-04
   55.38000     -7.5784739E-04
   55.44000     -7.5684552E-04
   55.50000     -7.5535878E-04
   55.56000     -7.5344270E-04