  -2.400000      0.0000000E+00
  -2.340000      0.0000000E+00
  -2.280000      0.0000000E+00
  -2.220000      0.0000000E+00
  -2.160000      0.0000000E+00
  -2.100000      0.0000000E+00
  -2.040000      0.0000000E+00
  -1.980000      0.0000000E+00
  -1.920000      3.4172404E-26
  -1.860000      3.6928282E-25
  -1.800000      1.9558035E-24
  -1.740000      6.5614417E-24
  -1.680000      1.4574010E-23
  -1.620000      1.7310191E-23
  -1.560000     -1.7368037E-23
  -1.500000     -1.5767465E-22
  -1.440000     -4.8841022E-22
  -1.380000     -1.0000740E-21
  -1.320000     -1.3282937E-21
  -1.260000     -3.9811139E-22
  -1.200000      3.6748836E-21
  -1.140000      1.2689659E-20
  -1.080000      2.5700211E-20
  -1.020000      3.4821632E-20
 -0.9600000      2.2085923E-20
 -0.9000000     -3.7335950E-20
 -0.8400000     -1.5976430E-19
 -0.7800000     -3.2466226E-19
 -0.7200000     -4.4378183E-19
 -0.6600000     -3.5209341E-19
 -0.6000000      1.4756203E-19
 -0.5400000      1.1629921E-18
 -0.4800000      2.5240928E-18
 -0.4200000      3.5951118E-18
 -0.3600000      3.2295662E-18
 -0.3000000      6.7840488E-20
 -0.2400000     -6.6491085E-18
 -0.1800000     -1.5790097E-17
 -0.1200000     -2.3077399E-17
 -5.9999999E-02 -2.0988151E-17
  0.0000000E+00 -1.2670446E-18
  5.9999999E-02  3.9159299E-17
  0.1200000      9.0275766E-17
  0.1800000      1.2382493E-16
  0.2400000      9.8135087E-17
  0.3000000     -2.1428087E-17
  0.3600000     -2.2890711E-16
  0.4200000     -4.4705515E-16
  0.4800000     -5.2691209E-16
  0.5400000     -3.0291243E-16
  0.6000000      2.9612052E-16
  0.6600000      1.1240715E-15
  0.7200000      1.7683544E-15
  0.7800000      1.6634702E-15
  0.8400000      3.9261189E-16
  0.9000000     -1.9223182E-15
  0.9600000     -4.3704613E-15
   1.020000     -5.4064542E-15
   1.080000     -3.5379704E-15
   1.140000      1.6325321E-15
   1.200000      8.5387054E-15
   1.260000      1.3641195E-14
   1.320000      1.2729547E-14
   1.380000      3.3221740E-15
   1.440000     -1.2886664E-14
   1.500000     -2.9106664E-14
   1.560000     -3.5347637E-14
   1.620000     -2.3171225E-14
   1.680000      8.4635066E-15
   1.740000      4.9432026E-14
   1.800000      7.9892541E-14
   1.860000      7.8093246E-14
   1.920000      3.2253297E-14
   1.980000     -4.9021229E-14
   2.040000     -1.3436584E-13
   2.100000     -1.7939183E-13
   2.160000     -1.4688604E-13
   2.220000     -2.9338138E-14
   2.280000      1.3808464E-13
   2.340000      2.8404492E-13
   2.400000      3.2885996E-13
   2.460000      2.2420064E-13
   2.520000     -1.3724864E-14
   2.580000     -2.9693245E-13
   2.640000     -4.9445436E-13
   2.700000     -4.9021892E-13
   2.760000     -2.4593153E-13
   2.820000      1.6309100E-13
   2.880000      5.6365313E-13
   2.940000      7.5428146E-13
   3.000000      6.0298744E-13
   3.060000      1.2753447E-13
   3.120000     -4.8708124E-13
   3.180000     -9.5477706E-13
   3.240000     -1.0188616E-12
   3.300000     -5.9008305E-13
   3.360000      1.7892323E-13
   3.420000      9.3348029E-13
   3.480000      1.2707772E-12
   3.540000      9.4760040E-13
   3.600000      4.2387321E-14
   3.660000     -1.0223057E-12
   3.720000     -1.6356339E-12
   3.780000     -1.2866001E-12
   3.840000      1.3726551E-13
   3.900000      2.1895684E-12
   3.960000      3.9494501E-12
   4.020000      4.3559809E-12
   4.080000      2.6793105E-12
   4.140000     -1.0655865E-12
   4.200000     -5.9573960E-12
   4.260000     -1.0365469E-11
   4.320000     -1.2466556E-11
   4.380000     -1.0902343E-11
   4.440000     -5.3272937E-12
   4.500000      3.3711207E-12
   4.560000      1.3270986E-11
   4.620000      2.1957132E-11
   4.680000      2.7194084E-11
   4.740000      2.7478315E-11
   4.800000      2.2287649E-11
   4.860000      1.1995485E-11
   4.920000     -2.4232803E-12
   4.980000     -1.9676301E-11
   5.040000     -3.8233743E-11
   5.100000     -5.6145325E-11
   5.160000     -7.0722470E-11
   5.220000     -7.8361338E-11
   5.280000     -7.4808444E-11
   5.340000     -5.6038132E-11
   5.400000     -1.9654356E-11
   5.460000      3.3555842E-11
   5.520000      9.8477428E-11
   5.580000      1.6548077E-10
   5.640000      2.2150481E-10
   5.700000      2.5232133E-10
   5.760000      2.4547181E-10
   5.820000      1.9309775E-10
   5.880000      9.3881403E-11
   5.940000     -4.6402476E-11
   6.000000     -2.1575691E-10
   6.060000     -3.9782239E-10
   6.120000     -5.7402211E-10
   6.180000     -7.2532486E-10
   6.240000     -8.3328250E-10
   6.300000     -8.8046631E-10
   6.360000     -8.5081314E-10
   6.420000     -7.3050632E-10
   6.480000     -5.0978682E-10
   6.540000     -1.8558172E-10
   6.600000      2.3571933E-10
   6.660000      7.3637230E-10
   6.720000      1.2872698E-09
   6.780000      1.8503559E-09
   6.840000      2.3832625E-09
   6.900000      2.8452303E-09
   6.960000      3.2029304E-09
   7.020000      3.4348493E-09
   7.080000      3.5334073E-09
   7.140000      3.5047598E-09
   7.200000      3.3669161E-09
   7.260000      3.1471556E-09
   7.320000      2.8795533E-09
   7.380000      2.6029017E-09
   7.440000      2.3586808E-09
   7.500000      2.1883690E-09
   7.560000      2.1295168E-09
   7.620000      2.2105966E-09
   7.680000      2.4454794E-09
   7.740000      2.8290377E-09
   7.800000      3.3355225E-09
   7.860000      3.9208152E-09
   7.920000      4.5285886E-09
   7.980000      5.0991731E-09
   8.040000      5.5789968E-09
   8.100000      5.9282308E-09
   8.160000      6.1248491E-09
   8.220000      6.1644543E-09
   8.280000      6.0565957E-09
   8.340000      5.8192993E-09
   8.400000      5.4738432E-09
   8.460000      5.0413163E-09
   8.520000      4.5414574E-09
   8.580000      3.9931400E-09
   8.640000      3.4151337E-09
   8.700000      2.8257801E-09
   8.760000      2.2409365E-09
   8.820000      1.6706458E-09
   8.880000      1.1159570E-09
   8.940000      5.6768507E-10
   9.000000      8.4095673E-12
   9.060000     -5.8215716E-10
   9.120000     -1.2197054E-09
   9.180000     -1.9080879E-09
   9.240000     -2.6348337E-09
   9.300000     -3.3711747E-09
   9.360000     -4.0768402E-09
   9.420000     -4.7082165E-09
   9.480000     -5.2272897E-09
   9.540000     -5.6085971E-09
   9.600000     -5.8422334E-09
   9.660000     -5.9325349E-09
   9.720000     -5.8936580E-09
   9.780000     -5.7442722E-09
   9.840000     -5.5035780E-09
   9.900000     -5.1898619E-09
   9.960000     -4.8213225E-09
   10.02000     -4.4176494E-09
   10.08000     -4.0004120E-09
   10.14000     -3.5909518E-09
   10.20000     -3.2058880E-09
   10.26000     -2.8518525E-09
   10.32000     -2.5219344E-09
   10.38000     -2.1960431E-09
   10.44000     -1.8460188E-09
   10.50000     -1.4443655E-09
   10.56000     -9.7380282E-10
   10.62000     -4.3414586E-10
   10.68000      1.5626195E-10
   10.74000      7.6547513E-10
   10.80000      1.3578172E-09
   10.86000      1.9054023E-09
   10.92000      2.3973457E-09
   10.98000      2.8435159E-09
   11.04000      3.2716627E-09
   11.10000      3.7191339E-09
   11.16000      4.2222195E-09
   11.22000      4.8067368E-09
   11.28000      5.4826423E-09
   11.34000      6.2436198E-09
   11.40000      7.0705961E-09
   11.46000      7.9368654E-09
   11.52000      8.8123935E-09
   11.58000      9.6659489E-09
   11.64000      1.0465304E-08
   11.70000      1.1177073E-08
   11.76000      1.1768106E-08
   11.82000      1.2209587E-08
   11.88000      1.2483357E-08
   11.94000      1.2588416E-08
   12.00000      1.2544678E-08
   12.06000      1.2391514E-08
   12.12000      1.2180225E-08
   12.18000      1.1961903E-08
   12.24000      1.1774151E-08
   12.30000      1.1631034E-08
   12.36000      1.1520028E-08
   12.42000      1.1407534E-08
   12.48000      1.1251674E-08
   12.54000      1.1018349E-08
   12.60000      1.0695226E-08
   12.66000      1.0298789E-08
   12.72000      9.8718687E-09
   12.78000      9.4724237E-09
   12.84000      9.1573629E-09
   12.90000      8.9668637E-09
   12.96000      8.9142773E-09
   13.02000      8.9844123E-09
   13.08000      9.1398640E-09
   13.14000      9.3322585E-09
   13.20000      9.5140162E-09
   13.26000      9.6468051E-09
   13.32000      9.7048831E-09
   13.38000      9.6738910E-09
   13.44000      9.5473727E-09
   13.50000      9.3235988E-09
   13.56000      9.0043430E-09
   13.62000      8.5956904E-09
   13.68000      8.1096445E-09
   13.74000      7.5649584E-09
   13.80000      6.9860882E-09
   13.86000      6.4002821E-09
   13.92000      5.8337606E-09
   13.98000      5.3082911E-09
   14.04000      4.8391327E-09
   14.10000      4.4346149E-09
   14.16000      4.0968957E-09
   14.22000      3.8231325E-09
   14.28000      3.6064147E-09
   14.34000      3.4362133E-09
   14.40000      3.2985197E-09
   14.46000      3.1761054E-09
   14.52000      3.0492953E-09
   14.58000      2.8974811E-09
   14.64000      2.7013258E-09
   14.70000      2.4453615E-09
   14.76000      2.1205113E-09
   14.82000      1.7259658E-09
   14.88000      1.2698717E-09
   14.94000      7.6848850E-10
   15.00000      2.4379310E-10
   15.06000     -2.8006231E-10
   15.12000     -7.8071172E-10
   15.18000     -1.2411193E-09
   15.24000     -1.6520594E-09
   15.30000     -2.0132640E-09
   15.36000     -2.3333553E-09
   15.42000     -2.6288558E-09
   15.48000     -2.9224996E-09
   15.54000     -3.2408347E-09
   15.60000     -3.6109771E-09
   15.66000     -4.0565182E-09
   15.72000     -4.5930038E-09
   15.78000     -5.2238631E-09
   15.84000     -5.9378569E-09
   15.90000     -6.7088242E-09
   15.96000     -7.4978335E-09
   16.02000     -8.2570377E-09
   16.08000     -8.9340881E-09
   16.14000     -9.4760475E-09
   16.20000     -9.8323518E-09
   16.26000     -9.9570308E-09
   16.32000     -9.8109449E-09
   16.38000     -9.3646451E-09
   16.44000     -8.6019725E-09
   16.50000     -7.5237789E-09
   16.56000     -6.1506014E-09
   16.62000     -4.5230029E-09
   16.68000     -2.6986624E-09
   16.74000     -7.4605377E-10
   16.80000      1.2645173E-09
   16.86000      3.2708882E-09
   16.92000      5.2278759E-09
   16.98000      7.1128436E-09
   17.04000      8.9265217E-09
   17.10000      1.0688780E-08
   17.16000      1.2430390E-08
   17.22000      1.4182849E-08
   17.28000      1.5968656E-08
   17.34000      1.7793985E-08
   17.40000      1.9644769E-08
   17.46000      2.1486231E-08
   17.52000      2.3265381E-08
   17.58000      2.4915877E-08
   17.64000      2.6364924E-08
   17.70000      2.7541800E-08
   17.76000      2.8387316E-08
   17.82000      2.8862752E-08
   17.88000      2.8956364E-08
   17.94000      2.8685571E-08
   18.00000      2.8093755E-08
   18.06000      2.7242102E-08
   18.12000      2.6198347E-08
   18.18000      2.5025251E-08
   18.24000      2.3771726E-08
   18.30000      2.2468660E-08
   18.36000      2.1130118E-08
   18.42000      1.9759044E-08
   18.48000      1.8355472E-08
   18.54000      1.6924595E-08
   18.60000      1.5482330E-08
   18.66000      1.4056821E-08
   18.72000      1.2685691E-08
   18.78000      1.1410148E-08
   18.84000      1.0267976E-08
   18.90000      9.2875494E-09
   18.96000      8.4844025E-09
   19.02000      7.8606570E-09
   19.08000      7.4065047E-09
   19.14000      7.1023711E-09
   19.20000      6.9205122E-09
   19.26000      6.8256623E-09
   19.32000      6.7752590E-09
   19.38000      6.7204176E-09
   19.44000      6.6087225E-09
   19.50000      6.3892065E-09
   19.56000      6.0188645E-09
   19.62000      5.4691349E-09
   19.68000      4.7303956E-09
   19.74000      3.8127967E-09
   19.80000      2.7426377E-09
   19.86000      1.5547994E-09
   19.92000      2.8300259E-10
   19.98000     -1.0494192E-09
   20.04000     -2.4354478E-09
   20.10000     -3.8850536E-09
   20.16000     -5.4202496E-09
   20.22000     -7.0660144E-09
   20.28000     -8.8398853E-09
   20.34000     -1.0743321E-08
   20.40000     -1.2756986E-08
   20.46000     -1.4840455E-08
   20.52000     -1.6935308E-08
   20.58000     -1.8969898E-08
   20.64000     -2.0864553E-08
   20.70000     -2.2537094E-08
   20.76000     -2.3909509E-08
   20.82000     -2.4916579E-08
   20.88000     -2.5516194E-08
   20.94000     -2.5699402E-08
   21.00000     -2.5497011E-08
   21.06000     -2.4979698E-08
   21.12000     -2.4250046E-08
   21.18000     -2.3427361E-08
   21.24000     -2.2628560E-08
   21.30000     -2.1949493E-08
   21.36000     -2.1451120E-08
   21.42000     -2.1153376E-08
   21.48000     -2.1037501E-08
   21.54000     -2.1055568E-08
   21.60000     -2.1144372E-08
   21.66000     -2.1240204E-08
   21.72000     -2.1291108E-08
   21.78000     -2.1264297E-08
   21.84000     -2.1147754E-08
   21.90000     -2.0946855E-08
   21.96000     -2.0677961E-08
   22.02000     -2.0361600E-08
   22.08000     -2.0017213E-08
   22.14000     -1.9660456E-08
   22.20000     -1.9302714E-08
   22.26000     -1.8951711E-08
   22.32000     -1.8612131E-08
   22.38000     -1.8285727E-08
   22.44000     -1.7971152E-08
   22.50000     -1.7664039E-08
   22.56000     -1.7357749E-08
   22.62000     -1.7044595E-08
   22.68000     -1.6717031E-08
   22.74000     -1.6368180E-08
   22.80000     -1.5991562E-08
   22.86000     -1.5580335E-08
   22.92000     -1.5126568E-08
   22.98000     -1.4620882E-08
   23.04000     -1.4052330E-08
   23.10000     -1.3408177E-08
   23.16000     -1.2673397E-08
   23.22000     -1.1830203E-08
   23.28000     -1.0858299E-08
   23.34000     -9.7364312E-09
   23.40000     -8.4451122E-09
   23.46000     -6.9695125E-09
   23.52000     -5.3012199E-09
   23.58000     -3.4380994E-09
   23.64000     -1.3827307E-09
   23.70000      8.5897178E-10
   23.76000      3.2771725E-09
   23.82000      5.8549241E-09
   23.88000      8.5636653E-09
   23.94000      1.1360251E-08
   24.00000      1.4188450E-08
   24.06000      1.6986114E-08
   24.12000      1.9696385E-08
   24.18000      2.2278940E-08
   24.24000      2.4716595E-08
   24.30000      2.7014284E-08
   24.36000      2.9190593E-08
   24.42000      3.1265376E-08
   24.48000      3.3248675E-08
   24.54000      3.5135532E-08
   24.60000      3.6908734E-08
   24.66000      3.8547999E-08
   24.72000      4.0041275E-08
   24.78000      4.1393154E-08
   24.84000      4.2626297E-08
   24.90000      4.3774886E-08
   24.96000      4.4872248E-08
   25.02000      4.5937238E-08
   25.08000      4.6964729E-08
   25.14000      4.7923969E-08
   25.20000      4.8765820E-08
   25.26000      4.9436370E-08
   25.32000      4.9892066E-08
   25.38000      5.0111090E-08
   25.44000      5.0097206E-08
   25.50000      4.9875371E-08
   25.56000      4.9481628E-08
   25.62000      4.8951499E-08
   25.68000      4.8311421E-08
   25.74000      4.7575806E-08
   25.80000      4.6749879E-08
   25.86000      4.5836099E-08
   25.92000      4.4840647E-08
   25.98000      4.3776904E-08
   26.04000      4.2664208E-08
   26.10000      4.1522330E-08
   26.16000      4.0364171E-08
   26.22000      3.9190169E-08
   26.28000      3.7987554E-08
   26.34000      3.6735841E-08
   26.40000      3.5417205E-08
   26.46000      3.4027753E-08
   26.52000      3.2584655E-08
   26.58000      3.1125136E-08
   26.64000      2.9696690E-08
   26.70000      2.8341814E-08
   26.76000      2.7083653E-08
   26.82000      2.5918871E-08
   26.88000      2.4821212E-08
   26.94000      2.3754268E-08
   27.00000      2.2687759E-08
   27.06000      2.1610091E-08
   27.12000      2.0532086E-08
   27.18000      1.9481250E-08
   27.24000      1.8490599E-08
   27.30000      1.7588379E-08
   27.36000      1.6793852E-08
   27.42000      1.6120717E-08
   27.48000      1.5585243E-08
   27.54000      1.5213635E-08
   27.60000      1.5043453E-08
   27.66000      1.5116900E-08
   27.72000      1.5467897E-08
   27.78000      1.6108267E-08
   27.84000      1.7019136E-08
   27.90000      1.8151940E-08
   27.96000      1.9439417E-08
   28.02000      2.0812880E-08
   28.08000      2.2219082E-08
   28.14000      2.3629946E-08
   28.20000      2.5041093E-08
   28.26000      2.6459720E-08
   28.32000      2.7886966E-08
   28.38000      2.9302473E-08
   28.44000      3.0658153E-08
   28.50000      3.1884454E-08
   28.56000      3.2907280E-08
   28.62000      3.3669309E-08
   28.68000      3.4147728E-08
   28.74000      3.4361861E-08
   28.80000      3.4368089E-08
   28.86000      3.4244067E-08
   28.92000      3.4067586E-08
   28.98000      3.3897006E-08
   29.04000      3.3759150E-08
   29.10000      3.3648007E-08
   29.16000      3.3534285E-08
   29.22000      3.3382289E-08
   29.28000      3.3168408E-08
   29.34000      3.2894274E-08
   29.40000      3.2589409E-08
   29.46000      3.2301450E-08
   29.52000      3.2077011E-08
   29.58000      3.1940342E-08
   29.64000      3.1878667E-08
   29.70000      3.1840869E-08
   29.76000      3.1751231E-08
   29.82000      3.1533183E-08
   29.88000      3.1133894E-08
   29.94000      3.0539709E-08
   30.00000      2.9776462E-08
   30.06000      2.8895093E-08
   30.12000      2.7949392E-08
   30.18000      2.6975560E-08
   30.24000      2.5982020E-08
   30.30000      2.4952852E-08
   30.36000      2.3862000E-08
   30.42000      2.2690907E-08
   30.48000      2.1441071E-08
   30.54000      2.0135788E-08
   30.60000      1.8810246E-08
   30.66000      1.7494216E-08
   30.72000      1.6194516E-08
   30.78000      1.4884574E-08
   30.84000      1.3505401E-08
   30.90000      1.1978251E-08
   30.96000      1.0225016E-08
   31.02000      8.1899980E-09
   31.08000      5.8564225E-09
   31.14000      3.2529472E-09
   31.20000      4.4865969E-10
   31.26000     -2.4615190E-09
   31.32000     -5.3764326E-09
   31.38000     -8.2075680E-09
   31.44000     -1.0892085E-08
   31.50000     -1.3396955E-08
   31.56000     -1.5714145E-08
   31.62000     -1.7849548E-08
   31.68000     -1.9810347E-08
   31.74000     -2.1595591E-08
   31.80000     -2.3193303E-08
   31.86000     -2.4584562E-08
   31.92000     -2.5752041E-08
   31.98000     -2.6688586E-08
   32.04000     -2.7401464E-08
   32.10000     -2.7910058E-08
   32.16000     -2.8238079E-08
   32.22000     -2.8404239E-08
   32.28000     -2.8416350E-08
   32.34000     -2.8272186E-08
   32.40000     -2.7967149E-08
   32.46000     -2.7504944E-08
   32.52000     -2.6905814E-08
   32.58000     -2.6207676E-08
   32.64000     -2.5459077E-08
   32.70000     -2.4707003E-08
   32.76000     -2.3985290E-08
   32.82000     -2.3308997E-08
   32.88000     -2.2677035E-08
   32.94000     -2.2080936E-08
   33.00000     -2.1514582E-08
   33.06000     -2.0979474E-08
   33.12000     -2.0482874E-08
   33.18000     -2.0030374E-08
   33.24000     -1.9617712E-08
   33.30000     -1.9227263E-08
   33.36000     -1.8832093E-08
   33.42000     -1.8406347E-08
   33.48000     -1.7937094E-08
   33.54000     -1.7431496E-08
   33.60000     -1.6915129E-08
   33.66000     -1.6421309E-08
   33.72000     -1.5975532E-08
   33.78000     -1.5581497E-08
   33.84000     -1.5214663E-08
   33.90000     -1.4826166E-08
   33.96000     -1.4355632E-08
   34.02000     -1.3747949E-08
   34.08000     -1.2967791E-08
   34.14000     -1.2007105E-08
   34.20000     -1.0883840E-08
   34.26000     -9.6336690E-09
   34.32000     -8.2985929E-09
   34.38000     -6.9166353E-09
   34.44000     -5.5153873E-09
   34.50000     -4.1100843E-09
   34.56000     -2.7051996E-09
   34.62000     -1.2978567E-09
   34.68000      1.1841859E-10
   34.74000      1.5504945E-09
   34.80000      3.0034450E-09
   34.86000      4.4796789E-09
   34.92000      5.9795111E-09
   34.98000      7.5028348E-09
   35.04000      9.0508125E-09
   35.10000      1.0626085E-08
   35.16000      1.2230368E-08
   35.22000      1.3859627E-08
   35.28000      1.5498784E-08
   35.34000      1.7118781E-08
   35.40000      1.8678335E-08
   35.46000      2.0130654E-08
   35.52000      2.1432969E-08
   35.58000      2.2555239E-08
   35.64000      2.3484965E-08
   35.70000      2.4226928E-08
   35.76000      2.4799215E-08
   35.82000      2.5228013E-08
   35.88000      2.5543235E-08
   35.94000      2.5775289E-08
   36.00000      2.5951920E-08
   36.06000      2.6093815E-08
   36.12000      2.6209312E-08
   36.18000      2.6290289E-08
   36.24000      2.6312319E-08
   36.30000      2.6241080E-08
   36.36000      2.6044171E-08
   36.42000      2.5704590E-08
   36.48000      2.5230548E-08
   36.54000      2.4657259E-08
   36.60000      2.4039474E-08
   36.66000      2.3437183E-08
   36.72000      2.2899805E-08
   36.78000      2.2454502E-08
   36.84000      2.2102578E-08
   36.90000      2.1824480E-08
   36.96000      2.1590859E-08
   37.02000      2.1374994E-08
   37.08000      2.1162011E-08
   37.14000      2.0951950E-08
   37.20000      2.0756495E-08
   37.26000      2.0591663E-08
   37.32000      2.0469971E-08
   37.38000      2.0395408E-08
   37.44000      2.0362691E-08
   37.50000      2.0360268E-08
   37.56000      2.0374891E-08
   37.62000      2.0395255E-08
   37.68000      2.0413129E-08
   37.74000      2.0421931E-08
   37.80000      2.0413950E-08
   37.86000      2.0377882E-08
   37.92000      2.0297922E-08
   37.98000      2.0154754E-08
   38.04000      1.9928116E-08
   38.10000      1.9600206E-08
   38.16000      1.9159270E-08
   38.22000      1.8602693E-08
   38.28000      1.7938900E-08
   38.34000      1.7187332E-08
   38.40000      1.6376033E-08
   38.46000      1.5537019E-08
   38.52000      1.4700519E-08
   38.58000      1.3889662E-08
   38.64000      1.3117113E-08
   38.70000      1.2384189E-08
   38.76000      1.1681927E-08
   38.82000      1.0992959E-08
   38.88000      1.0293237E-08
   38.94000      9.5535730E-09
   39.00000      8.7417966E-09
   39.06000      7.8264986E-09
   39.12000      6.7824977E-09
   39.18000      5.5969163E-09
   39.24000      4.2737915E-09
   39.30000      2.8351808E-09
   39.36000      1.3178035E-09
   39.42000     -2.3413357E-10
   39.48000     -1.7780004E-09
   39.54000     -3.2812266E-09
   39.60000     -4.7270805E-09
   39.66000     -6.1164322E-09
   39.72000     -7.4651654E-09
   39.78000     -8.7978691E-09
   39.84000     -1.0139408E-08
   39.90000     -1.1506809E-08
   39.96000     -1.2904263E-08
   40.02000     -1.4323338E-08
   40.08000     -1.5748702E-08
   40.14000     -1.7167110E-08
   40.20000     -1.8575506E-08
   40.26000     -1.9983990E-08
   40.32000     -2.1411521E-08
   40.38000     -2.2875890E-08
   40.44000     -2.4382709E-08
   40.50000     -2.5919185E-08
   40.56000     -2.7456414E-08
   40.62000     -2.8959807E-08
   40.68000     -3.0403136E-08
   40.74000     -3.1779720E-08
   40.80000     -3.3105682E-08
   40.86000     -3.4414096E-08
   40.92000     -3.5742953E-08
   40.98000     -3.7122611E-08
   41.04000     -3.8567801E-08
   41.10000     -4.0076621E-08
   41.16000     -4.1635342E-08
   41.22000     -4.3225580E-08
   41.28000     -4.4830337E-08
   41.34000     -4.6436980E-08
   41.40000     -4.8037634E-08
   41.46000     -4.9628714E-08
   41.52000     -5.1211103E-08
   41.58000     -5.2790991E-08
   41.64000     -5.4379825E-08
   41.70000     -5.5991539E-08
   41.76000     -5.7636345E-08
   41.82000     -5.9312736E-08
   41.88000     -6.1001217E-08
   41.94000     -6.2663531E-08
   42.00000     -6.4249107E-08
   42.06000     -6.5707361E-08
   42.12000     -6.7001032E-08
   42.18000     -6.8115014E-08
   42.24000     -6.9056718E-08
   42.30000     -6.9847637E-08
   42.36000     -7.0510310E-08
   42.42000     -7.1056753E-08
   42.48000     -7.1483903E-08
   42.54000     -7.1777897E-08
   42.60000     -7.1924696E-08
   42.66000     -7.1921740E-08
   42.72000     -7.1784655E-08
   42.78000     -7.1545983E-08
   42.84000     -7.1246781E-08
   42.90000     -7.0924976E-08
   42.96000     -7.0605573E-08
   43.02000     -7.0296181E-08
   43.08000     -6.9988729E-08
   43.14000     -6.9665283E-08
   43.20000     -6.9304868E-08
   43.26000     -6.8888937E-08
   43.32000     -6.8404418E-08
   43.38000     -6.7844802E-08
   43.44000     -6.7210387E-08
   43.50000     -6.6508022E-08
   43.56000     -6.5750264E-08
   43.62000     -6.4953248E-08
   43.68000     -6.4133317E-08
   43.74000     -6.3303517E-08
   43.80000     -6.2471457E-08
   43.86000     -6.1639724E-08
   43.92000     -6.0809008E-08
   43.98000     -5.9981893E-08
   44.04000     -5.9165128E-08
   44.10000     -5.8368290E-08
   44.16000     -5.7599120E-08
   44.22000     -5.6857608E-08
   44.28000     -5.6132173E-08
   44.34000     -5.5400477E-08
   44.40000     -5.4635279E-08
   44.46000     -5.3813110E-08
   44.52000     -5.2922161E-08
   44.58000     -5.1965998E-08
   44.64000     -5.0961866E-08
   44.70000     -4.9934684E-08
   44.76000     -4.8909815E-08
   44.82000     -4.7907672E-08
   44.88000     -4.6942066E-08
   44.94000     -4.6021938E-08
   45.00000     -4.5154717E-08
   45.06000     -4.4348912E-08
   45.12000     -4.3614328E-08
   45.18000     -4.2959865E-08
   45.24000     -4.2390074E-08
   45.30000     -4.1902364E-08
   45.36000     -4.1486505E-08
   45.42000     -4.1126945E-08
   45.48000     -4.0807645E-08
   45.54000     -4.0517843E-08
   45.60000     -4.0257074E-08
   45.66000     -4.0037634E-08
   45.72000     -3.9883414E-08
   45.78000     -3.9824904E-08
   45.84000     -3.9891173E-08
   45.90000     -4.0100836E-08
   45.96000     -4.0454616E-08
   46.02000     -4.0931987E-08
   46.08000     -4.1493418E-08
   46.14000     -4.2088018E-08
   46.20000     -4.2664414E-08
   46.26000     -4.3181458E-08
   46.32000     -4.3615351E-08
   46.38000     -4.3961204E-08
   46.44000     -4.4229179E-08
   46.50000     -4.4437467E-08
   46.56000     -4.4605226E-08
   46.62000     -4.4748031E-08
   46.68000     -4.4876476E-08
   46.74000     -4.4996849E-08
   46.80000     -4.5111655E-08
   46.86000     -4.5218336E-08
   46.92000     -4.5306226E-08
   46.98000     -4.5353442E-08
   47.04000     -4.5326424E-08
   47.10000     -4.5183722E-08
   47.16000     -4.4883578E-08
   47.22000     -4.4392461E-08
   47.28000     -4.3690783E-08
   47.34000     -4.2772850E-08
   47.40000     -4.1641041E-08
   47.46000     -4.0296833E-08
   47.52000     -3.8732729E-08
   47.58000     -3.6928085E-08
   47.64000     -3.4848970E-08
   47.70000     -3.2449286E-08
   47.76000     -2.9669597E-08
   47.82000     -2.6431575E-08
   47.88000     -2.2629653E-08
   47.94000     -1.8124119E-08
   48.00000     -1.2740010E-08
   48.06000     -6.2728778E-09
   48.12000      1.5021756E-09
   48.18000      1.0825383E-08
   48.24000      2.1957982E-08
   48.30000      3.5201165E-08
   48.36000      5.0924534E-08
   48.42000      6.9595679E-08
   48.48000      9.1802093E-08
   48.54000      1.1826118E-07
   48.60000      1.4982099E-07
   48.66000      1.8745975E-07
   48.72000      2.3229404E-07
   48.78000      2.8560177E-07
   48.84000      3.4885963E-07
   48.90000      4.2378898E-07
   48.96000      5.1240210E-07
   49.02000      6.1704270E-07
   49.08000      7.4042077E-07
   49.14000      8.8564701E-07
   49.20000      1.0562743E-06
   49.26000      1.2563529E-06
   49.32000      1.4905000E-06
   49.38000      1.7639791E-06
   49.44000      2.0827822E-06
   49.50000      2.4537139E-06
   49.56000      2.8844722E-06
   49.62000      3.3837362E-06
   49.68000      3.9612628E-06
   49.74000      4.6279993E-06
   49.80000      5.3962026E-06
   49.86000      6.2795630E-06
   49.92000      7.2933262E-06
   49.98000      8.4544154E-06
   50.04000      9.7815564E-06
   50.10000      1.1295411E-05
   50.16000      1.3018735E-05
   50.22000      1.4976542E-05
   50.28000      1.7196269E-05
   50.34000      1.9707933E-05
   50.40000      2.2544280E-05
   50.46000      2.5740886E-05
   50.52000      2.9336274E-05
   50.58000      3.3372020E-05
   50.64000      3.7892849E-05
   50.70000      4.2946762E-05
   50.76000      4.8585112E-05
   50.82000      5.4862667E-05
   50.88000      6.1837665E-05
   50.94000      6.9571768E-05
   51.00000      7.8130084E-05
   51.06000      8.7581044E-05
   51.12000      9.7996330E-05
   51.18000      1.0945072E-04
   51.24000      1.2202188E-04
   51.30000      1.3579015E-04
   51.36000      1.5083830E-04
   51.42000      1.6725110E-04
   51.48000      1.8511503E-04
   51.54000      2.0451778E-04
   51.60000      2.2554773E-04
   51.66000      2.4829342E-04
   51.72000      2.7284297E-04
   51.78000      2.9928339E-04
   51.84000      3.2769982E-04
   51.90000      3.5817493E-04
   51.96000      3.9078787E-04
   52.02000      4.2561357E-04
   52.08000      4.6272186E-04
   52.14000      5.0217652E-04
   52.20000      5.4403453E-04
   52.26000      5.8834505E-04
   52.32000      6.3514867E-04
   52.38000      6.8447611E-04
   52.44000      7.3634792E-04
   52.50000      7.9077290E-04
   52.56000      8.4774813E-04
   52.62000      9.0725743E-04
   52.68000      9.6927141E-04
   52.74000      1.0337465E-03
   52.80000      1.1006247E-03
   52.86000      1.1698335E-03
   52.92000      1.2412847E-03
   52.98000      1.3148750E-03
   53.04000      1.3904863E-03
   53.10000      1.4679851E-03
   53.16000      1.5472232E-03
   53.22000      1.6280381E-03
   53.28000      1.7102542E-03
   53.34000      1.7936829E-03
   53.40000      1.8781238E-03
   53.46000      1.9633661E-03
   53.52000      2.0491888E-03
   53.58000      2.1353641E-03
   53.64000      2.2216570E-03
   53.70000      2.3078274E-03
   53.76000      2.3936327E-03
   53.82000      2.4788284E-03
   53.88000      2.5631713E-03
   53.94000      2.6464199E-03
   54.00000      2.7283381E-03
   54.06000      2.8086954E-03
   54.12000      2.8872704E-03
   54.18000      2.9638514E-03
   54.24000      3.0382387E-03
   54.30000      3.1102470E-03
   54.36000      3.1797057E-03
   54.42000      3.2464622E-03
   54.48000      3.3103817E-03
   54.54000      3.3713486E-03
   54.60000      3.4292680E-03
   54.66000      3.4840663E-03
   54.72000      3.5356916E-03
   54.78000      3.5841141E-03
   54.84000      3.6293257E-03
   54.90000      3.6713402E-03
   54.96000      3.7101933E-03
   55.02000      3.7459414E-03
   55.08000      3.7786616E-03
   55.14000      3.8084497E-03
   55.20000      3.8354187E-03
   55.26000      3.8596988E-03
   55.32000      3.8814330E-03
   55.38000      3.9007782E-03
   55.44000      3.9179008E-03
   55.50000      3.9329757E-03
   55.56000      3.9461846E-03