  -2.400000      0.0000000E+00
  -2.340000      0.0000000E+00
  -2.280000      0.0000000E+00
  -2.220000      0.0000000E+00
  -2.160000      0.0000000E+00
  -2.100000      0.0000000E+00
  -2.040000      0.0000000E+00
  -1.980000      0.0000000E+00
  -1.920000      4.0777226E-25
  -1.860000      3.7908585E-24
  -1.800000      1.5006597E-23
  -1.740000      2.3692019E-23
  -1.680000     -4.9676086E-23
  -1.620000     -3.9454579E-22
  -1.560000     -1.1192566E-21
  -1.500000     -1.5332108E-21
  -1.440000      8.7672542E-22
  -1.380000      1.0117689E-20
  -1.320000      2.6976938E-20
  -1.260000      3.8580605E-20
  -1.200000      8.8026872E-21
  -1.140000     -1.1182337E-19
  -1.080000     -3.3441408E-19
  -1.020000     -5.4053932E-19
 -0.9600000     -4.1436121E-19
 -0.9000000      4.7394688E-19
 -0.8400000      2.3153499E-18
 -0.7800000      4.4901998E-18
 -0.7200000      5.1463617E-18
 -0.6600000      1.5704790E-18
 -0.6000000     -8.1222180E-18
 -0.5400000     -2.2240251E-17
 -0.4800000     -3.3271252E-17
 -0.4200000     -2.8709163E-17
 -0.3600000      2.9745717E-18
 -0.3000000      6.1931635E-17
 -0.2400000      1.2721647E-16
 -0.1800000      1.5623262E-16
 -0.1200000      1.0062284E-16
 -5.9999999E-02 -6.2067987E-17
  0.0000000E+00 -2.9433339E-16
  5.9999999E-02 -4.8609881E-16
  0.1200000     -4.8626134E-16
  0.1800000     -1.8238572E-16
  0.2400000      3.9973576E-16
  0.3000000      1.0349465E-15
  0.3600000      1.3394959E-15
  0.4200000      9.4120205E-16
  0.4800000     -2.6679058E-16
  0.5400000     -1.9140103E-15
  0.6000000     -3.1437945E-15
  0.6600000     -2.9170307E-15
  0.7200000     -5.9007073E-16
  0.7800000      3.4658183E-15
  0.8400000      7.5752376E-15
  0.9000000      9.1427567E-15
  0.9600000      5.7977876E-15
   1.020000     -3.0401889E-15
   1.080000     -1.4931475E-14
   1.140000     -2.4419201E-14
   1.200000     -2.4826104E-14
   1.260000     -1.1581910E-14
   1.320000      1.4205508E-14
   1.380000      4.3915280E-14
   1.440000      6.3105696E-14
   1.500000      5.7202256E-14
   1.560000      1.9525028E-14
   1.620000     -4.1991838E-14
   1.680000     -1.0367302E-13
   1.740000     -1.3325856E-13
   1.800000     -1.0432653E-13
   1.860000     -1.2532069E-14
   1.920000      1.1465222E-13
   1.980000      2.2215416E-13
   2.040000      2.4765051E-13
   2.100000      1.5208649E-13
   2.160000     -5.2889676E-14
   2.220000     -2.9600614E-13
   2.280000     -4.6581304E-13
   2.340000     -4.5597315E-13
   2.400000     -2.1966801E-13
   2.460000      1.9244697E-13
   2.520000      6.3374680E-13
   2.580000      9.1043362E-13
   2.640000      8.6297733E-13
   2.700000      4.4614881E-13
   2.760000     -2.3189022E-13
   2.820000     -9.3702758E-13
   2.880000     -1.3992210E-12
   2.940000     -1.4288891E-12
   3.000000     -1.0050582E-12
   3.060000     -2.8809512E-13
   3.120000      4.5670959E-13
   3.180000      9.9278127E-13
   3.240000      1.2359061E-12
   3.300000      1.2964490E-12
   3.360000      1.4029986E-12
   3.420000      1.7311473E-12
   3.480000      2.2204003E-12
   3.540000      2.4879736E-12
   3.600000      1.9206518E-12
   3.660000     -5.0596385E-14
   3.720000     -3.5838359E-12
   3.780000     -8.1276956E-12
   3.840000     -1.2357713E-11
   3.900000     -1.4442939E-11
   3.960000     -1.2611360E-11
   4.020000     -5.8495032E-12
   4.080000      5.5103990E-12
   4.140000      1.9552930E-11
   4.200000      3.3025058E-11
   4.260000      4.2036253E-11
   4.320000      4.3027842E-11
   4.380000      3.3735764E-11
   4.440000      1.3881003E-11
   4.500000     -1.4576500E-11
   4.560000     -4.7638782E-11
   4.620000     -7.9817569E-11
   4.680000     -1.0486469E-10
   4.740000     -1.1655013E-10
   4.800000     -1.0943690E-10
   4.860000     -7.9683427E-11
   4.920000     -2.5925153E-11
   4.980000      4.9781866E-11
   5.040000      1.4110978E-10
   5.100000      2.3699595E-10
   5.160000      3.2192701E-10
   5.220000      3.7725079E-10
   5.280000      3.8356798E-10
   5.340000      3.2392877E-10
   5.400000      1.8724758E-10
   5.460000     -2.8833937E-11
   5.520000     -3.1636802E-10
   5.580000     -6.5726957E-10
   5.640000     -1.0252669E-09
   5.700000     -1.3892135E-09
   5.760000     -1.7170201E-09
   5.820000     -1.9793751E-09
   5.880000     -2.1526088E-09
   5.940000     -2.2204163E-09
   6.000000     -2.1745541E-09
   6.060000     -2.0149007E-09
   6.120000     -1.7493059E-09
   6.180000     -1.3934548E-09
   6.240000     -9.7064301E-10
   6.300000     -5.1107996E-10
   6.360000     -5.0248403E-11
   6.420000      3.7394973E-10
   6.480000      7.2512574E-10
   6.540000      9.7281605E-10
   6.600000      1.0964704E-09
   6.660000      1.0881124E-09
   6.720000      9.5309782E-10
   6.780000      7.0891815E-10
   6.840000      3.8252065E-10
   6.900000      6.9042844E-12
   6.960000     -3.8227690E-10
   7.020000     -7.4968082E-10
   7.080000     -1.0627977E-09
   7.140000     -1.2942839E-09
   7.200000     -1.4243581E-09
   7.260000     -1.4432257E-09
   7.320000     -1.3530682E-09
   7.380000     -1.1688354E-09
   7.440000     -9.1710378E-10
   7.500000     -6.3269118E-10
   7.560000     -3.5341674E-10
   7.620000     -1.1410469E-10
   7.680000      5.8670298E-11
   7.740000      1.4970485E-10
   7.800000      1.5538108E-10
   7.860000      8.1117377E-11
   7.920000     -6.2917969E-11
   7.980000     -2.6629435E-10
   8.040000     -5.2152554E-10
   8.100000     -8.2509499E-10
   8.160000     -1.1762782E-09
   8.220000     -1.5745690E-09
   8.280000     -2.0169726E-09
   8.340000     -2.4963653E-09
   8.400000     -3.0015783E-09
   8.460000     -3.5190959E-09
   8.520000     -4.0355839E-09
   8.580000     -4.5401456E-09
   8.640000     -5.0253686E-09
   8.700000     -5.4867595E-09
   8.760000     -5.9208447E-09
   8.820000     -6.3227521E-09
   8.880000     -6.6842705E-09
   8.940000     -6.9931598E-09
   9.000000     -7.2339765E-09
   9.060000     -7.3901241E-09
   9.120000     -7.4464084E-09
   9.180000     -7.3913111E-09
   9.240000     -7.2183761E-09
   9.300000     -6.9265083E-09
   9.360000     -6.5193539E-09
   9.420000     -6.0041603E-09
   9.480000     -5.3904943E-09
   9.540000     -4.6890061E-09
   9.600000     -3.9101811E-09
   9.660000     -3.0629113E-09
   9.720000     -2.1528097E-09
   9.780000     -1.1804708E-09
   9.840000     -1.4021130E-10
   9.900000      9.7997632E-10
   9.960000      2.1966646E-09
   10.02000      3.5273020E-09
   10.08000      4.9851634E-09
   10.14000      6.5741754E-09
   10.20000      8.2851832E-09
   10.26000      1.0095048E-08
   10.32000      1.1969258E-08
   10.38000      1.3867688E-08
   10.44000      1.5752148E-08
   10.50000      1.7593692E-08
   10.56000      1.9377669E-08
   10.62000      2.1105047E-08
   10.68000      2.2789676E-08
   10.74000      2.4452298E-08
   10.80000      2.6113051E-08
   10.86000      2.7784615E-08
   10.92000      2.9467939E-08
   10.98000      3.1151657E-08
   11.04000      3.2815176E-08
   11.10000      3.4434382E-08
   11.16000      3.5988091E-08
   11.22000      3.7463249E-08
   11.28000      3.8857404E-08
   11.34000      4.0177831E-08
   11.40000      4.1437890E-08
   11.46000      4.2652115E-08
   11.52000      4.3831744E-08
   11.58000      4.4982112E-08
   11.64000      4.6102389E-08
   11.70000      4.7187033E-08
   11.76000      4.8227733E-08
   11.82000      4.9214407E-08
   11.88000      5.0134553E-08
   11.94000      5.0971270E-08
   12.00000      5.1701250E-08
   12.06000      5.2294510E-08
   12.12000      5.2717098E-08
   12.18000      5.2937036E-08
   12.24000      5.2932119E-08
   12.30000      5.2697249E-08
   12.36000      5.2248488E-08
   12.42000      5.1621864E-08
   12.48000      5.0866472E-08
   12.54000      5.0033446E-08
   12.60000      4.9163773E-08
   12.66000      4.8278743E-08
   12.72000      4.7376147E-08
   12.78000      4.6433652E-08
   12.84000      4.5418538E-08
   12.90000      4.4300887E-08
   12.96000      4.3066002E-08
   13.02000      4.1722128E-08
   13.08000      4.0300772E-08
   13.14000      3.8849411E-08
   13.20000      3.7418662E-08
   13.26000      3.6047851E-08
   13.32000      3.4753281E-08
   13.38000      3.3522742E-08
   13.44000      3.2317867E-08
   13.50000      3.1083662E-08
   13.56000      2.9762573E-08
   13.62000      2.8309330E-08
   13.68000      2.6702686E-08
   13.74000      2.4951126E-08
   13.80000      2.3091173E-08
   13.86000      2.1178856E-08
   13.92000      1.9276477E-08
   13.98000      1.7438150E-08
   14.04000      1.5697738E-08
   14.10000      1.4062353E-08
   14.16000      1.2513022E-08
   14.22000      1.1012198E-08
   14.28000      9.5158335E-09
   14.34000      7.9864426E-09
   14.40000      6.4034467E-09
   14.46000      4.7679256E-09
   14.52000      3.1008061E-09
   14.58000      1.4355179E-09
   14.64000     -1.9226619E-10
   14.70000     -1.7544919E-09
   14.76000     -3.2373075E-09
   14.82000     -4.6427426E-09
   14.88000     -5.9854908E-09
   14.94000     -7.2862756E-09
   15.00000     -8.5641974E-09
   15.06000     -9.8305879E-09
   15.12000     -1.1086311E-08
   15.18000     -1.2323255E-08
   15.24000     -1.3529435E-08
   15.30000     -1.4695819E-08
   15.36000     -1.5822392E-08
   15.42000     -1.6920970E-08
   15.48000     -1.8013276E-08
   15.54000     -1.9124396E-08
   15.60000     -2.0273365E-08
   15.66000     -2.1463983E-08
   15.72000     -2.2679101E-08
   15.78000     -2.3880682E-08
   15.84000     -2.5016147E-08
   15.90000     -2.6029365E-08
   15.96000     -2.6873199E-08
   16.02000     -2.7520100E-08
   16.08000     -2.7968094E-08
   16.14000     -2.8241125E-08
   16.20000     -2.8384544E-08
   16.26000     -2.8457777E-08
   16.32000     -2.8526498E-08
   16.38000     -2.8656192E-08
   16.44000     -2.8907962E-08
   16.50000     -2.9336441E-08
   16.56000     -2.9988978E-08
   16.62000     -3.0905102E-08
   16.68000     -3.2115416E-08
   16.74000     -3.3639580E-08
   16.80000     -3.5483556E-08
   16.86000     -3.7636770E-08
   16.92000     -4.0070230E-08
   16.98000     -4.2736680E-08
   17.04000     -4.5573714E-08
   17.10000     -4.8510159E-08
   17.16000     -5.1475201E-08
   17.22000     -5.4408662E-08
   17.28000     -5.7270299E-08
   17.34000     -6.0045323E-08
   17.40000     -6.2744270E-08
   17.46000     -6.5396193E-08
   17.52000     -6.8036286E-08
   17.58000     -7.0690483E-08
   17.64000     -7.3360937E-08
   17.70000     -7.6016086E-08
   17.76000     -7.8588009E-08
   17.82000     -8.0977571E-08
   17.88000     -8.3066091E-08
   17.94000     -8.4730573E-08
   18.00000     -8.5859355E-08
   18.06000     -8.6365311E-08
   18.12000     -8.6195207E-08
   18.18000     -8.5334236E-08
   18.24000     -8.3806164E-08
   18.30000     -8.1669306E-08
   18.36000     -7.9009375E-08
   18.42000     -7.5930174E-08
   18.48000     -7.2543664E-08
   18.54000     -6.8960837E-08
   18.60000     -6.5284603E-08
   18.66000     -6.1604993E-08
   18.72000     -5.7996520E-08
   18.78000     -5.4516644E-08
   18.84000     -5.1204804E-08
   18.90000     -4.8081624E-08
   18.96000     -4.5148841E-08
   19.02000     -4.2390642E-08
   19.08000     -3.9777088E-08
   19.14000     -3.7269558E-08
   19.20000     -3.4827661E-08
   19.26000     -3.2416434E-08
   19.32000     -3.0012604E-08
   19.38000     -2.7608976E-08
   19.44000     -2.5216146E-08
   19.50000     -2.2861354E-08
   19.56000     -2.0584524E-08
   19.62000     -1.8432054E-08
   19.68000     -1.6449349E-08
   19.74000     -1.4673446E-08
   19.80000     -1.3127040E-08
   19.86000     -1.1814937E-08
   19.92000     -1.0723321E-08
   19.98000     -9.8215462E-09
   20.04000     -9.0658396E-09
   20.10000     -8.4042338E-09
   20.16000     -7.7822246E-09
   20.22000     -7.1487714E-09
   20.28000     -6.4621508E-09
   20.34000     -5.6948286E-09
   20.40000     -4.8362745E-09
   20.46000     -3.8927976E-09
   20.52000     -2.8841776E-09
   20.58000     -1.8378666E-09
   20.64000     -7.8241519E-10
   20.70000      2.5796970E-10
   20.76000      1.2663895E-09
   20.82000      2.2335160E-09
   20.88000      3.1560754E-09
   20.94000      4.0350705E-09
   21.00000      4.8750191E-09
   21.06000      5.6845630E-09
   21.12000      6.4777170E-09
   21.18000      7.2743478E-09
   21.24000      8.0985654E-09
   21.30000      8.9745411E-09
   21.36000      9.9204076E-09
   21.42000      1.0941942E-08
   21.48000      1.2028047E-08
   21.54000      1.3149680E-08
   21.60000      1.4262876E-08
   21.66000      1.5315239E-08
   21.72000      1.6254337E-08
   21.78000      1.7035944E-08
   21.84000      1.7630358E-08
   21.90000      1.8025759E-08
   21.96000      1.8228492E-08
   22.02000      1.8260920E-08
   22.08000      1.8157726E-08
   22.14000      1.7961554E-08
   22.20000      1.7718371E-08
   22.26000      1.7472701E-08
   22.32000      1.7262771E-08
   22.38000      1.7115839E-08
   22.44000      1.7044202E-08
   22.50000      1.7042732E-08
   22.56000      1.7088674E-08
   22.62000      1.7144295E-08
   22.68000      1.7162412E-08
   22.74000      1.7094308E-08
   22.80000      1.6898927E-08
   22.86000      1.6551613E-08
   22.92000      1.6050416E-08
   22.98000      1.5418065E-08
   23.04000      1.4698503E-08
   23.10000      1.3948249E-08
   23.16000      1.3224456E-08
   23.22000      1.2572765E-08
   23.28000      1.2018320E-08
   23.34000      1.1562418E-08
   23.40000      1.1185358E-08
   23.46000      1.0854092E-08
   23.52000      1.0531815E-08
   23.58000      1.0186459E-08
   23.64000      9.7958619E-09
   23.70000      9.3489927E-09
   23.76000      8.8439052E-09
   23.82000      8.2840064E-09
   23.88000      7.6742568E-09
   23.94000      7.0185937E-09
   24.00000      6.3192767E-09
   24.06000      5.5783422E-09
   24.12000      4.8007642E-09
   24.18000      3.9982764E-09
   24.24000      3.1922158E-09
   24.30000      2.4134605E-09
   24.36000      1.6980768E-09
   24.42000      1.0786735E-09
   24.48000      5.7345229E-10
   24.54000      1.7663078E-10
   24.60000     -1.4560846E-10
   24.66000     -4.5077928E-10
   24.72000     -8.0733209E-10
   24.78000     -1.2767566E-09
   24.84000     -1.8962318E-09
   24.90000     -2.6678495E-09
   24.96000     -3.5584100E-09
   25.02000     -4.5101332E-09
   25.08000     -5.4587508E-09
   25.14000     -6.3528778E-09
   25.20000     -7.1682500E-09
   25.26000     -7.9123756E-09
   25.32000     -8.6185503E-09
   25.38000     -9.3317523E-09
   25.44000     -1.0091394E-08
   25.50000     -1.0916639E-08
   25.56000     -1.1798875E-08
   25.62000     -1.2703571E-08
   25.68000     -1.3580878E-08
   25.74000     -1.4381794E-08
   25.80000     -1.5075113E-08
   25.86000     -1.5660111E-08
   25.92000     -1.6170878E-08
   25.98000     -1.6670500E-08
   26.04000     -1.7236095E-08
   26.10000     -1.7938566E-08
   26.16000     -1.8822893E-08
   26.22000     -1.9895062E-08
   26.28000     -2.1120076E-08
   26.34000     -2.2432138E-08
   26.40000     -2.3754147E-08
   26.46000     -2.5020391E-08
   26.52000     -2.6195170E-08
   26.58000     -2.7281379E-08
   26.64000     -2.8316649E-08
   26.70000     -2.9358926E-08
   26.76000     -3.0466868E-08
   26.82000     -3.1681797E-08
   26.88000     -3.3016903E-08
   26.94000     -3.4456349E-08
   27.00000     -3.5963499E-08
   27.06000     -3.7494488E-08
   27.12000     -3.9012221E-08
   27.18000     -4.0496182E-08
   27.24000     -4.1945171E-08
   27.30000     -4.3372406E-08
   27.36000     -4.4794859E-08
   27.42000     -4.6220382E-08
   27.48000     -4.7637272E-08
   27.54000     -4.9010421E-08
   27.60000     -5.0286758E-08
   27.66000     -5.1409501E-08
   27.72000     -5.2337757E-08
   27.78000     -5.3065232E-08
   27.84000     -5.3631155E-08
   27.90000     -5.4118228E-08
   27.96000     -5.4636569E-08
   28.02000     -5.5297221E-08
   28.08000     -5.6183122E-08
   28.14000     -5.7326549E-08
   28.20000     -5.8700497E-08
   28.26000     -6.0226768E-08
   28.32000     -6.1798083E-08
   28.38000     -6.3307148E-08
   28.44000     -6.4673351E-08
   28.50000     -6.5859297E-08
   28.56000     -6.6872822E-08
   28.62000     -6.7754989E-08
   28.68000     -6.8558677E-08
   28.74000     -6.9324912E-08
   28.80000     -7.0064353E-08
   28.86000     -7.0749664E-08
   28.92000     -7.1320848E-08
   28.98000     -7.1702132E-08
   29.04000     -7.1825205E-08
   29.10000     -7.1651250E-08
   29.16000     -7.1184516E-08
   29.22000     -7.0472225E-08
   29.28000     -6.9590406E-08
   29.34000     -6.8620004E-08
   29.40000     -6.7621478E-08
   29.46000     -6.6616998E-08
   29.52000     -6.5586526E-08
   29.58000     -6.4479110E-08
   29.64000     -6.3234936E-08
   29.70000     -6.1810034E-08
   29.76000     -6.0194651E-08
   29.82000     -5.8419300E-08
   29.88000     -5.6546959E-08
   29.94000     -5.4654691E-08
   30.00000     -5.2811089E-08
   30.06000     -5.1056766E-08
   30.12000     -4.9393773E-08
   30.18000     -4.7787037E-08
   30.24000     -4.6177401E-08
   30.30000     -4.4502652E-08
   30.36000     -4.2720252E-08
   30.42000     -4.0824609E-08
   30.48000     -3.8852786E-08
   30.54000     -3.6875981E-08
   30.60000     -3.4978989E-08
   30.66000     -3.3234375E-08
   30.72000     -3.1680653E-08
   30.78000     -3.0312592E-08
   30.84000     -2.9087349E-08
   30.90000     -2.7943859E-08
   30.96000     -2.6827855E-08
   31.02000     -2.5712664E-08
   31.08000     -2.4608156E-08
   31.14000     -2.3555184E-08
   31.20000     -2.2608740E-08
   31.26000     -2.1817034E-08
   31.32000     -2.1204634E-08
   31.38000     -2.0765404E-08
   31.44000     -2.0466892E-08
   31.50000     -2.0263792E-08
   31.56000     -2.0115396E-08
   31.62000     -2.0001433E-08
   31.68000     -1.9931674E-08
   31.74000     -1.9946830E-08
   31.80000     -2.0110665E-08
   31.86000     -2.0495520E-08
   31.92000     -2.1165377E-08
   31.98000     -2.2161302E-08
   32.04000     -2.3493822E-08
   32.10000     -2.5144645E-08
   32.16000     -2.7077087E-08
   32.22000     -2.9251224E-08
   32.28000     -3.1637931E-08
   32.34000     -3.4226240E-08
   32.40000     -3.7021231E-08
   32.46000     -4.0033719E-08
   32.52000     -4.3266532E-08
   32.58000     -4.6703565E-08
   32.64000     -5.0306316E-08
   32.70000     -5.4019242E-08
   32.76000     -5.7781151E-08
   32.82000     -6.1537726E-08
   32.88000     -6.5250113E-08
   32.94000     -6.8896640E-08
   33.00000     -7.2468005E-08
   33.06000     -7.5958383E-08
   33.12000     -7.9356070E-08
   33.18000     -8.2636504E-08
   33.24000     -8.5759154E-08
   33.30000     -8.8668671E-08
   33.36000     -9.1299611E-08
   33.42000     -9.3584156E-08
   33.48000     -9.5461637E-08
   33.54000     -9.6888030E-08
   33.60000     -9.7843113E-08
   33.66000     -9.8332670E-08
   33.72000     -9.8384390E-08
   33.78000     -9.8037987E-08
   33.84000     -9.7332730E-08
   33.90000     -9.6296773E-08
   33.96000     -9.4942493E-08
   34.02000     -9.3269328E-08
   34.08000     -9.1272618E-08
   34.14000     -8.8954081E-08
   34.20000     -8.6328882E-08
   34.26000     -8.3426087E-08
   34.32000     -8.0282376E-08
   34.38000     -7.6932267E-08
   34.44000     -7.3399320E-08
   34.50000     -6.9692518E-08
   34.56000     -6.5809118E-08
   34.62000     -6.1742917E-08
   34.68000     -5.7494649E-08
   34.74000     -5.3080903E-08
   34.80000     -4.8539018E-08
   34.86000     -4.3926899E-08
   34.92000     -3.9317928E-08
   34.98000     -3.4792205E-08
   35.04000     -3.0425724E-08
   35.10000     -2.6279535E-08
   35.16000     -2.2391296E-08
   35.22000     -1.8771567E-08
   35.28000     -1.5406224E-08
   35.34000     -1.2264621E-08
   35.40000     -9.3110994E-09
   35.46000     -6.5160757E-09
   35.52000     -3.8631978E-09
   35.58000     -1.3508097E-09
   35.64000      1.0115521E-09
   35.70000      3.2089518E-09
   35.76000      5.2261400E-09
   35.82000      7.0501414E-09
   35.88000      8.6705079E-09
   35.94000      1.0078776E-08
   36.00000      1.1268702E-08
   36.06000      1.2237711E-08
   36.12000      1.2988687E-08
   36.18000      1.3530694E-08
   36.24000      1.3877979E-08
   36.30000      1.4047882E-08
   36.36000      1.4059217E-08
   36.42000      1.3932286E-08
   36.48000      1.3690276E-08
   36.54000      1.3360249E-08
   36.60000      1.2971563E-08
   36.66000      1.2550756E-08
   36.72000      1.2114163E-08
   36.78000      1.1661321E-08
   36.84000      1.1172380E-08
   36.90000      1.0611025E-08
   36.96000      9.9317754E-09
   37.02000      9.0886667E-09
   37.08000      8.0422122E-09
   37.14000      6.7632051E-09
   37.20000      5.2342135E-09
   37.26000      3.4508212E-09
   37.32000      1.4241011E-09
   37.38000     -8.1611956E-10
   37.44000     -3.2195899E-09
   37.50000     -5.7183542E-09
   37.56000     -8.2351219E-09
   37.62000     -1.0695778E-08
   37.68000     -1.3042149E-08
   37.74000     -1.5240532E-08
   37.80000     -1.7283059E-08
   37.86000     -1.9181861E-08
   37.92000     -2.0958815E-08
   37.98000     -2.2634906E-08
   38.04000     -2.4222771E-08
   38.10000     -2.5724137E-08
   38.16000     -2.7131760E-08
   38.22000     -2.8434206E-08
   38.28000     -2.9621450E-08
   38.34000     -3.0689780E-08
   38.40000     -3.1645083E-08
   38.46000     -3.2503980E-08
   38.52000     -3.3292352E-08
   38.58000     -3.4041076E-08
   38.64000     -3.4779294E-08
   38.70000     -3.5526671E-08
   38.76000     -3.6287027E-08
   38.82000     -3.7046252E-08
   38.88000     -3.7776285E-08
   38.94000     -3.8444981E-08
   39.00000     -3.9029068E-08
   39.06000     -3.9525471E-08
   39.12000     -3.9956337E-08
   39.18000     -4.0365141E-08
   39.24000     -4.0804640E-08
   39.30000     -4.1321002E-08
   39.36000     -4.1940034E-08
   39.42000     -4.2660631E-08
   39.48000     -4.3457764E-08
   39.54000     -4.4293426E-08
   39.60000     -4.5131262E-08
   39.66000     -4.5949548E-08
   39.72000     -4.6748426E-08
   39.78000     -4.7549605E-08
   39.84000     -4.8389232E-08
   39.90000     -4.9306323E-08
   39.96000     -5.0330012E-08
   40.02000     -5.1468763E-08
   40.08000     -5.2704308E-08
   40.14000     -5.3992164E-08
   40.20000     -5.5269229E-08
   40.26000     -5.6467016E-08
   40.32000     -5.7527174E-08
   40.38000     -5.8414738E-08
   40.44000     -5.9124780E-08
   40.50000     -5.9680104E-08
   40.56000     -6.0120612E-08
   40.62000     -6.0487949E-08
   40.68000     -6.0810727E-08
   40.74000     -6.1095164E-08
   40.80000     -6.1324258E-08
   40.86000     -6.1465258E-08
   40.92000     -6.1482652E-08
   40.98000     -6.1352253E-08
   41.04000     -6.1071610E-08
   41.10000     -6.0663304E-08
   41.16000     -6.0170152E-08
   41.22000     -5.9643497E-08
   41.28000     -5.9128435E-08
   41.34000     -5.8650460E-08
   41.40000     -5.8207835E-08
   41.46000     -5.7772052E-08
   41.52000     -5.7296038E-08
   41.58000     -5.6727245E-08
   41.64000     -5.6021459E-08
   41.70000     -5.5153226E-08
   41.76000     -5.4120477E-08
   41.82000     -5.2943079E-08
   41.88000     -5.1656883E-08
   41.94000     -5.0305736E-08
   42.00000     -4.8933867E-08
   42.06000     -4.7580382E-08
   42.12000     -4.6276611E-08
   42.18000     -4.5046360E-08
   42.24000     -4.3908347E-08
   42.30000     -4.2879535E-08
   42.36000     -4.1977554E-08
   42.42000     -4.1220495E-08
   42.48000     -4.0623195E-08
   42.54000     -4.0190592E-08
   42.60000     -3.9910542E-08
   42.66000     -3.9749530E-08
   42.72000     -3.9654257E-08
   42.78000     -3.9560142E-08
   42.84000     -3.9405030E-08
   42.90000     -3.9144027E-08
   42.96000     -3.8760430E-08
   43.02000     -3.8269103E-08
   43.08000     -3.7710993E-08
   43.14000     -3.7140609E-08
   43.20000     -3.6610423E-08
   43.26000     -3.6156642E-08
   43.32000     -3.5790158E-08
   43.38000     -3.5494722E-08
   43.44000     -3.5232546E-08
   43.50000     -3.4955836E-08
   43.56000     -3.4621475E-08
   43.62000     -3.4205119E-08
   43.68000     -3.3710716E-08
   43.74000     -3.3172270E-08
   43.80000     -3.2646263E-08
   43.86000     -3.2196269E-08
   43.92000     -3.1873892E-08
   43.98000     -3.1702342E-08
   44.04000     -3.1668542E-08
   44.10000     -3.1727367E-08
   44.16000     -3.1817375E-08
   44.22000     -3.1883065E-08
   44.28000     -3.1896011E-08
   44.34000     -3.1867295E-08
   44.40000     -3.1846472E-08
   44.46000     -3.1907231E-08
   44.52000     -3.2124493E-08
   44.58000     -3.2550723E-08
   44.64000     -3.3198987E-08
   44.70000     -3.4037797E-08
   44.76000     -3.4998529E-08
   44.82000     -3.5992343E-08
   44.88000     -3.6931358E-08
   44.94000     -3.7748503E-08
   45.00000     -3.8411827E-08
   45.06000     -3.8930672E-08
   45.12000     -3.9352809E-08
   45.18000     -3.9752997E-08
   45.24000     -4.0214779E-08
   45.30000     -4.0809031E-08
   45.36000     -4.1574495E-08
   45.42000     -4.2506016E-08
   45.48000     -4.3554945E-08
   45.54000     -4.4642590E-08
   45.60000     -4.5683141E-08
   45.66000     -4.6608527E-08
   45.72000     -4.7386706E-08
   45.78000     -4.8027012E-08
   45.84000     -4.8571192E-08
   45.90000     -4.9073982E-08
   45.96000     -4.9580731E-08
   46.02000     -5.0110152E-08
   46.08000     -5.0647802E-08
   46.14000     -5.1151627E-08
   46.20000     -5.1566857E-08
   46.26000     -5.1844737E-08
   46.32000     -5.1959002E-08
   46.38000     -5.1915254E-08
   46.44000     -5.1750781E-08
   46.50000     -5.1525301E-08
   46.56000     -5.1305488E-08
   46.62000     -5.1147666E-08
   46.68000     -5.1083326E-08
   46.74000     -5.1111261E-08
   46.80000     -5.1198306E-08
   46.86000     -5.1288623E-08
   46.92000     -5.1319319E-08
   46.98000     -5.1238423E-08
   47.04000     -5.1020372E-08
   47.10000     -5.0674149E-08
   47.16000     -5.0241066E-08
   47.22000     -4.9781992E-08
   47.28000     -4.9358015E-08
   47.34000     -4.9011273E-08
   47.40000     -4.8753709E-08
   47.46000     -4.8568811E-08
   47.52000     -4.8426504E-08
   47.58000     -4.8305644E-08
   47.64000     -4.8215323E-08
   47.70000     -4.8206552E-08
   47.76000     -4.8370325E-08
   47.82000     -4.8823736E-08
   47.88000     -4.9690680E-08
   47.94000     -5.1085014E-08
   48.00000     -5.3102337E-08
   48.06000     -5.5822575E-08
   48.12000     -5.9321920E-08
   48.18000     -6.3690379E-08
   48.24000     -6.9050742E-08
   48.30000     -7.5575066E-08
   48.36000     -8.3495934E-08
   48.42000     -9.3110700E-08
   48.48000     -1.0477870E-07
   48.54000     -1.1891351E-07
   48.60000     -1.3597450E-07
   48.66000     -1.5646309E-07
   48.72000     -1.8092801E-07
   48.78000     -2.0998152E-07
   48.84000     -2.4432410E-07
   48.90000     -2.8477342E-07
   48.96000     -3.3229139E-07
   49.02000     -3.8800488E-07
   49.08000     -4.5321883E-07
   49.14000     -5.2942227E-07
   49.20000     -6.1829155E-07
   49.26000     -7.2169615E-07
   49.32000     -8.4171120E-07
   49.38000     -9.8064163E-07
   49.44000     -1.1410576E-06
   49.50000     -1.3258383E-06
   49.56000     -1.5382175E-06
   49.62000     -1.7818248E-06
   49.68000     -2.0607176E-06
   49.74000     -2.3794025E-06
   49.80000     -2.7428516E-06
   49.86000     -3.1565207E-06
   49.92000     -3.6263752E-06
   49.98000     -4.1589242E-06
   50.04000     -4.7612634E-06
   50.10000     -5.4411171E-06
   50.16000     -6.2068816E-06
   50.22000     -7.0676597E-06
   50.28000     -8.0332902E-06
   50.34000     -9.1143720E-06
   50.40000     -1.0322282E-05
   50.46000     -1.1669184E-05
   50.52000     -1.3168030E-05
   50.58000     -1.4832551E-05
   50.64000     -1.6677248E-05
   50.70000     -1.8717392E-05
   50.76000     -2.0968990E-05
   50.82000     -2.3448794E-05
   50.88000     -2.6174272E-05
   50.94000     -2.9163559E-05
   51.00000     -3.2435397E-05
   51.06000     -3.6009060E-05
   51.12000     -3.9904226E-05
   51.18000     -4.4140896E-05
   51.24000     -4.8739268E-05
   51.30000     -5.3719632E-05
   51.36000     -5.9102218E-05
   51.42000     -6.4907072E-05
   51.48000     -7.1153911E-05
   51.54000     -7.7861943E-05
   51.60000     -8.5049702E-05
   51.66000     -9.2734816E-05
   51.72000     -1.0093384E-04
   51.78000     -1.0966205E-04
   51.84000     -1.1893320E-04
   51.90000     -1.2875933E-04
   51.96000     -1.3915056E-04
   52.02000     -1.5011481E-04
   52.08000     -1.6165765E-04
   52.14000     -1.7378214E-04
   52.20000     -1.8648859E-04
   52.26000     -1.9977432E-04
   52.32000     -2.1363367E-04
   52.38000     -2.2805769E-04
   52.44000     -2.4303414E-04
   52.50000     -2.5854746E-04
   52.56000     -2.7457852E-04
   52.62000     -2.9110478E-04
   52.68000     -3.0810016E-04
   52.74000     -3.2553510E-04
   52.80000     -3.4337657E-04
   52.86000     -3.6158814E-04
   52.92000     -3.8013025E-04
   52.98000     -3.9896037E-04
   53.04000     -4.1803310E-04
   53.10000     -4.3730059E-04
   53.16000     -4.5671270E-04
   53.22000     -4.7621748E-04
   53.28000     -4.9576134E-04
   53.34000     -5.1528966E-04
   53.40000     -5.3474715E-04
   53.46000     -5.5407820E-04
   53.52000     -5.7322747E-04
   53.58000     -5.9214007E-04
   53.64000     -6.1076233E-04
   53.70000     -6.2904210E-04
   53.76000     -6.4692920E-04
   53.82000     -6.6437619E-04
   53.88000     -6.8133860E-04
   53.94000     -6.9777569E-04
   54.00000     -7.1365060E-04
   54.06000     -7.2893075E-04
   54.12000     -7.4358808E-04
   54.18000     -7.5759966E-04
   54.24000     -7.7094755E-04
   54.30000     -7.8361930E-04
   54.36000     -7.9560827E-04
   54.42000     -8.0691336E-04
   54.48000     -8.1753964E-04
   54.54000     -8.2749769E-04
   54.60000     -8.3680399E-04
   54.66000     -8.4548048E-04
   54.72000     -8.5355446E-04
   54.78000     -8.6105842E-04
   54.84000     -8.6802972E-04
   54.90000     -8.7451015E-04
   54.96000     -8.8054547E-04
   55.02000     -8.8618475E-04
   55.08000     -8.9148025E-04
   55.14000     -8.9648645E-04
   55.20000     -9.0125995E-04
   55.26000     -9.0585882E-04
   55.32000     -9.1034168E-04
   55.38000     -9.1476750E-04
   55.44000     -9.1919448E-04
   55.50000     -9.2367962E-04
   55.56000     -9.2827779E-04