  -2.400000      0.0000000E+00
  -2.340000      0.0000000E+00
  -2.280000      0.0000000E+00
  -2.220000      0.0000000E+00
  -2.160000      0.0000000E+00
  -2.100000      0.0000000E+00
  -2.040000      0.0000000E+00
  -1.980000      0.0000000E+00
  -1.920000      4.9911164E-27
  -1.860000     -1.6927099E-25
  -1.800000     -2.4040885E-24
  -1.740000     -1.4602794E-23
  -1.680000     -5.3035971E-23
  -1.620000     -1.1873508E-22
  -1.560000     -1.0897750E-22
  -1.500000      3.2295536E-22
  -1.440000      1.7609373E-21
  -1.380000      4.4386104E-21
  -1.320000      6.7449224E-21
  -1.260000      3.4794157E-21
  -1.200000     -1.3677187E-20
  -1.140000     -4.9935708E-20
  -1.080000     -9.4444484E-20
  -1.020000     -1.0761913E-19
 -0.9600000     -2.5566629E-20
 -0.9000000      2.0079517E-19
 -0.8400000      5.3477299E-19
 -0.7800000      7.9482337E-19
 -0.7200000      6.8516714E-19
 -0.6600000     -2.6730044E-20
 -0.6000000     -1.2353736E-18
 -0.5400000     -2.3291301E-18
 -0.4800000     -2.4048576E-18
 -0.4200000     -9.7327219E-19
 -0.3600000      1.1790029E-18
 -0.3000000      1.7846769E-18
 -0.2400000     -1.6029574E-18
 -0.1800000     -8.7907304E-18
 -0.1200000     -1.4187425E-17
 -5.9999999E-02 -7.0584380E-18
  0.0000000E+00  2.2629981E-17
  5.9999999E-02  7.3349758E-17
  0.1200000      1.2182866E-16
  0.1800000      1.2316754E-16
  0.2400000      2.9317488E-17
  0.3000000     -1.7545253E-16
  0.3600000     -4.3802681E-16
  0.4200000     -6.2586889E-16
  0.4800000     -5.6627149E-16
  0.5400000     -1.3646100E-16
  0.6000000      6.3007440E-16
  0.6600000      1.4841857E-15
  0.7200000      2.0091329E-15
  0.7800000      1.7910704E-15
  0.8400000      6.5259738E-16
  0.9000000     -1.1724896E-15
  0.9600000     -3.0482996E-15
   1.020000     -4.1760020E-15
   1.080000     -3.9753183E-15
   1.140000     -2.4064062E-15
   1.200000     -2.0423695E-17
   1.260000      2.3404765E-15
   1.320000      4.0495934E-15
   1.380000      5.0818318E-15
   1.440000      5.9544938E-15
   1.500000      7.1401896E-15
   1.560000      8.2553203E-15
   1.620000      7.6256496E-15
   1.680000      2.7952515E-15
   1.740000     -7.9172796E-15
   1.800000     -2.3432414E-14
   1.860000     -3.8690998E-14
   1.920000     -4.5406912E-14
   1.980000     -3.5225193E-14
   2.040000     -4.4021797E-15
   2.100000      4.2108529E-14
   2.160000      8.9671177E-14
   2.220000      1.1767277E-13
   2.280000      1.0744874E-13
   2.340000      5.1609900E-14
   2.400000     -3.9488971E-14
   2.460000     -1.3796906E-13
   2.520000     -2.0670153E-13
   2.580000     -2.1337451E-13
   2.640000     -1.4492179E-13
   2.700000     -1.5821610E-14
   2.760000      1.3432903E-13
   2.820000      2.5420662E-13
   2.880000      3.0034129E-13
   2.940000      2.5476179E-13
   3.000000      1.3272545E-13
   3.060000     -2.3497798E-14
   3.120000     -1.6258341E-13
   3.180000     -2.4593310E-13
   3.240000     -2.6301964E-13
   3.300000     -2.3256237E-13
   3.360000     -1.8841413E-13
   3.420000     -1.5684548E-13
   3.480000     -1.3709581E-13
   3.540000     -9.6711620E-14
   3.600000      1.3151244E-14
   3.660000      2.2714198E-13
   3.720000      5.3339673E-13
   3.780000      8.5642084E-13
   3.840000      1.0676850E-12
   3.900000      1.0254250E-12
   3.960000      6.3191710E-13
   4.020000     -1.1311044E-13
   4.080000     -1.0856953E-12
   4.140000     -2.0522460E-12
   4.200000     -2.7256541E-12
   4.260000     -2.8474532E-12
   4.320000     -2.2701851E-12
   4.380000     -1.0130606E-12
   4.440000      7.2749798E-13
   4.500000      2.6160996E-12
   4.560000      4.2536859E-12
   4.620000      5.2675520E-12
   4.680000      5.3912296E-12
   4.740000      4.5151669E-12
   4.800000      2.7004282E-12
   4.860000      1.5997171E-13
   4.920000     -2.7791636E-12
   4.980000     -5.7174972E-12
   5.040000     -8.2187191E-12
   5.100000     -9.8398572E-12
   5.160000     -1.0166873E-11
   5.220000     -8.8708060E-12
   5.280000     -5.7931685E-12
   5.340000     -1.0520131E-12
   5.400000      4.8623115E-12
   5.460000      1.1049924E-11
   5.520000      1.6271182E-11
   5.580000      1.9148896E-11
   5.640000      1.8484715E-11
   5.700000      1.3621364E-11
   5.760000      4.7464016E-12
   5.820000     -6.9698435E-12
   5.880000     -1.9472141E-11
   5.940000     -3.0155742E-11
   6.000000     -3.6365740E-11
   6.060000     -3.5933558E-11
   6.120000     -2.7614466E-11
   6.180000     -1.1327831E-11
   6.240000      1.1829724E-11
   6.300000      3.9758644E-11
   6.360000      6.9636727E-11
   6.420000      9.8224560E-11
   6.480000      1.2215007E-10
   6.540000      1.3817328E-10
   6.600000      1.4346024E-10
   6.660000      1.3588834E-10
   6.720000      1.1436525E-10
   6.780000      7.9095140E-11
   6.840000      3.1697173E-11
   6.900000     -2.4902334E-11
   6.960000     -8.6823604E-11
   7.020000     -1.4977254E-10
   7.080000     -2.0964154E-10
   7.140000     -2.6302971E-10
   7.200000     -3.0757616E-10
   7.260000     -3.4207165E-10
   7.320000     -3.6638648E-10
   7.380000     -3.8129527E-10
   7.440000     -3.8827513E-10
   7.500000     -3.8931799E-10
   7.560000     -3.8675119E-10
   7.620000     -3.8303688E-10
   7.680000     -3.8052639E-10
   7.740000     -3.8117601E-10
   7.800000     -3.8626694E-10
   7.860000     -3.9619147E-10
   7.920000     -4.1036424E-10
   7.980000     -4.2729317E-10
   8.040000     -4.4481357E-10
   8.100000     -4.6045542E-10
   8.160000     -4.7188642E-10
   8.220000     -4.7735188E-10
   8.280000     -4.7602344E-10
   8.340000     -4.6817500E-10
   8.400000     -4.5514162E-10
   8.460000     -4.3907239E-10
   8.520000     -4.2254764E-10
   8.580000     -4.0816850E-10
   8.640000     -3.9821862E-10
   8.700000     -3.9444659E-10
   8.760000     -3.9794990E-10
   8.820000     -4.0909559E-10
   8.880000     -4.2742052E-10
   8.940000     -4.5151438E-10
   9.000000     -4.7897114E-10
   9.060000     -5.0654042E-10
   9.120000     -5.3058780E-10
   9.180000     -5.4787003E-10
   9.240000     -5.5649119E-10
   9.300000     -5.5678900E-10
   9.360000     -5.5186183E-10
   9.420000     -5.4750904E-10
   9.480000     -5.5150373E-10
   9.540000     -5.7229077E-10
   9.600000     -6.1735961E-10
   9.660000     -6.9163364E-10
   9.720000     -7.9623497E-10
   9.780000     -9.2792612E-10
   9.840000     -1.0794088E-09
   9.900000     -1.2404898E-09
   9.960000     -1.3999366E-09
   10.02000     -1.5476612E-09
   10.08000     -1.6767613E-09
   10.14000     -1.7849373E-09
   10.20000     -1.8749280E-09
   10.26000     -1.9538358E-09
   10.32000     -2.0314939E-09
   10.38000     -2.1182667E-09
   10.44000     -2.2228097E-09
   10.50000     -2.3502964E-09
   10.56000     -2.5014677E-09
   10.62000     -2.6726292E-09
   10.68000     -2.8564793E-09
   10.74000     -3.0434839E-09
   10.80000     -3.2234264E-09
   10.86000     -3.3868037E-09
   10.92000     -3.5258352E-09
   10.98000     -3.6349979E-09
   11.04000     -3.7111247E-09
   11.10000     -3.7532035E-09
   11.16000     -3.7620427E-09
   11.22000     -3.7399657E-09
   11.28000     -3.6906511E-09
   11.34000     -3.6191372E-09
   11.40000     -3.5319314E-09
   11.46000     -3.4370664E-09
   11.52000     -3.3439063E-09
   11.58000     -3.2625345E-09
   11.64000     -3.2026881E-09
   11.70000     -3.1724021E-09
   11.76000     -3.1767253E-09
   11.82000     -3.2169716E-09
   11.88000     -3.2908873E-09
   11.94000     -3.3938461E-09
   12.00000     -3.5208092E-09
   12.06000     -3.6684460E-09
   12.12000     -3.8366763E-09
   12.18000     -4.0290304E-09
   12.24000     -4.2516017E-09
   12.30000     -4.5108370E-09
   12.36000     -4.8108149E-09
   12.42000     -5.1508198E-09
   12.48000     -5.5238938E-09
   12.54000     -5.9167422E-09
   12.60000     -6.3109247E-09
   12.66000     -6.6849357E-09
   12.72000     -7.0165833E-09
   12.78000     -7.2851374E-09
   12.84000     -7.4729112E-09
   12.90000     -7.5662570E-09
   12.96000     -7.5561770E-09
   13.02000     -7.4388504E-09
   13.08000     -7.2162565E-09
   13.14000     -6.8968369E-09
   13.20000     -6.4958861E-09
   13.26000     -6.0352305E-09
   13.32000     -5.5418723E-09
   13.38000     -5.0455786E-09
   13.44000     -4.5757496E-09
   13.50000     -4.1581578E-09
   13.56000     -3.8121963E-09
   13.62000     -3.5490721E-09
   13.68000     -3.3711069E-09
   13.74000     -3.2720655E-09
   13.80000     -3.2382956E-09
   13.86000     -3.2504757E-09
   13.92000     -3.2857794E-09
   13.98000     -3.3202492E-09
   14.04000     -3.3310907E-09
   14.10000     -3.2985421E-09
   14.16000     -3.2070266E-09
   14.22000     -3.0454845E-09
   14.28000     -2.8070748E-09
   14.34000     -2.4886404E-09
   14.40000     -2.0903785E-09
   14.46000     -1.6159625E-09
   14.52000     -1.0730489E-09
   14.58000     -4.7379156E-10
   14.64000      1.6513739E-10
   14.70000      8.2343354E-10
   14.76000      1.4790688E-09
   14.82000      2.1109769E-09
   14.88000      2.7019564E-09
   14.94000      3.2410525E-09
   15.00000      3.7247256E-09
   15.06000      4.1563455E-09
   15.12000      4.5439452E-09
   15.18000      4.8966609E-09
   15.24000      5.2206941E-09
   15.30000      5.5158962E-09
   15.36000      5.7739893E-09
   15.42000      5.9790675E-09
   15.48000      6.1104202E-09
   15.54000      6.1470642E-09
   15.60000      6.0728924E-09
   15.66000      5.8811711E-09
   15.72000      5.5773026E-09
   15.78000      5.1792299E-09
   15.84000      4.7154294E-09
   15.90000      4.2209694E-09
   15.96000      3.7324681E-09
   16.02000      3.2828638E-09
   16.08000      2.8968110E-09
   16.14000      2.5872335E-09
   16.20000      2.3532749E-09
   16.26000      2.1796613E-09
   16.32000      2.0373683E-09
   16.38000      1.8854664E-09
   16.44000      1.6740164E-09
   16.50000      1.3478362E-09
   16.56000      8.5086782E-10
   16.62000      1.3074536E-10
   16.68000     -8.5688945E-10
   16.74000     -2.1447264E-09
   16.80000     -3.7510395E-09
   16.86000     -5.6779514E-09
   16.92000     -7.9107130E-09
   16.98000     -1.0418013E-08
   17.04000     -1.3153368E-08
   17.10000     -1.6057676E-08
   17.16000     -1.9062867E-08
   17.22000     -2.2096367E-08
   17.28000     -2.5085885E-08
   17.34000     -2.7963845E-08
   17.40000     -3.0670925E-08
   17.46000     -3.3158425E-08
   17.52000     -3.5389416E-08
   17.58000     -3.7339014E-08
   17.64000     -3.8994084E-08
   17.70000     -4.0352663E-08
   17.76000     -4.1423164E-08
   17.82000     -4.2223306E-08
   17.88000     -4.2778620E-08
   17.94000     -4.3120362E-08
   18.00000     -4.3282952E-08
   18.06000     -4.3301089E-08
   18.12000     -4.3206974E-08
   18.18000     -4.3028031E-08
   18.24000     -4.2785338E-08
   18.30000     -4.2492942E-08
   18.36000     -4.2157726E-08
   18.42000     -4.1779703E-08
   18.48000     -4.1352337E-08
   18.54000     -4.0862925E-08
   18.60000     -4.0293237E-08
   18.66000     -3.9620673E-08
   18.72000     -3.8820374E-08
   18.78000     -3.7868212E-08
   18.84000     -3.6744424E-08
   18.90000     -3.5437278E-08
   18.96000     -3.3945977E-08
   19.02000     -3.2282117E-08
   19.08000     -3.0469252E-08
   19.14000     -2.8540661E-08
   19.20000     -2.6535583E-08
   19.26000     -2.4494881E-08
   19.32000     -2.2456936E-08
   19.38000     -2.0454662E-08
   19.44000     -1.8514136E-08
   19.50000     -1.6654861E-08
   19.56000     -1.4891178E-08
   19.62000     -1.3234066E-08
   19.68000     -1.1692516E-08
   19.74000     -1.0273905E-08
   19.80000     -8.9832728E-09
   19.86000     -7.8217823E-09
   19.92000     -6.7850205E-09
   19.98000     -5.8618834E-09
   20.04000     -5.0346567E-09
   20.10000     -4.2805985E-09
   20.16000     -3.5748928E-09
   20.22000     -2.8943861E-09
   20.28000     -2.2211948E-09
   20.34000     -1.5451873E-09
   20.40000     -8.6457996E-10
   20.46000     -1.8443047E-10
   20.52000      4.8652499E-10
   20.58000      1.1396921E-09
   20.64000      1.7698850E-09
   20.70000      2.3770477E-09
   20.76000      2.9660134E-09
   20.82000      3.5445735E-09
   20.88000      4.1206709E-09
   20.94000      4.6997624E-09
   21.00000      5.2832156E-09
   21.06000      5.8681966E-09
   21.12000      6.4489383E-09
   21.18000      7.0188242E-09
   21.24000      7.5724493E-09
   21.30000      8.1068485E-09
   21.36000      8.6213721E-09
   21.42000      9.1161887E-09
   21.48000      9.5899182E-09
   21.54000      1.0037287E-08
   21.60000      1.0447794E-08
   21.66000      1.0806072E-08
   21.72000      1.1094132E-08
   21.78000      1.1294981E-08
   21.84000      1.1396612E-08
   21.90000      1.1395204E-08
   21.96000      1.1296545E-08
   22.02000      1.1115222E-08
   22.08000      1.0871805E-08
   22.14000      1.0588827E-08
   22.20000      1.0286676E-08
   22.26000      9.9804387E-09
   22.32000      9.6783443E-09
   22.38000      9.3818748E-09
   22.44000      9.0870644E-09
   22.50000      8.7862615E-09
   22.56000      8.4697103E-09
   22.62000      8.1265643E-09
   22.68000      7.7453999E-09
   22.74000      7.3144553E-09
   22.80000      6.8219022E-09
   22.86000      6.2562826E-09
   22.92000      5.6071152E-09
   22.98000      4.8656279E-09
   23.04000      4.0256518E-09
   23.10000      3.0847760E-09
   23.16000      2.0457793E-09
   23.22000      9.1809399E-10
   23.28000     -2.8130187E-10
   23.34000     -1.5283447E-09
   23.40000     -2.7943019E-09
   23.46000     -4.0501491E-09
   23.52000     -5.2720792E-09
   23.58000     -6.4466077E-09
   23.64000     -7.5735054E-09
   23.70000     -8.6652516E-09
   23.76000     -9.7427364E-09
   23.82000     -1.0828255E-08
   23.88000     -1.1937889E-08
   23.94000     -1.3075770E-08
   24.00000     -1.4232229E-08
   24.06000     -1.5386593E-08
   24.12000     -1.6513804E-08
   24.18000     -1.7592605E-08
   24.24000     -1.8612543E-08
   24.30000     -1.9577200E-08
   24.36000     -2.0502554E-08
   24.42000     -2.1410901E-08
   24.48000     -2.2322487E-08
   24.54000     -2.3247772E-08
   24.60000     -2.4183102E-08
   24.66000     -2.5111461E-08
   24.72000     -2.6008264E-08
   24.78000     -2.6850316E-08
   24.84000     -2.7624957E-08
   24.90000     -2.8336069E-08
   24.96000     -2.9004461E-08
   25.02000     -2.9661917E-08
   25.08000     -3.0340271E-08
   25.14000     -3.1058732E-08
   25.20000     -3.1813645E-08
   25.26000     -3.2574341E-08
   25.32000     -3.3287090E-08
   25.38000     -3.3886483E-08
   25.44000     -3.4311078E-08
   25.50000     -3.4518585E-08
   25.56000     -3.4495905E-08
   25.62000     -3.4260815E-08
   25.68000     -3.3855034E-08
   25.74000     -3.3331016E-08
   25.80000     -3.2736832E-08
   25.86000     -3.2103930E-08
   25.92000     -3.1441267E-08
   25.98000     -3.0737077E-08
   26.04000     -2.9966859E-08
   26.10000     -2.9104523E-08
   26.16000     -2.8132687E-08
   26.22000     -2.7049049E-08
   26.28000     -2.5867127E-08
   26.34000     -2.4611817E-08
   26.40000     -2.3311665E-08
   26.46000     -2.1990781E-08
   26.52000     -2.0663062E-08
   26.58000     -1.9330635E-08
   26.64000     -1.7986929E-08
   26.70000     -1.6623282E-08
   26.76000     -1.5236902E-08
   26.82000     -1.3837385E-08
   26.88000     -1.2449458E-08
   26.94000     -1.1110538E-08
   27.00000     -9.8634469E-09
   27.06000     -8.7461576E-09
   27.12000     -7.7816642E-09
   27.18000     -6.9713111E-09
   27.24000     -6.2941186E-09
   27.30000     -5.7128946E-09
   27.36000     -5.1857652E-09
   27.42000     -4.6798676E-09
   27.48000     -4.1830215E-09
   27.54000     -3.7095851E-09
   27.60000     -3.2983853E-09
   27.66000     -3.0030716E-09
   27.72000     -2.8776861E-09
   27.78000     -2.9618186E-09
   27.84000     -3.2699281E-09
   27.90000     -3.7881551E-09
   27.96000     -4.4796353E-09
   28.02000     -5.2967093E-09
   28.08000     -6.1962666E-09
   28.14000     -7.1534370E-09
   28.20000     -8.1692200E-09
   28.26000     -9.2693879E-09
   28.32000     -1.0494606E-08
   28.38000     -1.1884591E-08
   28.44000     -1.3461245E-08
   28.50000     -1.5216488E-08
   28.56000     -1.7109350E-08
   28.62000     -1.9074086E-08
   28.68000     -2.1037250E-08
   28.74000     -2.2938405E-08
   28.80000     -2.4747390E-08
   28.86000     -2.6471882E-08
   28.92000     -2.8152238E-08
   28.98000     -2.9844962E-08
   29.04000     -3.1600447E-08
   29.10000     -3.3442674E-08
   29.16000     -3.5358159E-08
   29.22000     -3.7298094E-08
   29.28000     -3.9193125E-08
   29.34000     -4.0975621E-08
   29.40000     -4.2601631E-08
   29.46000     -4.4064731E-08
   29.52000     -4.5396600E-08
   29.58000     -4.6653746E-08
   29.64000     -4.7894595E-08
   29.70000     -4.9154661E-08
   29.76000     -5.0428493E-08
   29.82000     -5.1664962E-08
   29.88000     -5.2778162E-08
   29.94000     -5.3670746E-08
   30.00000     -5.4262195E-08
   30.06000     -5.4512601E-08
   30.12000     -5.4433773E-08
   30.18000     -5.4083692E-08
   30.24000     -5.3545790E-08
   30.30000     -5.2899651E-08
   30.36000     -5.2192789E-08
   30.42000     -5.1422923E-08
   30.48000     -5.0537039E-08
   30.54000     -4.9448101E-08
   30.60000     -4.8064642E-08
   30.66000     -4.6324075E-08
   30.72000     -4.4219028E-08
   30.78000     -4.1808207E-08
   30.84000     -3.9207745E-08
   30.90000     -3.6565527E-08
   30.96000     -3.4026208E-08
   31.02000     -3.1697706E-08
   31.08000     -2.9629327E-08
   31.14000     -2.7807813E-08
   31.20000     -2.6171877E-08
   31.26000     -2.4640039E-08
   31.32000     -2.3142753E-08
   31.38000     -2.1648939E-08
   31.44000     -2.0179229E-08
   31.50000     -1.8802586E-08
   31.56000     -1.7618092E-08
   31.62000     -1.6728089E-08
   31.68000     -1.6211224E-08
   31.74000     -1.6103600E-08
   31.80000     -1.6393468E-08
   31.86000     -1.7030327E-08
   31.92000     -1.7944611E-08
   31.98000     -1.9070734E-08
   32.04000     -2.0365448E-08
   32.10000     -2.1815438E-08
   32.16000     -2.3432159E-08
   32.22000     -2.5236689E-08
   32.28000     -2.7240860E-08
   32.34000     -2.9432051E-08
   32.40000     -3.1767460E-08
   32.46000     -3.4180001E-08
   32.52000     -3.6593743E-08
   32.58000     -3.8943647E-08
   32.64000     -4.1192862E-08
   32.70000     -4.3342098E-08
   32.76000     -4.5428113E-08
   32.82000     -4.7512110E-08
   32.88000     -4.9661789E-08
   32.94000     -5.1932656E-08
   33.00000     -5.4354004E-08
   33.06000     -5.6923334E-08
   33.12000     -5.9610016E-08
   33.18000     -6.2366162E-08
   33.24000     -6.5140576E-08
   33.30000     -6.7891015E-08
   33.36000     -7.0591028E-08
   33.42000     -7.3229749E-08
   33.48000     -7.5805580E-08
   33.54000     -7.8316717E-08
   33.60000     -8.0752343E-08
   33.66000     -8.3087777E-08
   33.72000     -8.5285293E-08
   33.78000     -8.7299902E-08
   33.84000     -8.9087827E-08
   33.90000     -9.0614300E-08
   33.96000     -9.1857743E-08
   34.02000     -9.2809060E-08
   34.08000     -9.3466625E-08
   34.14000     -9.3829328E-08
   34.20000     -9.3890542E-08
   34.26000     -9.3635435E-08
   34.32000     -9.3042431E-08
   34.38000     -9.2087959E-08
   34.44000     -9.0752749E-08
   34.50000     -8.9027324E-08
   34.56000     -8.6915399E-08
   34.62000     -8.4434731E-08
   34.68000     -8.1615646E-08
   34.74000     -7.8498182E-08
   34.80000     -7.5128511E-08
   34.86000     -7.1555142E-08
   34.92000     -6.7825475E-08
   34.98000     -6.3983165E-08
   35.04000     -6.0066824E-08
   35.10000     -5.6110196E-08
   35.16000     -5.2143779E-08
   35.22000     -4.8196849E-08
   35.28000     -4.4299000E-08
   35.34000     -4.0480291E-08
   35.40000     -3.6769809E-08
   35.46000     -3.3193349E-08
   35.52000     -2.9771250E-08
   35.58000     -2.6517442E-08
   35.64000     -2.3440062E-08
   35.70000     -2.0543252E-08
   35.76000     -1.7829198E-08
   35.82000     -1.5299394E-08
   35.88000     -1.2954674E-08
   35.94000     -1.0794211E-08
   36.00000     -8.8143652E-09
   36.06000     -7.0083357E-09
   36.12000     -5.3672480E-09
   36.18000     -3.8826151E-09
   36.24000     -2.5493949E-09
   36.30000     -1.3684490E-09
   36.36000     -3.4728168E-10
   36.42000      5.0153731E-10
   36.48000      1.1640439E-09
   36.54000      1.6296335E-09
   36.60000      1.8953794E-09
   36.66000      1.9683797E-09
   36.72000      1.8650892E-09
   36.78000      1.6074737E-09
   36.84000      1.2168350E-09
   36.90000      7.0702871E-10
   36.96000      7.9240427E-11
   37.02000     -6.7968076E-10
   37.08000     -1.5941553E-09
   37.14000     -2.6922473E-09
   37.20000     -3.9951966E-09
   37.26000     -5.5070775E-09
   37.32000     -7.2080231E-09
   37.38000     -9.0537586E-09
   37.44000     -1.0982421E-08
   37.50000     -1.2927213E-08
   37.56000     -1.4831249E-08
   37.62000     -1.6659895E-08
   37.68000     -1.8406402E-08
   37.74000     -2.0088873E-08
   37.80000     -2.1739543E-08
   37.86000     -2.3390108E-08
   37.92000     -2.5058114E-08
   37.98000     -2.6738942E-08
   38.04000     -2.8405715E-08
   38.10000     -3.0016650E-08
   38.16000     -3.1526792E-08
   38.22000     -3.2900051E-08
   38.28000     -3.4117679E-08
   38.34000     -3.5181060E-08
   38.40000     -3.6108620E-08
   38.46000     -3.6928494E-08
   38.52000     -3.7669633E-08
   38.58000     -3.8353967E-08
   38.64000     -3.8991782E-08
   38.70000     -3.9581245E-08
   38.76000     -4.0111960E-08
   38.82000     -4.0571226E-08
   38.88000     -4.0950972E-08
   38.94000     -4.1253156E-08
   39.00000     -4.1491724E-08
   39.06000     -4.1690424E-08
   39.12000     -4.1877058E-08
   39.18000     -4.2076152E-08
   39.24000     -4.2302510E-08
   39.30000     -4.2557925E-08
   39.36000     -4.2832085E-08
   39.42000     -4.3107150E-08
   39.48000     -4.3364228E-08
   39.54000     -4.3589424E-08
   39.60000     -4.3777597E-08
   39.66000     -4.3932989E-08
   39.72000     -4.4067157E-08
   39.78000     -4.4195353E-08
   39.84000     -4.4332829E-08
   39.90000     -4.4492150E-08
   39.96000     -4.4681986E-08
   40.02000     -4.4907260E-08
   40.08000     -4.5170211E-08
   40.14000     -4.5471577E-08
   40.20000     -4.5811262E-08
   40.26000     -4.6187953E-08
   40.32000     -4.6597627E-08
   40.38000     -4.7031431E-08
   40.44000     -4.7473865E-08
   40.50000     -4.7902493E-08
   40.56000     -4.8289898E-08
   40.62000     -4.8608030E-08
   40.68000     -4.8833986E-08
   40.74000     -4.8955712E-08
   40.80000     -4.8975849E-08
   40.86000     -4.8912597E-08
   40.92000     -4.8797236E-08
   40.98000     -4.8668873E-08
   41.04000     -4.8567550E-08
   41.10000     -4.8527141E-08
   41.16000     -4.8569344E-08
   41.22000     -4.8699913E-08
   41.28000     -4.8907818E-08
   41.34000     -4.9167660E-08
   41.40000     -4.9444733E-08
   41.46000     -4.9701679E-08
   41.52000     -4.9905172E-08
   41.58000     -5.0031034E-08
   41.64000     -5.0066919E-08
   41.70000     -5.0012289E-08
   41.76000     -4.9876203E-08
   41.82000     -4.9673677E-08
   41.88000     -4.9421441E-08
   41.94000     -4.9133750E-08
   42.00000     -4.8818883E-08
   42.06000     -4.8477144E-08
   42.12000     -4.8101004E-08
   42.18000     -4.7677830E-08
   42.24000     -4.7194838E-08
   42.30000     -4.6644899E-08
   42.36000     -4.6031328E-08
   42.42000     -4.5369791E-08
   42.48000     -4.4686519E-08
   42.54000     -4.4013113E-08
   42.60000     -4.3379703E-08
   42.66000     -4.2808558E-08
   42.72000     -4.2310152E-08
   42.78000     -4.1882654E-08
   42.84000     -4.1514763E-08
   42.90000     -4.1190759E-08
   42.96000     -4.0896055E-08
   43.02000     -4.0621515E-08
   43.08000     -4.0365236E-08
   43.14000     -4.0131329E-08
   43.20000     -3.9926281E-08
   43.26000     -3.9754394E-08
   43.32000     -3.9614193E-08
   43.38000     -3.9497344E-08
   43.44000     -3.9390663E-08
   43.50000     -3.9280426E-08
   43.56000     -3.9157246E-08
   43.62000     -3.9019369E-08
   43.68000     -3.8872866E-08
   43.74000     -3.8728395E-08
   43.80000     -3.8595562E-08
   43.86000     -3.8476944E-08
   43.92000     -3.8364107E-08
   43.98000     -3.8237555E-08
   44.04000     -3.8071381E-08
   44.10000     -3.7841755E-08
   44.16000     -3.7537053E-08
   44.22000     -3.7166181E-08
   44.28000     -3.6761733E-08
   44.34000     -3.6375898E-08
   44.40000     -3.6069178E-08
   44.46000     -3.5894804E-08
   44.52000     -3.5883698E-08
   44.58000     -3.6035104E-08
   44.64000     -3.6316624E-08
   44.70000     -3.6674091E-08
   44.76000     -3.7048398E-08
   44.82000     -3.7393853E-08
   44.88000     -3.7692118E-08
   44.94000     -3.7957310E-08
   45.00000     -3.8230748E-08
   45.06000     -3.8567258E-08
   45.12000     -3.9017415E-08
   45.18000     -3.9611372E-08
   45.24000     -4.0349114E-08
   45.30000     -4.1200266E-08
   45.36000     -4.2113385E-08
   45.42000     -4.3031886E-08
   45.48000     -4.3911548E-08
   45.54000     -4.4733888E-08
   45.60000     -4.5510824E-08
   45.66000     -4.6278931E-08
   45.72000     -4.7085098E-08
   45.78000     -4.7968339E-08
   45.84000     -4.8943974E-08
   45.90000     -4.9995602E-08
   45.96000     -5.1077436E-08
   46.02000     -5.2126108E-08
   46.08000     -5.3077866E-08
   46.14000     -5.3885540E-08
   46.20000     -5.4530052E-08
   46.26000     -5.5023364E-08
   46.32000     -5.5402470E-08
   46.38000     -5.5716804E-08
   46.44000     -5.6012933E-08
   46.50000     -5.6321174E-08
   46.56000     -5.6647725E-08
   46.62000     -5.6974457E-08
   46.68000     -5.7266234E-08
   46.74000     -5.7483408E-08
   46.80000     -5.7595603E-08
   46.86000     -5.7592384E-08
   46.92000     -5.7487391E-08
   46.98000     -5.7314733E-08
   47.04000     -5.7119088E-08
   47.10000     -5.6943168E-08
   47.16000     -5.6816837E-08
   47.22000     -5.6751311E-08
   47.28000     -5.6739591E-08
   47.34000     -5.6762019E-08
   47.40000     -5.6794335E-08
   47.46000     -5.6815516E-08
   47.52000     -5.6813704E-08
   47.58000     -5.6789947E-08
   47.64000     -5.6760307E-08
   47.70000     -5.6757127E-08
   47.76000     -5.6829677E-08
   47.82000     -5.7043888E-08
   47.88000     -5.7480918E-08
   47.94000     -5.8234509E-08
   48.00000     -5.9407878E-08
   48.06000     -6.1111074E-08
   48.12000     -6.3459844E-08
   48.18000     -6.6576696E-08
   48.24000     -7.0594616E-08
   48.30000     -7.5663422E-08
   48.36000     -8.1958810E-08
   48.42000     -8.9693231E-08
   48.48000     -9.9127476E-08
   48.54000     -1.1058094E-07
   48.60000     -1.2443897E-07
   48.66000     -1.4115646E-07
   48.72000     -1.6125855E-07
   48.78000     -1.8534048E-07
   48.84000     -2.1406947E-07
   48.90000     -2.4819118E-07
   48.96000     -2.8854168E-07
   49.02000     -3.3606443E-07
   49.08000     -3.9183098E-07
   49.14000     -4.5706338E-07
   49.20000     -5.3315557E-07
   49.26000     -6.2169340E-07
   49.32000     -7.2447108E-07
   49.38000     -8.4350609E-07
   49.44000     -9.8105465E-07
   49.50000     -1.1396295E-06
   49.56000     -1.3220235E-06
   49.62000     -1.5313417E-06
   49.68000     -1.7710348E-06
   49.74000     -2.0449354E-06
   49.80000     -2.3572888E-06
   49.86000     -2.7127787E-06
   49.92000     -3.1165459E-06
   49.98000     -3.5742094E-06
   50.04000     -4.0918871E-06
   50.10000     -4.6762270E-06
   50.16000     -5.3344347E-06
   50.22000     -6.0743082E-06
   50.28000     -6.9042644E-06
   50.34000     -7.8333624E-06
   50.40000     -8.8713205E-06
   50.46000     -1.0028525E-05
   50.52000     -1.1316035E-05
   50.58000     -1.2745575E-05
   50.64000     -1.4329527E-05
   50.70000     -1.6080916E-05
   50.76000     -1.8013379E-05
   50.82000     -2.0141149E-05
   50.88000     -2.2479029E-05
   50.94000     -2.5042349E-05
   51.00000     -2.7846929E-05
   51.06000     -3.0909006E-05
   51.12000     -3.4245175E-05
   51.18000     -3.7872262E-05
   51.24000     -4.1807249E-05
   51.30000     -4.6067140E-05
   51.36000     -5.0668856E-05
   51.42000     -5.5629091E-05
   51.48000     -6.0964197E-05
   51.54000     -6.6690023E-05
   51.60000     -7.2821764E-05
   51.66000     -7.9373800E-05
   51.72000     -8.6359498E-05
   51.78000     -9.3791030E-05
   51.84000     -1.0167921E-04
   51.90000     -1.1003326E-04
   51.96000     -1.1886063E-04
   52.02000     -1.2816682E-04
   52.08000     -1.3795521E-04
   52.14000     -1.4822684E-04
   52.20000     -1.5898042E-04
   52.26000     -1.7021195E-04
   52.32000     -1.8191479E-04
   52.38000     -1.9407942E-04
   52.44000     -2.0669332E-04
   52.50000     -2.1974102E-04
   52.56000     -2.3320386E-04
   52.62000     -2.4706003E-04
   52.68000     -2.6128464E-04
   52.74000     -2.7584963E-04
   52.80000     -2.9072387E-04
   52.86000     -3.0587325E-04
   52.92000     -3.2126094E-04
   52.98000     -3.3684750E-04
   53.04000     -3.5259101E-04
   53.10000     -3.6844733E-04
   53.16000     -3.8437030E-04
   53.22000     -4.0031213E-04
   53.28000     -4.1622357E-04
   53.34000     -4.3205448E-04
   53.40000     -4.4775408E-04
   53.46000     -4.6327116E-04
   53.52000     -4.7855484E-04
   53.58000     -4.9355475E-04
   53.64000     -5.0822139E-04
   53.70000     -5.2250689E-04
   53.76000     -5.3636497E-04
   53.82000     -5.4975174E-04
   53.88000     -5.6262605E-04
   53.94000     -5.7494978E-04
   54.00000     -5.8668829E-04
   54.06000     -5.9781061E-04
   54.12000     -6.0829002E-04
   54.18000     -6.1810401E-04
   54.24000     -6.2723475E-04
   54.30000     -6.3566922E-04
   54.36000     -6.4339949E-04
   54.42000     -6.5042253E-04
   54.48000     -6.5674057E-04
   54.54000     -6.6236075E-04
   54.60000     -6.6729530E-04
   54.66000     -6.7156157E-04
   54.72000     -6.7518157E-04
   54.78000     -6.7818211E-04
   54.84000     -6.8059418E-04
   54.90000     -6.8245281E-04
   54.96000     -6.8379642E-04
   55.02000     -6.8466674E-04
   55.08000     -6.8510801E-04
   55.14000     -6.8516709E-04
   55.20000     -6.8489253E-04
   55.26000     -6.8433402E-04
   55.32000     -6.8354228E-04
   55.38000     -6.8256829E-04
   55.44000     -6.8146241E-04
   55.50000     -6.8027433E-04
   55.56000     -6.7905214E-04