  -2.400000      0.0000000E+00
  -2.340000      0.0000000E+00
  -2.280000      0.0000000E+00
  -2.220000      0.0000000E+00
  -2.160000      0.0000000E+00
  -2.100000      6.3661571E-20
  -2.040000      4.5044503E-19
  -1.980000      1.2783029E-18
  -1.920000      6.0055065E-19
  -1.860000     -8.7236626E-18
  -1.800000     -3.7815885E-17
  -1.740000     -8.6080524E-17
  -1.680000     -1.0854032E-16
  -1.620000      8.3041745E-18
  -1.560000      4.0398133E-16
  -1.500000      1.0853404E-15
  -1.440000      1.6952211E-15
  -1.380000      1.4070579E-15
  -1.320000     -7.6754346E-16
  -1.260000     -5.1254163E-15
  -1.200000     -1.0197050E-14
  -1.140000     -1.2315653E-14
  -1.080000     -6.8347758E-15
  -1.020000      8.7152304E-15
 -0.9600000      3.0767499E-14
 -0.9000000      4.7911077E-14
 -0.8400000      4.4075671E-14
 -0.7800000      7.5192309E-15
 -0.7200000     -5.7635185E-14
 -0.6600000     -1.2443288E-13
 -0.6000000     -1.4841915E-13
 -0.5400000     -8.8259397E-14
 -0.4800000      6.4588465E-14
 -0.4200000      2.6267758E-13
 -0.3600000      4.0440150E-13
 -0.3000000      3.7146645E-13
 -0.2400000      9.4421365E-14
 -0.1800000     -3.8225309E-13
 -0.1200000     -8.7554904E-13
 -5.9999999E-02 -1.1113901E-12
  0.0000000E+00 -8.4488341E-13
  5.9999999E-02 -1.1286638E-14
  0.1200000      1.1680823E-12
  0.1800000      2.2022289E-12
  0.2400000      2.5034720E-12
  0.3000000      1.6736955E-12
  0.3600000     -2.1859455E-13
  0.4200000     -2.5280420E-12
  0.4800000     -4.2031786E-12
  0.5400000     -4.2299280E-12
  0.6000000     -2.1844041E-12
  0.6600000      1.3773713E-12
  0.7200000      4.9517113E-12
  0.7800000      6.6376475E-12
  0.8400000      5.0420666E-12
  0.9000000      1.4183666E-13
  0.9600000     -6.3657660E-12
   1.020000     -1.1522954E-11
   1.080000     -1.2311620E-11
   1.140000     -7.1202532E-12
   1.200000      3.2191268E-12
   1.260000      1.5409982E-11
   1.320000      2.4834404E-11
   1.380000      2.7432865E-11
   1.440000      2.1471559E-11
   1.500000      8.3263127E-12
   1.560000     -8.1535993E-12
   1.620000     -2.3434069E-11
   1.680000     -3.4345696E-11
   1.740000     -4.0300849E-11
   1.800000     -4.2949401E-11
   1.860000     -4.4332798E-11
   1.920000     -4.4432066E-11
   1.980000     -3.9463374E-11
   2.040000     -2.2093688E-11
   2.100000      1.6028019E-11
   2.160000      8.0068292E-11
   2.220000      1.6761399E-10
   2.280000      2.6580926E-10
   2.340000      3.5128839E-10
   2.400000      3.9318956E-10
   2.460000      3.5844722E-10
   2.520000      2.1780618E-10
   2.580000     -4.9134606E-11
   2.640000     -4.5103796E-10
   2.700000     -9.8438957E-10
   2.760000     -1.6348775E-09
   2.820000     -2.3794176E-09
   2.880000     -3.1876908E-09
   2.940000     -4.0226329E-09
   3.000000     -4.8401847E-09
   3.060000     -5.5893468E-09
   3.120000     -6.2138281E-09
   3.180000     -6.6561947E-09
   3.240000     -6.8644379E-09
   3.300000     -6.7997679E-09
   3.360000     -6.4435977E-09
   3.420000     -5.8015659E-09
   3.480000     -4.9031996E-09
   3.540000     -3.7971630E-09
   3.600000     -2.5435081E-09
   3.660000     -1.2052948E-09
   3.720000      1.5803296E-10
   3.780000      1.4940660E-09
   3.840000      2.7577265E-09
   3.900000      3.9099546E-09
   3.960000      4.9169673E-09
   4.020000      5.7518639E-09
   4.080000      6.3989556E-09
   4.140000      6.8594845E-09
   4.200000      7.1561304E-09
   4.260000      7.3335693E-09
   4.320000      7.4535169E-09
   4.380000      7.5847506E-09
   4.440000      7.7907183E-09
   4.500000      8.1185396E-09
   4.560000      8.5929228E-09
   4.620000      9.2167891E-09
   4.680000      9.9779047E-09
   4.740000      1.0858628E-08
   4.800000      1.1844848E-08
   4.860000      1.2930884E-08
   4.920000      1.4119030E-08
   4.980000      1.5414770E-08
   5.040000      1.6820479E-08
   5.100000      1.8330754E-08
   5.160000      1.9931448E-08
   5.220000      2.1602549E-08
   5.280000      2.3323132E-08
   5.340000      2.5075741E-08
   5.400000      2.6847882E-08
   5.460000      2.8629923E-08
   5.520000      3.0410543E-08
   5.580000      3.2172242E-08
   5.640000      3.3889599E-08
   5.700000      3.5531908E-08
   5.760000      3.7069853E-08
   5.820000      3.8484028E-08
   5.880000      3.9772178E-08
   5.940000      4.0952226E-08
   6.000000      4.2059895E-08
   6.060000      4.3141686E-08
   6.120000      4.4245734E-08
   6.180000      4.5413724E-08
   6.240000      4.6676256E-08
   6.300000      4.8052385E-08
   6.360000      4.9552217E-08
   6.420000      5.1180361E-08
   6.480000      5.2938049E-08
   6.540000      5.4822777E-08
   6.600000      5.6825868E-08
   6.660000      5.8929345E-08
   6.720000      6.1103947E-08
   6.780000      6.3309500E-08
   6.840000      6.5497773E-08
   6.900000      6.7617052E-08
   6.960000      6.9617137E-08
   7.020000      7.1453293E-08
   7.080000      7.3088316E-08
   7.140000      7.4492185E-08
   7.200000      7.5639541E-08
   7.260000      7.6505678E-08
   7.320000      7.7062417E-08
   7.380000      7.7275367E-08
   7.440000      7.7103941E-08
   7.500000      7.6505103E-08
   7.560000      7.5440198E-08
   7.620000      7.3883648E-08
   7.680000      7.1830954E-08
   7.740000      6.9304150E-08
   7.800000      6.6353067E-08
   7.860000      6.3052035E-08
   7.920000      5.9492901E-08
   7.980000      5.5775555E-08
   8.040000      5.1997574E-08
   8.100000      4.8244562E-08
   8.160000      4.4582656E-08
   8.220000      4.1054314E-08
   8.280000      3.7678131E-08
   8.340000      3.4452427E-08
   8.400000      3.1361630E-08
   8.460000      2.8383722E-08
   8.520000      2.5497073E-08
   8.580000      2.2685628E-08
   8.640000      1.9942288E-08
   8.700000      1.7270860E-08
   8.760000      1.4686853E-08
   8.820000      1.2216743E-08
   8.880000      9.8948911E-09
   8.940000      7.7575493E-09
   9.000000      5.8346163E-09
   9.060000      4.1413286E-09
   9.120000      2.6729317E-09
   9.180000      1.4048652E-09
   9.240000      2.9902095E-10
   9.300000     -6.8585854E-10
   9.360000     -1.5833216E-09
   9.420000     -2.4116533E-09
   9.480000     -3.1718141E-09
   9.540000     -3.8506984E-09
   9.600000     -4.4276400E-09
   9.660000     -4.8814894E-09
   9.720000     -5.1962665E-09
   9.780000     -5.3646549E-09
   9.840000     -5.3895732E-09
   9.900000     -5.2843387E-09
   9.960000     -5.0716511E-09
   10.02000     -4.7813660E-09
   10.08000     -4.4471893E-09
   10.14000     -4.1029464E-09
   10.20000     -3.7794892E-09
   10.26000     -3.5031522E-09
   10.32000     -3.2958445E-09
   10.38000     -3.1758760E-09
   10.44000     -3.1580936E-09
   10.50000     -3.2523555E-09
   10.56000     -3.4605900E-09
   10.62000     -3.7739927E-09
   10.68000     -4.1724322E-09
   10.74000     -4.6274584E-09
   10.80000     -5.1086544E-09
   10.86000     -5.5913545E-09
   10.92000     -6.0628804E-09
   10.98000     -6.5249663E-09
   11.04000     -6.9917059E-09
   11.10000     -7.4842914E-09
   11.16000     -8.0250038E-09
   11.22000     -8.6327896E-09
   11.28000     -9.3214556E-09
   11.34000     -1.0099838E-08
   11.40000     -1.0972284E-08
   11.46000     -1.1937959E-08
   11.52000     -1.2988826E-08
   11.58000     -1.4107568E-08
   11.64000     -1.5267521E-08
   11.70000     -1.6435935E-08
   11.76000     -1.7580152E-08
   11.82000     -1.8674307E-08
   11.88000     -1.9703435E-08
   11.94000     -2.0662840E-08
   12.00000     -2.1552790E-08
   12.06000     -2.2371278E-08
   12.12000     -2.3108688E-08
   12.18000     -2.3747386E-08
   12.24000     -2.4266745E-08
   12.30000     -2.4651170E-08
   12.36000     -2.4897089E-08
   12.42000     -2.5015479E-08
   12.48000     -2.5028907E-08
   12.54000     -2.4965095E-08
   12.60000     -2.4850733E-08
   12.66000     -2.4708797E-08
   12.72000     -2.4560288E-08
   12.78000     -2.4428278E-08
   12.84000     -2.4340418E-08
   12.90000     -2.4326672E-08
   12.96000     -2.4411600E-08
   13.02000     -2.4604008E-08
   13.08000     -2.4888868E-08
   13.14000     -2.5226145E-08
   13.20000     -2.5558384E-08
   13.26000     -2.5824818E-08
   13.32000     -2.5976769E-08
   13.38000     -2.5988315E-08
   13.44000     -2.5858384E-08
   13.50000     -2.5604326E-08
   13.56000     -2.5250735E-08
   13.62000     -2.4818958E-08
   13.68000     -2.4321743E-08
   13.74000     -2.3764374E-08
   13.80000     -2.3150177E-08
   13.86000     -2.2486335E-08
   13.92000     -2.1786231E-08
   13.98000     -2.1066972E-08
   14.04000     -2.0343585E-08
   14.10000     -1.9623293E-08
   14.16000     -1.8903103E-08
   14.22000     -1.8171992E-08
   14.28000     -1.7416482E-08
   14.34000     -1.6626704E-08
   14.40000     -1.5800023E-08
   14.46000     -1.4941008E-08
   14.52000     -1.4058460E-08
   14.58000     -1.3161706E-08
   14.64000     -1.2258199E-08
   14.70000     -1.1353224E-08
   14.76000     -1.0450986E-08
   14.82000     -9.5555954E-09
   14.88000     -8.6710354E-09
   14.94000     -7.8003541E-09
   15.00000     -6.9454065E-09
   15.06000     -6.1082530E-09
   15.12000     -5.2940470E-09
   15.18000     -4.5136290E-09
   15.24000     -3.7834429E-09
   15.30000     -3.1214897E-09
   15.36000     -2.5404785E-09
   15.42000     -2.0416298E-09
   15.48000     -1.6130680E-09
   15.54000     -1.2347110E-09
   15.60000     -8.8789825E-10
   15.66000     -5.6481214E-10
   15.72000     -2.7216904E-10
   15.78000     -2.6442145E-11
   15.84000      1.5732383E-10
   15.90000      2.7700184E-10
   15.96000      3.4834827E-10
   16.02000      3.9995959E-10
   16.08000      4.6044016E-10
   16.14000      5.4473082E-10
   16.20000      6.4741207E-10
   16.26000      7.4703704E-10
   16.32000      8.1925056E-10
   16.38000      8.5125668E-10
   16.44000      8.4928942E-10
   16.50000      8.3473051E-10
   16.56000      8.3116208E-10
   16.62000      8.5002139E-10
   16.68000      8.8344926E-10
   16.74000      9.0878077E-10
   16.80000      9.0231672E-10
   16.86000      8.5449503E-10
   16.92000      7.7757401E-10
   16.98000      7.0103534E-10
   17.04000      6.5682154E-10
   17.10000      6.6229749E-10
   17.16000      7.1027395E-10
   17.22000      7.7174184E-10
   17.28000      8.1020662E-10
   17.34000      8.0036600E-10
   17.40000      7.4159651E-10
   17.46000      6.5942318E-10
   17.52000      5.9430494E-10
   17.58000      5.8337302E-10
   17.64000      6.4402372E-10
   17.70000      7.6696666E-10
   17.76000      9.2136937E-10
   17.82000      1.0688219E-09
   17.88000      1.1789703E-09
   17.94000      1.2396065E-09
   18.00000      1.2574741E-09
   18.06000      1.2509810E-09
   18.12000      1.2398182E-09
   18.18000      1.2373257E-09
   18.24000      1.2492177E-09
   18.30000      1.2784440E-09
   18.36000      1.3326618E-09
   18.42000      1.4296713E-09
   18.48000      1.5975682E-09
   18.54000      1.8692834E-09
   18.60000      2.2739872E-09
   18.66000      2.8291232E-09
   18.72000      3.5362127E-09
   18.78000      4.3815898E-09
   18.84000      5.3410267E-09
   18.90000      6.3858310E-09
   18.96000      7.4878903E-09
   19.02000      8.6220808E-09
   19.08000      9.7659063E-09
   19.14000      1.0897400E-08
   19.20000      1.1993030E-08
   19.26000      1.3027174E-08
   19.32000      1.3974129E-08
   19.38000      1.4812580E-08
   19.44000      1.5531501E-08
   19.50000      1.6135701E-08
   19.56000      1.6649066E-08
   19.62000      1.7113917E-08
   19.68000      1.7585862E-08
   19.74000      1.8124744E-08
   19.80000      1.8783441E-08
   19.86000      1.9596987E-08
   19.92000      2.0574642E-08
   19.98000      2.1696858E-08
   20.04000      2.2917929E-08
   20.10000      2.4173548E-08
   20.16000      2.5391200E-08
   20.22000      2.6500510E-08
   20.28000      2.7440953E-08
   20.34000      2.8165530E-08
   20.40000      2.8640777E-08
   20.46000      2.8844912E-08
   20.52000      2.8766515E-08
   20.58000      2.8405253E-08
   20.64000      2.7774410E-08
   20.70000      2.6903257E-08
   20.76000      2.5836643E-08
   20.82000      2.4630193E-08
   20.88000      2.3341791E-08
   20.94000      2.2022377E-08
   21.00000      2.0710081E-08
   21.06000      1.9430557E-08
   21.12000      1.8203480E-08
   21.18000      1.7051898E-08
   21.24000      1.6009295E-08
   21.30000      1.5120062E-08
   21.36000      1.4432122E-08
   21.42000      1.3984351E-08
   21.48000      1.3794021E-08
   21.54000      1.3849457E-08
   21.60000      1.4110452E-08
   21.66000      1.4515196E-08
   21.72000      1.4989729E-08
   21.78000      1.5455621E-08
   21.84000      1.5833779E-08
   21.90000      1.6045488E-08
   21.96000      1.6014132E-08
   22.02000      1.5670864E-08
   22.08000      1.4965066E-08
   22.14000      1.3877015E-08
   22.20000      1.2427800E-08
   22.26000      1.0681704E-08
   22.32000      8.7389296E-09
   22.38000      6.7202959E-09
   22.44000      4.7486521E-09
   22.50000      2.9325242E-09
   22.56000      1.3559925E-09
   22.62000      7.5803731E-11
   22.68000     -8.7605884E-10
   22.74000     -1.4874785E-09
   22.80000     -1.7616953E-09
   22.86000     -1.7143286E-09
   22.92000     -1.3714513E-09
   22.98000     -7.6742257E-10
   23.04000      5.8495903E-11
   23.10000      1.0667039E-09
   23.16000      2.2219082E-09
   23.22000      3.4963117E-09
   23.28000      4.8700972E-09
   23.34000      6.3288805E-09
   23.40000      7.8588380E-09
   23.46000      9.4410124E-09
   23.52000      1.1046589E-08
   23.58000      1.2634744E-08
   23.64000      1.4153965E-08
   23.70000      1.5546901E-08
   23.76000      1.6757749E-08
   23.82000      1.7740433E-08
   23.88000      1.8465411E-08
   23.94000      1.8923204E-08
   24.00000      1.9123691E-08
   24.06000      1.9091431E-08
   24.12000      1.8858602E-08
   24.18000      1.8457708E-08
   24.24000      1.7916086E-08
   24.30000      1.7253173E-08
   24.36000      1.6480431E-08
   24.42000      1.5602829E-08
   24.48000      1.4620779E-08
   24.54000      1.3531909E-08
   24.60000      1.2332853E-08
   24.66000      1.1021672E-08
   24.72000      9.6012309E-09
   24.78000      8.0831226E-09
   24.84000      6.4909349E-09
   24.90000      4.8614530E-09
   24.96000      3.2429068E-09
   25.02000      1.6903617E-09
   25.08000      2.5935537E-10
   25.14000     -1.0006972E-09
   25.20000     -2.0519506E-09
   25.26000     -2.8715754E-09
   25.32000     -3.4528542E-09
   25.38000     -3.8038790E-09
   25.44000     -3.9440353E-09
   25.50000     -3.8988039E-09
   25.56000     -3.6939891E-09
   25.62000     -3.3509695E-09
   25.68000     -2.8844944E-09
   25.74000     -2.3036988E-09
   25.80000     -1.6155484E-09
   25.86000     -8.2869872E-10
   25.92000      4.4517924E-11
   25.98000      9.8918229E-10
   26.04000      1.9912656E-09
   26.10000      3.0411746E-09
   26.16000      4.1347339E-09
   26.22000      5.2703006E-09
   26.28000      6.4429835E-09
   26.34000      7.6388682E-09
   26.40000      8.8325631E-09
   26.46000      9.9899422E-09
   26.52000      1.1075436E-08
   26.58000      1.2060946E-08
   26.64000      1.2932598E-08
   26.70000      1.3692571E-08
   26.76000      1.4355482E-08
   26.82000      1.4941229E-08
   26.88000      1.5467460E-08
   26.94000      1.5944778E-08
   27.00000      1.6376188E-08
   27.06000      1.6760426E-08
   27.12000      1.7097111E-08
   27.18000      1.7391148E-08
   27.24000      1.7654388E-08
   27.30000      1.7904000E-08
   27.36000      1.8158511E-08
   27.42000      1.8433555E-08
   27.48000      1.8739298E-08
   27.54000      1.9080550E-08
   27.60000      1.9459081E-08
   27.66000      1.9876403E-08
   27.72000      2.0334985E-08
   27.78000      2.0836728E-08
   27.84000      2.1378979E-08
   27.90000      2.1949985E-08
   27.96000      2.2526196E-08
   28.02000      2.3073282E-08
   28.08000      2.3551186E-08
   28.14000      2.3921892E-08
   28.20000      2.4157440E-08
   28.26000      2.4245910E-08
   28.32000      2.4193884E-08
   28.38000      2.4025335E-08
   28.44000      2.3777813E-08
   28.50000      2.3497176E-08
   28.56000      2.3231770E-08
   28.62000      2.3026546E-08
   28.68000      2.2917286E-08
   28.74000      2.2925377E-08
   28.80000      2.3053939E-08
   28.86000      2.3286530E-08
   28.92000      2.3589342E-08
   28.98000      2.3916970E-08
   29.04000      2.4220675E-08
   29.10000      2.4457188E-08
   29.16000      2.4595870E-08
   29.22000      2.4622777E-08
   29.28000      2.4541311E-08
   29.34000      2.4370069E-08
   29.40000      2.4138789E-08
   29.46000      2.3882993E-08
   29.52000      2.3637366E-08
   29.58000      2.3428035E-08
   29.64000      2.3264823E-08
   29.70000      2.3135755E-08
   29.76000      2.3006848E-08
   29.82000      2.2829145E-08
   29.88000      2.2552317E-08
   29.94000      2.2140819E-08
   30.00000      2.1586274E-08
   30.06000      2.0910525E-08
   30.12000      2.0157286E-08
   30.18000      1.9375578E-08
   30.24000      1.8602227E-08
   30.30000      1.7851388E-08
   30.36000      1.7115690E-08
   30.42000      1.6377712E-08
   30.48000      1.5625247E-08
   30.54000      1.4862105E-08
   30.60000      1.4108878E-08
   30.66000      1.3393787E-08
   30.72000      1.2739203E-08
   30.78000      1.2151521E-08
   30.84000      1.1619740E-08
   30.90000      1.1122863E-08
   30.96000      1.0641112E-08
   31.02000      1.0164060E-08
   31.08000      9.6910986E-09
   31.14000      9.2246353E-09
   31.20000      8.7610417E-09
   31.26000      8.2856966E-09
   31.32000      7.7759337E-09
   31.38000      7.2107031E-09
   31.44000      6.5814878E-09
   31.50000      5.8980372E-09
   31.56000      5.1853020E-09
   31.62000      4.4729438E-09
   31.68000      3.7829135E-09
   31.74000      3.1215039E-09
   31.80000      2.4795068E-09
   31.86000      1.8394424E-09
   31.92000      1.1850108E-09
   31.98000      5.0717430E-10
   32.04000     -1.9611446E-10
   32.10000     -9.2531932E-10
   32.16000     -1.6853786E-09
   32.22000     -2.4876010E-09
   32.28000     -3.3452390E-09
   32.34000     -4.2645882E-09
   32.40000     -5.2363260E-09
   32.46000     -6.2318786E-09
   32.52000     -7.2068951E-09
   32.58000     -8.1101525E-09
   32.64000     -8.8936138E-09
   32.70000     -9.5193871E-09
   32.76000     -9.9617150E-09
   32.82000     -1.0205263E-08
   32.88000     -1.0242719E-08
   32.94000     -1.0074191E-08
   33.00000     -9.7086117E-09
   33.06000     -9.1650563E-09
   33.12000     -8.4714271E-09
   33.18000     -7.6596516E-09
   33.24000     -6.7594015E-09
   33.30000     -5.7941221E-09
   33.36000     -4.7824877E-09
   33.42000     -3.7451855E-09
   33.48000     -2.7131419E-09
   33.54000     -1.7313697E-09
   33.60000     -8.5407031E-10
   33.66000     -1.3106512E-10
   33.72000      4.0937984E-10
   33.78000      7.7355200E-10
   33.84000      1.0046458E-09
   33.90000      1.1727247E-09
   33.96000      1.3562629E-09
   34.02000      1.6229090E-09
   34.08000      2.0169173E-09
   34.14000      2.5570046E-09
   34.20000      3.2433107E-09
   34.26000      4.0683550E-09
   34.32000      5.0260485E-09
   34.38000      6.1149206E-09
   34.44000      7.3352364E-09
   34.50000      8.6826351E-09
   34.56000      1.0141980E-08
   34.62000      1.1684238E-08
   34.68000      1.3267205E-08
   34.74000      1.4839149E-08
   34.80000      1.6343639E-08
   34.86000      1.7724281E-08
   34.92000      1.8928988E-08
   34.98000      1.9914198E-08
   35.04000      2.0649344E-08
   35.10000      2.1121100E-08
   35.16000      2.1335945E-08
   35.22000      2.1319128E-08
   35.28000      2.1108985E-08
   35.34000      2.0747343E-08
   35.40000      2.0268894E-08
   35.46000      1.9693562E-08
   35.52000      1.9025279E-08
   35.58000      1.8258079E-08
   35.64000      1.7387178E-08
   35.70000      1.6420252E-08
   35.76000      1.5383950E-08
   35.82000      1.4322761E-08
   35.88000      1.3290888E-08
   35.94000      1.2340854E-08
   36.00000      1.1513505E-08
   36.06000      1.0832811E-08
   36.12000      1.0306112E-08
   36.18000      9.9280149E-09
   36.24000      9.6852562E-09
   36.30000      9.5606527E-09
   36.36000      9.5358965E-09
   36.42000      9.5939674E-09
   36.48000      9.7217132E-09
   36.54000      9.9119282E-09
   36.60000      1.0163268E-08
   36.66000      1.0476655E-08
   36.72000      1.0848636E-08
   36.78000      1.1264479E-08
   36.84000      1.1694961E-08
   36.90000      1.2099747E-08
   36.96000      1.2437078E-08
   37.02000      1.2675843E-08
   37.08000      1.2804136E-08
   37.14000      1.2829577E-08
   37.20000      1.2770701E-08
   37.26000      1.2643625E-08
   37.32000      1.2451109E-08
   37.38000      1.2180342E-08
   37.44000      1.1811325E-08
   37.50000      1.1331982E-08
   37.56000      1.0752149E-08
   37.62000      1.0108788E-08
   37.68000      9.4590904E-09
   37.74000      8.8642089E-09
   37.80000      8.3710532E-09
   37.86000      8.0002263E-09
   37.92000      7.7447853E-09
   37.98000      7.5790103E-09
   38.04000      7.4719892E-09
   38.10000      7.3996280E-09
   38.16000      7.3509114E-09
   38.22000      7.3280653E-09
   38.28000      7.3431501E-09
   38.34000      7.4141768E-09
   38.40000      7.5622486E-09
   38.46000      7.8091453E-09
   38.52000      8.1739033E-09
   38.58000      8.6679144E-09
   38.64000      9.2900097E-09
   38.70000      1.0024197E-08
   38.76000      1.0842099E-08
   38.82000      1.1709789E-08
   38.88000      1.2596144E-08
   38.94000      1.3478708E-08
   39.00000      1.4344353E-08
   39.06000      1.5184979E-08
   39.12000      1.5991430E-08
   39.18000      1.6749958E-08
   39.24000      1.7444048E-08
   39.30000      1.8061337E-08
   39.36000      1.8602149E-08
   39.42000      1.9085039E-08
   39.48000      1.9545885E-08
   39.54000      2.0030159E-08
   39.60000      2.0581099E-08
   39.66000      2.1228143E-08
   39.72000      2.1979540E-08
   39.78000      2.2820895E-08
   39.84000      2.3719066E-08
   39.90000      2.4629040E-08
   39.96000      2.5501295E-08
   40.02000      2.6287776E-08
   40.08000      2.6945704E-08
   40.14000      2.7439201E-08
   40.20000      2.7738949E-08
   40.26000      2.7820315E-08
   40.32000      2.7660500E-08
   40.38000      2.7235874E-08
   40.44000      2.6520715E-08
   40.50000      2.5488376E-08
   40.56000      2.4114962E-08
   40.62000      2.2384391E-08
   40.68000      2.0292985E-08
   40.74000      1.7851786E-08
   40.80000      1.5085826E-08
   40.86000      1.2030811E-08
   40.92000      8.7286134E-09
   40.98000      5.2230233E-09
   41.04000      1.5566834E-09
   41.10000     -2.2306210E-09
   41.16000     -6.1025354E-09
   41.22000     -1.0025762E-08
   41.28000     -1.3968832E-08
   41.34000     -1.7900241E-08
   41.40000     -2.1786725E-08
   41.46000     -2.5592906E-08
   41.52000     -2.9283347E-08
   41.58000     -3.2826968E-08
   41.64000     -3.6202110E-08
   41.70000     -3.9399470E-08
   41.76000     -4.2420439E-08
   41.82000     -4.5270475E-08
   41.88000     -4.7949939E-08
   41.94000     -5.0446840E-08
   42.00000     -5.2735643E-08
   42.06000     -5.4783751E-08
   42.12000     -5.6563195E-08
   42.18000     -5.8062263E-08
   42.24000     -5.9291313E-08
   42.30000     -6.0279881E-08
   42.36000     -6.1066295E-08
   42.42000     -6.1685007E-08
   42.48000     -6.2157241E-08
   42.54000     -6.2489008E-08
   42.60000     -6.2676037E-08
   42.66000     -6.2711990E-08
   42.72000     -6.2595362E-08
   42.78000     -6.2331893E-08
   42.84000     -6.1932411E-08
   42.90000     -6.1408862E-08
   42.96000     -6.0771221E-08
   43.02000     -6.0026991E-08
   43.08000     -5.9182643E-08
   43.14000     -5.8245263E-08
   43.20000     -5.7222962E-08
   43.26000     -5.6124442E-08
   43.32000     -5.4959127E-08
   43.38000     -5.3739026E-08
   43.44000     -5.2481866E-08
   43.50000     -5.1213096E-08
   43.56000     -4.9964072E-08
   43.62000     -4.8765333E-08
   43.68000     -4.7637215E-08
   43.74000     -4.6582485E-08
   43.80000     -4.5585679E-08
   43.86000     -4.4621000E-08
   43.92000     -4.3666233E-08
   43.98000     -4.2716586E-08
   44.04000     -4.1792006E-08
   44.10000     -4.0934349E-08
   44.16000     -4.0195552E-08
   44.22000     -3.9622023E-08
   44.28000     -3.9241726E-08
   44.34000     -3.9058399E-08
   44.40000     -3.9053941E-08
   44.46000     -3.9196326E-08
   44.52000     -3.9449148E-08
   44.58000     -3.9779636E-08
   44.64000     -4.0163783E-08
   44.70000     -4.0588791E-08
   44.76000     -4.1053440E-08
   44.82000     -4.1566430E-08
   44.88000     -4.2142219E-08
   44.94000     -4.2794319E-08
   45.00000     -4.3527432E-08
   45.06000     -4.4331077E-08
   45.12000     -4.5177849E-08
   45.18000     -4.6027850E-08
   45.24000     -4.6838171E-08
   45.30000     -4.7573586E-08
   45.36000     -4.8213899E-08
   45.42000     -4.8754618E-08
   45.48000     -4.9201017E-08
   45.54000     -4.9558846E-08
   45.60000     -4.9826493E-08
   45.66000     -4.9992572E-08
   45.72000     -5.0039930E-08
   45.78000     -4.9953869E-08
   45.84000     -4.9730517E-08
   45.90000     -4.9381523E-08
   45.96000     -4.8933327E-08
   46.02000     -4.8421679E-08
   46.08000     -4.7883880E-08
   46.14000     -4.7351360E-08
   46.20000     -4.6844463E-08
   46.26000     -4.6370129E-08
   46.32000     -4.5922675E-08
   46.38000     -4.5487358E-08
   46.44000     -4.5046491E-08
   46.50000     -4.4587100E-08
   46.56000     -4.4108358E-08
   46.62000     -4.3626141E-08
   46.68000     -4.3172541E-08
   46.74000     -4.2789573E-08
   46.80000     -4.2518600E-08
   46.86000     -4.2388983E-08
   46.92000     -4.2410008E-08
   46.98000     -4.2568900E-08
   47.04000     -4.2835552E-08
   47.10000     -4.3171916E-08
   47.16000     -4.3542588E-08
   47.22000     -4.3922920E-08
   47.28000     -4.4302279E-08
   47.34000     -4.4681897E-08
   47.40000     -4.5068493E-08
   47.46000     -4.5466237E-08
   47.52000     -4.5869932E-08
   47.58000     -4.6261864E-08
   47.64000     -4.6613508E-08
   47.70000     -4.6891362E-08
   47.76000     -4.7064610E-08
   47.82000     -4.7111318E-08
   47.88000     -4.7020549E-08
   47.94000     -4.6789463E-08
   48.00000     -4.6416904E-08
   48.06000     -4.5896531E-08
   48.12000     -4.5212474E-08
   48.18000     -4.4338961E-08
   48.24000     -4.3243030E-08
   48.30000     -4.1887859E-08
   48.36000     -4.0234259E-08
   48.42000     -3.8239424E-08
   48.48000     -3.5853656E-08
   48.54000     -3.3016921E-08
   48.60000     -2.9656368E-08
   48.66000     -2.5684258E-08
   48.72000     -2.0994703E-08
   48.78000     -1.5457511E-08
   48.84000     -8.9090824E-09
   48.90000     -1.1422152E-09
   48.96000      8.1024529E-09
   49.02000      1.9141723E-08
   49.08000      3.2352638E-08
   49.14000      4.8175920E-08
   49.20000      6.7123807E-08
   49.26000      8.9794391E-08
   49.32000      1.1689159E-07
   49.38000      1.4924771E-07
   49.44000      1.8784493E-07
   49.50000      2.3383490E-07
   49.56000      2.8855789E-07
   49.62000      3.5356604E-07
   49.68000      4.3065396E-07
   49.74000      5.2189881E-07
   49.80000      6.2970753E-07
   49.86000      7.5686677E-07
   49.92000      9.0659336E-07
   49.98000      1.0825823E-06
   50.04000      1.2890575E-06
   50.10000      1.5308269E-06
   50.16000      1.8133504E-06
   50.22000      2.1428179E-06
   50.28000      2.5262423E-06
   50.34000      2.9715568E-06
   50.40000      3.4877207E-06
   50.46000      4.0848249E-06
   50.52000      4.7741978E-06
   50.58000      5.5685200E-06
   50.64000      6.4819387E-06
   50.70000      7.5302000E-06
   50.76000      8.7307872E-06
   50.82000      1.0103061E-05
   50.88000      1.1668421E-05
   50.94000      1.3450457E-05
   51.00000      1.5475100E-05
   51.06000      1.7770775E-05
   51.12000      2.0368552E-05
   51.18000      2.3302291E-05
   51.24000      2.6608766E-05
   51.30000      3.0327807E-05
   51.36000      3.4502402E-05
   51.42000      3.9178802E-05
   51.48000      4.4406628E-05
   51.54000      5.0238941E-05
   51.60000      5.6732286E-05
   51.66000      6.3946740E-05
   51.72000      7.1945949E-05
   51.78000      8.0797050E-05
   51.84000      9.0570618E-05
   51.90000      1.0134056E-04
   51.96000      1.1318389E-04
   52.02000      1.2618059E-04
   52.08000      1.4041329E-04
   52.14000      1.5596703E-04
   52.20000      1.7292889E-04
   52.26000      1.9138753E-04
   52.32000      2.1143284E-04
   52.38000      2.3315533E-04
   52.44000      2.5664555E-04
   52.50000      2.8199350E-04
   52.56000      3.0928798E-04
   52.62000      3.3861567E-04
   52.68000      3.7006047E-04
   52.74000      4.0370258E-04
   52.80000      4.3961775E-04
   52.86000      4.7787628E-04
   52.92000      5.1854231E-04
   52.98000      5.6167244E-04
   53.04000      6.0731528E-04
   53.10000      6.5551040E-04
   53.16000      7.0628722E-04
   53.22000      7.5966411E-04
   53.28000      8.1564754E-04
   53.34000      8.7423169E-04
   53.40000      9.3539705E-04
   53.46000      9.9911029E-04
   53.52000      1.0653234E-03
   53.58000      1.1339736E-03
   53.64000      1.2049826E-03
   53.70000      1.2782563E-03
   53.76000      1.3536850E-03
   53.82000      1.4311433E-03
   53.88000      1.5104902E-03
   53.94000      1.5915696E-03
   54.00000      1.6742107E-03
   54.06000      1.7582286E-03
   54.12000      1.8434256E-03
   54.18000      1.9295908E-03
   54.24000      2.0165029E-03
   54.30000      2.1039303E-03
   54.36000      2.1916337E-03
   54.42000      2.2793657E-03
   54.48000      2.3668744E-03
   54.54000      2.4539039E-03
   54.60000      2.5401963E-03
   54.66000      2.6254940E-03
   54.72000      2.7095415E-03
   54.78000      2.7920869E-03
   54.84000      2.8728840E-03
   54.90000      2.9516944E-03
   54.96000      3.0282887E-03
   55.02000      3.1024492E-03
   55.08000      3.1739715E-03
   55.14000      3.2426666E-03
   55.20000      3.3083607E-03
   55.26000      3.3708981E-03
   55.32000      3.4301407E-03
   55.38000      3.4859704E-03
   55.44000      3.5382898E-03
   55.50000      3.5870222E-03
   55.56000      3.6321131E-03