  -2.400000      0.0000000E+00
  -2.340000      0.0000000E+00
  -2.280000      0.0000000E+00
  -2.220000      0.0000000E+00
  -2.160000      0.0000000E+00
  -2.100000      0.0000000E+00
  -2.040000      0.0000000E+00
  -1.980000      0.0000000E+00
  -1.920000     -2.3738020E-25
  -1.860000     -3.6666937E-24
  -1.800000     -2.5848992E-23
  -1.740000     -1.0927397E-22
  -1.680000     -2.9213640E-22
  -1.620000     -4.0834818E-22
  -1.560000      3.4246620E-22
  -1.500000      3.6322720E-21
  -1.440000      1.0746265E-20
  -1.380000      1.8317771E-20
  -1.320000      1.2109002E-20
  -1.260000     -3.3801359E-20
  -1.200000     -1.3913473E-19
  -1.140000     -2.7288314E-19
  -1.080000     -3.0149004E-19
  -1.020000      7.9547552E-21
 -0.9600000      8.4672880E-19
 -0.9000000      2.0639097E-18
 -0.8400000      2.8545141E-18
 -0.7800000      1.7881385E-18
 -0.7200000     -2.4352067E-18
 -0.6600000     -9.4748411E-18
 -0.6000000     -1.5830417E-17
 -0.5400000     -1.4840566E-17
 -0.4800000      2.7684174E-19
 -0.4200000      3.0312278E-17
 -0.3600000      6.3692583E-17
 -0.3000000      7.5326944E-17
 -0.2400000      3.6081767E-17
 -0.1800000     -6.6527761E-17
 -0.1200000     -2.0477561E-16
 -5.9999999E-02 -3.0112574E-16
  0.0000000E+00 -2.5025837E-16
  5.9999999E-02  2.2118447E-17
  0.1200000      4.8306967E-16
  0.1800000      9.4357617E-16
  0.2400000      1.0894672E-15
  0.3000000      6.1891326E-16
  0.3600000     -5.4612328E-16
  0.4200000     -2.0767046E-15
  0.4800000     -3.2212447E-15
  0.5400000     -3.0586233E-15
  0.6000000     -9.9573265E-16
  0.6600000      2.6882158E-15
  0.7200000      6.5780430E-15
  0.7800000      8.4467396E-15
  0.8400000      6.2456444E-15
  0.9000000     -5.4864992E-16
  0.9600000     -9.9102652E-15
   1.020000     -1.7350210E-14
   1.080000     -1.7558393E-14
   1.140000     -7.2737311E-15
   1.200000      1.1849520E-14
   1.260000      3.2133313E-14
   1.320000      4.1933139E-14
   1.380000      3.0914348E-14
   1.440000     -3.3272238E-15
   1.500000     -5.0712838E-14
   1.560000     -8.9666894E-14
   1.620000     -9.5106343E-14
   1.680000     -5.1300171E-14
   1.740000      3.6118223E-14
   1.800000      1.3612473E-13
   1.860000      2.0110827E-13
   1.920000      1.8750890E-13
   1.980000      8.0252828E-14
   2.040000     -9.1535923E-14
   2.100000     -2.5863881E-13
   2.160000     -3.3858544E-13
   2.220000     -2.7614483E-13
   2.280000     -7.8418636E-14
   2.340000      1.7615213E-13
   2.400000      3.6586489E-13
   2.460000      3.8366017E-13
   2.520000      1.9914903E-13
   2.580000     -1.0912809E-13
   2.640000     -3.7601142E-13
   2.700000     -4.2626937E-13
   2.760000     -1.7447785E-13
   2.820000      3.0272369E-13
   2.880000      7.6899739E-13
   2.940000      9.2146419E-13
   3.000000      5.4453924E-13
   3.060000     -3.4520778E-13
   3.120000     -1.4428682E-12
   3.180000     -2.2369693E-12
   3.240000     -2.2164360E-12
   3.300000     -1.1234490E-12
   3.360000      8.6415483E-13
   3.420000      3.1213354E-12
   3.480000      4.7671975E-12
   3.540000      4.9983758E-12
   3.600000      3.4299269E-12
   3.660000      2.9359661E-13
   3.720000     -3.6012397E-12
   3.780000     -7.1342398E-12
   3.840000     -9.2542840E-12
   3.900000     -9.3074454E-12
   3.960000     -7.1769929E-12
   4.020000     -3.1993872E-12
   4.080000      2.0602187E-12
   4.140000      8.0143227E-12
   4.200000      1.4097251E-11
   4.260000      1.9607817E-11
   4.320000      2.3456095E-11
   4.380000      2.4027252E-11
   4.440000      1.9376783E-11
   4.500000      7.8462193E-12
   4.560000     -1.1021003E-11
   4.620000     -3.5585333E-11
   4.680000     -6.1653169E-11
   4.740000     -8.2792620E-11
   4.800000     -9.1523789E-11
   4.860000     -8.1172388E-11
   4.920000     -4.7909329E-11
   4.980000      7.6106257E-12
   5.040000      7.9506901E-11
   5.100000      1.5706567E-10
   5.160000      2.2618221E-10
   5.220000      2.7150440E-10
   5.280000      2.7880853E-10
   5.340000      2.3718655E-10
   5.400000      1.4078225E-10
   5.460000     -1.0008571E-11
   5.520000     -2.0785242E-10
   5.580000     -4.3829038E-10
   5.640000     -6.8012257E-10
   5.700000     -9.0653568E-10
   5.760000     -1.0871591E-09
   5.820000     -1.1911035E-09
   5.880000     -1.1907725E-09
   5.940000     -1.0659218E-09
   6.000000     -8.0719176E-10
   6.060000     -4.1829326E-10
   6.120000      8.3764787E-11
   6.180000      6.7057571E-10
   6.240000      1.3059981E-09
   6.300000      1.9507591E-09
   6.360000      2.5669871E-09
   6.420000      3.1218017E-09
   6.480000      3.5895313E-09
   6.540000      3.9526635E-09
   6.600000      4.2020605E-09
   6.660000      4.3370667E-09
   6.720000      4.3658814E-09
   6.780000      4.3060662E-09
   6.840000      4.1845798E-09
   6.900000      4.0365271E-09
   6.960000      3.9020636E-09
   7.020000      3.8215071E-09
   7.080000      3.8294918E-09
   7.140000      3.9495394E-09
   7.200000      4.1904982E-09
   7.260000      4.5457931E-09
   7.320000      4.9955462E-09
   7.380000      5.5107221E-09
   7.440000      6.0578778E-09
   7.500000      6.6031651E-09
   7.560000      7.1147812E-09
   7.620000      7.5639415E-09
   7.680000      7.9251281E-09
   7.740000      8.1766238E-09
   7.800000      8.3019618E-09
   7.860000      8.2922149E-09
   7.920000      8.1482492E-09
   7.980000      7.8817282E-09
   8.040000      7.5138482E-09
   8.100000      7.0715904E-09
   8.160000      6.5822596E-09
   8.220000      6.0679239E-09
   8.280000      5.5415277E-09
   8.340000      5.0059761E-09
   8.400000      4.4564281E-09
   8.460000      3.8848640E-09
   8.520000      3.2852099E-09
   8.580000      2.6571771E-09
   8.640000      2.0076236E-09
   8.700000      1.3493129E-09
   8.760000      6.9801592E-10
   8.820000      6.9480151E-11
   8.880000     -5.2234278E-10
   8.940000     -1.0651826E-09
   9.000000     -1.5468514E-09
   9.060000     -1.9533684E-09
   9.120000     -2.2682316E-09
   9.180000     -2.4737798E-09
   9.240000     -2.5546165E-09
   9.300000     -2.5020530E-09
   9.360000     -2.3179123E-09
   9.420000     -2.0160926E-09
   9.480000     -1.6210312E-09
   9.540000     -1.1633117E-09
   9.600000     -6.7369754E-10
   9.660000     -1.7742022E-10
   9.720000      3.0959219E-10
   9.780000      7.8162488E-10
   9.840000      1.2413590E-09
   9.900000      1.6963677E-09
   9.960000      2.1553856E-09
   10.02000      2.6256071E-09
   10.08000      3.1115914E-09
   10.14000      3.6155561E-09
   10.20000      4.1382888E-09
   10.26000      4.6798383E-09
   10.32000      5.2395328E-09
   10.38000      5.8154690E-09
   10.44000      6.4040693E-09
   10.50000      7.0003838E-09
   10.56000      7.5994437E-09
   10.62000      8.1983620E-09
   10.68000      8.7983389E-09
   10.74000      9.4054817E-09
   10.80000      1.0029714E-08
   10.86000      1.0681636E-08
   10.92000      1.1368094E-08
   10.98000      1.2087799E-08
   11.04000      1.2828551E-08
   11.10000      1.3567217E-08
   11.16000      1.4272839E-08
   11.22000      1.4912214E-08
   11.28000      1.5456502E-08
   11.34000      1.5887061E-08
   11.40000      1.6199063E-08
   11.46000      1.6402138E-08
   11.52000      1.6518376E-08
   11.58000      1.6578618E-08
   11.64000      1.6618191E-08
   11.70000      1.6672839E-08
   11.76000      1.6774974E-08
   11.82000      1.6949954E-08
   11.88000      1.7212209E-08
   11.94000      1.7561577E-08
   12.00000      1.7981094E-08
   12.06000      1.8437781E-08
   12.12000      1.8887546E-08
   12.18000      1.9283927E-08
   12.24000      1.9588748E-08
   12.30000      1.9781448E-08
   12.36000      1.9863664E-08
   12.42000      1.9857016E-08
   12.48000      1.9794269E-08
   12.54000      1.9706569E-08
   12.60000      1.9610976E-08
   12.66000      1.9502588E-08
   12.72000      1.9353948E-08
   12.78000      1.9121916E-08
   12.84000      1.8759696E-08
   12.90000      1.8230054E-08
   12.96000      1.7515752E-08
   13.02000      1.6624320E-08
   13.08000      1.5586391E-08
   13.14000      1.4448776E-08
   13.20000      1.3264797E-08
   13.26000      1.2084764E-08
   13.32000      1.0948876E-08
   13.38000      9.8836530E-09
   13.44000      8.9017593E-09
   13.50000      8.0041680E-09
   13.56000      7.1832571E-09
   13.62000      6.4256644E-09
   13.68000      5.7143739E-09
   13.74000      5.0301439E-09
   13.80000      4.3528408E-09
   13.86000      3.6632297E-09
   13.92000      2.9454050E-09
   13.98000      2.1895177E-09
   14.04000      1.3940704E-09
   14.10000      5.6703603E-10
   14.16000     -2.7464331E-10
   14.22000     -1.1071112E-09
   14.28000     -1.9027575E-09
   14.34000     -2.6338871E-09
   14.40000     -3.2764103E-09
   14.46000     -3.8132124E-09
   14.52000     -4.2369268E-09
   14.58000     -4.5517097E-09
   14.64000     -4.7734972E-09
   14.70000     -4.9282711E-09
   14.76000     -5.0482503E-09
   14.82000     -5.1665570E-09
   14.88000     -5.3114944E-09
   14.94000     -5.5018310E-09
   15.00000     -5.7442637E-09
   15.06000     -6.0335603E-09
   15.12000     -6.3551386E-09
   15.18000     -6.6892056E-09
   15.24000     -7.0153203E-09
   15.30000     -7.3163084E-09
   15.36000     -7.5807307E-09
   15.42000     -7.8034885E-09
   15.48000     -7.9845934E-09
   15.54000     -8.1265945E-09
   15.60000     -8.2316109E-09
   15.66000     -8.2991525E-09
   15.72000     -8.3257126E-09
   15.78000     -8.3065022E-09
   15.84000     -8.2387608E-09
   15.90000     -8.1252303E-09
   15.96000     -7.9761406E-09
   16.02000     -7.8084925E-09
   16.08000     -7.6424964E-09
   16.14000     -7.4962330E-09
   16.20000     -7.3803030E-09
   16.26000     -7.2941688E-09
   16.32000     -7.2250739E-09
   16.38000     -7.1493220E-09
   16.44000     -7.0348380E-09
   16.50000     -6.8437496E-09
   16.56000     -6.5343029E-09
   16.62000     -6.0622889E-09
   16.68000     -5.3829696E-09
   16.74000     -4.4546562E-09
   16.80000     -3.2445084E-09
   16.86000     -1.7359932E-09
   16.92000      6.3786434E-11
   16.98000      2.1194126E-09
   17.04000      4.3674460E-09
   17.10000      6.7228321E-09
   17.16000      9.0906758E-09
   17.22000      1.1380753E-08
   17.28000      1.3520981E-08
   17.34000      1.5466192E-08
   17.40000      1.7200046E-08
   17.46000      1.8730105E-08
   17.52000      2.0078339E-08
   17.58000      2.1270424E-08
   17.64000      2.2327077E-08
   17.70000      2.3259265E-08
   17.76000      2.4067276E-08
   17.82000      2.4742322E-08
   17.88000      2.5268843E-08
   17.94000      2.5626342E-08
   18.00000      2.5790502E-08
   18.06000      2.5734250E-08
   18.12000      2.5429475E-08
   18.18000      2.4849747E-08
   18.24000      2.3973609E-08
   18.30000      2.2787605E-08
   18.36000      2.1288329E-08
   18.42000      1.9483199E-08
   18.48000      1.7390285E-08
   18.54000      1.5037791E-08
   18.60000      1.2463541E-08
   18.66000      9.7144799E-09
   18.72000      6.8457240E-09
   18.78000      3.9186361E-09
   18.84000      9.9766573E-10
   18.90000     -1.8538147E-09
   18.96000     -4.5779434E-09
   19.02000     -7.1261632E-09
   19.08000     -9.4615737E-09
   19.14000     -1.1559442E-08
   19.20000     -1.3405965E-08
   19.26000     -1.4995765E-08
   19.32000     -1.6328872E-08
   19.38000     -1.7407890E-08
   19.44000     -1.8235932E-08
   19.50000     -1.8815667E-08
   19.56000     -1.9149651E-08
   19.62000     -1.9241890E-08
   19.68000     -1.9100465E-08
   19.74000     -1.8740794E-08
   19.80000     -1.8188782E-08
   19.86000     -1.7482826E-08
   19.92000     -1.6673523E-08
   19.98000     -1.5820318E-08
   20.04000     -1.4985178E-08
   20.10000     -1.4224457E-08
   20.16000     -1.3581130E-08
   20.22000     -1.3079716E-08
   20.28000     -1.2725551E-08
   20.34000     -1.2508497E-08
   20.40000     -1.2409601E-08
   20.46000     -1.2408170E-08
   20.52000     -1.2486867E-08
   20.58000     -1.2633580E-08
   20.64000     -1.2840397E-08
   20.70000     -1.3101171E-08
   20.76000     -1.3409327E-08
   20.82000     -1.3756824E-08
   20.88000     -1.4134042E-08
   20.94000     -1.4529660E-08
   21.00000     -1.4929755E-08
   21.06000     -1.5316234E-08
   21.12000     -1.5665615E-08
   21.18000     -1.5949533E-08
   21.24000     -1.6137609E-08
   21.30000     -1.6202113E-08
   21.36000     -1.6122829E-08
   21.42000     -1.5890198E-08
   21.48000     -1.5505766E-08
   21.54000     -1.4980255E-08
   21.60000     -1.4330613E-08
   21.66000     -1.3577410E-08
   21.72000     -1.2743265E-08
   21.78000     -1.1851720E-08
   21.84000     -1.0925604E-08
   21.90000     -9.9843724E-09
   21.96000     -9.0411021E-09
   22.02000     -8.1008151E-09
   22.08000     -7.1617294E-09
   22.14000     -6.2197087E-09
   22.20000     -5.2742157E-09
   22.26000     -4.3327582E-09
   22.32000     -3.4110443E-09
   22.38000     -2.5279787E-09
   22.44000     -1.6974017E-09
   22.50000     -9.2051700E-10
   22.56000     -1.8312050E-10
   22.62000      5.4025018E-10
   22.68000      1.2763868E-09
   22.74000      2.0417643E-09
   22.80000      2.8343530E-09
   22.86000      3.6327774E-09
   22.92000      4.4036068E-09
   22.98000      5.1140572E-09
   23.04000      5.7450786E-09
   23.10000      6.2996355E-09
   23.16000      6.8030102E-09
   23.22000      7.2951329E-09
   23.28000      7.8179454E-09
   23.34000      8.4024112E-09
   23.40000      9.0594900E-09
   23.46000      9.7775157E-09
   23.52000      1.0525950E-08
   23.58000      1.1263396E-08
   23.64000      1.1946892E-08
   23.70000      1.2539832E-08
   23.76000      1.3017029E-08
   23.82000      1.3366732E-08
   23.88000      1.3590201E-08
   23.94000      1.3699719E-08
   24.00000      1.3715730E-08
   24.06000      1.3663588E-08
   24.12000      1.3570371E-08
   24.18000      1.3462254E-08
   24.24000      1.3362947E-08
   24.30000      1.3293387E-08
   24.36000      1.3272307E-08
   24.42000      1.3316893E-08
   24.48000      1.3442572E-08
   24.54000      1.3661468E-08
   24.60000      1.3979825E-08
   24.66000      1.4395394E-08
   24.72000      1.4895960E-08
   24.78000      1.5459745E-08
   24.84000      1.6057571E-08
   24.90000      1.6655871E-08
   24.96000      1.7219552E-08
   25.02000      1.7714004E-08
   25.08000      1.8106556E-08
   25.14000      1.8368159E-08
   25.20000      1.8476157E-08
   25.26000      1.8418188E-08
   25.32000      1.8196175E-08
   25.38000      1.7828539E-08
   25.44000      1.7348880E-08
   25.50000      1.6800650E-08
   25.56000      1.6228974E-08
   25.62000      1.5672446E-08
   25.68000      1.5158024E-08
   25.74000      1.4701093E-08
   25.80000      1.4310544E-08
   25.86000      1.3996483E-08
   25.92000      1.3776878E-08
   25.98000      1.3679948E-08
   26.04000      1.3741036E-08
   26.10000      1.3995257E-08
   26.16000      1.4469095E-08
   26.22000      1.5174431E-08
   26.28000      1.6107185E-08
   26.34000      1.7250510E-08
   26.40000      1.8580403E-08
   26.46000      2.0070788E-08
   26.52000      2.1695595E-08
   26.58000      2.3427141E-08
   26.64000      2.5231833E-08
   26.70000      2.7065658E-08
   26.76000      2.8872114E-08
   26.82000      3.0584442E-08
   26.88000      3.2132643E-08
   26.94000      3.3453951E-08
   27.00000      3.4504250E-08
   27.06000      3.5267053E-08
   27.12000      3.5757058E-08
   27.18000      3.6016441E-08
   27.24000      3.6104264E-08
   27.30000      3.6081509E-08
   27.36000      3.5996120E-08
   27.42000      3.5872791E-08
   27.48000      3.5710986E-08
   27.54000      3.5491901E-08
   27.60000      3.5191825E-08
   27.66000      3.4796994E-08
   27.72000      3.4314066E-08
   27.78000      3.3772153E-08
   27.84000      3.3215350E-08
   27.90000      3.2688678E-08
   27.96000      3.2222964E-08
   28.02000      3.1824825E-08
   28.08000      3.1476027E-08
   28.14000      3.1142591E-08
   28.20000      3.0790190E-08
   28.26000      3.0399566E-08
   28.32000      2.9975666E-08
   28.38000      2.9546745E-08
   28.44000      2.9153853E-08
   28.50000      2.8835233E-08
   28.56000      2.8612202E-08
   28.62000      2.8482546E-08
   28.68000      2.8424072E-08
   28.74000      2.8406864E-08
   28.80000      2.8408902E-08
   28.86000      2.8428550E-08
   28.92000      2.8488689E-08
   28.98000      2.8630710E-08
   29.04000      2.8900656E-08
   29.10000      2.9332634E-08
   29.16000      2.9935403E-08
   29.22000      3.0686543E-08
   29.28000      3.1535595E-08
   29.34000      3.2414402E-08
   29.40000      3.3250654E-08
   29.46000      3.3980282E-08
   29.52000      3.4555431E-08
   29.58000      3.4946982E-08
   29.64000      3.5142680E-08
   29.70000      3.5143163E-08
   29.76000      3.4958202E-08
   29.82000      3.4604433E-08
   29.88000      3.4104470E-08
   29.94000      3.3486252E-08
   30.00000      3.2781450E-08
   30.06000      3.2022427E-08
   30.12000      3.1238422E-08
   30.18000      3.0452334E-08
   30.24000      2.9679434E-08
   30.30000      2.8928365E-08
   30.36000      2.8203628E-08
   30.42000      2.7507944E-08
   30.48000      2.6843106E-08
   30.54000      2.6208973E-08
   30.60000      2.5601654E-08
   30.66000      2.5012605E-08
   30.72000      2.4430065E-08
   30.78000      2.3842798E-08
   30.84000      2.3244569E-08
   30.90000      2.2636767E-08
   30.96000      2.2027244E-08
   31.02000      2.1425091E-08
   31.08000      2.0833410E-08
   31.14000      2.0243435E-08
   31.20000      1.9633323E-08
   31.26000      1.8972875E-08
   31.32000      1.8232900E-08
   31.38000      1.7395502E-08
   31.44000      1.6460975E-08
   31.50000      1.5448281E-08
   31.56000      1.4388745E-08
   31.62000      1.3315537E-08
   31.68000      1.2253238E-08
   31.74000      1.1211708E-08
   31.80000      1.0186532E-08
   31.86000      9.1656034E-09
   31.92000      8.1389153E-09
   31.98000      7.1075386E-09
   32.04000      6.0883516E-09
   32.10000      5.1129390E-09
   32.16000      4.2213570E-09
   32.22000      3.4532832E-09
   32.28000      2.8397058E-09
   32.34000      2.3978026E-09
   32.40000      2.1303235E-09
   32.46000      2.0291577E-09
   32.52000      2.0814732E-09
   32.58000      2.2760971E-09
   32.64000      2.6078788E-09
   32.70000      3.0784821E-09
   32.76000      3.6932835E-09
   32.82000      4.4554000E-09
   32.88000      5.3590097E-09
   32.94000      6.3845014E-09
   33.00000      7.4974631E-09
   33.06000      8.6520435E-09
   33.12000      9.7974677E-09
   33.18000      1.0885180E-08
   33.24000      1.1873956E-08
   33.30000      1.2731545E-08
   33.36000      1.3433341E-08
   33.42000      1.3960301E-08
   33.48000      1.4298619E-08
   33.54000      1.4442403E-08
   33.60000      1.4398295E-08
   33.66000      1.4188958E-08
   33.72000      1.3852063E-08
   33.78000      1.3433161E-08
   33.84000      1.2974072E-08
   33.90000      1.2501276E-08
   33.96000      1.2019735E-08
   34.02000      1.1515623E-08
   34.08000      1.0967377E-08
   34.14000      1.0360327E-08
   34.20000      9.6979864E-09
   34.26000      9.0043342E-09
   34.32000      8.3156602E-09
   34.38000      7.6657081E-09
   34.44000      7.0714470E-09
   34.50000      6.5267440E-09
   34.56000      6.0075340E-09
   34.62000      5.4863731E-09
   34.68000      4.9494591E-09
   34.74000      4.4077177E-09
   34.80000      3.8962535E-09
   34.86000      3.4620522E-09
   34.92000      3.1455492E-09
   34.98000      2.9647078E-09
   35.04000      2.9090859E-09
   35.10000      2.9465961E-09
   35.16000      3.0397480E-09
   35.22000      3.1638911E-09
   35.28000      3.3194207E-09
   35.34000      3.5330499E-09
   35.40000      3.8483385E-09
   35.46000      4.3102246E-09
   35.52000      4.9501705E-09
   35.58000      5.7773004E-09
   35.64000      6.7775510E-09
   35.70000      7.9192297E-09
   35.76000      9.1612709E-09
   35.82000      1.0460446E-08
   35.88000      1.1775383E-08
   35.94000      1.3067316E-08
   36.00000      1.4298887E-08
   36.06000      1.5432651E-08
   36.12000      1.6430374E-08
   36.18000      1.7253408E-08
   36.24000      1.7863931E-08
   36.30000      1.8226785E-08
   36.36000      1.8311814E-08
   36.42000      1.8096552E-08
   36.48000      1.7569011E-08
   36.54000      1.6729814E-08
   36.60000      1.5592777E-08
   36.66000      1.4183311E-08
   36.72000      1.2534675E-08
   36.78000      1.0682913E-08
   36.84000      8.6618677E-09
   36.90000      6.4995711E-09
   36.96000      4.2168260E-09
   37.02000      1.8279849E-09
   37.08000     -6.5661310E-10
   37.14000     -3.2272867E-09
   37.20000     -5.8713723E-09
   37.26000     -8.5697867E-09
   37.32000     -1.1294368E-08
   37.38000     -1.4006800E-08
   37.44000     -1.6660037E-08
   37.50000     -1.9202689E-08
   37.56000     -2.1585830E-08
   37.62000     -2.3770379E-08
   37.68000     -2.5732520E-08
   37.74000     -2.7464935E-08
   37.80000     -2.8973441E-08
   37.86000     -3.0270680E-08
   37.92000     -3.1370263E-08
   37.98000     -3.2284508E-08
   38.04000     -3.3027149E-08
   38.10000     -3.3619269E-08
   38.16000     -3.4094494E-08
   38.22000     -3.4499095E-08
   38.28000     -3.4884973E-08
   38.34000     -3.5297134E-08
   38.40000     -3.5760678E-08
   38.46000     -3.6273335E-08
   38.52000     -3.6807752E-08
   38.58000     -3.7323304E-08
   38.64000     -3.7782783E-08
   38.70000     -3.8166753E-08
   38.76000     -3.8479314E-08
   38.82000     -3.8742844E-08
   38.88000     -3.8984265E-08
   38.94000     -3.9219355E-08
   39.00000     -3.9442320E-08
   39.06000     -3.9625288E-08
   39.12000     -3.9728004E-08
   39.18000     -3.9713299E-08
   39.24000     -3.9561808E-08
   39.30000     -3.9279968E-08
   39.36000     -3.8898452E-08
   39.42000     -3.8462382E-08
   39.48000     -3.8017664E-08
   39.54000     -3.7598909E-08
   39.60000     -3.7223291E-08
   39.66000     -3.6891773E-08
   39.72000     -3.6596280E-08
   39.78000     -3.6329222E-08
   39.84000     -3.6091198E-08
   39.90000     -3.5893873E-08
   39.96000     -3.5757065E-08
   40.02000     -3.5701536E-08
   40.08000     -3.5740509E-08
   40.14000     -3.5873484E-08
   40.20000     -3.6084696E-08
   40.26000     -3.6346687E-08
   40.32000     -3.6627341E-08
   40.38000     -3.6897355E-08
   40.44000     -3.7135337E-08
   40.50000     -3.7329009E-08
   40.56000     -3.7472756E-08
   40.62000     -3.7563343E-08
   40.68000     -3.7595964E-08
   40.74000     -3.7562128E-08
   40.80000     -3.7449787E-08
   40.86000     -3.7245204E-08
   40.92000     -3.6935656E-08
   40.98000     -3.6512450E-08
   41.04000     -3.5973923E-08
   41.10000     -3.5328029E-08
   41.16000     -3.4593665E-08
   41.22000     -3.3799608E-08
   41.28000     -3.2980246E-08
   41.34000     -3.2168504E-08
   41.40000     -3.1388016E-08
   41.46000     -3.0647573E-08
   41.52000     -2.9940608E-08
   41.58000     -2.9250723E-08
   41.64000     -2.8561651E-08
   41.70000     -2.7868005E-08
   41.76000     -2.7182635E-08
   41.82000     -2.6537723E-08
   41.88000     -2.5979205E-08
   41.94000     -2.5556581E-08
   42.00000     -2.5311563E-08
   42.06000     -2.5268859E-08
   42.12000     -2.5431156E-08
   42.18000     -2.5778824E-08
   42.24000     -2.6273820E-08
   42.30000     -2.6866509E-08
   42.36000     -2.7504191E-08
   42.42000     -2.8139691E-08
   42.48000     -2.8738182E-08
   42.54000     -2.9280271E-08
   42.60000     -2.9760081E-08
   42.66000     -3.0178541E-08
   42.72000     -3.0534252E-08
   42.78000     -3.0815791E-08
   42.84000     -3.0999519E-08
   42.90000     -3.1054970E-08
   42.96000     -3.0956599E-08
   43.02000     -3.0697311E-08
   43.08000     -3.0297514E-08
   43.14000     -2.9804575E-08
   43.20000     -2.9281402E-08
   43.26000     -2.8787763E-08
   43.32000     -2.8361644E-08
   43.38000     -2.8008529E-08
   43.44000     -2.7703402E-08
   43.50000     -2.7404807E-08
   43.56000     -2.7074863E-08
   43.62000     -2.6696592E-08
   43.68000     -2.6281249E-08
   43.74000     -2.5863240E-08
   43.80000     -2.5486031E-08
   43.86000     -2.5186353E-08
   43.92000     -2.4984111E-08
   43.98000     -2.4881745E-08
   44.04000     -2.4871500E-08
   44.10000     -2.4945091E-08
   44.16000     -2.5099563E-08
   44.22000     -2.5336172E-08
   44.28000     -2.5653591E-08
   44.34000     -2.6040381E-08
   44.40000     -2.6472105E-08
   44.46000     -2.6915611E-08
   44.52000     -2.7338686E-08
   44.58000     -2.7720073E-08
   44.64000     -2.8054570E-08
   44.70000     -2.8350653E-08
   44.76000     -2.8622265E-08
   44.82000     -2.8879359E-08
   44.88000     -2.9122038E-08
   44.94000     -2.9340775E-08
   45.00000     -2.9521557E-08
   45.06000     -2.9652503E-08
   45.12000     -2.9728255E-08
   45.18000     -2.9750653E-08
   45.24000     -2.9726761E-08
   45.30000     -2.9666761E-08
   45.36000     -2.9583687E-08
   45.42000     -2.9494718E-08
   45.48000     -2.9421939E-08
   45.54000     -2.9389858E-08
   45.60000     -2.9418899E-08
   45.66000     -2.9516828E-08
   45.72000     -2.9672275E-08
   45.78000     -2.9854547E-08
   45.84000     -3.0021326E-08
   45.90000     -3.0132043E-08
   45.96000     -3.0161512E-08
   46.02000     -3.0107870E-08
   46.08000     -2.9991266E-08
   46.14000     -2.9844081E-08
   46.20000     -2.9697571E-08
   46.26000     -2.9571410E-08
   46.32000     -2.9471058E-08
   46.38000     -2.9393593E-08
   46.44000     -2.9338359E-08
   46.50000     -2.9316105E-08
   46.56000     -2.9351247E-08
   46.62000     -2.9475560E-08
   46.68000     -2.9716279E-08
   46.74000     -3.0084472E-08
   46.80000     -3.0569389E-08
   46.86000     -3.1141216E-08
   46.92000     -3.1760027E-08
   46.98000     -3.2385834E-08
   47.04000     -3.2984250E-08
   47.10000     -3.3525446E-08
   47.16000     -3.3977923E-08
   47.22000     -3.4301518E-08
   47.28000     -3.4443890E-08
   47.34000     -3.4341927E-08
   47.40000     -3.3925804E-08
   47.46000     -3.3121420E-08
   47.52000     -3.1847602E-08
   47.58000     -3.0007623E-08
   47.64000     -2.7478265E-08
   47.70000     -2.4101228E-08
   47.76000     -1.9680455E-08
   47.82000     -1.3985119E-08
   47.88000     -6.7542039E-09
   47.94000      2.3032505E-09
   48.00000      1.3516795E-08
   48.06000      2.7272719E-08
   48.12000      4.4038053E-08
   48.18000      6.4384331E-08
   48.24000      8.9005745E-08
   48.30000      1.1872976E-07
   48.36000      1.5452264E-07
   48.42000      1.9749550E-07
   48.48000      2.4891722E-07
   48.54000      3.1023825E-07
   48.60000      3.8312649E-07
   48.66000      4.6951266E-07
   48.72000      5.7164118E-07
   48.78000      6.9212211E-07
   48.84000      8.3398271E-07
   48.90000      1.0007163E-06
   48.96000      1.1963308E-06
   49.02000      1.4253984E-06
   49.08000      1.6931097E-06
   49.14000      2.0053371E-06
   49.20000      2.3687103E-06
   49.26000      2.7907063E-06
   49.32000      3.2797532E-06
   49.38000      3.8453454E-06
   49.44000      4.4981607E-06
   49.50000      5.2501769E-06
   49.56000      6.1147839E-06
   49.62000      7.1068916E-06
   49.68000      8.2430442E-06
   49.74000      9.5415371E-06
   49.80000      1.1022550E-05
   49.86000      1.2708302E-05
   49.92000      1.4623191E-05
   49.98000      1.6793962E-05
   50.04000      1.9249850E-05
   50.10000      2.2022718E-05
   50.16000      2.5147194E-05
   50.22000      2.8660768E-05
   50.28000      3.2603912E-05
   50.34000      3.7020156E-05
   50.40000      4.1956180E-05
   50.46000      4.7461876E-05
   50.52000      5.3590396E-05
   50.58000      6.0398204E-05
   50.64000      6.7945046E-05
   50.70000      7.6293974E-05
   50.76000      8.5511223E-05
   50.82000      9.5666139E-05
   50.88000      1.0683103E-04
   50.94000      1.1908093E-04
   51.00000      1.3249337E-04
   51.06000      1.4714809E-04
   51.12000      1.6312671E-04
   51.18000      1.8051227E-04
   51.24000      1.9938893E-04
   51.30000      2.1984130E-04
   51.36000      2.4195407E-04
   51.42000      2.6581125E-04
   51.48000      2.9149573E-04
   51.54000      3.1908846E-04
   51.60000      3.4866764E-04
   51.66000      3.8030796E-04
   51.72000      4.1407984E-04
   51.78000      4.5004836E-04
   51.84000      4.8827275E-04
   51.90000      5.2880513E-04
   51.96000      5.7169003E-04
   52.02000      6.1696320E-04
   52.08000      6.6465099E-04
   52.14000      7.1476924E-04
   52.20000      7.6732261E-04
   52.26000      8.2230399E-04
   52.32000      8.7969366E-04
   52.38000      9.3945878E-04
   52.44000      1.0015526E-03
   52.50000      1.0659144E-03
   52.56000      1.1324688E-03
   52.62000      1.2011263E-03
   52.68000      1.2717821E-03
   52.74000      1.3443175E-03
   52.80000      1.4185987E-03
   52.86000      1.4944784E-03
   52.92000      1.5717958E-03
   52.98000      1.6503769E-03
   53.04000      1.7300363E-03
   53.10000      1.8105772E-03
   53.16000      1.8917932E-03
   53.22000      1.9734690E-03
   53.28000      2.0553828E-03
   53.34000      2.1373066E-03
   53.40000      2.2190085E-03
   53.46000      2.3002548E-03
   53.52000      2.3808102E-03
   53.58000      2.4604418E-03
   53.64000      2.5389199E-03
   53.70000      2.6160197E-03
   53.76000      2.6915234E-03
   53.82000      2.7652232E-03
   53.88000      2.8369208E-03
   53.94000      2.9064310E-03
   54.00000      2.9735824E-03
   54.06000      3.0382199E-03
   54.12000      3.1002057E-03
   54.18000      3.1594206E-03
   54.24000      3.2157649E-03
   54.30000      3.2691590E-03
   54.36000      3.3195447E-03
   54.42000      3.3668848E-03
   54.48000      3.4111631E-03
   54.54000      3.4523869E-03
   54.60000      3.4905840E-03
   54.66000      3.5258033E-03
   54.72000      3.5581156E-03
   54.78000      3.5876089E-03
   54.84000      3.6143903E-03
   54.90000      3.6385837E-03
   54.96000      3.6603275E-03
   55.02000      3.6797749E-03
   55.08000      3.6970901E-03
   55.14000      3.7124469E-03
   55.20000      3.7260263E-03
   55.26000      3.7380145E-03
   55.32000      3.7486011E-03
   55.38000      3.7579762E-03
   55.44000      3.7663281E-03
   55.50000      3.7738408E-03
   55.56000      3.7806919E-03