  -2.400000      0.0000000E+00
  -2.340000      0.0000000E+00
  -2.280000      0.0000000E+00
  -2.220000      0.0000000E+00
  -2.160000      0.0000000E+00
  -2.100000      0.0000000E+00
  -2.040000      0.0000000E+00
  -1.980000      0.0000000E+00
  -1.920000     -1.4257178E-25
  -1.860000     -1.8071945E-24
  -1.800000     -1.1163249E-23
  -1.740000     -4.3341110E-23
  -1.680000     -1.1132510E-22
  -1.620000     -1.6449998E-22
  -1.560000      3.9976353E-23
  -1.500000      1.0228788E-21
  -1.440000      3.2815164E-21
  -1.380000      6.1608049E-21
  -1.320000      6.0118283E-21
  -1.260000     -4.6936054E-21
  -1.200000     -3.3804209E-20
  -1.140000     -7.8354257E-20
  -1.080000     -1.0836299E-19
  -1.020000     -5.9272557E-20
 -0.9600000      1.4345693E-19
 -0.9000000      5.1021855E-19
 -0.8400000      8.8189385E-19
 -0.7800000      8.7178571E-19
 -0.7200000     -2.0875321E-20
 -0.6600000     -2.0372832E-18
 -0.6000000     -4.6057193E-18
 -0.5400000     -5.9583135E-18
 -0.4800000     -3.4701798E-18
 -0.4200000      4.8530471E-18
 -0.3600000      1.7957858E-17
 -0.3000000      2.9652453E-17
 -0.2400000      2.8942209E-17
 -0.1800000      4.6346830E-18
 -0.1200000     -4.5959998E-17
 -5.9999999E-02 -1.0786277E-16
  0.0000000E+00 -1.4555704E-16
  5.9999999E-02 -1.1325508E-16
  0.1200000      2.0005692E-17
  0.1800000      2.3857530E-16
  0.2400000      4.5991814E-16
  0.3000000      5.4705612E-16
  0.3600000      3.6459048E-16
  0.4200000     -1.3451398E-16
  0.4800000     -8.3169339E-16
  0.5400000     -1.4297339E-15
  0.6000000     -1.5436516E-15
  0.6600000     -8.8758587E-16
  0.7200000      5.1388769E-16
  0.7800000      2.2071188E-15
  0.8400000      3.3918990E-15
  0.9000000      3.2357404E-15
  0.9600000      1.3260060E-15
   1.020000     -1.9467127E-15
   1.080000     -5.3116293E-15
   1.140000     -6.9917674E-15
   1.200000     -5.4731767E-15
   1.260000     -3.8720054E-16
   1.320000      6.9145811E-15
   1.380000      1.3471099E-14
   1.440000      1.5647009E-14
   1.500000      1.0671943E-14
   1.560000     -1.7692010E-15
   1.620000     -1.8600129E-14
   1.680000     -3.3655424E-14
   1.740000     -3.9420876E-14
   1.800000     -2.9872413E-14
   1.860000     -3.5528420E-15
   1.920000      3.4295422E-14
   1.980000      7.1694231E-14
   2.040000      9.2682047E-14
   2.100000      8.2674000E-14
   2.160000      3.5125935E-14
   2.220000     -4.2838813E-14
   2.280000     -1.2865444E-13
   2.340000     -1.8863318E-13
   2.400000     -1.8877131E-13
   2.460000     -1.0958979E-13
   2.520000      4.0305118E-14
   2.580000      2.1870252E-13
   2.640000      3.5773140E-13
   2.700000      3.8612288E-13
   2.760000      2.5994628E-13
   2.820000     -1.0130984E-14
   2.880000     -3.4908540E-13
   2.940000     -6.3486114E-13
   3.000000     -7.4159125E-13
   3.060000     -5.9418871E-13
   3.120000     -2.1024591E-13
   3.180000      2.9428001E-13
   3.240000      7.4590453E-13
   3.300000      9.8908067E-13
   3.360000      9.6295693E-13
   3.420000      7.3754235E-13
   3.480000      4.7998714E-13
   3.540000      3.5416516E-13
   3.600000      3.9633281E-13
   3.660000      4.3606026E-13
   3.720000      1.2650201E-13
   3.780000     -8.9460129E-13
   3.840000     -2.7589678E-12
   3.900000     -5.1446950E-12
   3.960000     -7.2063991E-12
   4.020000     -7.7499283E-12
   4.080000     -5.6472821E-12
   4.140000     -3.6973853E-13
   4.200000      7.5692759E-12
   4.260000      1.6477127E-11
   4.320000      2.3776082E-11
   4.380000      2.6692260E-11
   4.440000      2.3134153E-11
   4.500000      1.2455229E-11
   4.560000     -4.1832293E-12
   4.620000     -2.3988728E-11
   4.680000     -4.3183315E-11
   4.740000     -5.7865865E-11
   4.800000     -6.4770300E-11
   4.860000     -6.1682673E-11
   4.920000     -4.7479257E-11
   4.980000     -2.1964630E-11
   5.040000      1.4192197E-11
   5.100000      5.9180688E-11
   5.160000      1.0941066E-10
   5.220000      1.5878673E-10
   5.280000      1.9838482E-10
   5.340000      2.1702611E-10
   5.400000      2.0299291E-10
   5.460000      1.4669342E-10
   5.520000      4.3632382E-11
   5.580000     -1.0321671E-10
   5.640000     -2.8247357E-10
   5.700000     -4.7527576E-10
   5.760000     -6.5789013E-10
   5.820000     -8.0527141E-10
   5.880000     -8.9454022E-10
   5.940000     -9.0746888E-10
   6.000000     -8.3153345E-10
   6.060000     -6.5971340E-10
   6.120000     -3.8971484E-10
   6.180000     -2.3435819E-11
   6.240000      4.3278936E-10
   6.300000      9.6720176E-10
   6.360000      1.5615186E-09
   6.420000      2.1906748E-09
   6.480000      2.8242206E-09
   6.540000      3.4296133E-09
   6.600000      3.9768580E-09
   6.660000      4.4432973E-09
   6.720000      4.8171258E-09
   6.780000      5.0985349E-09
   6.840000      5.2981912E-09
   6.900000      5.4336562E-09
   6.960000      5.5250426E-09
   7.020000      5.5913478E-09
   7.080000      5.6484688E-09
   7.140000      5.7090781E-09
   7.200000      5.7836678E-09
   7.260000      5.8815894E-09
   7.320000      6.0109770E-09
   7.380000      6.1770828E-09
   7.440000      6.3794845E-09
   7.500000      6.6093615E-09
   7.560000      6.8483286E-09
   7.620000      7.0698944E-09
   7.680000      7.2436630E-09
   7.740000      7.3412818E-09
   7.800000      7.3423401E-09
   7.860000      7.2382584E-09
   7.920000      7.0328707E-09
   7.980000      6.7395587E-09
   8.040000      6.3760828E-09
   8.100000      5.9590750E-09
   8.160000      5.5002136E-09
   8.220000      5.0053317E-09
   8.280000      4.4764317E-09
   8.340000      3.9153423E-09
   8.400000      3.3271059E-09
   8.460000      2.7213676E-09
   8.520000      2.1110469E-09
   8.580000      1.5089140E-09
   8.640000      9.2377250E-10
   8.700000      3.5827918E-10
   8.760000     -1.9020567E-10
   8.820000     -7.2567558E-10
   8.880000     -1.2478535E-09
   8.940000     -1.7472360E-09
   9.000000     -2.2031181E-09
   9.060000     -2.5858533E-09
   9.120000     -2.8629505E-09
   9.180000     -3.0070304E-09
   9.240000     -3.0028411E-09
   9.300000     -2.8508362E-09
   9.360000     -2.5661078E-09
   9.420000     -2.1732591E-09
   9.480000     -1.6993151E-09
   9.540000     -1.1674089E-09
   9.600000     -5.9349059E-10
   9.660000      1.3104076E-11
   9.720000      6.4608457E-10
   9.780000      1.2977638E-09
   9.840000      1.9561537E-09
   9.900000      2.6051907E-09
   9.960000      3.2281462E-09
   10.02000      3.8126888E-09
   10.08000      4.3551860E-09
   10.14000      4.8620494E-09
   10.20000      5.3471982E-09
   10.26000      5.8264429E-09
   10.32000      6.3110464E-09
   10.38000      6.8031967E-09
   10.44000      7.2954198E-09
   10.50000      7.7743456E-09
   10.56000      8.2274205E-09
   10.62000      8.6498773E-09
   10.68000      9.0491055E-09
   10.74000      9.4444808E-09
   10.80000      9.8624158E-09
   10.86000      1.0328177E-08
   10.92000      1.0857168E-08
   10.98000      1.1448608E-08
   11.04000      1.2083665E-08
   11.10000      1.2728588E-08
   11.16000      1.3341701E-08
   11.22000      1.3881944E-08
   11.28000      1.4316290E-08
   11.34000      1.4624097E-08
   11.40000      1.4797723E-08
   11.46000      1.4840270E-08
   11.52000      1.4762237E-08
   11.58000      1.4578976E-08
   11.64000      1.4310062E-08
   11.70000      1.3980332E-08
   11.76000      1.3621263E-08
   11.82000      1.3270872E-08
   11.88000      1.2970831E-08
   11.94000      1.2760724E-08
   12.00000      1.2670853E-08
   12.06000      1.2715939E-08
   12.12000      1.2892153E-08
   12.18000      1.3178965E-08
   12.24000      1.3545593E-08
   12.30000      1.3960157E-08
   12.36000      1.4398397E-08
   12.42000      1.4848829E-08
   12.48000      1.5312255E-08
   12.54000      1.5795557E-08
   12.60000      1.6301854E-08
   12.66000      1.6820632E-08
   12.72000      1.7321735E-08
   12.78000      1.7755969E-08
   12.84000      1.8062805E-08
   12.90000      1.8183076E-08
   12.96000      1.8072754E-08
   13.02000      1.7713234E-08
   13.08000      1.7114814E-08
   13.14000      1.6312299E-08
   13.20000      1.5354434E-08
   13.26000      1.4290992E-08
   13.32000      1.3161929E-08
   13.38000      1.1992003E-08
   13.44000      1.0791993E-08
   13.50000      9.5650252E-09
   13.56000      8.3146539E-09
   13.62000      7.0510180E-09
   13.68000      5.7925997E-09
   13.74000      4.5633222E-09
   13.80000      3.3868011E-09
   13.86000      2.2806699E-09
   13.92000      1.2535420E-09
   13.98000      3.0568723E-10
   14.04000     -5.6727739E-10
   14.10000     -1.3695980E-09
   14.16000     -2.1015774E-09
   14.22000     -2.7580551E-09
   14.28000     -3.3292897E-09
   14.34000     -3.8034078E-09
   14.40000     -4.1692139E-09
   14.46000     -4.4183714E-09
   14.52000     -4.5464912E-09
   14.58000     -4.5531987E-09
   14.64000     -4.4415804E-09
   14.70000     -4.2175272E-09
   14.76000     -3.8893875E-09
   14.82000     -3.4680845E-09
   14.88000     -2.9674834E-09
   14.94000     -2.4044815E-09
   15.00000     -1.7982213E-09
   15.06000     -1.1681421E-09
   15.12000     -5.3123372E-10
   15.18000      1.0048461E-10
   15.24000      7.2100187E-10
   15.30000      1.3290642E-09
   15.36000      1.9248427E-09
   15.42000      2.5058000E-09
   15.48000      3.0635385E-09
   15.54000      3.5830305E-09
   15.60000      4.0444981E-09
   15.66000      4.4270023E-09
   15.72000      4.7121111E-09
   15.78000      4.8862479E-09
   15.84000      4.9412234E-09
   15.90000      4.8735016E-09
   15.96000      4.6833093E-09
   16.02000      4.3745718E-09
   16.08000      3.9560004E-09
   16.14000      3.4428855E-09
   16.20000      2.8587235E-09
   16.26000      2.2357924E-09
   16.32000      1.6141848E-09
   16.38000      1.0392944E-09
   16.44000      5.5820065E-10
   16.50000      2.1566610E-10
   16.56000      5.0500968E-11
   16.62000      9.2825983E-11
   16.68000      3.6230999E-10
   16.74000      8.6691226E-10
   16.80000      1.6013618E-09
   16.86000      2.5448379E-09
   16.92000      3.6581924E-09
   16.98000      4.8822155E-09
   17.04000      6.1392083E-09
   17.10000      7.3397901E-09
   17.16000      8.3951921E-09
   17.22000      9.2328127E-09
   17.28000      9.8106945E-09
   17.34000      1.0126019E-08
   17.40000      1.0214292E-08
   17.46000      1.0139153E-08
   17.52000      9.9762216E-09
   17.58000      9.7965165E-09
   17.64000      9.6546131E-09
   17.70000      9.5841770E-09
   17.76000      9.5999386E-09
   17.82000      9.7025268E-09
   17.88000      9.8820339E-09
   17.94000      1.0117930E-08
   18.00000      1.0375987E-08
   18.06000      1.0605411E-08
   18.12000      1.0740067E-08
   18.18000      1.0706110E-08
   18.24000      1.0435247E-08
   18.30000      9.8798418E-09
   18.36000      9.0246610E-09
   18.42000      7.8909403E-09
   18.48000      6.5311849E-09
   18.54000      5.0165343E-09
   18.60000      3.4210714E-09
   18.66000      1.8081797E-09
   18.72000      2.2279509E-10
   18.78000     -1.3091388E-09
   18.84000     -2.7754172E-09
   18.90000     -4.1697787E-09
   18.96000     -5.4852332E-09
   19.02000     -6.7111601E-09
   19.08000     -7.8349043E-09
   19.14000     -8.8466052E-09
   19.20000     -9.7446247E-09
   19.26000     -1.0538792E-08
   19.32000     -1.1249671E-08
   19.38000     -1.1903835E-08
   19.44000     -1.2526900E-08
   19.50000     -1.3137024E-08
   19.56000     -1.3741388E-08
   19.62000     -1.4336837E-08
   19.68000     -1.4914049E-08
   19.74000     -1.5463170E-08
   19.80000     -1.5978411E-08
   19.86000     -1.6459715E-08
   19.92000     -1.6911075E-08
   19.98000     -1.7336525E-08
   20.04000     -1.7735708E-08
   20.10000     -1.8101058E-08
   20.16000     -1.8417820E-08
   20.22000     -1.8667023E-08
   20.28000     -1.8830418E-08
   20.34000     -1.8895605E-08
   20.40000     -1.8859575E-08
   20.46000     -1.8729342E-08
   20.52000     -1.8519422E-08
   20.58000     -1.8247059E-08
   20.64000     -1.7926919E-08
   20.70000     -1.7567261E-08
   20.76000     -1.7168899E-08
   20.82000     -1.6727238E-08
   20.88000     -1.6236353E-08
   20.94000     -1.5693367E-08
   21.00000     -1.5101287E-08
   21.06000     -1.4469162E-08
   21.12000     -1.3809479E-08
   21.18000     -1.3133824E-08
   21.24000     -1.2448345E-08
   21.30000     -1.1750737E-08
   21.36000     -1.1029926E-08
   21.42000     -1.0268806E-08
   21.48000     -9.4493187E-09
   21.54000     -8.5582688E-09
   21.60000     -7.5918258E-09
   21.66000     -6.5569346E-09
   21.72000     -5.4688929E-09
   21.78000     -4.3458539E-09
   21.84000     -3.2023584E-09
   21.90000     -2.0445525E-09
   21.96000     -8.6921570E-10
   22.02000      3.3283140E-10
   22.08000      1.5702150E-09
   22.14000      2.8440741E-09
   22.20000      4.1436770E-09
   22.26000      5.4466436E-09
   22.32000      6.7240764E-09
   22.38000      7.9489935E-09
   22.44000      9.1051398E-09
   22.50000      1.0193001E-08
   22.56000      1.1230620E-08
   22.62000      1.2248616E-08
   22.68000      1.3280686E-08
   22.74000      1.4352579E-08
   22.80000      1.5473169E-08
   22.86000      1.6630704E-08
   22.92000      1.7795513E-08
   22.98000      1.8928326E-08
   23.04000      1.9991168E-08
   23.10000      2.0957083E-08
   23.16000      2.1815382E-08
   23.22000      2.2570990E-08
   23.28000      2.3238854E-08
   23.34000      2.3836220E-08
   23.40000      2.4376263E-08
   23.46000      2.4865681E-08
   23.52000      2.5306880E-08
   23.58000      2.5703057E-08
   23.64000      2.6063002E-08
   23.70000      2.6402372E-08
   23.76000      2.6739771E-08
   23.82000      2.7088614E-08
   23.88000      2.7448239E-08
   23.94000      2.7798855E-08
   24.00000      2.8103859E-08
   24.06000      2.8320033E-08
   24.12000      2.8412385E-08
   24.18000      2.8367767E-08
   24.24000      2.8201120E-08
   24.30000      2.7951105E-08
   24.36000      2.7666371E-08
   24.42000      2.7388037E-08
   24.48000      2.7135913E-08
   24.54000      2.6904402E-08
   24.60000      2.6669655E-08
   24.66000      2.6404457E-08
   24.72000      2.6093792E-08
   24.78000      2.5743869E-08
   24.84000      2.5380558E-08
   24.90000      2.5038100E-08
   24.96000      2.4743375E-08
   25.02000      2.4502944E-08
   25.08000      2.4298689E-08
   25.14000      2.4094076E-08
   25.20000      2.3848472E-08
   25.26000      2.3533580E-08
   25.32000      2.3145258E-08
   25.38000      2.2705976E-08
   25.44000      2.2257010E-08
   25.50000      2.1843489E-08
   25.56000      2.1498080E-08
   25.62000      2.1229285E-08
   25.68000      2.1018161E-08
   25.74000      2.0823855E-08
   25.80000      2.0595106E-08
   25.86000      2.0283242E-08
   25.92000      1.9852617E-08
   25.98000      1.9286404E-08
   26.04000      1.8587784E-08
   26.10000      1.7778058E-08
   26.16000      1.6893164E-08
   26.22000      1.5979291E-08
   26.28000      1.5087513E-08
   26.34000      1.4267318E-08
   26.40000      1.3559821E-08
   26.46000      1.2992457E-08
   26.52000      1.2577219E-08
   26.58000      1.2313492E-08
   26.64000      1.2194645E-08
   26.70000      1.2215679E-08
   26.76000      1.2378540E-08
   26.82000      1.2692496E-08
   26.88000      1.3169157E-08
   26.94000      1.3813994E-08
   27.00000      1.4617765E-08
   27.06000      1.5551478E-08
   27.12000      1.6567327E-08
   27.18000      1.7606069E-08
   27.24000      1.8609200E-08
   27.30000      1.9532502E-08
   27.36000      2.0356778E-08
   27.42000      2.1091861E-08
   27.48000      2.1771703E-08
   27.54000      2.2441109E-08
   27.60000      2.3137719E-08
   27.66000      2.3875145E-08
   27.72000      2.4633405E-08
   27.78000      2.5360862E-08
   27.84000      2.5987742E-08
   27.90000      2.6446967E-08
   27.96000      2.6694934E-08
   28.02000      2.6724527E-08
   28.08000      2.6565623E-08
   28.14000      2.6273058E-08
   28.20000      2.5907207E-08
   28.26000      2.5515217E-08
   28.32000      2.5120558E-08
   28.38000      2.4724633E-08
   28.44000      2.4318725E-08
   28.50000      2.3899542E-08
   28.56000      2.3479856E-08
   28.62000      2.3088042E-08
   28.68000      2.2755861E-08
   28.74000      2.2500140E-08
   28.80000      2.2307582E-08
   28.86000      2.2131255E-08
   28.92000      2.1902089E-08
   28.98000      2.1551498E-08
   29.04000      2.1035897E-08
   29.10000      2.0352683E-08
   29.16000      1.9541178E-08
   29.22000      1.8668874E-08
   29.28000      1.7809585E-08
   29.34000      1.7022872E-08
   29.40000      1.6342229E-08
   29.46000      1.5774557E-08
   29.52000      1.5308112E-08
   29.58000      1.4923218E-08
   29.64000      1.4600458E-08
   29.70000      1.4324130E-08
   29.76000      1.4082087E-08
   29.82000      1.3864957E-08
   29.88000      1.3667284E-08
   29.94000      1.3490947E-08
   30.00000      1.3348997E-08
   30.06000      1.3266928E-08
   30.12000      1.3279202E-08
   30.18000      1.3420911E-08
   30.24000      1.3716865E-08
   30.30000      1.4171755E-08
   30.36000      1.4765126E-08
   30.42000      1.5453125E-08
   30.48000      1.6176738E-08
   30.54000      1.6873765E-08
   30.60000      1.7490478E-08
   30.66000      1.7989114E-08
   30.72000      1.8348929E-08
   30.78000      1.8561090E-08
   30.84000      1.8620026E-08
   30.90000      1.8515156E-08
   30.96000      1.8226627E-08
   31.02000      1.7726846E-08
   31.08000      1.6987068E-08
   31.14000      1.5986110E-08
   31.20000      1.4717298E-08
   31.26000      1.3190504E-08
   31.32000      1.1428289E-08
   31.38000      9.4577279E-09
   31.44000      7.3015403E-09
   31.50000      4.9726596E-09
   31.56000      2.4750575E-09
   31.62000     -1.8901926E-10
   31.68000     -3.0081351E-09
   31.74000     -5.9517351E-09
   31.80000     -8.9657322E-09
   31.86000     -1.1976000E-08
   31.92000     -1.4898744E-08
   31.98000     -1.7653750E-08
   32.04000     -2.0175239E-08
   32.10000     -2.2416414E-08
   32.16000     -2.4346930E-08
   32.22000     -2.5946106E-08
   32.28000     -2.7196586E-08
   32.34000     -2.8082553E-08
   32.40000     -2.8593629E-08
   32.46000     -2.8731943E-08
   32.52000     -2.8517485E-08
   32.58000     -2.7987296E-08
   32.64000     -2.7187131E-08
   32.70000     -2.6158295E-08
   32.76000     -2.4925479E-08
   32.82000     -2.3491530E-08
   32.88000     -2.1842288E-08
   32.94000     -1.9959908E-08
   33.00000     -1.7839046E-08
   33.06000     -1.5498657E-08
   33.12000     -1.2984064E-08
   33.18000     -1.0358298E-08
   33.24000     -7.6866398E-09
   33.30000     -5.0214255E-09
   33.36000     -2.3940907E-09
   33.42000      1.8191787E-10
   33.48000      2.6987790E-09
   33.54000      5.1384328E-09
   33.60000      7.4611162E-09
   33.66000      9.6045509E-09
   33.72000      1.1495448E-08
   33.78000      1.3069447E-08
   33.84000      1.4291497E-08
   33.90000      1.5168006E-08
   33.96000      1.5745263E-08
   34.02000      1.6094379E-08
   34.08000      1.6288826E-08
   34.14000      1.6383886E-08
   34.20000      1.6406441E-08
   34.26000      1.6358738E-08
   34.32000      1.6233439E-08
   34.38000      1.6032031E-08
   34.44000      1.5777401E-08
   34.50000      1.5514294E-08
   34.56000      1.5297399E-08
   34.62000      1.5172853E-08
   34.68000      1.5162144E-08
   34.74000      1.5256173E-08
   34.80000      1.5422319E-08
   34.86000      1.5620996E-08
   34.92000      1.5823838E-08
   34.98000      1.6025059E-08
   35.04000      1.6241186E-08
   35.10000      1.6500266E-08
   35.16000      1.6826601E-08
   35.22000      1.7229004E-08
   35.28000      1.7698200E-08
   35.34000      1.8213976E-08
   35.40000      1.8757571E-08
   35.46000      1.9322265E-08
   35.52000      1.9916342E-08
   35.58000      2.0556904E-08
   35.64000      2.1257829E-08
   35.70000      2.2018199E-08
   35.76000      2.2816941E-08
   35.82000      2.3616117E-08
   35.88000      2.4370783E-08
   35.94000      2.5040421E-08
   36.00000      2.5596757E-08
   36.06000      2.6025289E-08
   36.12000      2.6321365E-08
   36.18000      2.6484118E-08
   36.24000      2.6511948E-08
   36.30000      2.6401407E-08
   36.36000      2.6149070E-08
   36.42000      2.5754284E-08
   36.48000      2.5220848E-08
   36.54000      2.4556954E-08
   36.60000      2.3774257E-08
   36.66000      2.2887464E-08
   36.72000      2.1915207E-08
   36.78000      2.0881552E-08
   36.84000      1.9816509E-08
   36.90000      1.8753955E-08
   36.96000      1.7726535E-08
   37.02000      1.6758710E-08
   37.08000      1.5860186E-08
   37.14000      1.5022096E-08
   37.20000      1.4217552E-08
   37.26000      1.3406940E-08
   37.32000      1.2547146E-08
   37.38000      1.1603079E-08
   37.44000      1.0559093E-08
   37.50000      9.4275583E-09
   37.56000      8.2516953E-09
   37.62000      7.1005752E-09
   37.68000      6.0559953E-09
   37.74000      5.1936087E-09
   37.80000      4.5632835E-09
   37.86000      4.1749768E-09
   37.92000      3.9953951E-09
   37.98000      3.9573598E-09
   38.04000      3.9790682E-09
   38.10000      3.9863983E-09
   38.16000      3.9298182E-09
   38.22000      3.7894563E-09
   38.28000      3.5668457E-09
   38.34000      3.2677603E-09
   38.40000      2.8847618E-09
   38.46000      2.3883990E-09
   38.52000      1.7320647E-09
   38.58000      8.6890700E-10
   38.64000     -2.2699739E-10
   38.70000     -1.5456653E-09
   38.76000     -3.0404630E-09
   38.82000     -4.6430424E-09
   38.88000     -6.2877783E-09
   38.94000     -7.9346378E-09
   39.00000     -9.5798356E-09
   39.06000     -1.1249304E-08
   39.12000     -1.2978131E-08
   39.18000     -1.4785744E-08
   39.24000     -1.6658435E-08
   39.30000     -1.8547079E-08
   39.36000     -2.0380710E-08
   39.42000     -2.2089464E-08
   39.48000     -2.3626800E-08
   39.54000     -2.4982130E-08
   39.60000     -2.6179988E-08
   39.66000     -2.7267898E-08
   39.72000     -2.8299212E-08
   39.78000     -2.9318011E-08
   39.84000     -3.0350851E-08
   39.90000     -3.1406262E-08
   39.96000     -3.2479772E-08
   40.02000     -3.3560653E-08
   40.08000     -3.4637228E-08
   40.14000     -3.5699330E-08
   40.20000     -3.6738413E-08
   40.26000     -3.7746947E-08
   40.32000     -3.8718717E-08
   40.38000     -3.9650519E-08
   40.44000     -4.0544645E-08
   40.50000     -4.1410487E-08
   40.56000     -4.2263629E-08
   40.62000     -4.3121606E-08
   40.68000     -4.3997098E-08
   40.74000     -4.4890520E-08
   40.80000     -4.5784731E-08
   40.86000     -4.6644132E-08
   40.92000     -4.7419306E-08
   40.98000     -4.8056368E-08
   41.04000     -4.8509040E-08
   41.10000     -4.8750177E-08
   41.16000     -4.8779693E-08
   41.22000     -4.8626543E-08
   41.28000     -4.8343985E-08
   41.34000     -4.7999318E-08
   41.40000     -4.7661032E-08
   41.46000     -4.7387083E-08
   41.52000     -4.7217746E-08
   41.58000     -4.7174488E-08
   41.64000     -4.7263971E-08
   41.70000     -4.7484175E-08
   41.76000     -4.7829353E-08
   41.82000     -4.8291646E-08
   41.88000     -4.8859942E-08
   41.94000     -4.9518150E-08
   42.00000     -5.0245717E-08
   42.06000     -5.1021374E-08
   42.12000     -5.1828490E-08
   42.18000     -5.2658638E-08
   42.24000     -5.3510121E-08
   42.30000     -5.4380767E-08
   42.36000     -5.5257711E-08
   42.42000     -5.6109286E-08
   42.48000     -5.6883973E-08
   42.54000     -5.7518612E-08
   42.60000     -5.7953649E-08
   42.66000     -5.8149986E-08
   42.72000     -5.8100696E-08
   42.78000     -5.7832835E-08
   42.84000     -5.7398665E-08
   42.90000     -5.6859726E-08
   42.96000     -5.6270018E-08
   43.02000     -5.5664657E-08
   43.08000     -5.5057733E-08
   43.14000     -5.4449178E-08
   43.20000     -5.3836725E-08
   43.26000     -5.3226920E-08
   43.32000     -5.2639955E-08
   43.38000     -5.2105968E-08
   43.44000     -5.1654485E-08
   43.50000     -5.1301804E-08
   43.56000     -5.1042182E-08
   43.62000     -5.0846847E-08
   43.68000     -5.0671595E-08
   43.74000     -5.0469875E-08
   43.80000     -5.0206349E-08
   43.86000     -4.9865886E-08
   43.92000     -4.9455188E-08
   43.98000     -4.8997236E-08
   44.04000     -4.8521120E-08
   44.10000     -4.8051021E-08
   44.16000     -4.7597641E-08
   44.22000     -4.7154252E-08
   44.28000     -4.6697878E-08
   44.34000     -4.6194856E-08
   44.40000     -4.5609099E-08
   44.46000     -4.4910873E-08
   44.52000     -4.4083961E-08
   44.58000     -4.3129429E-08
   44.64000     -4.2065277E-08
   44.70000     -4.0922465E-08
   44.76000     -3.9738794E-08
   44.82000     -3.8552670E-08
   44.88000     -3.7398383E-08
   44.94000     -3.6303572E-08
   45.00000     -3.5288519E-08
   45.06000     -3.4366259E-08
   45.12000     -3.3542705E-08
   45.18000     -3.2816512E-08
   45.24000     -3.2179184E-08
   45.30000     -3.1616093E-08
   45.36000     -3.1108677E-08
   45.42000     -3.0637228E-08
   45.48000     -3.0183070E-08
   45.54000     -2.9729058E-08
   45.60000     -2.9258121E-08
   45.66000     -2.8750952E-08
   45.72000     -2.8184759E-08
   45.78000     -2.7534954E-08
   45.84000     -2.6780492E-08
   45.90000     -2.5911735E-08
   45.96000     -2.4938103E-08
   46.02000     -2.3892060E-08
   46.08000     -2.2826720E-08
   46.14000     -2.1806148E-08
   46.20000     -2.0889873E-08
   46.26000     -2.0115493E-08
   46.32000     -1.9484494E-08
   46.38000     -1.8956394E-08
   46.44000     -1.8454241E-08
   46.50000     -1.7881003E-08
   46.56000     -1.7142328E-08
   46.62000     -1.6168029E-08
   46.68000     -1.4924145E-08
   46.74000     -1.3410228E-08
   46.80000     -1.1641854E-08
   46.86000     -9.6241450E-09
   46.92000     -7.3256650E-09
   46.98000     -4.6616679E-09
   47.04000     -1.4913805E-09
   47.10000      2.3721423E-09
   47.16000      7.1462249E-09
   47.22000      1.3065430E-08
   47.28000      2.0377794E-08
   47.34000      2.9352853E-08
   47.40000      4.0299202E-08
   47.46000      5.3586376E-08
   47.52000      6.9665347E-08
   47.58000      8.9083834E-08
   47.64000      1.1249563E-07
   47.70000      1.4066651E-07
   47.76000      1.7448134E-07
   47.82000      2.1495745E-07
   47.88000      2.6326768E-07
   47.94000      3.2077301E-07
   48.00000      3.8906165E-07
   48.06000      4.6998906E-07
   48.12000      5.6571457E-07
   48.18000      6.7873407E-07
   48.24000      8.1191149E-07
   48.30000      9.6851568E-07
   48.36000      1.1522679E-06
   48.42000      1.3674030E-06
   48.48000      1.6187405E-06
   48.54000      1.9117649E-06
   48.60000      2.2527063E-06
   48.66000      2.6486236E-06
   48.72000      3.1074885E-06
   48.78000      3.6382730E-06
   48.84000      4.2510410E-06
   48.90000      4.9570476E-06
   48.96000      5.7688412E-06
   49.02000      6.7003757E-06
   49.08000      7.7671320E-06
   49.14000      8.9862406E-06
   49.20000      1.0376626E-05
   49.26000      1.1959143E-05
   49.32000      1.3756713E-05
   49.38000      1.5794456E-05
   49.44000      1.8099801E-05
   49.50000      2.0702619E-05
   49.56000      2.3635324E-05
   49.62000      2.6933003E-05
   49.68000      3.0633524E-05
   49.74000      3.4777640E-05
   49.80000      3.9409097E-05
   49.86000      4.4574659E-05
   49.92000      5.0324190E-05
   49.98000      5.6710633E-05
   50.04000      6.3790001E-05
   50.10000      7.1621354E-05
   50.16000      8.0266705E-05
   50.22000      8.9790905E-05
   50.28000      1.0026154E-04
   50.34000      1.1174873E-04
   50.40000      1.2432493E-04
   50.46000      1.3806463E-04
   50.52000      1.5304408E-04
   50.58000      1.6934093E-04
   50.64000      1.8703377E-04
   50.70000      2.0620169E-04
   50.76000      2.2692369E-04
   50.82000      2.4927830E-04
   50.88000      2.7334265E-04
   50.94000      2.9919218E-04
   51.00000      3.2689958E-04
   51.06000      3.5653429E-04
   51.12000      3.8816163E-04
   51.18000      4.2184201E-04
   51.24000      4.5763017E-04
   51.30000      4.9557426E-04
   51.36000      5.3571520E-04
   51.42000      5.7808566E-04
   51.48000      6.2270940E-04
   51.54000      6.6960038E-04
   51.60000      7.1876211E-04
   51.66000      7.7018683E-04
   51.72000      8.2385493E-04
   51.78000      8.7973464E-04
   51.84000      9.3778141E-04
   51.90000      9.9793740E-04
   51.96000      1.0601312E-03
   52.02000      1.1242781E-03
   52.08000      1.1902789E-03
   52.14000      1.2580215E-03
   52.20000      1.3273798E-03
   52.26000      1.3982153E-03
   52.32000      1.4703769E-03
   52.38000      1.5437017E-03
   52.44000      1.6180163E-03
   52.50000      1.6931361E-03
   52.56000      1.7688682E-03
   52.62000      1.8450115E-03
   52.68000      1.9213590E-03
   52.74000      1.9976988E-03
   52.80000      2.0738149E-03
   52.86000      2.1494906E-03
   52.92000      2.2245089E-03
   52.98000      2.2986534E-03
   53.04000      2.3717121E-03
   53.10000      2.4434777E-03
   53.16000      2.5137516E-03
   53.22000      2.5823426E-03
   53.28000      2.6490712E-03
   53.34000      2.7137694E-03
   53.40000      2.7762835E-03
   53.46000      2.8364749E-03
   53.52000      2.8942213E-03
   53.58000      2.9494183E-03
   53.64000      3.0019805E-03
   53.70000      3.0518421E-03
   53.76000      3.0989563E-03
   53.82000      3.1432984E-03
   53.88000      3.1848627E-03
   53.94000      3.2236653E-03
   54.00000      3.2597417E-03
   54.06000      3.2931480E-03
   54.12000      3.3239587E-03
   54.18000      3.3522667E-03
   54.24000      3.3781817E-03
   54.30000      3.4018282E-03
   54.36000      3.4233453E-03
   54.42000      3.4428842E-03
   54.48000      3.4606059E-03
   54.54000      3.4766812E-03
   54.60000      3.4912862E-03
   54.66000      3.5046008E-03
   54.72000      3.5168084E-03
   54.78000      3.5280900E-03
   54.84000      3.5386248E-03
   54.90000      3.5485872E-03
   54.96000      3.5581442E-03
   55.02000      3.5674551E-03
   55.08000      3.5766677E-03
   55.14000      3.5859174E-03
   55.20000      3.5953247E-03
   55.26000      3.6049939E-03
   55.32000      3.6150124E-03
   55.38000      3.6254493E-03
   55.44000      3.6363546E-03
   55.50000      3.6477591E-03
   55.56000      3.6596740E-03