  -2.400000      0.0000000E+00
  -2.340000      0.0000000E+00
  -2.280000      0.0000000E+00
  -2.220000      0.0000000E+00
  -2.160000      0.0000000E+00
  -2.100000      2.6699577E-21
  -2.040000      3.9616769E-20
  -1.980000      2.1643341E-19
  -1.920000      6.1374185E-19
  -1.860000      7.6228142E-19
  -1.800000     -1.1626257E-18
  -1.740000     -8.1400545E-18
  -1.680000     -2.1100100E-17
  -1.620000     -3.2608780E-17
  -1.560000     -2.2438533E-17
  -1.500000      3.5537075E-17
  -1.440000      1.4943959E-16
  -1.380000      2.7874155E-16
  -1.320000      3.2664259E-16
  -1.260000      1.8652168E-16
  -1.200000     -1.6196963E-16
  -1.140000     -5.7344528E-16
  -1.080000     -7.7751859E-16
  -1.020000     -5.9218911E-16
 -0.9600000     -2.0901312E-16
 -0.9000000     -2.8270050E-16
 -0.8400000     -1.5482636E-15
 -0.7800000     -3.9654453E-15
 -0.7200000     -5.8813415E-15
 -0.6600000     -4.0759492E-15
 -0.6000000      4.6242040E-15
 -0.5400000      2.0407583E-14
 -0.4800000      3.7775969E-14
 -0.4200000      4.5450267E-14
 -0.3600000      3.0604537E-14
 -0.3000000     -1.3198549E-14
 -0.2400000     -7.8050020E-14
 -0.1800000     -1.3917528E-13
 -0.1200000     -1.6198135E-13
 -5.9999999E-02 -1.1807273E-13
  0.0000000E+00 -3.5649122E-15
  5.9999999E-02  1.5071059E-13
  0.1200000      2.8567995E-13
  0.1800000      3.3792259E-13
  0.2400000      2.7136149E-13
  0.3000000      1.0019772E-13
  0.3600000     -1.1176394E-13
  0.4200000     -2.7913254E-13
  0.4800000     -3.3846694E-13
  0.5400000     -2.8424919E-13
  0.6000000     -1.7490925E-13
  0.6600000     -1.0080461E-13
  0.7200000     -1.2756423E-13
  0.7800000     -2.4521151E-13
  0.8400000     -3.5521179E-13
  0.9000000     -3.1074966E-13
  0.9600000      2.7836865E-15
   1.020000      5.8533175E-13
   1.080000      1.2834996E-12
   1.140000      1.8248931E-12
   1.200000      1.9203391E-12
   1.260000      1.3931585E-12
   1.320000      2.7629372E-13
   1.380000     -1.1719815E-12
   1.440000     -2.5477487E-12
   1.500000     -3.4460804E-12
   1.560000     -3.6083339E-12
   1.620000     -3.0069721E-12
   1.680000     -1.8314749E-12
   1.740000     -3.8592474E-13
   1.800000      1.0485901E-12
   1.860000      2.3169058E-12
   1.920000      3.4064333E-12
   1.980000      4.3710062E-12
   2.040000      5.2052841E-12
   2.100000      5.7423857E-12
   2.160000      5.6401082E-12
   2.220000      4.4789649E-12
   2.280000      1.9383622E-12
   2.340000     -2.0258279E-12
   2.400000     -7.0852712E-12
   2.460000     -1.2571705E-11
   2.520000     -1.7623528E-11
   2.580000     -2.1375870E-11
   2.640000     -2.3102966E-11
   2.700000     -2.2248396E-11
   2.760000     -1.8341368E-11
   2.820000     -1.0863078E-11
   2.880000      8.3851963E-13
   2.940000      1.7505511E-11
   3.000000      3.9782351E-11
   3.060000      6.7944463E-11
   3.120000      1.0165762E-10
   3.180000      1.3988093E-10
   3.240000      1.8096889E-10
   3.300000      2.2294640E-10
   3.360000      2.6385699E-10
   3.420000      3.0206340E-10
   3.480000      3.3641243E-10
   3.540000      3.6624803E-10
   3.600000      3.9133013E-10
   3.660000      4.1175258E-10
   3.720000      4.2793502E-10
   3.780000      4.4070184E-10
   3.840000      4.5138862E-10
   3.900000      4.6186938E-10
   3.960000      4.7440535E-10
   4.020000      4.9127580E-10
   4.080000      5.1424281E-10
   4.140000      5.4398480E-10
   4.200000      5.7967625E-10
   4.260000      6.1887173E-10
   4.320000      6.5776806E-10
   4.380000      6.9180628E-10
   4.440000      7.1646544E-10
   4.500000      7.2803658E-10
   4.560000      7.2417472E-10
   4.620000      7.0411071E-10
   4.680000      6.6852351E-10
   4.740000      6.1918287E-10
   4.800000      5.5852611E-10
   4.860000      4.8930476E-10
   4.920000      4.1435222E-10
   4.980000      3.3643385E-10
   5.040000      2.5809491E-10
   5.100000      1.8144695E-10
   5.160000      1.0790648E-10
   5.220000      3.7976199E-11
   5.280000     -2.8816803E-11
   5.340000     -9.3753845E-11
   5.400000     -1.5854285E-10
   5.460000     -2.2482144E-10
   5.520000     -2.9367669E-10
   5.580000     -3.6529371E-10
   5.640000     -4.3879361E-10
   5.700000     -5.1227134E-10
   5.760000     -5.8301564E-10
   5.820000     -6.4789651E-10
   5.880000     -7.0389528E-10
   5.940000     -7.4873280E-10
   6.000000     -7.8151124E-10
   6.060000     -8.0326101E-10
   6.120000     -8.1728468E-10
   6.180000     -8.2923646E-10
   6.240000     -8.4694335E-10
   6.300000     -8.8003849E-10
   6.360000     -9.3951413E-10
   6.420000     -1.0372958E-09
   6.480000     -1.1858891E-09
   6.540000     -1.3981099E-09
   6.600000     -1.6868303E-09
   6.660000     -2.0646544E-09
   6.720000     -2.5434386E-09
   6.780000     -3.1336258E-09
   6.840000     -3.8434651E-09
   6.900000     -4.6782560E-09
   6.960000     -5.6398002E-09
   7.020000     -6.7261787E-09
   7.080000     -7.9318747E-09
   7.140000     -9.2481036E-09
   7.200000     -1.0663149E-08
   7.260000     -1.2162531E-08
   7.320000     -1.3728885E-08
   7.380000     -1.5341650E-08
   7.440000     -1.6976665E-08
   7.500000     -1.8605894E-08
   7.560000     -2.0197406E-08
   7.620000     -2.1715740E-08
   7.680000     -2.3122670E-08
   7.740000     -2.4378409E-08
   7.800000     -2.5443221E-08
   7.860000     -2.6279343E-08
   7.920000     -2.6853099E-08
   7.980000     -2.7136984E-08
   8.040000     -2.7111565E-08
   8.100000     -2.6767003E-08
   8.160000     -2.6104102E-08
   8.220000     -2.5134778E-08
   8.280000     -2.3881892E-08
   8.340000     -2.2378419E-08
   8.400000     -2.0665968E-08
   8.460000     -1.8792786E-08
   8.520000     -1.6811475E-08
   8.580000     -1.4776619E-08
   8.640000     -1.2742500E-08
   8.700000     -1.0760922E-08
   8.760000     -8.8791445E-09
   8.820000     -7.1378978E-09
   8.880000     -5.5696274E-09
   8.940000     -4.1972252E-09
   9.000000     -3.0335530E-09
   9.060000     -2.0819393E-09
   9.120000     -1.3375633E-09
   9.180000     -7.8936835E-10
   9.240000     -4.2199341E-10
   9.300000     -2.1726045E-10
   9.360000     -1.5498439E-10
   9.420000     -2.1316601E-10
   9.480000     -3.6786124E-10
   9.540000     -5.9310235E-10
   9.600000     -8.6117524E-10
   9.660000     -1.1433878E-09
   9.720000     -1.4112854E-09
   9.780000     -1.6381433E-09
   9.840000     -1.8005071E-09
   9.900000     -1.8795692E-09
   9.960000     -1.8622132E-09
   10.02000     -1.7416253E-09
   10.08000     -1.5174174E-09
   10.14000     -1.1952440E-09
   10.20000     -7.8591583E-10
   10.26000     -3.0404040E-10
   10.32000      2.3373578E-10
   10.38000      8.1073326E-10
   10.44000      1.4122679E-09
   10.50000      2.0274136E-09
   10.56000      2.6502163E-09
   10.62000      3.2801455E-09
   10.68000      3.9217092E-09
   10.74000      4.5833075E-09
   10.80000      5.2755356E-09
   10.86000      6.0092122E-09
   10.92000      6.7934236E-09
   10.98000      7.6338011E-09
   11.04000      8.5311891E-09
   11.10000      9.4807788E-09
   11.16000      1.0471762E-08
   11.22000      1.1487526E-08
   11.28000      1.2506476E-08
   11.34000      1.3503465E-08
   11.40000      1.4451806E-08
   11.46000      1.5325616E-08
   11.52000      1.6102213E-08
   11.58000      1.6764114E-08
   11.64000      1.7300428E-08
   11.70000      1.7707496E-08
   11.76000      1.7988897E-08
   11.82000      1.8155044E-08
   11.88000      1.8222490E-08
   11.94000      1.8212976E-08
   12.00000      1.8152079E-08
   12.06000      1.8067420E-08
   12.12000      1.7986494E-08
   12.18000      1.7934415E-08
   12.24000      1.7931891E-08
   12.30000      1.7993644E-08
   12.36000      1.8127224E-08
   12.42000      1.8332106E-08
   12.48000      1.8598900E-08
   12.54000      1.8908892E-08
   12.60000      1.9234310E-08
   12.66000      1.9539785E-08
   12.72000      1.9785169E-08
   12.78000      1.9929319E-08
   12.84000      1.9934129E-08
   12.90000      1.9767944E-08
   12.96000      1.9407839E-08
   13.02000      1.8840797E-08
   13.08000      1.8064155E-08
   13.14000      1.7085668E-08
   13.20000      1.5923241E-08
   13.26000      1.4603879E-08
   13.32000      1.3161381E-08
   13.38000      1.1632603E-08
   13.44000      1.0052704E-08
   13.50000      8.4504537E-09
   13.56000      6.8447750E-09
   13.62000      5.2434070E-09
   13.68000      3.6439050E-09
   13.74000      2.0365187E-09
   13.80000      4.0813039E-10
   13.86000     -1.2536167E-09
   13.92000     -2.9566882E-09
   13.98000     -4.7020463E-09
   14.04000     -6.4824466E-09
   14.10000     -8.2829379E-09
   14.16000     -1.0083095E-08
   14.22000     -1.1860619E-08
   14.28000     -1.3595464E-08
   14.34000     -1.5273445E-08
   14.40000     -1.6888411E-08
   14.46000     -1.8442590E-08
   14.52000     -1.9945368E-08
   14.58000     -2.1411108E-08
   14.64000     -2.2856739E-08
   14.70000     -2.4299425E-08
   14.76000     -2.5754373E-08
   14.82000     -2.7232668E-08
   14.88000     -2.8739191E-08
   14.94000     -3.0271043E-08
   15.00000     -3.1816935E-08
   15.06000     -3.3357939E-08
   15.12000     -3.4869508E-08
   15.18000     -3.6324124E-08
   15.24000     -3.7693951E-08
   15.30000     -3.8952837E-08
   15.36000     -4.0077612E-08
   15.42000     -4.1048903E-08
   15.48000     -4.1851781E-08
   15.54000     -4.2476593E-08
   15.60000     -4.2919897E-08
   15.66000     -4.3185359E-08
   15.72000     -4.3284306E-08
   15.78000     -4.3235730E-08
   15.84000     -4.3065398E-08
   15.90000     -4.2803698E-08
   15.96000     -4.2482110E-08
   16.02000     -4.2128530E-08
   16.08000     -4.1762373E-08
   16.14000     -4.1390877E-08
   16.20000     -4.1008004E-08
   16.26000     -4.0596600E-08
   16.32000     -4.0133322E-08
   16.38000     -3.9594678E-08
   16.44000     -3.8962185E-08
   16.50000     -3.8225110E-08
   16.56000     -3.7380431E-08
   16.62000     -3.6430954E-08
   16.68000     -3.5382946E-08
   16.74000     -3.4244458E-08
   16.80000     -3.3024840E-08
   16.86000     -3.1735098E-08
   16.92000     -3.0388414E-08
   16.98000     -2.9000427E-08
   17.04000     -2.7588998E-08
   17.10000     -2.6173671E-08
   17.16000     -2.4774826E-08
   17.22000     -2.3412506E-08
   17.28000     -2.2104873E-08
   17.34000     -2.0866482E-08
   17.40000     -1.9706825E-08
   17.46000     -1.8629709E-08
   17.52000     -1.7633774E-08
   17.58000     -1.6713825E-08
   17.64000     -1.5862330E-08
   17.70000     -1.5070272E-08
   17.76000     -1.4327076E-08
   17.82000     -1.3619926E-08
   17.88000     -1.2933298E-08
   17.94000     -1.2249486E-08
   18.00000     -1.1550438E-08
   18.06000     -1.0820587E-08
   18.12000     -1.0049876E-08
   18.18000     -9.2361834E-09
   18.24000     -8.3865714E-09
   18.30000     -7.5171949E-09
   18.36000     -6.6520092E-09
   18.42000     -5.8205258E-09
   18.48000     -5.0548965E-09
   18.54000     -4.3866311E-09
   18.60000     -3.8432786E-09
   18.66000     -3.4454388E-09
   18.72000     -3.2044438E-09
   18.78000     -3.1209828E-09
   18.84000     -3.1848517E-09
   18.90000     -3.3759420E-09
   18.96000     -3.6664995E-09
   19.02000     -4.0244914E-09
   19.08000     -4.4176232E-09
   19.14000     -4.8172457E-09
   19.20000     -5.2012488E-09
   19.26000     -5.5553171E-09
   19.32000     -5.8724430E-09
   19.38000     -6.1512986E-09
   19.44000     -6.3944530E-09
   19.50000     -6.6073436E-09
   19.56000     -6.7983259E-09
   19.62000     -6.9794122E-09
   19.68000     -7.1667849E-09
   19.74000     -7.3801885E-09
   19.80000     -7.6407591E-09
   19.86000     -7.9675324E-09
   19.92000     -8.3733855E-09
   19.98000     -8.8613819E-09
   20.04000     -9.4223518E-09
   20.10000     -1.0034309E-08
   20.16000     -1.0663971E-08
   20.22000     -1.1270366E-08
   20.28000     -1.1810207E-08
   20.34000     -1.2244218E-08
   20.40000     -1.2543215E-08
   20.46000     -1.2692558E-08
   20.52000     -1.2693809E-08
   20.58000     -1.2563143E-08
   20.64000     -1.2326967E-08
   20.70000     -1.2016002E-08
   20.76000     -1.1659480E-08
   20.82000     -1.1280886E-08
   20.88000     -1.0896001E-08
   20.94000     -1.0513274E-08
   21.00000     -1.0135778E-08
   21.06000     -9.7637436E-09
   21.12000     -9.3966159E-09
   21.18000     -9.0339949E-09
   21.24000     -8.6753325E-09
   21.30000     -8.3188274E-09
   21.36000     -7.9603355E-09
   21.42000     -7.5931794E-09
   21.48000     -7.2093957E-09
   21.54000     -6.8023378E-09
   21.60000     -6.3698713E-09
   21.66000     -5.9170158E-09
   21.72000     -5.4569673E-09
   21.78000     -5.0099658E-09
   21.84000     -4.6002069E-09
   21.90000     -4.2516257E-09
   21.96000     -3.9836103E-09
   22.02000     -3.8075916E-09
   22.08000     -3.7250680E-09
   22.14000     -3.7272492E-09
   22.20000     -3.7962495E-09
   22.26000     -3.9075712E-09
   22.32000     -4.0334616E-09
   22.38000     -4.1465471E-09
   22.44000     -4.2230122E-09
   22.50000     -4.2446833E-09
   22.56000     -4.1997477E-09
   22.62000     -4.0823567E-09
   22.68000     -3.8917984E-09
   22.74000     -3.6319285E-09
   22.80000     -3.3111480E-09
   22.86000     -2.9425522E-09
   22.92000     -2.5434106E-09
   22.98000     -2.1332083E-09
   23.04000     -1.7301272E-09
   23.10000     -1.3467458E-09
   23.16000     -9.8639075E-10
   23.22000     -6.4156830E-10
   23.28000     -2.9520700E-10
   23.34000      7.5618393E-11
   23.40000      4.9468579E-10
   23.46000      9.8184205E-10
   23.52000      1.5495731E-09
   23.58000      2.2013487E-09
   23.64000      2.9315261E-09
   23.70000      3.7263557E-09
   23.76000      4.5657762E-09
   23.82000      5.4259712E-09
   23.88000      6.2827326E-09
   23.94000      7.1154358E-09
   24.00000      7.9109252E-09
   24.06000      8.6662562E-09
   24.12000      9.3892680E-09
   24.18000      1.0096493E-08
   24.24000      1.0808741E-08
   24.30000      1.1545445E-08
   24.36000      1.2319201E-08
   24.42000      1.3131775E-08
   24.48000      1.3972243E-08
   24.54000      1.4817401E-08
   24.60000      1.5634084E-08
   24.66000      1.6382945E-08
   24.72000      1.7023208E-08
   24.78000      1.7517928E-08
   24.84000      1.7839049E-08
   24.90000      1.7971356E-08
   24.96000      1.7914337E-08
   25.02000      1.7681225E-08
   25.08000      1.7295296E-08
   25.14000      1.6784234E-08
   25.20000      1.6174148E-08
   25.26000      1.5484837E-08
   25.32000      1.4727353E-08
   25.38000      1.3904052E-08
   25.44000      1.3010387E-08
   25.50000      1.2037388E-08
   25.56000      1.0973914E-08
   25.62000      9.8083506E-09
   25.68000      8.5298728E-09
   25.74000      7.1295689E-09
   25.80000      5.6014291E-09
   25.86000      3.9428429E-09
   25.92000      2.1541477E-09
   25.98000      2.3711072E-10
   26.04000     -1.8071112E-09
   26.10000     -3.9794372E-09
   26.16000     -6.2826730E-09
   26.22000     -8.7192458E-09
   26.28000     -1.1287500E-08
   26.34000     -1.3978035E-08
   26.40000     -1.6771768E-08
   26.46000     -1.9640726E-08
   26.52000     -2.2551408E-08
   26.58000     -2.5469573E-08
   26.64000     -2.8364820E-08
   26.70000     -3.1213677E-08
   26.76000     -3.4000678E-08
   26.82000     -3.6717772E-08
   26.88000     -3.9362504E-08
   26.94000     -4.1935657E-08
   27.00000     -4.4438512E-08
   27.06000     -4.6869989E-08
   27.12000     -4.9224091E-08
   27.18000     -5.1488492E-08
   27.24000     -5.3645099E-08
   27.30000     -5.5673038E-08
   27.36000     -5.7553528E-08
   27.42000     -5.9275123E-08
   27.48000     -6.0837330E-08
   27.54000     -6.2251118E-08
   27.60000     -6.3535829E-08
   27.66000     -6.4713419E-08
   27.72000     -6.5802048E-08
   27.78000     -6.6810983E-08
   27.84000     -6.7738256E-08
   27.90000     -6.8571481E-08
   27.96000     -6.9291097E-08
   28.02000     -6.9874986E-08
   28.08000     -7.0303273E-08
   28.14000     -7.0562429E-08
   28.20000     -7.0648085E-08
   28.26000     -7.0566067E-08
   28.32000     -7.0331396E-08
   28.38000     -6.9965367E-08
   28.44000     -6.9491193E-08
   28.50000     -6.8929296E-08
   28.56000     -6.8293673E-08
   28.62000     -6.7590491E-08
   28.68000     -6.6819474E-08
   28.74000     -6.5977503E-08
   28.80000     -6.5063098E-08
   28.86000     -6.4080020E-08
   28.92000     -6.3038712E-08
   28.98000     -6.1955262E-08
   29.04000     -6.0848357E-08
   29.10000     -5.9735939E-08
   29.16000     -5.8632608E-08
   29.22000     -5.7548579E-08
   29.28000     -5.6490130E-08
   29.34000     -5.5460525E-08
   29.40000     -5.4460671E-08
   29.46000     -5.3489106E-08
   29.52000     -5.2541811E-08
   29.58000     -5.1612616E-08
   29.64000     -5.0694929E-08
   29.70000     -4.9784802E-08
   29.76000     -4.8884402E-08
   29.82000     -4.8004530E-08
   29.88000     -4.7164999E-08
   29.94000     -4.6392422E-08
   30.00000     -4.5715741E-08
   30.06000     -4.5160512E-08
   30.12000     -4.4743281E-08
   30.18000     -4.4466987E-08
   30.24000     -4.4318483E-08
   30.30000     -4.4268983E-08
   30.36000     -4.4277996E-08
   30.42000     -4.4300599E-08
   30.48000     -4.4296975E-08
   30.54000     -4.4241808E-08
   30.60000     -4.4130601E-08
   30.66000     -4.3980545E-08
   30.72000     -4.3825207E-08
   30.78000     -4.3704592E-08
   30.84000     -4.3653802E-08
   30.90000     -4.3694079E-08
   30.96000     -4.3828798E-08
   31.02000     -4.4045095E-08
   31.08000     -4.4319698E-08
   31.14000     -4.4626631E-08
   31.20000     -4.4944205E-08
   31.26000     -4.5259810E-08
   31.32000     -4.5571742E-08
   31.38000     -4.5888200E-08
   31.44000     -4.6223800E-08
   31.50000     -4.6594373E-08
   31.56000     -4.7011198E-08
   31.62000     -4.7476135E-08
   31.68000     -4.7979359E-08
   31.74000     -4.8500727E-08
   31.80000     -4.9014609E-08
   31.86000     -4.9496709E-08
   31.92000     -4.9930282E-08
   31.98000     -5.0309261E-08
   32.04000     -5.0637034E-08
   32.10000     -5.0921248E-08
   32.16000     -5.1166818E-08
   32.22000     -5.1369991E-08
   32.28000     -5.1516029E-08
   32.34000     -5.1581697E-08
   32.40000     -5.1541775E-08
   32.46000     -5.1377398E-08
   32.52000     -5.1083248E-08
   32.58000     -5.0670948E-08
   32.64000     -5.0167323E-08
   32.70000     -4.9607930E-08
   32.76000     -4.9027875E-08
   32.82000     -4.8452939E-08
   32.88000     -4.7893874E-08
   32.94000     -4.7345623E-08
   33.00000     -4.6791648E-08
   33.06000     -4.6211650E-08
   33.12000     -4.5589896E-08
   33.18000     -4.4921098E-08
   33.24000     -4.4211710E-08
   33.30000     -4.3476120E-08
   33.36000     -4.2729098E-08
   33.42000     -4.1977369E-08
   33.48000     -4.1213834E-08
   33.54000     -4.0417014E-08
   33.60000     -3.9556877E-08
   33.66000     -3.8605450E-08
   33.72000     -3.7548805E-08
   33.78000     -3.6395850E-08
   33.84000     -3.5180193E-08
   33.90000     -3.3953366E-08
   33.96000     -3.2770870E-08
   34.02000     -3.1675082E-08
   34.08000     -3.0680443E-08
   34.14000     -2.9765859E-08
   34.20000     -2.8876965E-08
   34.26000     -2.7937853E-08
   34.32000     -2.6869049E-08
   34.38000     -2.5606719E-08
   34.44000     -2.4117949E-08
   34.50000     -2.2408209E-08
   34.56000     -2.0519273E-08
   34.62000     -1.8518511E-08
   34.68000     -1.6482444E-08
   34.74000     -1.4478999E-08
   34.80000     -1.2553004E-08
   34.86000     -1.0718565E-08
   34.92000     -8.9600709E-09
   34.98000     -7.2410962E-09
   35.04000     -5.5182445E-09
   35.10000     -3.7556447E-09
   35.16000     -1.9357709E-09
   35.22000     -6.3645193E-11
   35.28000      1.8362121E-09
   35.34000      3.7283012E-09
   35.40000      5.5766396E-09
   35.46000      7.3533504E-09
   35.52000      9.0424876E-09
   35.58000      1.0638206E-08
   35.64000      1.2138632E-08
   35.70000      1.3538354E-08
   35.76000      1.4822902E-08
   35.82000      1.5967691E-08
   35.88000      1.6942138E-08
   35.94000      1.7717609E-08
   36.00000      1.8276394E-08
   36.06000      1.8618369E-08
   36.12000      1.8762799E-08
   36.18000      1.8744270E-08
   36.24000      1.8603791E-08
   36.30000      1.8377618E-08
   36.36000      1.8087288E-08
   36.42000      1.7733839E-08
   36.48000      1.7297992E-08
   36.54000      1.6746093E-08
   36.60000      1.6039703E-08
   36.66000      1.5145604E-08
   36.72000      1.4042814E-08
   36.78000      1.2724385E-08
   36.84000      1.1193644E-08
   36.90000      9.4565751E-09
   36.96000      7.5134983E-09
   37.02000      5.3534563E-09
   37.08000      2.9537486E-09
   37.14000      2.8512820E-10
   37.20000     -2.6788702E-09
   37.26000     -5.9515584E-09
   37.32000     -9.5251682E-09
   37.38000     -1.3368047E-08
   37.44000     -1.7427951E-08
   37.50000     -2.1640398E-08
   37.56000     -2.5939473E-08
   37.62000     -3.0267916E-08
   37.68000     -3.4583671E-08
   37.74000     -3.8861490E-08
   37.80000     -4.3089663E-08
   37.86000     -4.7263441E-08
   37.92000     -5.1377295E-08
   37.98000     -5.5418166E-08
   38.04000     -5.9361291E-08
   38.10000     -6.3169196E-08
   38.16000     -6.6793682E-08
   38.22000     -7.0180079E-08
   38.28000     -7.3272460E-08
   38.34000     -7.6019028E-08
   38.40000     -7.8376480E-08
   38.46000     -8.0313207E-08
   38.52000     -8.1810960E-08
   38.58000     -8.2865363E-08
   38.64000     -8.3485652E-08
   38.70000     -8.3693557E-08
   38.76000     -8.3521513E-08
   38.82000     -8.3009930E-08
   38.88000     -8.2203393E-08
   38.94000     -8.1146375E-08
   39.00000     -7.9878923E-08
   39.06000     -7.8433530E-08
   39.12000     -7.6834027E-08
   39.18000     -7.5096779E-08
   39.24000     -7.3233913E-08
   39.30000     -7.1257546E-08
   39.36000     -6.9183486E-08
   39.42000     -6.7033291E-08
   39.48000     -6.4833728E-08
   39.54000     -6.2613715E-08
   39.60000     -6.0399650E-08
   39.66000     -5.8210656E-08
   39.72000     -5.6055271E-08
   39.78000     -5.3930769E-08
   39.84000     -5.1825218E-08
   39.90000     -4.9721535E-08
   39.96000     -4.7602121E-08
   40.02000     -4.5452708E-08
   40.08000     -4.3264578E-08
   40.14000     -4.1035133E-08
   40.20000     -3.8767226E-08
   40.26000     -3.6467988E-08
   40.32000     -3.4147405E-08
   40.38000     -3.1817059E-08
   40.44000     -2.9489073E-08
   40.50000     -2.7175883E-08
   40.56000     -2.4891188E-08
   40.62000     -2.2652268E-08
   40.68000     -2.0482913E-08
   40.74000     -1.8415484E-08
   40.80000     -1.6490329E-08
   40.86000     -1.4751679E-08
   40.92000     -1.3240645E-08
   40.98000     -1.1987506E-08
   41.04000     -1.1006129E-08
   41.10000     -1.0292677E-08
   41.16000     -9.8289403E-09
   41.22000     -9.5888151E-09
   41.28000     -9.5453228E-09
   41.34000     -9.6759338E-09
   41.40000     -9.9651487E-09
   41.46000     -1.0404718E-08
   41.52000     -1.0992579E-08
   41.58000     -1.1731422E-08
   41.64000     -1.2627041E-08
   41.70000     -1.3686146E-08
   41.76000     -1.4913438E-08
   41.82000     -1.6308432E-08
   41.88000     -1.7863231E-08
   41.94000     -1.9562453E-08
   42.00000     -2.1385738E-08
   42.06000     -2.3311944E-08
   42.12000     -2.5323281E-08
   42.18000     -2.7407618E-08
   42.24000     -2.9558143E-08
   42.30000     -3.1770973E-08
   42.36000     -3.4042220E-08
   42.42000     -3.6366014E-08
   42.48000     -3.8734111E-08
   42.54000     -4.1136627E-08
   42.60000     -4.3562810E-08
   42.66000     -4.6001013E-08
   42.72000     -4.8437844E-08
   42.78000     -5.0857349E-08
   42.84000     -5.3241177E-08
   42.90000     -5.5570084E-08
   42.96000     -5.7826192E-08
   43.02000     -5.9994861E-08
   43.08000     -6.2065190E-08
   43.14000     -6.4028974E-08
   43.20000     -6.5878993E-08
   43.26000     -6.7607957E-08
   43.32000     -6.9208802E-08
   43.38000     -7.0676286E-08
   43.44000     -7.2008703E-08
   43.50000     -7.3208511E-08
   43.56000     -7.4281324E-08
   43.62000     -7.5233615E-08
   43.68000     -7.6070570E-08
   43.74000     -7.6794990E-08
   43.80000     -7.7408068E-08
   43.86000     -7.7911004E-08
   43.92000     -7.8306520E-08
   43.98000     -7.8598923E-08
   44.04000     -7.8792596E-08
   44.10000     -7.8889521E-08
   44.16000     -7.8887247E-08
   44.22000     -7.8778513E-08
   44.28000     -7.8552887E-08
   44.34000     -7.8200003E-08
   44.40000     -7.7713082E-08
   44.46000     -7.7091400E-08
   44.52000     -7.6340932E-08
   44.58000     -7.5473054E-08
   44.64000     -7.4501969E-08
   44.70000     -7.3441917E-08
   44.76000     -7.2305198E-08
   44.82000     -7.1101333E-08
   44.88000     -6.9837512E-08
   44.94000     -6.8519732E-08
   45.00000     -6.7154126E-08
   45.06000     -6.5747926E-08
   45.12000     -6.4309951E-08
   45.18000     -6.2850354E-08
   45.24000     -6.1379609E-08
   45.30000     -5.9906419E-08
   45.36000     -5.8434914E-08
   45.42000     -5.6961330E-08
   45.48000     -5.5471510E-08
   45.54000     -5.3940457E-08
   45.60000     -5.2334983E-08
   45.66000     -5.0619501E-08
   45.72000     -4.8763621E-08
   45.78000     -4.6749211E-08
   45.84000     -4.4574602E-08
   45.90000     -4.2254456E-08
   45.96000     -3.9815518E-08
   46.02000     -3.7290022E-08
   46.08000     -3.4709220E-08
   46.14000     -3.2099297E-08
   46.20000     -2.9480434E-08
   46.26000     -2.6868715E-08
   46.32000     -2.4279176E-08
   46.38000     -2.1728464E-08
   46.44000     -1.9235928E-08
   46.50000     -1.6822963E-08
   46.56000     -1.4511073E-08
   46.62000     -1.2319553E-08
   46.68000     -1.0263473E-08
   46.74000     -8.3524565E-09
   46.80000     -6.5903794E-09
   46.86000     -4.9760218E-09
   46.92000     -3.5045926E-09
   46.98000     -2.1699551E-09
   47.04000     -9.6715769E-10
   47.10000      1.0535969E-10
   47.16000      1.0446239E-09
   47.22000      1.8436016E-09
   47.28000      2.4933438E-09
   47.34000      2.9861766E-09
   47.40000      3.3188112E-09
   47.46000      3.4941268E-09
   47.52000      3.5208285E-09
   47.58000      3.4110108E-09
   47.64000      3.1765524E-09
   47.70000      2.8258458E-09
   47.76000      2.3623072E-09
   47.82000      1.7854495E-09
   47.88000      1.0942468E-09
   47.94000      2.9151495E-10
   48.00000     -6.1252492E-10
   48.06000     -1.5991636E-09
   48.12000     -2.6434614E-09
   48.18000     -3.7195158E-09
   48.24000     -4.8073328E-09
   48.30000     -5.8992904E-09
   48.36000     -7.0042856E-09
   48.42000     -8.1483540E-09
   48.48000     -9.3715586E-09
   48.54000     -1.0721959E-08
   48.60000     -1.2248170E-08
   48.66000     -1.3992424E-08
   48.72000     -1.5986027E-08
   48.78000     -1.8248725E-08
   48.84000     -2.0792731E-08
   48.90000     -2.3630944E-08
   48.96000     -2.6787657E-08
   49.02000     -3.0309000E-08
   49.08000     -3.4270339E-08
   49.14000     -3.8778722E-08
   49.20000     -4.3970392E-08
   49.26000     -5.0005234E-08
   49.32000     -5.7061175E-08
   49.38000     -6.5331335E-08
   49.44000     -7.5025618E-08
   49.50000     -8.6376708E-08
   49.56000     -9.9649554E-08
   49.62000     -1.1515281E-07
   49.68000     -1.3325158E-07
   49.74000     -1.5438047E-07
   49.80000     -1.7905666E-07
   49.86000     -2.0789186E-07
   49.92000     -2.4160281E-07
   49.98000     -2.8101982E-07
   50.04000     -3.2709497E-07
   50.10000     -3.8091147E-07
   50.16000     -4.4369710E-07
   50.22000     -5.1684214E-07
   50.28000     -6.0192122E-07
   50.34000     -7.0071690E-07
   50.40000     -8.1524360E-07
   50.46000     -9.4776925E-07
   50.52000     -1.1008362E-06
   50.58000     -1.2772825E-06
   50.64000     -1.4802630E-06
   50.70000     -1.7132762E-06
   50.76000     -1.9801946E-06
   50.82000     -2.2852996E-06
   50.88000     -2.6333205E-06
   50.94000     -3.0294768E-06
   51.00000     -3.4795189E-06
   51.06000     -3.9897677E-06
   51.12000     -4.5671472E-06
   51.18000     -5.2192117E-06
   51.24000     -5.9541667E-06
   51.30000     -6.7808878E-06
   51.36000     -7.7089389E-06
   51.42000     -8.7485914E-06
   51.48000     -9.9108438E-06
   51.54000     -1.1207437E-05
   51.60000     -1.2650876E-05
   51.66000     -1.4254433E-05
   51.72000     -1.6032156E-05
   51.78000     -1.7998864E-05
   51.84000     -2.0170120E-05
   51.90000     -2.2562215E-05
   51.96000     -2.5192106E-05
   52.02000     -2.8077362E-05
   52.08000     -3.1236093E-05
   52.14000     -3.4686887E-05
   52.20000     -3.8448710E-05
   52.26000     -4.2540836E-05
   52.32000     -4.6982736E-05
   52.38000     -5.1793955E-05
   52.44000     -5.6993969E-05
   52.50000     -6.2602034E-05
   52.56000     -6.8636997E-05
   52.62000     -7.5117161E-05
   52.68000     -8.2060076E-05
   52.74000     -8.9482346E-05
   52.80000     -9.7399403E-05
   52.86000     -1.0582535E-04
   52.92000     -1.1477269E-04
   52.98000     -1.2425211E-04
   53.04000     -1.3427233E-04
   53.10000     -1.4483983E-04
   53.16000     -1.5595873E-04
   53.22000     -1.6763051E-04
   53.28000     -1.7985386E-04
   53.34000     -1.9262436E-04
   53.40000     -2.0593441E-04
   53.46000     -2.1977299E-04
   53.52000     -2.3412565E-04
   53.58000     -2.4897442E-04
   53.64000     -2.6429765E-04
   53.70000     -2.8007006E-04
   53.76000     -2.9626270E-04
   53.82000     -3.1284289E-04
   53.88000     -3.2977431E-04
   53.94000     -3.4701717E-04
   54.00000     -3.6452815E-04
   54.06000     -3.8226089E-04
   54.12000     -4.0016594E-04
   54.18000     -4.1819111E-04
   54.24000     -4.3628173E-04
   54.30000     -4.5438085E-04
   54.36000     -4.7242976E-04
   54.42000     -4.9036829E-04
   54.48000     -5.0813530E-04
   54.54000     -5.2566908E-04
   54.60000     -5.4290792E-04
   54.66000     -5.5979041E-04
   54.72000     -5.7625608E-04
   54.78000     -5.9224549E-04
   54.84000     -6.0770102E-04
   54.90000     -6.2256755E-04
   54.96000     -6.3679233E-04
   55.02000     -6.5032637E-04
   55.08000     -6.6312408E-04
   55.14000     -6.7514420E-04
   55.20000     -6.8634987E-04
   55.26000     -6.9670903E-04
   55.32000     -7.0619484E-04
   55.38000     -7.1478577E-04
   55.44000     -7.2246586E-04
   55.50000     -7.2922534E-04
   55.56000     -7.3506014E-04