  -2.400000      0.0000000E+00
  -2.340000      0.0000000E+00
  -2.280000      0.0000000E+00
  -2.220000      0.0000000E+00
  -2.160000      0.0000000E+00
  -2.100000      0.0000000E+00
  -2.040000      0.0000000E+00
  -1.980000      0.0000000E+00
  -1.920000     -1.6792468E-26
  -1.860000     -1.4979985E-25
  -1.800000     -5.7150000E-25
  -1.740000     -8.8454747E-25
  -1.680000      1.7276212E-24
  -1.620000      1.4158193E-23
  -1.560000      4.3251416E-23
  -1.500000      7.8297960E-23
  -1.440000      6.1200460E-23
  -1.380000     -1.3095836E-22
  -1.320000     -6.3873192E-22
  -1.260000     -1.4560964E-21
  -1.200000     -2.1622235E-21
  -1.140000     -1.7059045E-21
  -1.080000      1.4409941E-21
  -1.020000      8.4382875E-21
 -0.9600000      1.8574869E-20
 -0.9000000      2.7867592E-20
 -0.8400000      2.9092201E-20
 -0.7800000      1.4016975E-20
 -0.7200000     -2.3538054E-20
 -0.6600000     -8.7279885E-20
 -0.6000000     -1.8207122E-19
 -0.5400000     -3.1382341E-19
 -0.4800000     -4.6666377E-19
 -0.4200000     -5.4261316E-19
 -0.3600000     -2.8895071E-19
 -0.3000000      6.9015825E-19
 -0.2400000      2.6956871E-18
 -0.1800000      5.4093005E-18
 -0.1200000      7.2983899E-18
 -5.9999999E-02  5.5410968E-18
  0.0000000E+00 -2.7922162E-18
  5.9999999E-02 -1.8071587E-17
  0.1200000     -3.5025517E-17
  0.1800000     -4.1830322E-17
  0.2400000     -2.4327026E-17
  0.3000000      2.3875485E-17
  0.3600000      8.9516447E-17
  0.4200000      1.3522435E-16
  0.4800000      1.1240753E-16
  0.5400000     -6.3462678E-18
  0.6000000     -1.8880360E-16
  0.6600000     -3.2721582E-16
  0.7200000     -2.7486306E-16
  0.7800000      5.8790631E-17
  0.8400000      5.9298262E-16
  0.9000000      1.0214763E-15
  0.9600000      9.0332432E-16
   1.020000     -7.9999714E-17
   1.080000     -1.7969766E-15
   1.140000     -3.4751619E-15
   1.200000     -3.8702337E-15
   1.260000     -1.8749678E-15
   1.320000      2.6300290E-15
   1.380000      8.1580776E-15
   1.440000      1.1777013E-14
   1.500000      1.0315270E-14
   1.560000      2.2862607E-15
   1.620000     -1.0427469E-14
   1.680000     -2.2338066E-14
   1.740000     -2.6311928E-14
   1.800000     -1.7332141E-14
   1.860000      3.6506688E-15
   1.920000      2.8190388E-14
   1.980000      4.2941514E-14
   2.040000      3.6200647E-14
   2.100000      5.6688989E-15
   2.160000     -3.6969451E-14
   2.220000     -6.8535231E-14
   2.280000     -6.4704251E-14
   2.340000     -1.4482129E-14
   2.400000      6.8569052E-14
   2.460000      1.4601491E-13
   2.520000      1.6864408E-13
   2.580000      1.0111579E-13
   2.640000     -5.3795974E-14
   2.700000     -2.4499595E-13
   2.760000     -3.8619181E-13
   2.820000     -3.9109631E-13
   2.880000     -2.1720196E-13
   2.940000      1.0291740E-13
   3.000000      4.6153803E-13
   3.060000      7.1290163E-13
   3.120000      7.3509260E-13
   3.180000      4.8925480E-13
   3.240000      4.5823141E-14
   3.300000     -4.3970518E-13
   3.360000     -7.9465319E-13
   3.420000     -9.0955032E-13
   3.480000     -7.8887065E-13
   3.540000     -5.4071721E-13
   3.600000     -3.0435103E-13
   3.660000     -1.5083075E-13
   3.720000     -1.4959932E-14
   3.780000      2.8950196E-13
   3.840000      9.5739768E-13
   3.900000      2.0236336E-12
   3.960000      3.2247900E-12
   4.020000      3.9850623E-12
   4.080000      3.5789891E-12
   4.140000      1.4436013E-12
   4.200000     -2.4714579E-12
   4.260000     -7.4736528E-12
   4.320000     -1.2153807E-11
   4.380000     -1.4716593E-11
   4.440000     -1.3538931E-11
   4.500000     -7.7746386E-12
   4.560000      2.2133959E-12
   4.620000      1.4759907E-11
   4.680000      2.7187591E-11
   4.740000      3.6388254E-11
   4.800000      3.9509590E-11
   4.860000      3.4554616E-11
   4.920000      2.0773617E-11
   4.980000     -1.1624077E-12
   5.040000     -2.9135448E-11
   5.100000     -5.9621259E-11
   5.160000     -8.7786722E-11
   5.220000     -1.0773769E-10
   5.280000     -1.1307952E-10
   5.340000     -9.7923204E-11
   5.400000     -5.8324720E-11
   5.460000      6.0721389E-12
   5.520000      9.0621809E-11
   5.580000      1.8501106E-10
   5.640000      2.7376917E-10
   5.700000      3.3811451E-10
   5.760000      3.5892805E-10
   5.820000      3.2029340E-10
   5.880000      2.1283421E-10
   5.940000      3.6087192E-11
   6.000000     -2.0062015E-10
   6.060000     -4.7894366E-10
   6.120000     -7.7370821E-10
   6.180000     -1.0559721E-09
   6.240000     -1.2963343E-09
   6.300000     -1.4679441E-09
   6.360000     -1.5489028E-09
   6.420000     -1.5240029E-09
   6.480000     -1.3859233E-09
   6.540000     -1.1360261E-09
   6.600000     -7.8479506E-10
   6.660000     -3.5178471E-10
   6.720000      1.3516925E-10
   6.780000      6.4171751E-10
   6.840000      1.1298109E-09
   6.900000      1.5613502E-09
   6.960000      1.9021846E-09
   7.020000      2.1258149E-09
   7.080000      2.2161972E-09
   7.140000      2.1692599E-09
   7.200000      1.9930797E-09
   7.260000      1.7069381E-09
   7.320000      1.3396073E-09
   7.380000      9.2714553E-10
   7.440000      5.1028437E-10
   7.500000      1.3129151E-10
   7.560000     -1.6982946E-10
   7.620000     -3.5973272E-10
   7.680000     -4.1625423E-10
   7.740000     -3.3219796E-10
   7.800000     -1.1733536E-10
   7.860000      2.0223045E-10
   7.920000      5.8758792E-10
   7.980000      9.9287045E-10
   8.040000      1.3721557E-09
   8.100000      1.6857804E-09
   8.160000      1.9046360E-09
   8.220000      2.0116884E-09
   8.280000      2.0008761E-09
   8.340000      1.8743262E-09
   8.400000      1.6392115E-09
   8.460000      1.3054141E-09
   8.520000      8.8457763E-10
   8.580000      3.9036885E-10
   8.640000     -1.6082843E-10
   8.700000     -7.4976575E-10
   8.760000     -1.3554344E-09
   8.820000     -1.9575108E-09
   8.880000     -2.5395321E-09
   8.940000     -3.0917238E-09
   9.000000     -3.6123669E-09
   9.060000     -4.1070334E-09
   9.120000     -4.5857540E-09
   9.180000     -5.0589284E-09
   9.240000     -5.5332410E-09
   9.300000     -6.0088028E-09
   9.360000     -6.4782681E-09
   9.420000     -6.9279418E-09
   9.480000     -7.3402591E-09
   9.540000     -7.6966842E-09
   9.600000     -7.9801943E-09
   9.660000     -8.1769098E-09
   9.720000     -8.2769525E-09
   9.780000     -8.2748608E-09
   9.840000     -8.1698968E-09
   9.900000     -7.9662845E-09
   9.960000     -7.6730009E-09
   10.02000     -7.3026385E-09
   10.08000     -6.8689738E-09
   10.14000     -6.3834449E-09
   10.20000     -5.8513621E-09
   10.26000     -5.2691318E-09
   10.32000     -4.6237694E-09
   10.38000     -3.8953689E-09
   10.44000     -3.0622067E-09
   10.50000     -2.1071223E-09
   10.56000     -1.0231513E-09
   10.62000      1.8355127E-10
   10.68000      1.4946698E-09
   10.74000      2.8844231E-09
   10.80000      4.3265325E-09
   10.86000      5.8011338E-09
   10.92000      7.2992807E-09
   10.98000      8.8234851E-09
   11.04000      1.0384140E-08
   11.10000      1.1993095E-08
   11.16000      1.3656695E-08
   11.22000      1.5370734E-08
   11.28000      1.7119127E-08
   11.34000      1.8876769E-08
   11.40000      2.0615486E-08
   11.46000      2.2311031E-08
   11.52000      2.3948516E-08
   11.58000      2.5524461E-08
   11.64000      2.7044832E-08
   11.70000      2.8520024E-08
   11.76000      2.9958890E-08
   11.82000      3.1364326E-08
   11.88000      3.2732171E-08
   11.94000      3.4053876E-08
   12.00000      3.5321577E-08
   12.06000      3.6533255E-08
   12.12000      3.7695258E-08
   12.18000      3.8820644E-08
   12.24000      3.9923158E-08
   12.30000      4.1008967E-08
   12.36000      4.2069146E-08
   12.42000      4.3076259E-08
   12.48000      4.3987143E-08
   12.54000      4.4751943E-08
   12.60000      4.5327148E-08
   12.66000      4.5688758E-08
   12.72000      4.5841066E-08
   12.78000      4.5817817E-08
   12.84000      4.5674327E-08
   12.90000      4.5472316E-08
   12.96000      4.5261437E-08
   13.02000      4.5062983E-08
   13.08000      4.4861117E-08
   13.14000      4.4604935E-08
   13.20000      4.4221810E-08
   13.26000      4.3638860E-08
   13.32000      4.2806711E-08
   13.38000      4.1718600E-08
   13.44000      4.0418772E-08
   13.50000      3.8996966E-08
   13.56000      3.7569883E-08
   13.62000      3.6254249E-08
   13.68000      3.5138910E-08
   13.74000      3.4263621E-08
   13.80000      3.3610451E-08
   13.86000      3.3109931E-08
   13.92000      3.2659997E-08
   13.98000      3.2152236E-08
   14.04000      3.1498068E-08
   14.10000      3.0648010E-08
   14.16000      2.9599256E-08
   14.22000      2.8390325E-08
   14.28000      2.7085044E-08
   14.34000      2.5750827E-08
   14.40000      2.4437647E-08
   14.46000      2.3163548E-08
   14.52000      2.1910660E-08
   14.58000      2.0632491E-08
   14.64000      1.9270022E-08
   14.70000      1.7771464E-08
   14.76000      1.6109370E-08
   14.82000      1.4289641E-08
   14.88000      1.2349676E-08
   14.94000      1.0346441E-08
   15.00000      8.3388541E-09
   15.06000      6.3707764E-09
   15.12000      4.4606963E-09
   15.18000      2.6017350E-09
   15.24000      7.7177537E-10
   15.30000     -1.0502232E-09
   15.36000     -2.8679277E-09
   15.42000     -4.6575392E-09
   15.48000     -6.3678192E-09
   15.54000     -7.9304918E-09
   15.60000     -9.2776622E-09
   15.66000     -1.0360511E-08
   15.72000     -1.1163293E-08
   15.78000     -1.1708440E-08
   15.84000     -1.2051678E-08
   15.90000     -1.2269406E-08
   15.96000     -1.2442862E-08
   16.02000     -1.2644231E-08
   16.08000     -1.2928671E-08
   16.14000     -1.3333731E-08
   16.20000     -1.3884889E-08
   16.26000     -1.4603832E-08
   16.32000     -1.5515411E-08
   16.38000     -1.6650000E-08
   16.44000     -1.8040035E-08
   16.50000     -1.9711827E-08
   16.56000     -2.1675683E-08
   16.62000     -2.3918204E-08
   16.68000     -2.6400125E-08
   16.74000     -2.9061313E-08
   16.80000     -3.1832403E-08
   16.86000     -3.4650149E-08
   16.92000     -3.7472251E-08
   16.98000     -4.0287183E-08
   17.04000     -4.3115666E-08
   17.10000     -4.6002693E-08
   17.16000     -4.9001716E-08
   17.22000     -5.2154839E-08
   17.28000     -5.5474292E-08
   17.34000     -5.8930166E-08
   17.40000     -6.2447832E-08
   17.46000     -6.5915941E-08
   17.52000     -6.9203125E-08
   17.58000     -7.2179283E-08
   17.64000     -7.4736199E-08
   17.70000     -7.6802664E-08
   17.76000     -7.8350716E-08
   17.82000     -7.9392493E-08
   17.88000     -7.9969588E-08
   17.94000     -8.0139060E-08
   18.00000     -7.9960792E-08
   18.06000     -7.9489894E-08
   18.12000     -7.8775727E-08
   18.18000     -7.7866098E-08
   18.24000     -7.6813208E-08
   18.30000     -7.5677178E-08
   18.36000     -7.4523854E-08
   18.42000     -7.3416324E-08
   18.48000     -7.2401861E-08
   18.54000     -7.1498647E-08
   18.60000     -7.0686816E-08
   18.66000     -6.9907664E-08
   18.72000     -6.9072286E-08
   18.78000     -6.8078549E-08
   18.84000     -6.6832449E-08
   18.90000     -6.5269127E-08
   18.96000     -6.3368432E-08
   19.02000     -6.1161508E-08
   19.08000     -5.8726975E-08
   19.14000     -5.6177768E-08
   19.20000     -5.3641632E-08
   19.26000     -5.1239549E-08
   19.32000     -4.9066557E-08
   19.38000     -4.7178396E-08
   19.44000     -4.5586074E-08
   19.50000     -4.4258538E-08
   19.56000     -4.3132037E-08
   19.62000     -4.2123599E-08
   19.68000     -4.1145615E-08
   19.74000     -4.0118728E-08
   19.80000     -3.8981113E-08
   19.86000     -3.7693411E-08
   19.92000     -3.6239665E-08
   19.98000     -3.4625220E-08
   20.04000     -3.2872908E-08
   20.10000     -3.1018235E-08
   20.16000     -2.9104113E-08
   20.22000     -2.7175352E-08
   20.28000     -2.5273113E-08
   20.34000     -2.3429990E-08
   20.40000     -2.1666434E-08
   20.46000     -1.9989255E-08
   20.52000     -1.8392250E-08
   20.58000     -1.6858555E-08
   20.64000     -1.5363870E-08
   20.70000     -1.3879861E-08
   20.76000     -1.2377454E-08
   20.82000     -1.0830254E-08
   20.88000     -9.2183168E-09
   20.94000     -7.5321340E-09
   21.00000     -5.7760801E-09
   21.06000     -3.9701624E-09
   21.12000     -2.1491589E-09
   21.18000     -3.5898301E-10
   21.24000      1.3489648E-09
   21.30000      2.9241565E-09
   21.36000      4.3227724E-09
   21.42000      5.5123448E-09
   21.48000      6.4751418E-09
   21.54000      7.2104567E-09
   21.60000      7.7357427E-09
   21.66000      8.0861238E-09
   21.72000      8.3116678E-09
   21.78000      8.4721181E-09
   21.84000      8.6294971E-09
   21.90000      8.8397005E-09
   21.96000      9.1445029E-09
   22.02000      9.5652801E-09
   22.08000      1.0099376E-08
   22.14000      1.0719621E-08
   22.20000      1.1377356E-08
   22.26000      1.2009078E-08
   22.32000      1.2546357E-08
   22.38000      1.2927864E-08
   22.44000      1.3111422E-08
   22.50000      1.3083278E-08
   22.56000      1.2862079E-08
   22.62000      1.2495986E-08
   22.68000      1.2053177E-08
   22.74000      1.1607688E-08
   22.80000      1.1223902E-08
   22.86000      1.0943394E-08
   22.92000      1.0777338E-08
   22.98000      1.0706358E-08
   23.04000      1.0687765E-08
   23.10000      1.0668190E-08
   23.16000      1.0597971E-08
   23.22000      1.0443124E-08
   23.28000      1.0191478E-08
   23.34000      9.8514672E-09
   23.40000      9.4446451E-09
   23.46000      8.9950136E-09
   23.52000      8.5191827E-09
   23.58000      8.0207689E-09
   23.64000      7.4906596E-09
   23.70000      6.9126509E-09
   23.76000      6.2721384E-09
   23.82000      5.5646177E-09
   23.88000      4.8007016E-09
   23.94000      4.0052979E-09
   24.00000      3.2102594E-09
   24.06000      2.4420177E-09
   24.12000      1.7079039E-09
   24.18000      9.8624897E-10
   24.24000      2.2504681E-10
   24.30000     -6.4838024E-10
   24.36000     -1.7081682E-09
   24.42000     -3.0066085E-09
   24.48000     -4.5545447E-09
   24.54000     -6.3126833E-09
   24.60000     -8.1975289E-09
   24.66000     -1.0100570E-08
   24.72000     -1.1914680E-08
   24.78000     -1.3559340E-08
   24.84000     -1.4996935E-08
   24.90000     -1.6235601E-08
   24.96000     -1.7318555E-08
   25.02000     -1.8303865E-08
   25.08000     -1.9241302E-08
   25.14000     -2.0153399E-08
   25.20000     -2.1026416E-08
   25.26000     -2.1813925E-08
   25.32000     -2.2451866E-08
   25.38000     -2.2880354E-08
   25.44000     -2.3065061E-08
   25.50000     -2.3010928E-08
   25.56000     -2.2763246E-08
   25.62000     -2.2395289E-08
   25.68000     -2.1986390E-08
   25.74000     -2.1597730E-08
   25.80000     -2.1254060E-08
   25.86000     -2.0937586E-08
   25.92000     -2.0596193E-08
   25.98000     -2.0163377E-08
   26.04000     -1.9583446E-08
   26.10000     -1.8833845E-08
   26.16000     -1.7937333E-08
   26.22000     -1.6959911E-08
   26.28000     -1.5994738E-08
   26.34000     -1.5136887E-08
   26.40000     -1.4456718E-08
   26.46000     -1.3980457E-08
   26.52000     -1.3684534E-08
   26.58000     -1.3505800E-08
   26.64000     -1.3364543E-08
   26.70000     -1.3192683E-08
   26.76000     -1.2957581E-08
   26.82000     -1.2673192E-08
   26.88000     -1.2394529E-08
   26.94000     -1.2197189E-08
   27.00000     -1.2149012E-08
   27.06000     -1.2283921E-08
   27.12000     -1.2587586E-08
   27.18000     -1.3000867E-08
   27.24000     -1.3440946E-08
   27.30000     -1.3833851E-08
   27.36000     -1.4147508E-08
   27.42000     -1.4413389E-08
   27.48000     -1.4727867E-08
   27.54000     -1.5230794E-08
   27.60000     -1.6066696E-08
   27.66000     -1.7340477E-08
   27.72000     -1.9082297E-08
   27.78000     -2.1233868E-08
   27.84000     -2.3661677E-08
   27.90000     -2.6193559E-08
   27.96000     -2.8667214E-08
   28.02000     -3.0975084E-08
   28.08000     -3.3091300E-08
   28.14000     -3.5072265E-08
   28.20000     -3.7031054E-08
   28.26000     -3.9094104E-08
   28.32000     -4.1353974E-08
   28.38000     -4.3833261E-08
   28.44000     -4.6470955E-08
   28.50000     -4.9135767E-08
   28.56000     -5.1662418E-08
   28.62000     -5.3899704E-08
   28.68000     -5.5755059E-08
   28.74000     -5.7221243E-08
   28.80000     -5.8376315E-08
   28.86000     -5.9356879E-08
   28.92000     -6.0313539E-08
   28.98000     -6.1363892E-08
   29.04000     -6.2559081E-08
   29.10000     -6.3875234E-08
   29.16000     -6.5232136E-08
   29.22000     -6.6531761E-08
   29.28000     -6.7702139E-08
   29.34000     -6.8730394E-08
   29.40000     -6.9672772E-08
   29.46000     -7.0637817E-08
   29.52000     -7.1748516E-08
   29.58000     -7.3096302E-08
   29.64000     -7.4702974E-08
   29.70000     -7.6503774E-08
   29.76000     -7.8357616E-08
   29.82000     -8.0082025E-08
   29.88000     -8.1501440E-08
   29.94000     -8.2493941E-08
   30.00000     -8.3021298E-08
   30.06000     -8.3133067E-08
   30.12000     -8.2943409E-08
   30.18000     -8.2588400E-08
   30.24000     -8.2177749E-08
   30.30000     -8.1756816E-08
   30.36000     -8.1291141E-08
   30.42000     -8.0678674E-08
   30.48000     -7.9785423E-08
   30.54000     -7.8492548E-08
   30.60000     -7.6739120E-08
   30.66000     -7.4546307E-08
   30.72000     -7.2015290E-08
   30.78000     -6.9300214E-08
   30.84000     -6.6566010E-08
   30.90000     -6.3945947E-08
   30.96000     -6.1512964E-08
   31.02000     -5.9273862E-08
   31.08000     -5.7186320E-08
   31.14000     -5.5190885E-08
   31.20000     -5.3245099E-08
   31.26000     -5.1346717E-08
   31.32000     -4.9537881E-08
   31.38000     -4.7889561E-08
   31.44000     -4.6472767E-08
   31.50000     -4.5327862E-08
   31.56000     -4.4443514E-08
   31.62000     -4.3753310E-08
   31.68000     -4.3151655E-08
   31.74000     -4.2523883E-08
   31.80000     -4.1780876E-08
   31.86000     -4.0886651E-08
   31.92000     -3.9869917E-08
   31.98000     -3.8815475E-08
   32.04000     -3.7838092E-08
   32.10000     -3.7047180E-08
   32.16000     -3.6514056E-08
   32.22000     -3.6252892E-08
   32.28000     -3.6222069E-08
   32.34000     -3.6345565E-08
   32.40000     -3.6546840E-08
   32.46000     -3.6782719E-08
   32.52000     -3.7064769E-08
   32.58000     -3.7459770E-08
   32.64000     -3.8068791E-08
   32.70000     -3.8992251E-08
   32.76000     -4.0293411E-08
   32.82000     -4.1973198E-08
   32.88000     -4.3964892E-08
   32.94000     -4.6150024E-08
   33.00000     -4.8389634E-08
   33.06000     -5.0560214E-08
   33.12000     -5.2582845E-08
   33.18000     -5.4436708E-08
   33.24000     -5.6153489E-08
   33.30000     -5.7795116E-08
   33.36000     -5.9422121E-08
   33.42000     -6.1063041E-08
   33.48000     -6.2694880E-08
   33.54000     -6.4241526E-08
   33.60000     -6.5591536E-08
   33.66000     -6.6629951E-08
   33.72000     -6.7273646E-08
   33.78000     -6.7497687E-08
   33.84000     -6.7342640E-08
   33.90000     -6.6899517E-08
   33.96000     -6.6277181E-08
   34.02000     -6.5563881E-08
   34.08000     -6.4797270E-08
   34.14000     -6.3953955E-08
   34.20000     -6.2962272E-08
   34.26000     -6.1732997E-08
   34.32000     -6.0196086E-08
   34.38000     -5.8329611E-08
   34.44000     -5.6170556E-08
   34.50000     -5.3804509E-08
   34.56000     -5.1338926E-08
   34.62000     -4.8870266E-08
   34.68000     -4.6456449E-08
   34.74000     -4.4103381E-08
   34.80000     -4.1768818E-08
   34.86000     -3.9381220E-08
   34.92000     -3.6866805E-08
   34.98000     -3.4176253E-08
   35.04000     -3.1303166E-08
   35.10000     -2.8289147E-08
   35.16000     -2.5214643E-08
   35.22000     -2.2178877E-08
   35.28000     -1.9275932E-08
   35.34000     -1.6575195E-08
   35.40000     -1.4112848E-08
   35.46000     -1.1896722E-08
   35.52000     -9.9213056E-09
   35.58000     -8.1854239E-09
   35.64000     -6.7039596E-09
   35.70000     -5.5079217E-09
   35.76000     -4.6328159E-09
   35.82000     -4.1009853E-09
   35.88000     -3.9065418E-09
   35.94000     -4.0103076E-09
   36.00000     -4.3475015E-09
   36.06000     -4.8451145E-09
   36.12000     -5.4418461E-09
   36.18000     -6.1027521E-09
   36.24000     -6.8233832E-09
   36.30000     -7.6225346E-09
   36.36000     -8.5268441E-09
   36.42000     -9.5528714E-09
   36.48000     -1.0692640E-08
   36.54000     -1.1907212E-08
   36.60000     -1.3130484E-08
   36.66000     -1.4282449E-08
   36.72000     -1.5288304E-08
   36.78000     -1.6097484E-08
   36.84000     -1.6695985E-08
   36.90000     -1.7106872E-08
   36.96000     -1.7377682E-08
   37.02000     -1.7558454E-08
   37.08000     -1.7678371E-08
   37.14000     -1.7730223E-08
   37.20000     -1.7669537E-08
   37.26000     -1.7429482E-08
   37.32000     -1.6946311E-08
   37.38000     -1.6185437E-08
   37.44000     -1.5157797E-08
   37.50000     -1.3919643E-08
   37.56000     -1.2555541E-08
   37.62000     -1.1150857E-08
   37.68000     -9.7643085E-09
   37.74000     -8.4113534E-09
   37.80000     -7.0652222E-09
   37.86000     -5.6759215E-09
   37.92000     -4.2007615E-09
   37.98000     -2.6354470E-09
   38.04000     -1.0341467E-09
   38.10000      4.8952309E-10
   38.16000      1.7822066E-09
   38.22000      2.6857221E-09
   38.28000      3.0764109E-09
   38.34000      2.8964640E-09
   38.40000      2.1671713E-09
   38.46000      9.7966135E-10
   38.52000     -5.3426408E-10
   38.58000     -2.2423241E-09
   38.64000     -4.0504577E-09
   38.70000     -5.9276610E-09
   38.76000     -7.9087039E-09
   38.82000     -1.0073555E-08
   38.88000     -1.2510339E-08
   38.94000     -1.5274811E-08
   39.00000     -1.8361243E-08
   39.06000     -2.1695907E-08
   39.12000     -2.5156149E-08
   39.18000     -2.8608181E-08
   39.24000     -3.1949295E-08
   39.30000     -3.5138406E-08
   39.36000     -3.8203485E-08
   39.42000     -4.1223689E-08
   39.48000     -4.4293817E-08
   39.54000     -4.7484857E-08
   39.60000     -5.0814926E-08
   39.66000     -5.4240072E-08
   39.72000     -5.7666323E-08
   39.78000     -6.0977193E-08
   39.84000     -6.4066278E-08
   39.90000     -6.6864168E-08
   39.96000     -6.9351572E-08
   40.02000     -7.1555633E-08
   40.08000     -7.3531403E-08
   40.14000     -7.5335088E-08
   40.20000     -7.6997999E-08
   40.26000     -7.8510126E-08
   40.32000     -7.9819323E-08
   40.38000     -8.0846888E-08
   40.44000     -8.1514521E-08
   40.50000     -8.1773365E-08
   40.56000     -8.1624457E-08
   40.62000     -8.1123325E-08
   40.68000     -8.0366760E-08
   40.74000     -7.9466808E-08
   40.80000     -7.8521218E-08
   40.86000     -7.7590904E-08
   40.92000     -7.6691428E-08
   40.98000     -7.5800266E-08
   41.04000     -7.4875800E-08
   41.10000     -7.3880130E-08
   41.16000     -7.2797157E-08
   41.22000     -7.1640279E-08
   41.28000     -7.0447868E-08
   41.34000     -6.9269568E-08
   41.40000     -6.8148793E-08
   41.46000     -6.7107962E-08
   41.52000     -6.6140920E-08
   41.58000     -6.5214707E-08
   41.64000     -6.4279263E-08
   41.70000     -6.3281796E-08
   41.76000     -6.2181222E-08
   41.82000     -6.0958406E-08
   41.88000     -5.9619282E-08
   41.94000     -5.8190011E-08
   42.00000     -5.6705979E-08
   42.06000     -5.5198228E-08
   42.12000     -5.3682193E-08
   42.18000     -5.2153002E-08
   42.24000     -5.0589307E-08
   42.30000     -4.8964647E-08
   42.36000     -4.7262112E-08
   42.42000     -4.5486765E-08
   42.48000     -4.3671033E-08
   42.54000     -4.1871015E-08
   42.60000     -4.0155218E-08
   42.66000     -3.8589878E-08
   42.72000     -3.7225689E-08
   42.78000     -3.6089567E-08
   42.84000     -3.5182406E-08
   42.90000     -3.4481669E-08
   42.96000     -3.3946641E-08
   43.02000     -3.3524703E-08
   43.08000     -3.3158109E-08
   43.14000     -3.2791782E-08
   43.20000     -3.2382477E-08
   43.26000     -3.1908254E-08
   43.32000     -3.1375777E-08
   43.38000     -3.0822118E-08
   43.44000     -3.0308438E-08
   43.50000     -2.9905511E-08
   43.56000     -2.9674204E-08
   43.62000     -2.9646648E-08
   43.68000     -2.9814682E-08
   43.74000     -3.0130327E-08
   43.80000     -3.0519221E-08
   43.86000     -3.0903511E-08
   43.92000     -3.1227039E-08
   43.98000     -3.1474691E-08
   44.04000     -3.1679456E-08
   44.10000     -3.1914663E-08
   44.16000     -3.2273515E-08
   44.22000     -3.2841747E-08
   44.28000     -3.3671167E-08
   44.34000     -3.4761410E-08
   44.40000     -3.6054985E-08
   44.46000     -3.7447471E-08
   44.52000     -3.8810771E-08
   44.58000     -4.0024101E-08
   44.64000     -4.1004601E-08
   44.70000     -4.1729116E-08
   44.76000     -4.2240138E-08
   44.82000     -4.2633175E-08
   44.88000     -4.3028436E-08
   44.94000     -4.3535064E-08
   45.00000     -4.4219369E-08
   45.06000     -4.5087546E-08
   45.12000     -4.6088726E-08
   45.18000     -4.7137188E-08
   45.24000     -4.8145619E-08
   45.30000     -4.9057231E-08
   45.36000     -4.9865207E-08
   45.42000     -5.0612591E-08
   45.48000     -5.1373060E-08
   45.54000     -5.2220031E-08
   45.60000     -5.3195667E-08
   45.66000     -5.4291132E-08
   45.72000     -5.5445163E-08
   45.78000     -5.6561237E-08
   45.84000     -5.7537058E-08
   45.90000     -5.8296017E-08
   45.96000     -5.8809935E-08
   46.02000     -5.9105645E-08
   46.08000     -5.9253697E-08
   46.14000     -5.9343250E-08
   46.20000     -5.9451523E-08
   46.26000     -5.9617768E-08
   46.32000     -5.9830157E-08
   46.38000     -6.0029983E-08
   46.44000     -6.0132152E-08
   46.50000     -6.0055470E-08
   46.56000     -5.9752793E-08
   46.62000     -5.9230675E-08
   46.68000     -5.8551272E-08
   46.74000     -5.7815349E-08
   46.80000     -5.7132027E-08
   46.86000     -5.6585687E-08
   46.92000     -5.6211437E-08
   46.98000     -5.5987122E-08
   47.04000     -5.5843621E-08
   47.10000     -5.5688865E-08
   47.16000     -5.5436743E-08
   47.22000     -5.5031560E-08
   47.28000     -5.4461125E-08
   47.34000     -5.3755532E-08
   47.40000     -5.2973181E-08
   47.46000     -5.2178894E-08
   47.52000     -5.1421267E-08
   47.58000     -5.0716888E-08
   47.64000     -5.0047539E-08
   47.70000     -4.9372495E-08
   47.76000     -4.8652577E-08
   47.82000     -4.7877560E-08
   47.88000     -4.7086047E-08
   47.94000     -4.6369472E-08
   48.00000     -4.5857881E-08
   48.06000     -4.5693216E-08
   48.12000     -4.6001162E-08
   48.18000     -4.6873151E-08
   48.24000     -4.8365514E-08
   48.30000     -5.0515560E-08
   48.36000     -5.3367867E-08
   48.42000     -5.7001252E-08
   48.48000     -6.1548164E-08
   48.54000     -6.7202059E-08
   48.60000     -7.4212998E-08
   48.66000     -8.2874855E-08
   48.72000     -9.3509776E-08
   48.78000     -1.0645621E-07
   48.84000     -1.2206644E-07
   48.90000     -1.4071810E-07
   48.96000     -1.6283984E-07
   49.02000     -1.8894805E-07
   49.08000     -2.1968590E-07
   49.14000     -2.5585481E-07
   49.20000     -2.9843014E-07
   49.26000     -3.4855833E-07
   49.32000     -4.0753991E-07
   49.38000     -4.7680803E-07
   49.44000     -5.5791617E-07
   49.50000     -6.5254557E-07
   49.56000     -7.6253764E-07
   49.62000     -8.8995000E-07
   49.68000     -1.0371244E-06
   49.74000     -1.2067550E-06
   49.80000     -1.4019420E-06
   49.86000     -1.6262218E-06
   49.92000     -1.8835748E-06
   49.98000     -2.1784201E-06
   50.04000     -2.5156089E-06
   50.10000     -2.9004334E-06
   50.16000     -3.3386577E-06
   50.22000     -3.8365706E-06
   50.28000     -4.4010508E-06
   50.34000     -5.0396375E-06
   50.40000     -5.7605903E-06
   50.46000     -6.5729314E-06
   50.52000     -7.4864743E-06
   50.58000     -8.5118318E-06
   50.64000     -9.6604208E-06
   50.70000     -1.0944462E-05
   50.76000     -1.2376974E-05
   50.82000     -1.3971796E-05
   50.88000     -1.5743602E-05
   50.94000     -1.7707922E-05
   51.00000     -1.9881172E-05
   51.06000     -2.2280647E-05
   51.12000     -2.4924502E-05
   51.18000     -2.7831697E-05
   51.24000     -3.1021915E-05
   51.30000     -3.4515477E-05
   51.36000     -3.8333259E-05
   51.42000     -4.2496591E-05
   51.48000     -4.7027166E-05
   51.54000     -5.1946950E-05
   51.60000     -5.7278063E-05
   51.66000     -6.3042644E-05
   51.72000     -6.9262664E-05
   51.78000     -7.5959761E-05
   51.84000     -8.3155050E-05
   51.90000     -9.0868882E-05
   51.96000     -9.9120691E-05
   52.02000     -1.0792870E-04
   52.08000     -1.1730981E-04
   52.14000     -1.2727927E-04
   52.20000     -1.3785058E-04
   52.26000     -1.4903519E-04
   52.32000     -1.6084220E-04
   52.38000     -1.7327828E-04
   52.44000     -1.8634733E-04
   52.50000     -2.0005018E-04
   52.56000     -2.1438450E-04
   52.62000     -2.2934446E-04
   52.68000     -2.4492067E-04
   52.74000     -2.6110007E-04
   52.80000     -2.7786585E-04
   52.86000     -2.9519739E-04
   52.92000     -3.1307017E-04
   52.98000     -3.3145584E-04
   53.04000     -3.5032202E-04
   53.10000     -3.6963256E-04
   53.16000     -3.8934735E-04
   53.22000     -4.0942270E-04
   53.28000     -4.2981145E-04
   53.34000     -4.5046312E-04
   53.40000     -4.7132443E-04
   53.46000     -4.9233937E-04
   53.52000     -5.1344960E-04
   53.58000     -5.3459505E-04
   53.64000     -5.5571413E-04
   53.70000     -5.7674415E-04
   53.76000     -5.9762201E-04
   53.82000     -6.1828457E-04
   53.88000     -6.3866936E-04
   53.94000     -6.5871456E-04
   54.00000     -6.7836011E-04
   54.06000     -6.9754792E-04
   54.12000     -7.1622268E-04
   54.18000     -7.3433237E-04
   54.24000     -7.5182889E-04
   54.30000     -7.6866837E-04
   54.36000     -7.8481145E-04
   54.42000     -8.0022390E-04
   54.48000     -8.1487693E-04
   54.54000     -8.2874735E-04
   54.60000     -8.4181823E-04
   54.66000     -8.5407920E-04
   54.72000     -8.6552615E-04
   54.78000     -8.7616179E-04
   54.84000     -8.8599534E-04
   54.90000     -8.9504244E-04
   54.96000     -9.0332516E-04
   55.02000     -9.1087195E-04
   55.08000     -9.1771723E-04
   55.14000     -9.2390116E-04
   55.20000     -9.2946936E-04
   55.26000     -9.3447207E-04
   55.32000     -9.3896419E-04
   55.38000     -9.4300404E-04
   55.44000     -9.4665354E-04
   55.50000     -9.4997702E-04
   55.56000     -9.5304078E-04