  -2.400000      0.0000000E+00
  -2.340000      0.0000000E+00
  -2.280000      0.0000000E+00
  -2.220000      0.0000000E+00
  -2.160000      0.0000000E+00
  -2.100000     -1.6879347E-20
  -2.040000     -1.6125407E-19
  -1.980000     -7.7879654E-19
  -1.920000     -2.4530895E-18
  -1.860000     -5.3554514E-18
  -1.800000     -7.4515267E-18
  -1.740000     -2.0834610E-18
  -1.680000      2.2464750E-17
  -1.620000      7.7031764E-17
  -1.560000      1.5628381E-16
  -1.500000      2.1808166E-16
  -1.440000      1.7278722E-16
  -1.380000     -9.4231224E-17
  -1.320000     -6.5049547E-16
  -1.260000     -1.4075767E-15
  -1.200000     -2.0329621E-15
  -1.140000     -1.9732031E-15
  -1.080000     -6.6325824E-16
  -1.020000      2.0907803E-15
 -0.9600000      5.7086073E-15
 -0.9000000      8.6841189E-15
 -0.8400000      8.9517771E-15
 -0.7800000      4.8380409E-15
 -0.7200000     -3.6946684E-15
 -0.6600000     -1.4158008E-14
 -0.6000000     -2.1751005E-14
 -0.5400000     -2.1086524E-14
 -0.4800000     -9.0787473E-15
 -0.4200000      1.2238926E-14
 -0.3600000      3.4682076E-14
 -0.3000000      4.6018528E-14
 -0.2400000      3.5233125E-14
 -0.1800000     -8.5006035E-16
 -0.1200000     -5.2823956E-14
 -5.9999999E-02 -9.9137380E-14
  0.0000000E+00 -1.1325407E-13
  5.9999999E-02 -7.5904811E-14
  0.1200000      1.2418484E-14
  0.1800000      1.2514222E-13
  0.2400000      2.1453882E-13
  0.3000000      2.2872565E-13
  0.3600000      1.3587781E-13
  0.4200000     -5.3834998E-14
  0.4800000     -2.7927666E-13
  0.5400000     -4.3966168E-13
  0.6000000     -4.2636475E-13
  0.6600000     -1.6708697E-13
  0.7200000      3.3205673E-13
  0.7800000      9.6263926E-13
  0.8400000      1.5204976E-12
  0.9000000      1.7468804E-12
  0.9600000      1.3982586E-12
   1.020000      3.2994630E-13
   1.080000     -1.4269910E-12
   1.140000     -3.6173954E-12
   1.200000     -5.7609859E-12
   1.260000     -7.2102762E-12
   1.320000     -7.2685287E-12
   1.380000     -5.3557046E-12
   1.440000     -1.1961394E-12
   1.500000      5.0109990E-12
   1.560000      1.2484904E-11
   1.620000      1.9864815E-11
   1.680000      2.5351712E-11
   1.740000      2.6996344E-11
   1.800000      2.3106310E-11
   1.860000      1.2709288E-11
   1.920000     -4.0194540E-12
   1.980000     -2.5471082E-11
   2.040000     -4.8557196E-11
   2.100000     -6.8971120E-11
   2.160000     -8.1771472E-11
   2.220000     -8.2237189E-11
   2.280000     -6.6876046E-11
   2.340000     -3.4414194E-11
   2.400000      1.3433232E-11
   2.460000      7.1600337E-11
   2.520000      1.3185812E-10
   2.580000      1.8360750E-10
   2.640000      2.1523060E-10
   2.700000      2.1585103E-10
   2.760000      1.7727489E-10
   2.820000      9.5846386E-11
   2.880000     -2.6039894E-11
   2.940000     -1.7897855E-10
   3.000000     -3.4627409E-10
   3.060000     -5.0439136E-10
   3.120000     -6.2411426E-10
   3.180000     -6.7234657E-10
   3.240000     -6.1446453E-10
   3.300000     -4.1712478E-10
   3.360000     -5.1406462E-11
   3.420000      5.0387050E-10
   3.480000      1.2588849E-09
   3.540000      2.2099318E-09
   3.600000      3.3373202E-09
   3.660000      4.6044919E-09
   3.720000      5.9587513E-09
   3.780000      7.3338424E-09
   3.840000      8.6543794E-09
   3.900000      9.8417994E-09
   3.960000      1.0821208E-08
   4.020000      1.1528264E-08
   4.080000      1.1915127E-08
   4.140000      1.1954635E-08
   4.200000      1.1642146E-08
   4.260000      1.0994921E-08
   4.320000      1.0049409E-08
   4.380000      8.8571515E-09
   4.440000      7.4802156E-09
   4.500000      5.9869913E-09
   4.560000      4.4488293E-09
   4.620000      2.9375331E-09
   4.680000      1.5232606E-09
   4.740000      2.7209893E-10
   4.800000     -7.5736306E-10
   4.860000     -1.5187690E-09
   4.920000     -1.9836945E-09
   4.980000     -2.1472764E-09
   5.040000     -2.0322222E-09
   5.100000     -1.6895206E-09
   5.160000     -1.1945782E-09
   5.220000     -6.3837030E-10
   5.280000     -1.1439048E-10
   5.340000      2.9661859E-10
   5.400000      5.4127786E-10
   5.460000      6.0436217E-10
   5.520000      5.1306331E-10
   5.580000      3.3320172E-10
   5.640000      1.5753887E-10
   5.700000      8.8135443E-11
   5.760000      2.1617751E-10
   5.820000      6.0346117E-10
   5.880000      1.2695587E-09
   5.940000      2.1875666E-09
   6.000000      3.2895018E-09
   6.060000      4.4802566E-09
   6.120000      5.6570588E-09
   6.180000      6.7301089E-09
   6.240000      7.6397502E-09
   6.300000      8.3663290E-09
   6.360000      8.9306162E-09
   6.420000      9.3849009E-09
   6.480000      9.7971169E-09
   6.540000      1.0232037E-08
   6.600000      1.0734234E-08
   6.660000      1.1317032E-08
   6.720000      1.1960060E-08
   6.780000      1.2615775E-08
   6.840000      1.3222952E-08
   6.900000      1.3723392E-08
   6.960000      1.4077295E-08
   7.020000      1.4273244E-08
   7.080000      1.4330375E-08
   7.140000      1.4292493E-08
   7.200000      1.4216102E-08
   7.260000      1.4155875E-08
   7.320000      1.4151542E-08
   7.380000      1.4219460E-08
   7.440000      1.4350563E-08
   7.500000      1.4514464E-08
   7.560000      1.4667846E-08
   7.620000      1.4764428E-08
   7.680000      1.4763803E-08
   7.740000      1.4637371E-08
   7.800000      1.4370773E-08
   7.860000      1.3963406E-08
   7.920000      1.3426271E-08
   7.980000      1.2779420E-08
   8.040000      1.2049742E-08
   8.100000      1.1269122E-08
   8.160000      1.0472373E-08
   8.220000      9.6941601E-09
   8.280000      8.9644985E-09
   8.340000      8.3031191E-09
   8.400000      7.7138838E-09
   8.460000      7.1810078E-09
   8.520000      6.6689361E-09
   8.580000      6.1270575E-09
   8.640000      5.4992588E-09
   8.700000      4.7368180E-09
   8.760000      3.8118215E-09
   8.820000      2.7276013E-09
   8.880000      1.5229131E-09
   8.940000      2.6782884E-10
   9.000000     -9.4869879E-10
   9.060000     -2.0373341E-09
   9.120000     -2.9287273E-09
   9.180000     -3.5905834E-09
   9.240000     -4.0366408E-09
   9.300000     -4.3245674E-09
   9.360000     -4.5426032E-09
   9.420000     -4.7879074E-09
   9.480000     -5.1420401E-09
   9.540000     -5.6500928E-09
   9.600000     -6.3091510E-09
   9.660000     -7.0692572E-09
   9.720000     -7.8464950E-09
   9.780000     -8.5443776E-09
   9.840000     -9.0773877E-09
   9.900000     -9.3901589E-09
   9.960000     -9.4672874E-09
   10.02000     -9.3317825E-09
   10.08000     -9.0335339E-09
   10.14000     -8.6319414E-09
   10.20000     -8.1781506E-09
   10.26000     -7.7019964E-09
   10.32000     -7.2069288E-09
   10.38000     -6.6736603E-09
   10.44000     -6.0707612E-09
   10.50000     -5.3685931E-09
   10.56000     -4.5522794E-09
   10.62000     -3.6298895E-09
   10.68000     -2.6335172E-09
   10.74000     -1.6130095E-09
   10.80000     -6.2421318E-10
   10.86000      2.8480807E-10
   10.92000      1.0855753E-09
   10.98000      1.7756417E-09
   11.04000      2.3780036E-09
   11.10000      2.9339979E-09
   11.16000      3.4921872E-09
   11.22000      4.0967798E-09
   11.28000      4.7789239E-09
   11.34000      5.5528382E-09
   11.40000      6.4168404E-09
   11.46000      7.3576265E-09
   11.52000      8.3553466E-09
   11.58000      9.3872616E-09
   11.64000      1.0428941E-08
   11.70000      1.1453351E-08
   11.76000      1.2429317E-08
   11.82000      1.3321237E-08
   11.88000      1.4091470E-08
   11.94000      1.4705822E-08
   12.00000      1.5141277E-08
   12.06000      1.5394054E-08
   12.12000      1.5485487E-08
   12.18000      1.5463314E-08
   12.24000      1.5396859E-08
   12.30000      1.5366073E-08
   12.36000      1.5446233E-08
   12.42000      1.5691757E-08
   12.48000      1.6123298E-08
   12.54000      1.6722002E-08
   12.60000      1.7433088E-08
   12.66000      1.8178374E-08
   12.72000      1.8874823E-08
   12.78000      1.9454362E-08
   12.84000      1.9879771E-08
   12.90000      2.0152619E-08
   12.96000      2.0311411E-08
   13.02000      2.0420853E-08
   13.08000      2.0555463E-08
   13.14000      2.0782053E-08
   13.20000      2.1145725E-08
   13.26000      2.1662702E-08
   13.32000      2.2321361E-08
   13.38000      2.3090323E-08
   13.44000      2.3930506E-08
   13.50000      2.4807024E-08
   13.56000      2.5697158E-08
   13.62000      2.6592161E-08
   13.68000      2.7493133E-08
   13.74000      2.8403241E-08
   13.80000      2.9320011E-08
   13.86000      3.0230982E-08
   13.92000      3.1114645E-08
   13.98000      3.1946161E-08
   14.04000      3.2705465E-08
   14.10000      3.3384353E-08
   14.16000      3.3989615E-08
   14.22000      3.4540825E-08
   14.28000      3.5063366E-08
   14.34000      3.5578889E-08
   14.40000      3.6096221E-08
   14.46000      3.6605520E-08
   14.52000      3.7077399E-08
   14.58000      3.7467430E-08
   14.64000      3.7724881E-08
   14.70000      3.7803520E-08
   14.76000      3.7671658E-08
   14.82000      3.7318653E-08
   14.88000      3.6756088E-08
   14.94000      3.6013159E-08
   15.00000      3.5127599E-08
   15.06000      3.4134956E-08
   15.12000      3.3059692E-08
   15.18000      3.1911000E-08
   15.24000      3.0684859E-08
   15.30000      2.9371652E-08
   15.36000      2.7966749E-08
   15.42000      2.6480510E-08
   15.48000      2.4944161E-08
   15.54000      2.3409319E-08
   15.60000      2.1940856E-08
   15.66000      2.0604825E-08
   15.72000      1.9454607E-08
   15.78000      1.8519119E-08
   15.84000      1.7796443E-08
   15.90000      1.7254898E-08
   15.96000      1.6841476E-08
   16.02000      1.6495569E-08
   16.08000      1.6164085E-08
   16.14000      1.5813610E-08
   16.20000      1.5435971E-08
   16.26000      1.5045629E-08
   16.32000      1.4669976E-08
   16.38000      1.4335984E-08
   16.44000      1.4057891E-08
   16.50000      1.3830161E-08
   16.56000      1.3627997E-08
   16.62000      1.3414993E-08
   16.68000      1.3155013E-08
   16.74000      1.2824072E-08
   16.80000      1.2418193E-08
   16.86000      1.1954812E-08
   16.92000      1.1467568E-08
   16.98000      1.0996493E-08
   17.04000      1.0576962E-08
   17.10000      1.0230939E-08
   17.16000      9.9632009E-09
   17.22000      9.7635464E-09
   17.28000      9.6141157E-09
   17.34000      9.4993950E-09
   17.40000      9.4155546E-09
   17.46000      9.3758850E-09
   17.52000      9.4102077E-09
   17.58000      9.5578914E-09
   17.64000      9.8562039E-09
   17.70000      1.0327281E-08
   17.76000      1.0967695E-08
   17.82000      1.1743950E-08
   17.88000      1.2595595E-08
   17.94000      1.3445362E-08
   18.00000      1.4213640E-08
   18.06000      1.4833398E-08
   18.12000      1.5261593E-08
   18.18000      1.5484243E-08
   18.24000      1.5514235E-08
   18.30000      1.5382893E-08
   18.36000      1.5128034E-08
   18.42000      1.4781904E-08
   18.48000      1.4362334E-08
   18.54000      1.3869352E-08
   18.60000      1.3287917E-08
   18.66000      1.2595666E-08
   18.72000      1.1773038E-08
   18.78000      1.0812440E-08
   18.84000      9.7233457E-09
   18.90000      8.5315248E-09
   18.96000      7.2725594E-09
   19.02000      5.9817729E-09
   19.08000      4.6840092E-09
   19.14000      3.3867793E-09
   19.20000      2.0790896E-09
   19.26000      7.3623913E-10
   19.32000     -6.7126166E-10
   19.38000     -2.1678941E-09
   19.44000     -3.7658601E-09
   19.50000     -5.4626472E-09
   19.56000     -7.2438806E-09
   19.62000     -9.0899954E-09
   19.68000     -1.0984038E-08
   19.74000     -1.2917676E-08
   19.80000     -1.4893406E-08
   19.86000     -1.6922362E-08
   19.92000     -1.9018767E-08
   19.98000     -2.1193069E-08
   20.04000     -2.3446153E-08
   20.10000     -2.5766379E-08
   20.16000     -2.8130126E-08
   20.22000     -3.0505245E-08
   20.28000     -3.2856011E-08
   20.34000     -3.5147806E-08
   20.40000     -3.7350226E-08
   20.46000     -3.9438227E-08
   20.52000     -4.1391594E-08
   20.58000     -4.3193829E-08
   20.64000     -4.4831406E-08
   20.70000     -4.6294119E-08
   20.76000     -4.7576485E-08
   20.82000     -4.8679677E-08
   20.88000     -4.9613160E-08
   20.94000     -5.0395148E-08
   21.00000     -5.1051497E-08
   21.06000     -5.1612847E-08
   21.12000     -5.2110572E-08
   21.18000     -5.2572243E-08
   21.24000     -5.3017725E-08
   21.30000     -5.3456851E-08
   21.36000     -5.3889440E-08
   21.42000     -5.4307733E-08
   21.48000     -5.4700614E-08
   21.54000     -5.5058226E-08
   21.60000     -5.5375427E-08
   21.66000     -5.5652592E-08
   21.72000     -5.5893370E-08
   21.78000     -5.6099932E-08
   21.84000     -5.6267481E-08
   21.90000     -5.6380117E-08
   21.96000     -5.6409935E-08
   22.02000     -5.6320115E-08
   22.08000     -5.6071499E-08
   22.14000     -5.5630839E-08
   22.20000     -5.4978312E-08
   22.26000     -5.4112181E-08
   22.32000     -5.3049199E-08
   22.38000     -5.1820720E-08
   22.44000     -5.0465662E-08
   22.50000     -4.9022425E-08
   22.56000     -4.7522036E-08
   22.62000     -4.5984475E-08
   22.68000     -4.4419373E-08
   22.74000     -4.2830795E-08
   22.80000     -4.1224759E-08
   22.86000     -3.9616989E-08
   22.92000     -3.8038088E-08
   22.98000     -3.6533862E-08
   23.04000     -3.5159903E-08
   23.10000     -3.3971357E-08
   23.16000     -3.3010817E-08
   23.22000     -3.2298015E-08
   23.28000     -3.1825007E-08
   23.34000     -3.1558702E-08
   23.40000     -3.1450273E-08
   23.46000     -3.1448501E-08
   23.52000     -3.1512783E-08
   23.58000     -3.1621639E-08
   23.64000     -3.1774182E-08
   23.70000     -3.1984662E-08
   23.76000     -3.2272517E-08
   23.82000     -3.2651720E-08
   23.88000     -3.3123282E-08
   23.94000     -3.3673299E-08
   24.00000     -3.4276901E-08
   24.06000     -3.4906503E-08
   24.12000     -3.5541518E-08
   24.18000     -3.6176527E-08
   24.24000     -3.6825366E-08
   24.30000     -3.7520024E-08
   24.36000     -3.8304332E-08
   24.42000     -3.9223877E-08
   24.48000     -4.0314280E-08
   24.54000     -4.1590525E-08
   24.60000     -4.3040011E-08
   24.66000     -4.4621224E-08
   24.72000     -4.6268898E-08
   24.78000     -4.7904681E-08
   24.84000     -4.9451021E-08
   24.90000     -5.0844644E-08
   24.96000     -5.2046104E-08
   25.02000     -5.3042726E-08
   25.08000     -5.3844310E-08
   25.14000     -5.4473116E-08
   25.20000     -5.4951627E-08
   25.26000     -5.5292258E-08
   25.32000     -5.5492553E-08
   25.38000     -5.5537519E-08
   25.44000     -5.5408254E-08
   25.50000     -5.5093551E-08
   25.56000     -5.4600100E-08
   25.62000     -5.3956931E-08
   25.68000     -5.3211796E-08
   25.74000     -5.2419690E-08
   25.80000     -5.1626674E-08
   25.86000     -5.0854002E-08
   25.92000     -5.0087735E-08
   25.98000     -4.9277705E-08
   26.04000     -4.8346656E-08
   26.10000     -4.7207447E-08
   26.16000     -4.5783398E-08
   26.22000     -4.4026145E-08
   26.28000     -4.1926008E-08
   26.34000     -3.9512340E-08
   26.40000     -3.6844309E-08
   26.46000     -3.3995388E-08
   26.52000     -3.1036397E-08
   26.58000     -2.8022017E-08
   26.64000     -2.4984127E-08
   26.70000     -2.1933149E-08
   26.76000     -1.8865812E-08
   26.82000     -1.5775978E-08
   26.88000     -1.2664352E-08
   26.94000     -9.5435997E-09
   27.00000     -6.4371966E-09
   27.06000     -3.3727421E-09
   27.12000     -3.7265027E-10
   27.18000      2.5537727E-09
   27.24000      5.4132188E-09
   27.30000      8.2244336E-09
   27.36000      1.1008270E-08
   27.42000      1.3775050E-08
   27.48000      1.6513802E-08
   27.54000      1.9187498E-08
   27.60000      2.1736392E-08
   27.66000      2.4088726E-08
   27.72000      2.6175602E-08
   27.78000      2.7945564E-08
   27.84000      2.9374847E-08
   27.90000      3.0470943E-08
   27.96000      3.1269373E-08
   28.02000      3.1825326E-08
   28.08000      3.2202820E-08
   28.14000      3.2463912E-08
   28.20000      3.2659759E-08
   28.26000      3.2824744E-08
   28.32000      3.2973873E-08
   28.38000      3.3103589E-08
   28.44000      3.3195565E-08
   28.50000      3.3222626E-08
   28.56000      3.3155477E-08
   28.62000      3.2968462E-08
   28.68000      3.2642923E-08
   28.74000      3.2167243E-08
   28.80000      3.1534189E-08
   28.86000      3.0737105E-08
   28.92000      2.9767097E-08
   28.98000      2.8613105E-08
   29.04000      2.7265305E-08
   29.10000      2.5720857E-08
   29.16000      2.3989738E-08
   29.22000      2.2098019E-08
   29.28000      2.0086780E-08
   29.34000      1.8006384E-08
   29.40000      1.5907537E-08
   29.46000      1.3831724E-08
   29.52000      1.1803898E-08
   29.58000      9.8293853E-09
   29.64000      7.8956868E-09
   29.70000      5.9782121E-09
   29.76000      4.0480308E-09
   29.82000      2.0793338E-09
   29.88000      5.4760363E-11
   29.94000     -2.0324165E-09
   30.00000     -4.1792285E-09
   30.06000     -6.3762502E-09
   30.12000     -8.6118064E-09
   30.18000     -1.0875713E-08
   30.24000     -1.3161315E-08
   30.30000     -1.5465105E-08
   30.36000     -1.7783901E-08
   30.42000     -2.0110411E-08
   30.48000     -2.2428694E-08
   30.54000     -2.4711277E-08
   30.60000     -2.6919446E-08
   30.66000     -2.9007195E-08
   30.72000     -3.0928028E-08
   30.78000     -3.2642685E-08
   30.84000     -3.4125222E-08
   30.90000     -3.5365602E-08
   30.96000     -3.6368068E-08
   31.02000     -3.7146329E-08
   31.08000     -3.7717744E-08
   31.14000     -3.8098882E-08
   31.20000     -3.8303941E-08
   31.26000     -3.8345839E-08
   31.32000     -3.8238642E-08
   31.38000     -3.7999150E-08
   31.44000     -3.7646259E-08
   31.50000     -3.7198074E-08
   31.56000     -3.6668101E-08
   31.62000     -3.6062659E-08
   31.68000     -3.5381102E-08
   31.74000     -3.4619283E-08
   31.80000     -3.3774953E-08
   31.86000     -3.2852945E-08
   31.92000     -3.1868034E-08
   31.98000     -3.0844468E-08
   32.04000     -2.9812668E-08
   32.10000     -2.8804738E-08
   32.16000     -2.7850707E-08
   32.22000     -2.6976597E-08
   32.28000     -2.6204335E-08
   32.34000     -2.5552396E-08
   32.40000     -2.5035865E-08
   32.46000     -2.4665042E-08
   32.52000     -2.4442834E-08
   32.58000     -2.4362018E-08
   32.64000     -2.4403795E-08
   32.70000     -2.4538608E-08
   32.76000     -2.4729372E-08
   32.82000     -2.4936250E-08
   32.88000     -2.5121729E-08
   32.94000     -2.5254838E-08
   33.00000     -2.5313808E-08
   33.06000     -2.5287163E-08
   33.12000     -2.5173533E-08
   33.18000     -2.4980592E-08
   33.24000     -2.4723366E-08
   33.30000     -2.4421976E-08
   33.36000     -2.4098860E-08
   33.42000     -2.3775714E-08
   33.48000     -2.3470443E-08
   33.54000     -2.3194554E-08
   33.60000     -2.2951273E-08
   33.66000     -2.2734559E-08
   33.72000     -2.2529100E-08
   33.78000     -2.2311415E-08
   33.84000     -2.2052332E-08
   33.90000     -2.1721061E-08
   33.96000     -2.1290782E-08
   34.02000     -2.0744997E-08
   34.08000     -2.0083183E-08
   34.14000     -1.9323959E-08
   34.20000     -1.8504169E-08
   34.26000     -1.7673349E-08
   34.32000     -1.6884609E-08
   34.38000     -1.6184257E-08
   34.44000     -1.5603298E-08
   34.50000     -1.5153446E-08
   34.56000     -1.4828842E-08
   34.62000     -1.4612723E-08
   34.68000     -1.4486501E-08
   34.74000     -1.4437972E-08
   34.80000     -1.4465773E-08
   34.86000     -1.4578755E-08
   34.92000     -1.4790879E-08
   34.98000     -1.5113844E-08
   35.04000     -1.5550457E-08
   35.10000     -1.6091263E-08
   35.16000     -1.6715770E-08
   35.22000     -1.7397843E-08
   35.28000     -1.8113486E-08
   35.34000     -1.8848471E-08
   35.40000     -1.9603387E-08
   35.46000     -2.0394490E-08
   35.52000     -2.1250044E-08
   35.58000     -2.2203061E-08
   35.64000     -2.3282318E-08
   35.70000     -2.4503951E-08
   35.76000     -2.5865775E-08
   35.82000     -2.7345811E-08
   35.88000     -2.8905420E-08
   35.94000     -3.0496324E-08
   36.00000     -3.2069806E-08
   36.06000     -3.3585764E-08
   36.12000     -3.5019291E-08
   36.18000     -3.6363126E-08
   36.24000     -3.7625405E-08
   36.30000     -3.8823387E-08
   36.36000     -3.9975038E-08
   36.42000     -4.1090914E-08
   36.48000     -4.2168562E-08
   36.54000     -4.3190951E-08
   36.60000     -4.4129067E-08
   36.66000     -4.4947747E-08
   36.72000     -4.5612879E-08
   36.78000     -4.6098020E-08
   36.84000     -4.6388966E-08
   36.90000     -4.6485493E-08
   36.96000     -4.6400572E-08
   37.02000     -4.6157712E-08
   37.08000     -4.5787388E-08
   37.14000     -4.5323393E-08
   37.20000     -4.4799449E-08
   37.26000     -4.4246438E-08
   37.32000     -4.3690292E-08
   37.38000     -4.3150653E-08
   37.44000     -4.2640476E-08
   37.50000     -4.2166537E-08
   37.56000     -4.1730711E-08
   37.62000     -4.1331578E-08
   37.68000     -4.0965791E-08
   37.74000     -4.0628823E-08
   37.80000     -4.0314738E-08
   37.86000     -4.0015337E-08
   37.92000     -3.9719197E-08
   37.98000     -3.9411301E-08
   38.04000     -3.9073846E-08
   38.10000     -3.8688352E-08
   38.16000     -3.8238777E-08
   38.22000     -3.7714749E-08
   38.28000     -3.7113967E-08
   38.34000     -3.6442973E-08
   38.40000     -3.5715917E-08
   38.46000     -3.4951583E-08
   38.52000     -3.4169439E-08
   38.58000     -3.3385795E-08
   38.64000     -3.2611062E-08
   38.70000     -3.1848725E-08
   38.76000     -3.1096221E-08
   38.82000     -3.0347284E-08
   38.88000     -2.9595125E-08
   38.94000     -2.8835512E-08
   39.00000     -2.8069095E-08
   39.06000     -2.7302210E-08
   39.12000     -2.6545912E-08
   39.18000     -2.5813200E-08
   39.24000     -2.5114822E-08
   39.30000     -2.4454543E-08
   39.36000     -2.3825107E-08
   39.42000     -2.3206185E-08
   39.48000     -2.2565379E-08
   39.54000     -2.1862588E-08
   39.60000     -2.1057101E-08
   39.66000     -2.0115815E-08
   39.72000     -1.9020629E-08
   39.78000     -1.7773115E-08
   39.84000     -1.6395390E-08
   39.90000     -1.4927323E-08
   39.96000     -1.3421094E-08
   40.02000     -1.1934766E-08
   40.08000     -1.0526413E-08
   40.14000     -9.2496686E-09
   40.20000     -8.1508338E-09
   40.26000     -7.2670403E-09
   40.32000     -6.6248527E-09
   40.38000     -6.2389418E-09
   40.44000     -6.1109189E-09
   40.50000     -6.2288055E-09
   40.56000     -6.5676669E-09
   40.62000     -7.0916721E-09
   40.68000     -7.7574658E-09
   40.74000     -8.5183673E-09
   40.80000     -9.3288328E-09
   40.86000     -1.0148705E-08
   40.92000     -1.0946944E-08
   40.98000     -1.1704576E-08
   41.04000     -1.2416510E-08
   41.10000     -1.3091618E-08
   41.16000     -1.3750468E-08
   41.22000     -1.4420357E-08
   41.28000     -1.5128103E-08
   41.34000     -1.5891979E-08
   41.40000     -1.6714967E-08
   41.46000     -1.7581735E-08
   41.52000     -1.8460886E-08
   41.58000     -1.9312697E-08
   41.64000     -2.0100588E-08
   41.70000     -2.0803224E-08
   41.76000     -2.1423608E-08
   41.82000     -2.1992214E-08
   41.88000     -2.2562942E-08
   41.94000     -2.3202865E-08
   42.00000     -2.3978464E-08
   42.06000     -2.4942073E-08
   42.12000     -2.6121985E-08
   42.18000     -2.7518395E-08
   42.24000     -2.9105713E-08
   42.30000     -3.0840003E-08
   42.36000     -3.2669213E-08
   42.42000     -3.4543536E-08
   42.48000     -3.6423518E-08
   42.54000     -3.8284618E-08
   42.60000     -4.0117992E-08
   42.66000     -4.1928310E-08
   42.72000     -4.3730243E-08
   42.78000     -4.5545207E-08
   42.84000     -4.7399876E-08
   42.90000     -4.9326996E-08
   42.96000     -5.1368140E-08
   43.02000     -5.3577420E-08
   43.08000     -5.6024614E-08
   43.14000     -5.8796672E-08
   43.20000     -6.1997099E-08
   43.26000     -6.5743869E-08
   43.32000     -7.0167026E-08
   43.38000     -7.5407620E-08
   43.44000     -8.1618957E-08
   43.50000     -8.8970722E-08
   43.56000     -9.7655118E-08
   43.62000     -1.0789433E-07
   43.68000     -1.1994786E-07
   43.74000     -1.3411925E-07
   43.80000     -1.5076225E-07
   43.86000     -1.7028685E-07
   43.92000     -1.9316575E-07
   43.98000     -2.1994173E-07
   44.04000     -2.5123600E-07
   44.10000     -2.8775682E-07
   44.16000     -3.3030813E-07
   44.22000     -3.7979822E-07
   44.28000     -4.3724822E-07
   44.34000     -5.0380163E-07
   44.40000     -5.8073488E-07
   44.46000     -6.6947007E-07
   44.52000     -7.7158955E-07
   44.58000     -8.8885236E-07
   44.64000     -1.0232126E-06
   44.70000     -1.1768392E-06
   44.76000     -1.3521355E-06
   44.82000     -1.5517614E-06
   44.88000     -1.7786518E-06
   44.94000     -2.0360362E-06
   45.00000     -2.3274531E-06
   45.06000     -2.6567639E-06
   45.12000     -3.0281631E-06
   45.18000     -3.4461875E-06
   45.24000     -3.9157248E-06
   45.30000     -4.4420271E-06
   45.36000     -5.0307226E-06
   45.42000     -5.6878298E-06
   45.48000     -6.4197734E-06
   45.54000     -7.2333928E-06
   45.60000     -8.1359440E-06
   45.66000     -9.1350948E-06
   45.72000     -1.0238908E-05
   45.78000     -1.1455826E-05
   45.84000     -1.2794644E-05
   45.90000     -1.4264485E-05
   45.96000     -1.5874768E-05
   46.02000     -1.7635179E-05
   46.08000     -1.9555626E-05
   46.14000     -2.1646205E-05
   46.20000     -2.3917135E-05
   46.26000     -2.6378695E-05
   46.32000     -2.9041161E-05
   46.38000     -3.1914729E-05
   46.44000     -3.5009434E-05
   46.50000     -3.8335067E-05
   46.56000     -4.1901079E-05
   46.62000     -4.5716490E-05
   46.68000     -4.9789778E-05
   46.74000     -5.4128788E-05
   46.80000     -5.8740603E-05
   46.86000     -6.3631429E-05
   46.92000     -6.8806505E-05
   46.98000     -7.4269949E-05
   47.04000     -8.0024693E-05
   47.10000     -8.6072367E-05
   47.16000     -9.2413196E-05
   47.22000     -9.9045923E-05
   47.28000     -1.0596769E-04
   47.34000     -1.1317400E-04
   47.40000     -1.2065867E-04
   47.46000     -1.2841375E-04
   47.52000     -1.3642952E-04
   47.58000     -1.4469445E-04
   47.64000     -1.5319519E-04
   47.70000     -1.6191664E-04
   47.76000     -1.7084194E-04
   47.82000     -1.7995251E-04
   47.88000     -1.8922822E-04
   47.94000     -1.9864739E-04
   48.00000     -2.0818702E-04
   48.06000     -2.1782283E-04
   48.12000     -2.2752950E-04
   48.18000     -2.3728076E-04
   48.24000     -2.4704967E-04
   48.30000     -2.5680862E-04
   48.36000     -2.6652985E-04
   48.42000     -2.7618557E-04
   48.48000     -2.8574807E-04
   48.54000     -2.9519023E-04
   48.60000     -3.0448570E-04
   48.66000     -3.1360908E-04
   48.72000     -3.2253633E-04
   48.78000     -3.3124475E-04
   48.84000     -3.3971356E-04
   48.90000     -3.4792387E-04
   48.96000     -3.5585900E-04
   49.02000     -3.6350451E-04
   49.08000     -3.7084855E-04
   49.14000     -3.7788184E-04
   49.20000     -3.8459789E-04
   49.26000     -3.9099308E-04
   49.32000     -3.9706656E-04
   49.38000     -4.0282059E-04
   49.44000     -4.0826030E-04
   49.50000     -4.1339378E-04
   49.56000     -4.1823174E-04
   49.62000     -4.2278782E-04
   49.68000     -4.2707802E-04
   49.74000     -4.3112060E-04
   49.80000     -4.3493591E-04
   49.86000     -4.3854609E-04
   49.92000     -4.4197484E-04
   49.98000     -4.4524716E-04
   50.04000     -4.4838901E-04
   50.10000     -4.5142684E-04
   50.16000     -4.5438751E-04
   50.22000     -4.5729781E-04
   50.28000     -4.6018406E-04
   50.34000     -4.6307189E-04
   50.40000     -4.6598594E-04
   50.46000     -4.6894929E-04
   50.52000     -4.7198340E-04
   50.58000     -4.7510760E-04
   50.64000     -4.7833909E-04
   50.70000     -4.8169252E-04
   50.76000     -4.8517983E-04
   50.82000     -4.8881018E-04
   50.88000     -4.9258984E-04
   50.94000     -4.9652200E-04
   51.00000     -5.0060678E-04
   51.06000     -5.0484133E-04
   51.12000     -5.0921983E-04
   51.18000     -5.1373354E-04
   51.24000     -5.1837089E-04
   51.30000     -5.2311784E-04
   51.36000     -5.2795804E-04
   51.42000     -5.3287292E-04
   51.48000     -5.3784216E-04
   51.54000     -5.4284371E-04
   51.60000     -5.4785458E-04
   51.66000     -5.5285054E-04
   51.72000     -5.5780733E-04
   51.78000     -5.6270009E-04
   51.84000     -5.6750467E-04
   51.90000     -5.7219714E-04
   51.96000     -5.7675439E-04
   52.02000     -5.8115466E-04
   52.08000     -5.8537768E-04
   52.14000     -5.8940507E-04
   52.20000     -5.9322041E-04
   52.26000     -5.9680967E-04
   52.32000     -6.0016121E-04
   52.38000     -6.0326612E-04
   52.44000     -6.0611794E-04
   52.50000     -6.0871296E-04
   52.56000     -6.1105035E-04
   52.62000     -6.1313197E-04
   52.68000     -6.1496254E-04
   52.74000     -6.1654911E-04
   52.80000     -6.1790133E-04
   52.86000     -6.1903050E-04
   52.92000     -6.1995024E-04
   52.98000     -6.2067545E-04
   53.04000     -6.2122277E-04
   53.10000     -6.2160991E-04
   53.16000     -6.2185549E-04
   53.22000     -6.2197866E-04
   53.28000     -6.2199839E-04
   53.34000     -6.2193378E-04
   53.40000     -6.2180293E-04
   53.46000     -6.2162301E-04
   53.52000     -6.2140991E-04
   53.58000     -6.2117813E-04
   53.64000     -6.2094047E-04
   53.70000     -6.2070781E-04
   53.76000     -6.2048872E-04
   53.82000     -6.2028924E-04
   53.88000     -6.2011305E-04
   53.94000     -6.1996112E-04
   54.00000     -6.1983179E-04
   54.06000     -6.1972078E-04
   54.12000     -6.1962119E-04
   54.18000     -6.1952358E-04
   54.24000     -6.1941583E-04
   54.30000     -6.1928370E-04
   54.36000     -6.1911059E-04
   54.42000     -6.1887794E-04
   54.48000     -6.1856554E-04
   54.54000     -6.1815203E-04
   54.60000     -6.1761495E-04
   54.66000     -6.1693107E-04
   54.72000     -6.1607669E-04
   54.78000     -6.1502820E-04
   54.84000     -6.1376189E-04
   54.90000     -6.1225489E-04
   54.96000     -6.1048503E-04
   55.02000     -6.0843164E-04
   55.08000     -6.0607522E-04
   55.14000     -6.0339825E-04
   55.20000     -6.0038531E-04
   55.26000     -5.9702311E-04
   55.32000     -5.9330091E-04
   55.38000     -5.8921042E-04
   55.44000     -5.8474619E-04
   55.50000     -5.7990546E-04
   55.56000     -5.7468849E-04