  -2.400000      0.0000000E+00
  -2.340000      0.0000000E+00
  -2.280000      0.0000000E+00
  -2.220000      0.0000000E+00
  -2.160000      0.0000000E+00
  -2.100000      3.4977268E-21
  -2.040000      1.0370590E-20
  -1.980000     -5.6308569E-20
  -1.920000     -5.2340117E-19
  -1.860000     -2.0810783E-18
  -1.800000     -5.3855893E-18
  -1.740000     -9.6895242E-18
  -1.680000     -1.0754732E-17
  -1.620000      2.9563686E-19
  -1.560000      3.4412054E-17
  -1.500000      9.6314680E-17
  -1.440000      1.7200576E-16
  -1.380000      2.1897281E-16
  -1.320000      1.6951111E-16
  -1.260000     -4.4827521E-17
  -1.200000     -4.4970313E-16
  -1.140000     -9.8155300E-16
  -1.080000     -1.4644272E-15
  -1.020000     -1.6337478E-15
 -0.9600000     -1.2133402E-15
 -0.9000000     -2.7209349E-17
 -0.8400000      1.8913443E-15
 -0.7800000      4.2325190E-15
 -0.7200000      6.4090540E-15
 -0.6600000      7.6267380E-15
 -0.6000000      7.0233134E-15
 -0.5400000      3.8779299E-15
 -0.4800000     -2.1052267E-15
 -0.4200000     -1.0464770E-14
 -0.3600000     -1.9698024E-14
 -0.3000000     -2.7204936E-14
 -0.2400000     -2.9666577E-14
 -0.1800000     -2.3963526E-14
 -0.1200000     -8.4960395E-15
 -5.9999999E-02  1.5532678E-14
  0.0000000E+00  4.3497168E-14
  5.9999999E-02  6.7930206E-14
  0.1200000      8.0417701E-14
  0.1800000      7.4313399E-14
  0.2400000      4.7282565E-14
  0.3000000      2.6078387E-15
  0.3600000     -5.1344417E-14
  0.4200000     -1.0327914E-13
  0.4800000     -1.4178971E-13
  0.5400000     -1.5766320E-13
  0.6000000     -1.4498335E-13
  0.6600000     -1.0125719E-13
  0.7200000     -2.7541859E-14
  0.7800000      7.0456221E-14
  0.8400000      1.8026394E-13
  0.9000000      2.8085414E-13
  0.9600000      3.4349119E-13
   1.020000      3.3716996E-13
   1.080000      2.3873847E-13
   1.140000      4.5065487E-14
   1.200000     -2.1761014E-13
   1.260000     -4.9236732E-13
   1.320000     -7.0141489E-13
   1.380000     -7.6608468E-13
   1.440000     -6.3173273E-13
   1.500000     -2.8953833E-13
   1.560000      2.1267543E-13
   1.620000      7.7540822E-13
   1.680000      1.2681809E-12
   1.740000      1.5610069E-12
   1.800000      1.5583393E-12
   1.860000      1.2262630E-12
   1.920000      6.0517612E-13
   1.980000     -1.9648541E-13
   2.040000     -1.0275580E-12
   2.100000     -1.7338296E-12
   2.160000     -2.2030433E-12
   2.220000     -2.4030430E-12
   2.280000     -2.4000793E-12
   2.340000     -2.3468603E-12
   2.400000     -2.4362623E-12
   2.460000     -2.8260903E-12
   2.520000     -3.5508595E-12
   2.580000     -4.4454041E-12
   2.640000     -5.1089176E-12
   2.700000     -4.9343390E-12
   2.760000     -3.2160218E-12
   2.820000      6.7032138E-13
   2.880000      7.0432158E-12
   2.940000      1.5693271E-11
   3.000000      2.5719687E-11
   3.060000      3.5477385E-11
   3.120000      4.2667175E-11
   3.180000      4.4570229E-11
   3.240000      3.8393316E-11
   3.300000      2.1663298E-11
   3.360000     -7.4038458E-12
   3.420000     -4.9626993E-11
   3.480000     -1.0472043E-10
   3.540000     -1.7130108E-10
   3.600000     -2.4701910E-10
   3.660000     -3.2876743E-10
   3.720000     -4.1291850E-10
   3.780000     -4.9554777E-10
   3.840000     -5.7262389E-10
   3.900000     -6.4017042E-10
   3.960000     -6.9442074E-10
   4.020000     -7.3200079E-10
   4.080000     -7.5016215E-10
   4.140000     -7.4707474E-10
   4.200000     -7.2215595E-10
   4.260000     -6.7638334E-10
   4.320000     -6.1251382E-10
   4.380000     -5.3512039E-10
   4.440000     -4.5037404E-10
   4.500000     -3.6553877E-10
   4.560000     -2.8820948E-10
   4.620000     -2.2539690E-10
   4.680000     -1.8261796E-10
   4.740000     -1.6317277E-10
   4.800000     -1.6775677E-10
   4.860000     -1.9447831E-10
   4.920000     -2.3924959E-10
   4.980000     -2.9642949E-10
   5.040000     -3.5955661E-10
   5.100000     -4.2203382E-10
   5.160000     -4.7769816E-10
   5.220000     -5.2128990E-10
   5.280000     -5.4888227E-10
   5.340000     -5.5831423E-10
   5.400000     -5.4959681E-10
   5.460000     -5.2517557E-10
   5.520000     -4.8988358E-10
   5.580000     -4.5044896E-10
   5.640000     -4.1453468E-10
   5.700000     -3.8943893E-10
   5.760000     -3.8071865E-10
   5.820000     -3.9105560E-10
   5.880000     -4.1963819E-10
   5.940000     -4.6220025E-10
   6.000000     -5.1168664E-10
   6.060000     -5.5936278E-10
   6.120000     -5.9609712E-10
   6.180000     -6.1354061E-10
   6.240000     -6.0499794E-10
   6.300000     -5.6590599E-10
   6.360000     -4.9396720E-10
   6.420000     -3.8909301E-10
   6.480000     -2.5336463E-10
   6.540000     -9.1194954E-11
   6.600000      9.0221851E-11
   6.660000      2.8024089E-10
   6.720000      4.6410517E-10
   6.780000      6.2264072E-10
   6.840000      7.3267314E-10
   6.900000      7.6842999E-10
   6.960000      7.0397893E-10
   7.020000      5.1648397E-10
   7.080000      1.8981927E-10
   7.140000     -2.8206107E-10
   7.200000     -8.9260077E-10
   7.260000     -1.6214210E-09
   7.320000     -2.4346190E-09
   7.380000     -3.2865439E-09
   7.440000     -4.1227897E-09
   7.500000     -4.8840123E-09
   7.560000     -5.5101408E-09
   7.620000     -5.9445617E-09
   7.680000     -6.1379324E-09
   7.740000     -6.0513470E-09
   7.800000     -5.6586456E-09
   7.860000     -4.9477320E-09
   7.920000     -3.9208059E-09
   7.980000     -2.5934657E-09
   8.040000     -9.9268793E-10
   8.100000      8.4619839E-10
   8.160000      2.8832869E-09
   8.220000      5.0781481E-09
   8.280000      7.3935156E-09
   8.340000      9.7978843E-09
   8.400000      1.2266460E-08
   8.460000      1.4780245E-08
   8.520000      1.7323609E-08
   8.580000      1.9881137E-08
   8.640000      2.2434776E-08
   8.700000      2.4962242E-08
   8.760000      2.7437034E-08
   8.820000      2.9829906E-08
   8.880000      3.2110986E-08
   8.940000      3.4251556E-08
   9.000000      3.6224698E-08
   9.060000      3.8004504E-08
   9.120000      3.9564103E-08
   9.180000      4.0873385E-08
   9.240000      4.1897401E-08
   9.300000      4.2596504E-08
   9.360000      4.2928740E-08
   9.420000      4.2854701E-08
   9.480000      4.2344261E-08
   9.540000      4.1384070E-08
   9.600000      3.9984144E-08
   9.660000      3.8181859E-08
   9.720000      3.6041751E-08
   9.780000      3.3650398E-08
   9.840000      3.1106762E-08
   9.900000      2.8509522E-08
   9.960000      2.5943923E-08
   10.02000      2.3470909E-08
   10.08000      2.1120957E-08
   10.14000      1.8893841E-08
   10.20000      1.6764226E-08
   10.26000      1.4691588E-08
   10.32000      1.2632078E-08
   10.38000      1.0549687E-08
   10.44000      8.4244451E-09
   10.50000      6.2562777E-09
   10.56000      4.0641894E-09
   10.62000      1.8815378E-09
   10.68000     -2.5106708E-10
   10.74000     -2.2933140E-09
   10.80000     -4.2113704E-09
   10.86000     -5.9814407E-09
   10.92000     -7.5903328E-09
   10.98000     -9.0336023E-09
   11.04000     -1.0312549E-08
   11.10000     -1.1431533E-08
   11.16000     -1.2396719E-08
   11.22000     -1.3216527E-08
   11.28000     -1.3903174E-08
   11.34000     -1.4474042E-08
   11.40000     -1.4951617E-08
   11.46000     -1.5361248E-08
   11.52000     -1.5726922E-08
   11.58000     -1.6066222E-08
   11.64000     -1.6386057E-08
   11.70000     -1.6680810E-08
   11.76000     -1.6933901E-08
   11.82000     -1.7122767E-08
   11.88000     -1.7226295E-08
   11.94000     -1.7232983E-08
   12.00000     -1.7147634E-08
   12.06000     -1.6994612E-08
   12.12000     -1.6816303E-08
   12.18000     -1.6666636E-08
   12.24000     -1.6600868E-08
   12.30000     -1.6664025E-08
   12.36000     -1.6881065E-08
   12.42000     -1.7251557E-08
   12.48000     -1.7750418E-08
   12.54000     -1.8334491E-08
   12.60000     -1.8952907E-08
   12.66000     -1.9558039E-08
   12.72000     -2.0113781E-08
   12.78000     -2.0598920E-08
   12.84000     -2.1005039E-08
   12.90000     -2.1330232E-08
   12.96000     -2.1571168E-08
   13.02000     -2.1716405E-08
   13.08000     -2.1743354E-08
   13.14000     -2.1620073E-08
   13.20000     -2.1311509E-08
   13.26000     -2.0788361E-08
   13.32000     -2.0035841E-08
   13.38000     -1.9059369E-08
   13.44000     -1.7884988E-08
   13.50000     -1.6553793E-08
   13.56000     -1.5111524E-08
   13.62000     -1.3596220E-08
   13.68000     -1.2027781E-08
   13.74000     -1.0402966E-08
   13.80000     -8.6978797E-09
   13.86000     -6.8777508E-09
   13.92000     -4.9113766E-09
   13.98000     -2.7860769E-09
   14.04000     -5.1859406E-10
   14.10000      1.8415767E-09
   14.16000      4.2178558E-09
   14.22000      6.5201951E-09
   14.28000      8.6633722E-09
   14.34000      1.0585353E-08
   14.40000      1.2261006E-08
   14.46000      1.3707500E-08
   14.52000      1.4979813E-08
   14.58000      1.6157239E-08
   14.64000      1.7324176E-08
   14.70000      1.8549990E-08
   14.76000      1.9873045E-08
   14.82000      2.1292939E-08
   14.88000      2.2772637E-08
   14.94000      2.4249450E-08
   15.00000      2.5651355E-08
   15.06000      2.6913645E-08
   15.12000      2.7991105E-08
   15.18000      2.8862489E-08
   15.24000      2.9526703E-08
   15.30000      2.9992894E-08
   15.36000      3.0268659E-08
   15.42000      3.0351163E-08
   15.48000      3.0224928E-08
   15.54000      2.9867628E-08
   15.60000      2.9262393E-08
   15.66000      2.8412479E-08
   15.72000      2.7353147E-08
   15.78000      2.6155980E-08
   15.84000      2.4923160E-08
   15.90000      2.3772250E-08
   15.96000      2.2815083E-08
   16.02000      2.2136355E-08
   16.08000      2.1777691E-08
   16.14000      2.1731500E-08
   16.20000      2.1946070E-08
   16.26000      2.2340139E-08
   16.32000      2.2822608E-08
   16.38000      2.3311705E-08
   16.44000      2.3748395E-08
   16.50000      2.4100753E-08
   16.56000      2.4358920E-08
   16.62000      2.4523247E-08
   16.68000      2.4590408E-08
   16.74000      2.4542910E-08
   16.80000      2.4346342E-08
   16.86000      2.3956083E-08
   16.92000      2.3331891E-08
   16.98000      2.2455865E-08
   17.04000      2.1347711E-08
   17.10000      2.0071688E-08
   17.16000      1.8731930E-08
   17.22000      1.7456372E-08
   17.28000      1.6373015E-08
   17.34000      1.5584650E-08
   17.40000      1.5148691E-08
   17.46000      1.5067254E-08
   17.52000      1.5289782E-08
   17.58000      1.5727000E-08
   17.64000      1.6272155E-08
   17.70000      1.6823803E-08
   17.76000      1.7304442E-08
   17.82000      1.7670894E-08
   17.88000      1.7914818E-08
   17.94000      1.8054635E-08
   18.00000      1.8122384E-08
   18.06000      1.8150043E-08
   18.12000      1.8159492E-08
   18.18000      1.8158522E-08
   18.24000      1.8142964E-08
   18.30000      1.8102858E-08
   18.36000      1.8029246E-08
   18.42000      1.7918511E-08
   18.48000      1.7772388E-08
   18.54000      1.7593866E-08
   18.60000      1.7381065E-08
   18.66000      1.7121979E-08
   18.72000      1.6792750E-08
   18.78000      1.6360744E-08
   18.84000      1.5791841E-08
   18.90000      1.5059763E-08
   18.96000      1.4154495E-08
   19.02000      1.3086979E-08
   19.08000      1.1888480E-08
   19.14000      1.0604555E-08
   19.20000      9.2850740E-09
   19.26000      7.9728739E-09
   19.32000      6.6938055E-09
   19.38000      5.4505600E-09
   19.44000      4.2214743E-09
   19.50000      2.9642606E-09
   19.56000      1.6234007E-09
   19.62000      1.3927226E-10
   19.68000     -1.5429985E-09
   19.74000     -3.4664354E-09
   19.80000     -5.6575513E-09
   19.86000     -8.1240410E-09
   19.92000     -1.0854330E-08
   19.98000     -1.3818465E-08
   20.04000     -1.6970148E-08
   20.10000     -2.0250033E-08
   20.16000     -2.3590498E-08
   20.22000     -2.6921830E-08
   20.28000     -3.0179258E-08
   20.34000     -3.3309753E-08
   20.40000     -3.6277292E-08
   20.46000     -3.9065576E-08
   20.52000     -4.1677783E-08
   20.58000     -4.4133689E-08
   20.64000     -4.6465143E-08
   20.70000     -4.8711019E-08
   20.76000     -5.0912615E-08
   20.82000     -5.3109854E-08
   20.88000     -5.5338177E-08
   20.94000     -5.7625677E-08
   21.00000     -5.9990064E-08
   21.06000     -6.2435433E-08
   21.12000     -6.4949333E-08
   21.18000     -6.7501340E-08
   21.24000     -7.0043917E-08
   21.30000     -7.2516734E-08
   21.36000     -7.4854185E-08
   21.42000     -7.6995221E-08
   21.48000     -7.8893294E-08
   21.54000     -8.0523975E-08
   21.60000     -8.1887833E-08
   21.66000     -8.3007272E-08
   21.72000     -8.3917627E-08
   21.78000     -8.4654552E-08
   21.84000     -8.5240913E-08
   21.90000     -8.5676795E-08
   21.96000     -8.5935532E-08
   22.02000     -8.5967017E-08
   22.08000     -8.5707654E-08
   22.14000     -8.5094470E-08
   22.20000     -8.4079915E-08
   22.26000     -8.2643638E-08
   22.32000     -8.0798799E-08
   22.38000     -7.8591697E-08
   22.44000     -7.6095446E-08
   22.50000     -7.3399804E-08
   22.56000     -7.0599775E-08
   22.62000     -6.7785820E-08
   22.68000     -6.5037078E-08
   22.74000     -6.2418302E-08
   22.80000     -5.9979520E-08
   22.86000     -5.7756985E-08
   22.92000     -5.5773885E-08
   22.98000     -5.4039774E-08
   23.04000     -5.2548845E-08
   23.10000     -5.1278143E-08
   23.16000     -5.0187502E-08
   23.22000     -4.9222876E-08
   23.28000     -4.8323866E-08
   23.34000     -4.7434835E-08
   23.40000     -4.6517478E-08
   23.46000     -4.5561627E-08
   23.52000     -4.4590905E-08
   23.58000     -4.3660854E-08
   23.64000     -4.2849152E-08
   23.70000     -4.2239655E-08
   23.76000     -4.1904197E-08
   23.82000     -4.1886690E-08
   23.88000     -4.2193800E-08
   23.94000     -4.2794547E-08
   24.00000     -4.3628699E-08
   24.06000     -4.4621508E-08
   24.12000     -4.5700755E-08
   24.18000     -4.6811660E-08
   24.24000     -4.7926253E-08
   24.30000     -4.9045507E-08
   24.36000     -5.0194480E-08
   24.42000     -5.1412549E-08
   24.48000     -5.2741694E-08
   24.54000     -5.4215914E-08
   24.60000     -5.5854130E-08
   24.66000     -5.7657708E-08
   24.72000     -5.9612120E-08
   24.78000     -6.1691210E-08
   24.84000     -6.3861869E-08
   24.90000     -6.6087033E-08
   24.96000     -6.8326287E-08
   25.02000     -7.0534441E-08
   25.08000     -7.2660029E-08
   25.14000     -7.4645939E-08
   25.20000     -7.6433963E-08
   25.26000     -7.7973240E-08
   25.32000     -7.9230659E-08
   25.38000     -8.0199591E-08
   25.44000     -8.0903220E-08
   25.50000     -8.1389629E-08
   25.56000     -8.1718575E-08
   25.62000     -8.1942879E-08
   25.68000     -8.2089443E-08
   25.74000     -8.2146038E-08
   25.80000     -8.2058492E-08
   25.86000     -8.1740332E-08
   25.92000     -8.1092885E-08
   25.98000     -8.0030702E-08
   26.04000     -7.8505160E-08
   26.10000     -7.6519328E-08
   26.16000     -7.4129453E-08
   26.22000     -7.1432609E-08
   26.28000     -6.8543720E-08
   26.34000     -6.5568614E-08
   26.40000     -6.2580867E-08
   26.46000     -5.9608681E-08
   26.52000     -5.6635145E-08
   26.58000     -5.3610957E-08
   26.64000     -5.0475066E-08
   26.70000     -4.7176595E-08
   26.76000     -4.3691600E-08
   26.82000     -4.0030226E-08
   26.88000     -3.6233246E-08
   26.94000     -3.2360255E-08
   27.00000     -2.8474272E-08
   27.06000     -2.4628127E-08
   27.12000     -2.0856953E-08
   27.18000     -1.7178596E-08
   27.24000     -1.3600870E-08
   27.30000     -1.0132076E-08
   27.36000     -6.7900641E-09
   27.42000     -3.6056331E-09
   27.48000     -6.1815253E-10
   27.54000      2.1357243E-09
   27.60000      4.6365720E-09
   27.66000      6.8945414E-09
   27.72000      8.9542969E-09
   27.78000      1.0889337E-08
   27.84000      1.2785868E-08
   27.90000      1.4719966E-08
   27.96000      1.6734431E-08
   28.02000      1.8822458E-08
   28.08000      2.0923787E-08
   28.14000      2.2935584E-08
   28.20000      2.4736137E-08
   28.26000      2.6215424E-08
   28.32000      2.7304282E-08
   28.38000      2.7993767E-08
   28.44000      2.8338748E-08
   28.50000      2.8443932E-08
   28.56000      2.8435664E-08
   28.62000      2.8426992E-08
   28.68000      2.8485932E-08
   28.74000      2.8616187E-08
   28.80000      2.8756331E-08
   28.86000      2.8798139E-08
   28.92000      2.8619210E-08
   28.98000      2.8120592E-08
   29.04000      2.7258592E-08
   29.10000      2.6061359E-08
   29.16000      2.4625225E-08
   29.22000      2.3091562E-08
   29.28000      2.1610592E-08
   29.34000      2.0302277E-08
   29.40000      1.9225384E-08
   29.46000      1.8363382E-08
   29.52000      1.7631013E-08
   29.58000      1.6899433E-08
   29.64000      1.6032363E-08
   29.70000      1.4922575E-08
   29.76000      1.3518019E-08
   29.82000      1.1830102E-08
   29.88000      9.9222817E-09
   29.94000      7.8833455E-09
   30.00000      5.7946705E-09
   30.06000      3.7026897E-09
   30.12000      1.6059966E-09
   30.18000     -5.3854010E-10
   30.24000     -2.7929448E-09
   30.30000     -5.2069309E-09
   30.36000     -7.7899038E-09
   30.42000     -1.0496943E-08
   30.48000     -1.3234795E-08
   30.54000     -1.5886844E-08
   30.60000     -1.8349056E-08
   30.66000     -2.0564528E-08
   30.72000     -2.2544283E-08
   30.78000     -2.4366200E-08
   30.84000     -2.6151330E-08
   30.90000     -2.8024624E-08
   30.96000     -3.0072545E-08
   31.02000     -3.2311391E-08
   31.08000     -3.4676862E-08
   31.14000     -3.7038600E-08
   31.20000     -3.9235349E-08
   31.26000     -4.1119904E-08
   31.32000     -4.2599922E-08
   31.38000     -4.3662098E-08
   31.44000     -4.4372534E-08
   31.50000     -4.4853522E-08
   31.56000     -4.5244331E-08
   31.62000     -4.5658268E-08
   31.68000     -4.6149232E-08
   31.74000     -4.6697899E-08
   31.80000     -4.7221143E-08
   31.86000     -4.7601080E-08
   31.92000     -4.7723777E-08
   31.98000     -4.7514732E-08
   32.04000     -4.6959663E-08
   32.10000     -4.6104127E-08
   32.16000     -4.5032948E-08
   32.22000     -4.3837201E-08
   32.28000     -4.2580908E-08
   32.34000     -4.1279343E-08
   32.40000     -3.9896680E-08
   32.46000     -3.8363865E-08
   32.52000     -3.6610295E-08
   32.58000     -3.4598202E-08
   32.64000     -3.2347629E-08
   32.70000     -2.9943156E-08
   32.76000     -2.7519562E-08
   32.82000     -2.5230639E-08
   32.88000     -2.3210559E-08
   32.94000     -2.1539570E-08
   33.00000     -2.0224213E-08
   33.06000     -1.9197808E-08
   33.12000     -1.8340959E-08
   33.18000     -1.7516159E-08
   33.24000     -1.6606666E-08
   33.30000     -1.5548903E-08
   33.36000     -1.4349656E-08
   33.42000     -1.3083556E-08
   33.48000     -1.1871969E-08
   33.54000     -1.0849496E-08
   33.60000     -1.0127772E-08
   33.66000     -9.7669552E-09
   33.72000     -9.7630357E-09
   33.78000     -1.0054348E-08
   33.84000     -1.0544821E-08
   33.90000     -1.1136302E-08
   33.96000     -1.1759388E-08
   34.02000     -1.2392765E-08
   34.08000     -1.3064809E-08
   34.14000     -1.3837242E-08
   34.20000     -1.4776726E-08
   34.26000     -1.5924456E-08
   34.32000     -1.7274608E-08
   34.38000     -1.8769477E-08
   34.44000     -2.0313529E-08
   34.50000     -2.1802069E-08
   34.56000     -2.3155286E-08
   34.62000     -2.4346400E-08
   34.68000     -2.5414533E-08
   34.74000     -2.6457592E-08
   34.80000     -2.7606802E-08
   34.86000     -2.8990060E-08
   34.92000     -3.0694729E-08
   34.98000     -3.2740509E-08
   35.04000     -3.5070084E-08
   35.10000     -3.7559968E-08
   35.16000     -4.0048473E-08
   35.22000     -4.2373003E-08
   35.28000     -4.4406612E-08
   35.34000     -4.6084470E-08
   35.40000     -4.7413756E-08
   35.46000     -4.8465271E-08
   35.52000     -4.9349929E-08
   35.58000     -5.0187172E-08
   35.64000     -5.1074053E-08
   35.70000     -5.2063108E-08
   35.76000     -5.3154253E-08
   35.82000     -5.4301701E-08
   35.88000     -5.5432526E-08
   35.94000     -5.6470451E-08
   36.00000     -5.7357369E-08
   36.06000     -5.8066448E-08
   36.12000     -5.8603927E-08
   36.18000     -5.9000580E-08
   36.24000     -5.9297221E-08
   36.30000     -5.9530151E-08
   36.36000     -5.9721863E-08
   36.42000     -5.9879703E-08
   36.48000     -6.0001973E-08
   36.54000     -6.0087842E-08
   36.60000     -6.0146270E-08
   36.66000     -6.0199618E-08
   36.72000     -6.0279874E-08
   36.78000     -6.0418628E-08
   36.84000     -6.0634370E-08
   36.90000     -6.0921927E-08
   36.96000     -6.1248151E-08
   37.02000     -6.1556136E-08
   37.08000     -6.1776966E-08
   37.14000     -6.1846031E-08
   37.20000     -6.1718943E-08
   37.26000     -6.1382707E-08
   37.32000     -6.0858973E-08
   37.38000     -6.0198523E-08
   37.44000     -5.9468661E-08
   37.50000     -5.8736905E-08
   37.56000     -5.8055313E-08
   37.62000     -5.7449476E-08
   37.68000     -5.6914924E-08
   37.74000     -5.6421584E-08
   37.80000     -5.5924822E-08
   37.86000     -5.5379584E-08
   37.92000     -5.4753308E-08
   37.98000     -5.4033613E-08
   38.04000     -5.3228355E-08
   38.10000     -5.2358327E-08
   38.16000     -5.1445301E-08
   38.22000     -5.0499921E-08
   38.28000     -4.9513979E-08
   38.34000     -4.8460112E-08
   38.40000     -4.7299082E-08
   38.46000     -4.5992017E-08
   38.52000     -4.4513140E-08
   38.58000     -4.2858314E-08
   38.64000     -4.1046544E-08
   38.70000     -3.9114099E-08
   38.76000     -3.7103774E-08
   38.82000     -3.5053080E-08
   38.88000     -3.2985415E-08
   38.94000     -3.0906445E-08
   39.00000     -2.8806078E-08
   39.06000     -2.6664289E-08
   39.12000     -2.4458313E-08
   39.18000     -2.2168829E-08
   39.24000     -1.9783812E-08
   39.30000     -1.7300044E-08
   39.36000     -1.4723078E-08
   39.42000     -1.2066674E-08
   39.48000     -9.3523109E-09
   39.54000     -6.6086696E-09
   39.60000     -3.8704937E-09
   39.66000     -1.1761307E-09
   39.72000      1.4365038E-09
   39.78000      3.9351202E-09
   39.84000      6.2982806E-09
   39.90000      8.5192049E-09
   39.96000      1.0606836E-08
   40.02000      1.2583447E-08
   40.08000      1.4478935E-08
   40.14000      1.6322840E-08
   40.20000      1.8135728E-08
   40.26000      1.9921909E-08
   40.32000      2.1665221E-08
   40.38000      2.3329131E-08
   40.44000      2.4861558E-08
   40.50000      2.6203800E-08
   40.56000      2.7301928E-08
   40.62000      2.8118196E-08
   40.68000      2.8639702E-08
   40.74000      2.8881818E-08
   40.80000      2.8885102E-08
   40.86000      2.8706062E-08
   40.92000      2.8403942E-08
   40.98000      2.8027012E-08
   41.04000      2.7602024E-08
   41.10000      2.7129664E-08
   41.16000      2.6586850E-08
   41.22000      2.5934815E-08
   41.28000      2.5130193E-08
   41.34000      2.4135952E-08
   41.40000      2.2929434E-08
   41.46000      2.1506111E-08
   41.52000      1.9879037E-08
   41.58000      1.8074996E-08
   41.64000      1.6128819E-08
   41.70000      1.4077314E-08
   41.76000      1.1953988E-08
   41.82000      9.7853512E-09
   41.88000      7.5893052E-09
   41.94000      5.3755906E-09
   42.00000      3.1477334E-09
   42.06000      9.0544355E-10
   42.12000     -1.3538056E-09
   42.18000     -3.6348951E-09
   42.24000     -5.9468639E-09
   42.30000     -8.3053084E-09
   42.36000     -1.0733614E-08
   42.42000     -1.3261400E-08
   42.48000     -1.5919694E-08
   42.54000     -1.8733960E-08
   42.60000     -2.1717565E-08
   42.66000     -2.4868678E-08
   42.72000     -2.8172840E-08
   42.78000     -3.1611538E-08
   42.84000     -3.5174956E-08
   42.90000     -3.8875406E-08
   42.96000     -4.2757584E-08
   43.02000     -4.6902517E-08
   43.08000     -5.1424109E-08
   43.14000     -5.6459459E-08
   43.20000     -6.2155948E-08
   43.26000     -6.8659475E-08
   43.32000     -7.6107874E-08
   43.38000     -8.4632653E-08
   43.44000     -9.4369852E-08
   43.50000     -1.0547849E-07
   43.56000     -1.1816257E-07
   43.62000     -1.3269184E-07
   43.68000     -1.4941622E-07
   43.74000     -1.6877101E-07
   43.80000     -1.9127296E-07
   43.86000     -2.1751005E-07
   43.92000     -2.4813085E-07
   43.98000     -2.8383963E-07
   44.04000     -3.2540203E-07
   44.10000     -3.7366331E-07
   44.16000     -4.2957777E-07
   44.22000     -4.9424483E-07
   44.28000     -5.6894504E-07
   44.34000     -6.5516946E-07
   44.40000     -7.5463936E-07
   44.46000     -8.6931260E-07
   44.52000     -1.0013829E-06
   44.58000     -1.1532733E-06
   44.64000     -1.3276360E-06
   44.70000     -1.5273600E-06
   44.76000     -1.7555966E-06
   44.82000     -2.0157966E-06
   44.88000     -2.3117602E-06
   44.94000     -2.6476907E-06
   45.00000     -3.0282399E-06
   45.06000     -3.4585437E-06
   45.12000     -3.9442407E-06
   45.18000     -4.4914782E-06
   45.24000     -5.1069123E-06
   45.30000     -5.7977049E-06
   45.36000     -6.5715280E-06
   45.42000     -7.4365826E-06
   45.48000     -8.4016210E-06
   45.54000     -9.4759798E-06
   45.60000     -1.0669597E-05
   45.66000     -1.1993026E-05
   45.72000     -1.3457433E-05
   45.78000     -1.5074571E-05
   45.84000     -1.6856749E-05
   45.90000     -1.8816787E-05
   45.96000     -2.0967971E-05
   46.02000     -2.3324012E-05
   46.08000     -2.5899019E-05
   46.14000     -2.8707449E-05
   46.20000     -3.1764081E-05
   46.26000     -3.5083951E-05
   46.32000     -3.8682276E-05
   46.38000     -4.2574367E-05
   46.44000     -4.6775513E-05
   46.50000     -5.1300816E-05
   46.56000     -5.6165074E-05
   46.62000     -6.1382620E-05
   46.68000     -6.6967194E-05
   46.74000     -7.2931784E-05
   46.80000     -7.9288497E-05
   46.86000     -8.6048443E-05
   46.92000     -9.3221613E-05
   46.98000     -1.0081672E-04
   47.04000     -1.0884108E-04
   47.10000     -1.1730042E-04
   47.16000     -1.2619878E-04
   47.22000     -1.3553828E-04
   47.28000     -1.4531911E-04
   47.34000     -1.5553922E-04
   47.40000     -1.6619435E-04
   47.46000     -1.7727789E-04
   47.52000     -1.8878079E-04
   47.58000     -2.0069150E-04
   47.64000     -2.1299608E-04
   47.70000     -2.2567801E-04
   47.76000     -2.3871833E-04
   47.82000     -2.5209569E-04
   47.88000     -2.6578631E-04
   47.94000     -2.7976424E-04
   48.00000     -2.9400125E-04
   48.06000     -3.0846734E-04
   48.12000     -3.2313052E-04
   48.18000     -3.3795735E-04
   48.24000     -3.5291287E-04
   48.30000     -3.6796115E-04
   48.36000     -3.8306534E-04
   48.42000     -3.9818801E-04
   48.48000     -4.1329145E-04
   48.54000     -4.2833798E-04
   48.60000     -4.4329034E-04
   48.66000     -4.5811204E-04
   48.72000     -4.7276774E-04
   48.78000     -4.8722356E-04
   48.84000     -5.0144736E-04
   48.90000     -5.1540922E-04
   48.96000     -5.2908150E-04
   49.02000     -5.4243923E-04
   49.08000     -5.5546028E-04
   49.14000     -5.6812557E-04
   49.20000     -5.8041932E-04
   49.26000     -5.9232913E-04
   49.32000     -6.0384622E-04
   49.38000     -6.1496551E-04
   49.44000     -6.2568561E-04
   49.50000     -6.3600898E-04
   49.56000     -6.4594159E-04
   49.62000     -6.5549300E-04
   49.68000     -6.6467613E-04
   49.74000     -6.7350705E-04
   49.80000     -6.8200479E-04
   49.86000     -6.9019088E-04
   49.92000     -6.9808931E-04
   49.98000     -7.0572592E-04
   50.04000     -7.1312825E-04
   50.10000     -7.2032487E-04
   50.16000     -7.2734512E-04
   50.22000     -7.3421886E-04
   50.28000     -7.4097561E-04
   50.34000     -7.4764458E-04
   50.40000     -7.5425359E-04
   50.46000     -7.6082943E-04
   50.52000     -7.6739676E-04
   50.58000     -7.7397830E-04
   50.64000     -7.8059378E-04
   50.70000     -7.8726024E-04
   50.76000     -7.9399138E-04
   50.82000     -8.0079772E-04
   50.88000     -8.0768601E-04
   50.94000     -8.1465935E-04
   51.00000     -8.2171703E-04
   51.06000     -8.2885439E-04
   51.12000     -8.3606283E-04
   51.18000     -8.4332994E-04
   51.24000     -8.5063971E-04
   51.30000     -8.5797283E-04
   51.36000     -8.6530682E-04
   51.42000     -8.7261648E-04
   51.48000     -8.7987422E-04
   51.54000     -8.8705018E-04
   51.60000     -8.9411298E-04
   51.66000     -9.0102974E-04
   51.72000     -9.0776663E-04
   51.78000     -9.1428956E-04
   51.84000     -9.2056458E-04
   51.90000     -9.2655857E-04
   51.96000     -9.3223952E-04
   52.02000     -9.3757693E-04
   52.08000     -9.4254251E-04
   52.14000     -9.4711024E-04
   52.20000     -9.5125660E-04
   52.26000     -9.5496152E-04
   52.32000     -9.5820794E-04
   52.38000     -9.6098264E-04
   52.44000     -9.6327619E-04
   52.50000     -9.6508296E-04
   52.56000     -9.6640125E-04
   52.62000     -9.6723333E-04
   52.68000     -9.6758531E-04
   52.74000     -9.6746715E-04
   52.80000     -9.6689258E-04
   52.86000     -9.6587831E-04
   52.92000     -9.6444454E-04
   52.98000     -9.6261391E-04
   53.04000     -9.6041145E-04
   53.10000     -9.5786381E-04
   53.16000     -9.5499959E-04
   53.22000     -9.5184846E-04
   53.28000     -9.4844087E-04
   53.34000     -9.4480743E-04
   53.40000     -9.4097876E-04
   53.46000     -9.3698455E-04
   53.52000     -9.3285349E-04
   53.58000     -9.2861248E-04
   53.64000     -9.2428655E-04
   53.70000     -9.1989822E-04
   53.76000     -9.1546774E-04
   53.82000     -9.1101235E-04
   53.88000     -9.0654637E-04
   53.94000     -9.0208097E-04
   54.00000     -8.9762395E-04
   54.06000     -8.9317979E-04
   54.12000     -8.8874955E-04
   54.18000     -8.8433124E-04
   54.24000     -8.7991956E-04
   54.30000     -8.7550643E-04
   54.36000     -8.7108120E-04
   54.42000     -8.6663058E-04
   54.48000     -8.6213916E-04
   54.54000     -8.5758982E-04
   54.60000     -8.5296389E-04
   54.66000     -8.4824156E-04
   54.72000     -8.4340258E-04
   54.78000     -8.3842652E-04
   54.84000     -8.3329325E-04
   54.90000     -8.2798337E-04
   54.96000     -8.2247856E-04
   55.02000     -8.1676216E-04
   55.08000     -8.1081904E-04
   55.14000     -8.0463634E-04
   55.20000     -7.9820340E-04
   55.26000     -7.9151231E-04
   55.32000     -7.8455789E-04
   55.38000     -7.7733840E-04
   55.44000     -7.6985505E-04
   55.50000     -7.6211250E-04
   55.56000     -7.5411866E-04