  -2.400000      0.0000000E+00
  -2.340000      0.0000000E+00
  -2.280000      0.0000000E+00
  -2.220000      0.0000000E+00
  -2.160000      0.0000000E+00
  -2.100000      5.0641842E-20
  -2.040000      3.7292039E-19
  -1.980000      1.2953404E-18
  -1.920000      2.4780460E-18
  -1.860000      1.3016981E-18
  -1.800000     -8.1241263E-18
  -1.740000     -3.2011546E-17
  -1.680000     -6.7150780E-17
  -1.620000     -8.6994281E-17
  -1.560000     -3.5812672E-17
  -1.500000      1.5019501E-16
  -1.440000      4.8356904E-16
  -1.380000      8.4526995E-16
  -1.320000      9.4070007E-16
  -1.260000      3.7176832E-16
  -1.200000     -1.1273969E-15
  -1.140000     -3.3454631E-15
  -1.080000     -5.3307438E-15
  -1.020000     -5.4828244E-15
 -0.9600000     -2.1946880E-15
 -0.9000000      5.0382066E-15
 -0.8400000      1.4519283E-14
 -0.7800000      2.2025206E-14
 -0.7200000      2.1927879E-14
 -0.6600000      9.8429548E-15
 -0.6000000     -1.4068844E-14
 -0.5400000     -4.2868087E-14
 -0.4800000     -6.3536497E-14
 -0.4200000     -6.1527016E-14
 -0.3600000     -2.8178626E-14
 -0.3000000      3.2061295E-14
 -0.2400000      9.8738089E-14
 -0.1800000      1.4004755E-13
 -0.1200000      1.2526670E-13
 -5.9999999E-02  4.1053383E-14
  0.0000000E+00 -9.5592107E-14
  5.9999999E-02 -2.3538826E-13
  0.1200000     -3.1018322E-13
  0.1800000     -2.5959828E-13
  0.2400000     -6.1772703E-14
  0.3000000      2.4516413E-13
  0.3600000      5.6308387E-13
  0.4200000      7.6037316E-13
  0.4800000      7.1916512E-13
  0.5400000      3.8721167E-13
  0.6000000     -1.8663983E-13
  0.6600000     -8.5104032E-13
  0.7200000     -1.3910745E-12
  0.7800000     -1.5981806E-12
  0.8400000     -1.3479097E-12
  0.9000000     -6.5640126E-13
  0.9600000      3.0844614E-13
   1.020000      1.2699072E-12
   1.080000      1.9281694E-12
   1.140000      2.0602792E-12
   1.200000      1.5984036E-12
   1.260000      6.5688877E-13
   1.320000     -5.0286836E-13
   1.380000     -1.5568268E-12
   1.440000     -2.2192510E-12
   1.500000     -2.3203906E-12
   1.560000     -1.8307662E-12
   1.620000     -8.2559767E-13
   1.680000      5.8854327E-13
   1.740000      2.3417138E-12
   1.800000      4.4170357E-12
   1.860000      6.7885047E-12
   1.920000      9.2892256E-12
   1.980000      1.1459176E-11
   2.040000      1.2448757E-11
   2.100000      1.1055050E-11
   2.160000      5.9367095E-12
   2.220000     -4.0021367E-12
   2.280000     -1.9132184E-11
   2.340000     -3.8646766E-11
   2.400000     -6.0279198E-11
   2.460000     -8.0310134E-11
   2.520000     -9.3927373E-11
   2.580000     -9.5921049E-11
   2.640000     -8.1616769E-11
   2.700000     -4.7888953E-11
   2.760000      5.9277509E-12
   2.820000      7.7395548E-11
   2.880000      1.6071272E-10
   2.940000      2.4687399E-10
   3.000000      3.2421332E-10
   3.060000      3.7923237E-10
   3.120000      3.9759399E-10
   3.180000      3.6517858E-10
   3.240000      2.6914934E-10
   3.300000      9.9029826E-11
   3.360000     -1.5217036E-10
   3.420000     -4.8676330E-10
   3.480000     -9.0117530E-10
   3.540000     -1.3848863E-09
   3.600000     -1.9197752E-09
   3.660000     -2.4801656E-09
   3.720000     -3.0338045E-09
   3.780000     -3.5438366E-09
   3.840000     -3.9715999E-09
   3.900000     -4.2798511E-09
   3.960000     -4.4359054E-09
   4.020000     -4.4141761E-09
   4.080000     -4.1977892E-09
   4.140000     -3.7791983E-09
   4.200000     -3.1599927E-09
   4.260000     -2.3502595E-09
   4.320000     -1.3678748E-09
   4.380000     -2.3794455E-10
   4.440000      1.0076188E-09
   4.500000      2.3306443E-09
   4.560000      3.6877579E-09
   4.620000      5.0322937E-09
   4.680000      6.3172028E-09
   4.740000      7.4987634E-09
   4.800000      8.5406118E-09
   4.860000      9.4173513E-09
   4.920000      1.0117027E-08
   4.980000      1.0641863E-08
   5.040000      1.1007088E-08
   5.100000      1.1237979E-08
   5.160000      1.1365689E-08
   5.220000      1.1422600E-08
   5.280000      1.1437962E-08
   5.340000      1.1434455E-08
   5.400000      1.1426069E-08
   5.460000      1.1417395E-08
   5.520000      1.1404241E-08
   5.580000      1.1375279E-08
   5.640000      1.1314426E-08
   5.700000      1.1203578E-08
   5.760000      1.1025392E-08
   5.820000      1.0765786E-08
   5.880000      1.0415875E-08
   5.940000      9.9731308E-09
   6.000000      9.4416635E-09
   6.060000      8.8315346E-09
   6.120000      8.1572447E-09
   6.180000      7.4355464E-09
   6.240000      6.6829196E-09
   6.300000      5.9131229E-09
   6.360000      5.1353073E-09
   6.420000      4.3531720E-09
   6.480000      3.5654781E-09
   6.540000      2.7679559E-09
   6.600000      1.9562287E-09
   6.660000      1.1290372E-09
   6.720000      2.9087527E-10
   6.780000     -5.4673532E-10
   6.840000     -1.3656949E-09
   6.900000     -2.1433286E-09
   6.960000     -2.8553016E-09
   7.020000     -3.4786172E-09
   7.080000     -3.9940171E-09
   7.140000     -4.3875010E-09
   7.200000     -4.6511390E-09
   7.260000     -4.7836068E-09
   7.320000     -4.7908846E-09
   7.380000     -4.6872879E-09
   7.440000     -4.4966191E-09
   7.500000     -4.2529318E-09
   7.560000     -4.0002539E-09
   7.620000     -3.7907251E-09
   7.680000     -3.6808516E-09
   7.740000     -3.7260079E-09
   7.800000     -3.9737786E-09
   7.860000     -4.4572013E-09
   7.920000     -5.1892766E-09
   7.980000     -6.1601484E-09
   8.040000     -7.3378899E-09
   8.100000     -8.6730374E-09
   8.160000     -1.0105968E-08
   8.220000     -1.1575389E-08
   8.280000     -1.3025992E-08
   8.340000     -1.4413735E-08
   8.400000     -1.5708251E-08
   8.460000     -1.6892924E-08
   8.520000     -1.7963806E-08
   8.580000     -1.8928439E-08
   8.640000     -1.9804991E-08
   8.700000     -2.0621250E-08
   8.760000     -2.1412596E-08
   8.820000     -2.2218213E-08
   8.880000     -2.3075589E-08
   8.940000     -2.4014318E-08
   9.000000     -2.5050666E-08
   9.060000     -2.6184374E-08
   9.120000     -2.7398512E-08
   9.180000     -2.8662340E-08
   9.240000     -2.9936448E-08
   9.300000     -3.1179145E-08
   9.360000     -3.2353014E-08
   9.420000     -3.3430588E-08
   9.480000     -3.4398202E-08
   9.540000     -3.5257099E-08
   9.600000     -3.6021223E-08
   9.660000     -3.6711846E-08
   9.720000     -3.7350095E-08
   9.780000     -3.7949459E-08
   9.840000     -3.8510510E-08
   9.900000     -3.9019543E-08
   9.960000     -3.9451507E-08
   10.02000     -3.9776090E-08
   10.08000     -3.9964796E-08
   10.14000     -3.9996653E-08
   10.20000     -3.9861092E-08
   10.26000     -3.9557673E-08
   10.32000     -3.9093415E-08
   10.38000     -3.8478948E-08
   10.44000     -3.7724632E-08
   10.50000     -3.6837289E-08
   10.56000     -3.5818100E-08
   10.62000     -3.4661895E-08
   10.68000     -3.3358322E-08
   10.74000     -3.1895134E-08
   10.80000     -3.0263280E-08
   10.86000     -2.8462718E-08
   10.92000     -2.6507214E-08
   10.98000     -2.4426285E-08
   11.04000     -2.2263324E-08
   11.10000     -2.0070189E-08
   11.16000     -1.7899886E-08
   11.22000     -1.5799712E-08
   11.28000     -1.3806969E-08
   11.34000     -1.1948265E-08
   11.40000     -1.0242073E-08
   11.46000     -8.7029877E-09
   11.52000     -7.3456943E-09
   11.58000     -6.1869629E-09
   11.64000     -5.2448086E-09
   11.70000     -4.5350461E-09
   11.76000     -4.0663100E-09
   11.82000     -3.8351389E-09
   11.88000     -3.8227084E-09
   11.94000     -3.9943830E-09
   12.00000     -4.3024460E-09
   12.06000     -4.6914326E-09
   12.12000     -5.1046931E-09
   12.18000     -5.4904072E-09
   12.24000     -5.8054899E-09
   12.30000     -6.0166054E-09
   12.36000     -6.0985639E-09
   12.42000     -6.0312741E-09
   12.48000     -5.7968368E-09
   12.54000     -5.3780798E-09
   12.60000     -4.7590913E-09
   12.66000     -3.9274171E-09
   12.72000     -2.8770031E-09
   12.78000     -1.6108084E-09
   12.84000     -1.4233903E-10
   12.90000      1.5041807E-09
   12.96000      3.2948613E-09
   13.02000      5.1880802E-09
   13.08000      7.1369430E-09
   13.14000      9.0919920E-09
   13.20000      1.1003929E-08
   13.26000      1.2826138E-08
   13.32000      1.4516813E-08
   13.38000      1.6040575E-08
   13.44000      1.7369596E-08
   13.50000      1.8484283E-08
   13.56000      1.9373632E-08
   13.62000      2.0035188E-08
   13.68000      2.0474561E-08
   13.74000      2.0704432E-08
   13.80000      2.0743204E-08
   13.86000      2.0613662E-08
   13.92000      2.0342011E-08
   13.98000      1.9957392E-08
   14.04000      1.9491591E-08
   14.10000      1.8978216E-08
   14.16000      1.8450756E-08
   14.22000      1.7939414E-08
   14.28000      1.7467533E-08
   14.34000      1.7049064E-08
   14.40000      1.6688587E-08
   14.46000      1.6384547E-08
   14.52000      1.6135049E-08
   14.58000      1.5944133E-08
   14.64000      1.5826034E-08
   14.70000      1.5805407E-08
   14.76000      1.5913077E-08
   14.82000      1.6178619E-08
   14.88000      1.6622312E-08
   14.94000      1.7249167E-08
   15.00000      1.8046773E-08
   15.06000      1.8987190E-08
   15.12000      2.0031669E-08
   15.18000      2.1136302E-08
   15.24000      2.2256945E-08
   15.30000      2.3352577E-08
   15.36000      2.4387221E-08
   15.42000      2.5331209E-08
   15.48000      2.6162466E-08
   15.54000      2.6868097E-08
   15.60000      2.7445800E-08
   15.66000      2.7904294E-08
   15.72000      2.8262049E-08
   15.78000      2.8544109E-08
   15.84000      2.8777629E-08
   15.90000      2.8987422E-08
   15.96000      2.9192872E-08
   16.02000      2.9407232E-08
   16.08000      2.9639262E-08
   16.14000      2.9896125E-08
   16.20000      3.0185742E-08
   16.26000      3.0516947E-08
   16.32000      3.0896551E-08
   16.38000      3.1324127E-08
   16.44000      3.1786556E-08
   16.50000      3.2255208E-08
   16.56000      3.2688050E-08
   16.62000      3.3037328E-08
   16.68000      3.3261401E-08
   16.74000      3.3337276E-08
   16.80000      3.3269735E-08
   16.86000      3.3093716E-08
   16.92000      3.2868730E-08
   16.98000      3.2666698E-08
   17.04000      3.2556812E-08
   17.10000      3.2591963E-08
   17.16000      3.2800592E-08
   17.22000      3.3185739E-08
   17.28000      3.3730498E-08
   17.34000      3.4407066E-08
   17.40000      3.5185430E-08
   17.46000      3.6038568E-08
   17.52000      3.6942794E-08
   17.58000      3.7874155E-08
   17.64000      3.8803631E-08
   17.70000      3.9694303E-08
   17.76000      4.0502822E-08
   17.82000      4.1185523E-08
   17.88000      4.1707167E-08
   17.94000      4.2049333E-08
   18.00000      4.2215053E-08
   18.06000      4.2227953E-08
   18.12000      4.2125944E-08
   18.18000      4.1951523E-08
   18.24000      4.1741611E-08
   18.30000      4.1519694E-08
   18.36000      4.1291834E-08
   18.42000      4.1046931E-08
   18.48000      4.0760291E-08
   18.54000      4.0399264E-08
   18.60000      3.9929454E-08
   18.66000      3.9320437E-08
   18.72000      3.8550041E-08
   18.78000      3.7606583E-08
   18.84000      3.6488760E-08
   18.90000      3.5203499E-08
   18.96000      3.3762593E-08
   19.02000      3.2179567E-08
   19.08000      3.0467984E-08
   19.14000      2.8641773E-08
   19.20000      2.6717142E-08
   19.26000      2.4714664E-08
   19.32000      2.2659806E-08
   19.38000      2.0580813E-08
   19.44000      1.8504048E-08
   19.50000      1.6448279E-08
   19.56000      1.4420058E-08
   19.62000      1.2412182E-08
   19.68000      1.0406080E-08
   19.74000      8.3774614E-09
   19.80000      6.3033210E-09
   19.86000      4.1679544E-09
   19.92000      1.9660360E-09
   19.98000     -2.9808528E-10
   20.04000     -2.6144467E-09
   20.10000     -4.9734452E-09
   20.16000     -7.3717952E-09
   20.22000     -9.8166177E-09
   20.28000     -1.2326396E-08
   20.34000     -1.4928341E-08
   20.40000     -1.7652729E-08
   20.46000     -2.0525555E-08
   20.52000     -2.3561439E-08
   20.58000     -2.6758700E-08
   20.64000     -3.0097944E-08
   20.70000     -3.3544463E-08
   20.76000     -3.7053535E-08
   20.82000     -4.0576719E-08
   20.88000     -4.4067118E-08
   20.94000     -4.7482100E-08
   21.00000     -5.0783264E-08
   21.06000     -5.3934674E-08
   21.12000     -5.6901296E-08
   21.18000     -5.9649281E-08
   21.24000     -6.2148914E-08
   21.30000     -6.4379293E-08
   21.36000     -6.6332895E-08
   21.42000     -6.8017641E-08
   21.48000     -6.9455048E-08
   21.54000     -7.0674481E-08
   21.60000     -7.1705522E-08
   21.66000     -7.2571034E-08
   21.72000     -7.3283395E-08
   21.78000     -7.3845086E-08
   21.84000     -7.4252611E-08
   21.90000     -7.4501834E-08
   21.96000     -7.4591888E-08
   22.02000     -7.4526405E-08
   22.08000     -7.4311778E-08
   22.14000     -7.3954240E-08
   22.20000     -7.3457642E-08
   22.26000     -7.2823831E-08
   22.32000     -7.2055656E-08
   22.38000     -7.1161622E-08
   22.44000     -7.0160041E-08
   22.50000     -6.9080698E-08
   22.56000     -6.7963093E-08
   22.62000     -6.6851399E-08
   22.68000     -6.5787496E-08
   22.74000     -6.4803814E-08
   22.80000     -6.3917746E-08
   22.86000     -6.3128745E-08
   22.92000     -6.2418728E-08
   22.98000     -6.1755735E-08
   23.04000     -6.1100110E-08
   23.10000     -6.0412283E-08
   23.16000     -5.9660472E-08
   23.22000     -5.8826817E-08
   23.28000     -5.7910352E-08
   23.34000     -5.6926403E-08
   23.40000     -5.5902532E-08
   23.46000     -5.4872444E-08
   23.52000     -5.3869691E-08
   23.58000     -5.2922921E-08
   23.64000     -5.2053799E-08
   23.70000     -5.1277556E-08
   23.76000     -5.0605244E-08
   23.82000     -5.0046069E-08
   23.88000     -4.9608360E-08
   23.94000     -4.9298247E-08
   24.00000     -4.9116299E-08
   24.06000     -4.9053291E-08
   24.12000     -4.9087060E-08
   24.18000     -4.9182265E-08
   24.24000     -4.9294332E-08
   24.30000     -4.9377288E-08
   24.36000     -4.9393858E-08
   24.42000     -4.9324949E-08
   24.48000     -4.9175387E-08
   24.54000     -4.8973469E-08
   24.60000     -4.8763813E-08
   24.66000     -4.8595012E-08
   24.72000     -4.8505559E-08
   24.78000     -4.8512227E-08
   24.84000     -4.8604456E-08
   24.90000     -4.8746450E-08
   24.96000     -4.8886200E-08
   25.02000     -4.8968356E-08
   25.08000     -4.8946902E-08
   25.14000     -4.8794000E-08
   25.20000     -4.8503054E-08
   25.26000     -4.8086349E-08
   25.32000     -4.7569507E-08
   25.38000     -4.6985608E-08
   25.44000     -4.6371195E-08
   25.50000     -4.5764562E-08
   25.56000     -4.5205073E-08
   25.62000     -4.4731298E-08
   25.68000     -4.4376371E-08
   25.74000     -4.4160711E-08
   25.80000     -4.4084356E-08
   25.86000     -4.4122277E-08
   25.92000     -4.4225718E-08
   25.98000     -4.4330495E-08
   26.04000     -4.4370214E-08
   26.10000     -4.4290008E-08
   26.16000     -4.4055945E-08
   26.22000     -4.3656662E-08
   26.28000     -4.3097234E-08
   26.34000     -4.2388415E-08
   26.40000     -4.1536339E-08
   26.46000     -4.0537465E-08
   26.52000     -3.9380669E-08
   26.58000     -3.8055241E-08
   26.64000     -3.6560511E-08
   26.70000     -3.4912205E-08
   26.76000     -3.3142125E-08
   26.82000     -3.1291066E-08
   26.88000     -2.9397816E-08
   26.94000     -2.7489085E-08
   27.00000     -2.5574693E-08
   27.06000     -2.3650033E-08
   27.12000     -2.1704706E-08
   27.18000     -1.9733625E-08
   27.24000     -1.7745949E-08
   27.30000     -1.5768236E-08
   27.36000     -1.3840657E-08
   27.42000     -1.2007841E-08
   27.48000     -1.0307999E-08
   27.54000     -8.7643750E-09
   27.60000     -7.3820043E-09
   27.66000     -6.1505356E-09
   27.72000     -5.0515139E-09
   27.78000     -4.0668637E-09
   27.84000     -3.1850014E-09
   27.90000     -2.4020819E-09
   27.96000     -1.7179601E-09
   28.02000     -1.1287016E-09
   28.08000     -6.1906519E-10
   28.14000     -1.5868193E-10
   28.20000      2.9551744E-10
   28.26000      7.9032841E-10
   28.32000      1.3630144E-09
   28.38000      2.0279380E-09
   28.44000      2.7677782E-09
   28.50000      3.5328604E-09
   28.56000      4.2496278E-09
   28.62000      4.8362057E-09
   28.68000      5.2205391E-09
   28.74000      5.3555262E-09
   28.80000      5.2264668E-09
   28.86000      4.8487125E-09
   28.92000      4.2567869E-09
   28.98000      3.4892178E-09
   29.04000      2.5748099E-09
   29.10000      1.5253930E-09
   29.16000      3.3751474E-10
   29.22000     -9.9800790E-10
   29.28000     -2.4828939E-09
   29.34000     -4.1002237E-09
   29.40000     -5.8101266E-09
   29.46000     -7.5543740E-09
   29.52000     -9.2683559E-09
   29.58000     -1.0895945E-08
   29.64000     -1.2401736E-08
   29.70000     -1.3776338E-08
   29.76000     -1.5033283E-08
   29.82000     -1.6199477E-08
   29.88000     -1.7303439E-08
   29.94000     -1.8365975E-08
   30.00000     -1.9396388E-08
   30.06000     -2.0394548E-08
   30.12000     -2.1356490E-08
   30.18000     -2.2279842E-08
   30.24000     -2.3165899E-08
   30.30000     -2.4017201E-08
   30.36000     -2.4832115E-08
   30.42000     -2.5599821E-08
   30.48000     -2.6299279E-08
   30.54000     -2.6904038E-08
   30.60000     -2.7391767E-08
   30.66000     -2.7754556E-08
   30.72000     -2.8004877E-08
   30.78000     -2.8173099E-08
   30.84000     -2.8295929E-08
   30.90000     -2.8399278E-08
   30.96000     -2.8482305E-08
   31.02000     -2.8509938E-08
   31.08000     -2.8418459E-08
   31.14000     -2.8133684E-08
   31.20000     -2.7595803E-08
   31.26000     -2.6781525E-08
   31.32000     -2.5714639E-08
   31.38000     -2.4460238E-08
   31.44000     -2.3104402E-08
   31.50000     -2.1727161E-08
   31.56000     -2.0379527E-08
   31.62000     -1.9073848E-08
   31.68000     -1.7791207E-08
   31.74000     -1.6502538E-08
   31.80000     -1.5194205E-08
   31.86000     -1.3886781E-08
   31.92000     -1.2638544E-08
   31.98000     -1.1531511E-08
   32.04000     -1.0645159E-08
   32.10000     -1.0028352E-08
   32.16000     -9.6809876E-09
   32.22000     -9.5532675E-09
   32.28000     -9.5635002E-09
   32.34000     -9.6278860E-09
   32.40000     -9.6908490E-09
   32.46000     -9.7440367E-09
   32.52000     -9.8265396E-09
   32.58000     -1.0006308E-08
   32.64000     -1.0350296E-08
   32.70000     -1.0895436E-08
   32.76000     -1.1632263E-08
   32.82000     -1.2507865E-08
   32.88000     -1.3446929E-08
   32.94000     -1.4382120E-08
   33.00000     -1.5281008E-08
   33.06000     -1.6158033E-08
   33.12000     -1.7065982E-08
   33.18000     -1.8069974E-08
   33.24000     -1.9214326E-08
   33.30000     -2.0496021E-08
   33.36000     -2.1856241E-08
   33.42000     -2.3194353E-08
   33.48000     -2.4399824E-08
   33.54000     -2.5390083E-08
   33.60000     -2.6139658E-08
   33.66000     -2.6689026E-08
   33.72000     -2.7129401E-08
   33.78000     -2.7568912E-08
   33.84000     -2.8092911E-08
   33.90000     -2.8733135E-08
   33.96000     -2.9456894E-08
   34.02000     -3.0179446E-08
   34.08000     -3.0793974E-08
   34.14000     -3.1207193E-08
   34.20000     -3.1367620E-08
   34.26000     -3.1277093E-08
   34.32000     -3.0983589E-08
   34.38000     -3.0560287E-08
   34.44000     -3.0080361E-08
   34.50000     -2.9597031E-08
   34.56000     -2.9134885E-08
   34.62000     -2.8693114E-08
   34.68000     -2.8256709E-08
   34.74000     -2.7809619E-08
   34.80000     -2.7344544E-08
   34.86000     -2.6866664E-08
   34.92000     -2.6391671E-08
   34.98000     -2.5940450E-08
   35.04000     -2.5533161E-08
   35.10000     -2.5184740E-08
   35.16000     -2.4902597E-08
   35.22000     -2.4686390E-08
   35.28000     -2.4529440E-08
   35.34000     -2.4421512E-08
   35.40000     -2.4352659E-08
   35.46000     -2.4317577E-08
   35.52000     -2.4319394E-08
   35.58000     -2.4371273E-08
   35.64000     -2.4494653E-08
   35.70000     -2.4713785E-08
   35.76000     -2.5047830E-08
   35.82000     -2.5503120E-08
   35.88000     -2.6068559E-08
   35.94000     -2.6716375E-08
   36.00000     -2.7408484E-08
   36.06000     -2.8106552E-08
   36.12000     -2.8782228E-08
   36.18000     -2.9423843E-08
   36.24000     -3.0037235E-08
   36.30000     -3.0640646E-08
   36.36000     -3.1255965E-08
   36.42000     -3.1900026E-08
   36.48000     -3.2579290E-08
   36.54000     -3.3289513E-08
   36.60000     -3.4019809E-08
   36.66000     -3.4758465E-08
   36.72000     -3.5497337E-08
   36.78000     -3.6232656E-08
   36.84000     -3.6962042E-08
   36.90000     -3.7679580E-08
   36.96000     -3.8371933E-08
   37.02000     -3.9017991E-08
   37.08000     -3.9592798E-08
   37.14000     -4.0074411E-08
   37.20000     -4.0450537E-08
   37.26000     -4.0721876E-08
   37.32000     -4.0900179E-08
   37.38000     -4.1001549E-08
   37.44000     -4.1037453E-08
   37.50000     -4.1007254E-08
   37.56000     -4.0895237E-08
   37.62000     -4.0673520E-08
   37.68000     -4.0309626E-08
   37.74000     -3.9775795E-08
   37.80000     -3.9056442E-08
   37.86000     -3.8151267E-08
   37.92000     -3.7073427E-08
   37.98000     -3.5844135E-08
   38.04000     -3.4486391E-08
   38.10000     -3.3020314E-08
   38.16000     -3.1461450E-08
   38.22000     -2.9821773E-08
   38.28000     -2.8111893E-08
   38.34000     -2.6342688E-08
   38.40000     -2.4525466E-08
   38.46000     -2.2670861E-08
   38.52000     -2.0787631E-08
   38.58000     -1.8882716E-08
   38.64000     -1.6963073E-08
   38.70000     -1.5038653E-08
   38.76000     -1.3124941E-08
   38.82000     -1.1243432E-08
   38.88000     -9.4193116E-09
   38.94000     -7.6769631E-09
   39.00000     -6.0351448E-09
   39.06000     -4.5038968E-09
   39.12000     -3.0845093E-09
   39.18000     -1.7724332E-09
   39.24000     -5.6164928E-10
   39.30000      5.5157262E-10
   39.36000      1.5671432E-09
   39.42000      2.4822320E-09
   39.48000      3.2940077E-09
   39.54000      4.0023376E-09
   39.60000      4.6109241E-09
   39.66000      5.1263327E-09
   39.72000      5.5555165E-09
   39.78000      5.9032024E-09
   39.84000      6.1704686E-09
   39.90000      6.3550969E-09
   39.96000      6.4532921E-09
   40.02000      6.4616850E-09
   40.08000      6.3784982E-09
   40.14000      6.2033685E-09
   40.20000      5.9361915E-09
   40.26000      5.5759952E-09
   40.32000      5.1208979E-09
   40.38000      4.5696575E-09
   40.44000      3.9243977E-09
   40.50000      3.1933349E-09
   40.56000      2.3920312E-09
   40.62000      1.5421123E-09
   40.68000      6.6734140E-10
   40.74000     -2.1195430E-10
   40.80000     -1.0842661E-09
   40.86000     -1.9500881E-09
   40.92000     -2.8215070E-09
   40.98000     -3.7180241E-09
   41.04000     -4.6598294E-09
   41.10000     -5.6607732E-09
   41.16000     -6.7234707E-09
   41.22000     -7.8381968E-09
   41.28000     -8.9857135E-09
   41.34000     -1.0142580E-08
   41.40000     -1.1286451E-08
   41.46000     -1.2398981E-08
   41.52000     -1.3465096E-08
   41.58000     -1.4469204E-08
   41.64000     -1.5390444E-08
   41.70000     -1.6199616E-08
   41.76000     -1.6859641E-08
   41.82000     -1.7329798E-08
   41.88000     -1.7572088E-08
   41.94000     -1.7557156E-08
   42.00000     -1.7267455E-08
   42.06000     -1.6696726E-08
   42.12000     -1.5846528E-08
   42.18000     -1.4721687E-08
   42.24000     -1.3326416E-08
   42.30000     -1.1661790E-08
   42.36000     -9.7239594E-09
   42.42000     -7.5016109E-09
   42.48000     -4.9716338E-09
   42.54000     -2.0930704E-09
   42.60000      1.1992083E-09
   42.66000      4.9991633E-09
   42.72000      9.4313570E-09
   42.78000      1.4650239E-08
   42.84000      2.0838979E-08
   42.90000      2.8210520E-08
   42.96000      3.7012700E-08
   43.02000      4.7537412E-08
   43.08000      6.0131867E-08
   43.14000      7.5209101E-08
   43.20000      9.3255750E-08
   43.26000      1.1483719E-07
   43.32000      1.4060235E-07
   43.38000      1.7129219E-07
   43.44000      2.0775484E-07
   43.50000      2.5096878E-07
   43.56000      3.0207266E-07
   43.62000      3.6239774E-07
   43.68000      4.3349974E-07
   43.74000      5.1718740E-07
   43.80000      6.1554817E-07
   43.86000      7.3097539E-07
   43.92000      8.6620008E-07
   43.98000      1.0243335E-06
   44.04000      1.2089206E-06
   44.10000      1.4240036E-06
   44.16000      1.6741913E-06
   44.22000      1.9647287E-06
   44.28000      2.3015648E-06
   44.34000      2.6914138E-06
   44.40000      3.1418158E-06
   44.46000      3.6612016E-06
   44.52000      4.2589663E-06
   44.58000      4.9455548E-06
   44.64000      5.7325651E-06
   44.70000      6.6328589E-06
   44.76000      7.6606802E-06
   44.82000      8.8317738E-06
   44.88000      1.0163496E-05
   44.94000      1.1674919E-05
   45.00000      1.3386923E-05
   45.06000      1.5322301E-05
   45.12000      1.7505841E-05
   45.18000      1.9964416E-05
   45.24000      2.2727085E-05
   45.30000      2.5825173E-05
   45.36000      2.9292363E-05
   45.42000      3.3164742E-05
   45.48000      3.7480884E-05
   45.54000      4.2281870E-05
   45.60000      4.7611309E-05
   45.66000      5.3515319E-05
   45.72000      6.0042505E-05
   45.78000      6.7243862E-05
   45.84000      7.5172706E-05
   45.90000      8.3884530E-05
   45.96000      9.3436814E-05
   46.02000      1.0388885E-04
   46.08000      1.1530149E-04
   46.14000      1.2773683E-04
   46.20000      1.4125796E-04
   46.26000      1.5592852E-04
   46.32000      1.7181241E-04
   46.38000      1.8897325E-04
   46.44000      2.0747393E-04
   46.50000      2.2737603E-04
   46.56000      2.4873938E-04
   46.62000      2.7162136E-04
   46.68000      2.9607632E-04
   46.74000      3.2215490E-04
   46.80000      3.4990339E-04
   46.86000      3.7936307E-04
   46.92000      4.1056940E-04
   46.98000      4.4355134E-04
   47.04000      4.7833068E-04
   47.10000      5.1492144E-04
   47.16000      5.5332930E-04
   47.22000      5.9355068E-04
   47.28000      6.3557253E-04
   47.34000      6.7937188E-04
   47.40000      7.2491489E-04
   47.46000      7.7215704E-04
   47.52000      8.2104269E-04
   47.58000      8.7150489E-04
   47.64000      9.2346530E-04
   47.70000      9.7683421E-04
   47.76000      1.0315109E-03
   47.82000      1.0873836E-03
   47.88000      1.1443298E-03
   47.94000      1.2022175E-03
   48.00000      1.2609054E-03
   48.06000      1.3202435E-03
   48.12000      1.3800743E-03
   48.18000      1.4402340E-03
   48.24000      1.5005536E-03
   48.30000      1.5608596E-03
   48.36000      1.6209760E-03
   48.42000      1.6807258E-03
   48.48000      1.7399320E-03
   48.54000      1.7984192E-03
   48.60000      1.8560154E-03
   48.66000      1.9125538E-03
   48.72000      1.9678744E-03
   48.78000      2.0218242E-03
   48.84000      2.0742619E-03
   48.90000      2.1250558E-03
   48.96000      2.1740862E-03
   49.02000      2.2212483E-03
   49.08000      2.2664519E-03
   49.14000      2.3096218E-03
   49.20000      2.3507003E-03
   49.26000      2.3896464E-03
   49.32000      2.4264369E-03
   49.38000      2.4610667E-03
   49.44000      2.4935480E-03
   49.50000      2.5239107E-03
   49.56000      2.5522029E-03
   49.62000      2.5784881E-03
   49.68000      2.6028464E-03
   49.74000      2.6253725E-03
   49.80000      2.6461736E-03
   49.86000      2.6653702E-03
   49.92000      2.6830926E-03
   49.98000      2.6994797E-03
   50.04000      2.7146770E-03
   50.10000      2.7288361E-03
   50.16000      2.7421105E-03
   50.22000      2.7546545E-03
   50.28000      2.7666218E-03
   50.34000      2.7781622E-03
   50.40000      2.7894208E-03
   50.46000      2.8005347E-03
   50.52000      2.8116324E-03
   50.58000      2.8228306E-03
   50.64000      2.8342353E-03
   50.70000      2.8459381E-03
   50.76000      2.8580159E-03
   50.82000      2.8705294E-03
   50.88000      2.8835232E-03
   50.94000      2.8970242E-03
   51.00000      2.9110429E-03
   51.06000      2.9255715E-03
   51.12000      2.9405865E-03
   51.18000      2.9560470E-03
   51.24000      2.9718976E-03
   51.30000      2.9880677E-03
   51.36000      3.0044736E-03
   51.42000      3.0210202E-03
   51.48000      3.0376015E-03
   51.54000      3.0541031E-03
   51.60000      3.0704038E-03
   51.66000      3.0863786E-03
   51.72000      3.1018986E-03
   51.78000      3.1168361E-03
   51.84000      3.1310644E-03
   51.90000      3.1444612E-03
   51.96000      3.1569097E-03
   52.02000      3.1683012E-03
   52.08000      3.1785353E-03
   52.14000      3.1875225E-03
   52.20000      3.1951871E-03
   52.26000      3.2014656E-03
   52.32000      3.2063103E-03
   52.38000      3.2096889E-03
   52.44000      3.2115858E-03
   52.50000      3.2120009E-03
   52.56000      3.2109516E-03
   52.62000      3.2084701E-03
   52.68000      3.2046048E-03
   52.74000      3.1994185E-03
   52.80000      3.1929882E-03
   52.86000      3.1854035E-03
   52.92000      3.1767655E-03
   52.98000      3.1671848E-03
   53.04000      3.1567803E-03
   53.10000      3.1456766E-03
   53.16000      3.1340022E-03
   53.22000      3.1218883E-03
   53.28000      3.1094656E-03
   53.34000      3.0968632E-03
   53.40000      3.0842060E-03
   53.46000      3.0716134E-03
   53.52000      3.0591963E-03
   53.58000      3.0470560E-03
   53.64000      3.0352832E-03
   53.70000      3.0239557E-03
   53.76000      3.0131375E-03
   53.82000      3.0028778E-03
   53.88000      2.9932100E-03
   53.94000      2.9841517E-03
   54.00000      2.9757041E-03
   54.06000      2.9678517E-03
   54.12000      2.9605634E-03
   54.18000      2.9537918E-03
   54.24000      2.9474751E-03
   54.30000      2.9415367E-03
   54.36000      2.9358873E-03
   54.42000      2.9304263E-03
   54.48000      2.9250430E-03
   54.54000      2.9196180E-03
   54.60000      2.9140257E-03
   54.66000      2.9081344E-03
   54.72000      2.9018100E-03
   54.78000      2.8949184E-03
   54.84000      2.8873256E-03
   54.90000      2.8789011E-03
   54.96000      2.8695192E-03
   55.02000      2.8590609E-03
   55.08000      2.8474156E-03
   55.14000      2.8344828E-03
   55.20000      2.8201728E-03
   55.26000      2.8044081E-03
   55.32000      2.7871253E-03
   55.38000      2.7682758E-03
   55.44000      2.7478253E-03
   55.50000      2.7257556E-03
   55.56000      2.7020625E-03