  -2.400000      0.0000000E+00
  -2.340000      0.0000000E+00
  -2.280000      0.0000000E+00
  -2.220000      0.0000000E+00
  -2.160000      0.0000000E+00
  -2.100000      0.0000000E+00
  -2.040000      0.0000000E+00
  -1.980000      0.0000000E+00
  -1.920000     -6.3393201E-26
  -1.860000     -6.3598173E-25
  -1.800000     -2.6949331E-24
  -1.740000     -4.1054862E-24
  -1.680000      1.5804327E-23
  -1.620000      1.2306104E-22
  -1.560000      4.2075738E-22
  -1.500000      8.8078852E-22
  -1.440000      8.9321138E-22
  -1.380000     -1.2777194E-21
  -1.320000     -8.2161968E-21
  -1.260000     -2.0709126E-20
  -1.200000     -3.2025086E-20
  -1.140000     -2.2124259E-20
  -1.080000      3.9500185E-20
  -1.020000      1.7139752E-19
 -0.9600000      3.3693434E-19
 -0.9000000      4.0454472E-19
 -0.8400000      1.6456566E-19
 -0.7800000     -5.4430919E-19
 -0.7200000     -1.6092057E-18
 -0.6600000     -2.4511291E-18
 -0.6000000     -2.1058966E-18
 -0.5400000      2.2994323E-19
 -0.4800000      4.2930785E-18
 -0.4200000      8.0569658E-18
 -0.3600000      8.1145111E-18
 -0.3000000      1.6970611E-18
 -0.2400000     -1.0235822E-17
 -0.1800000     -2.0887589E-17
 -0.1200000     -1.9256096E-17
 -5.9999999E-02  3.0590142E-18
  0.0000000E+00  4.2054276E-17
  5.9999999E-02  7.4978450E-17
  0.1200000      6.5509072E-17
  0.1800000     -1.5676570E-17
  0.2400000     -1.6120619E-16
  0.3000000     -3.0587996E-16
  0.3600000     -3.3610069E-16
  0.4200000     -1.4174015E-16
  0.4800000      3.0230159E-16
  0.5400000      8.6591321E-16
  0.6000000      1.2595248E-15
  0.6600000      1.1327414E-15
  0.7200000      2.6245800E-16
  0.7800000     -1.2463027E-15
  0.8400000     -2.8644009E-15
  0.9000000     -3.7495387E-15
  0.9600000     -3.0841679E-15
   1.020000     -5.3766205E-16
   1.080000      3.3564225E-15
   1.140000      7.1439724E-15
   1.200000      8.8603712E-15
   1.260000      6.8576715E-15
   1.320000      7.6821134E-16
   1.380000     -7.8406596E-15
   1.440000     -1.5563388E-14
   1.500000     -1.8223641E-14
   1.560000     -1.2718831E-14
   1.620000      1.0191393E-15
   1.680000      1.8914927E-14
   1.740000      3.3382449E-14
   1.800000      3.6006547E-14
   1.860000      2.1599430E-14
   1.920000     -8.0431191E-15
   1.980000     -4.2820077E-14
   2.040000     -6.7003322E-14
   2.100000     -6.5803469E-14
   2.160000     -3.3477900E-14
   2.220000      2.1046043E-14
   2.280000      7.4990998E-14
   2.340000      1.0054922E-13
   2.400000      7.9141385E-14
   2.460000      1.4582836E-14
   2.520000     -6.2807906E-14
   2.580000     -1.0636871E-13
   2.640000     -7.6100903E-14
   2.700000      3.4730628E-14
   2.760000      1.8355470E-13
   2.820000      2.8549905E-13
   2.880000      2.4684191E-13
   2.940000      1.4825384E-14
   3.000000     -3.7791864E-13
   3.060000     -7.9922641E-13
   3.120000     -1.0494086E-12
   3.180000     -9.3600475E-13
   3.240000     -3.6601559E-13
   3.300000      5.8370252E-13
   3.360000      1.6550348E-12
   3.420000      2.4731920E-12
   3.480000      2.6728168E-12
   3.540000      2.0415488E-12
   3.600000      6.2332702E-13
   3.660000     -1.2656951E-12
   3.720000     -3.1229845E-12
   3.780000     -4.4194357E-12
   3.840000     -4.7723505E-12
   3.900000     -4.0628707E-12
   3.960000     -2.4518987E-12
   4.020000     -2.9332323E-13
   4.080000      2.0098621E-12
   4.140000      4.1349164E-12
   4.200000      5.8916877E-12
   4.260000      7.1775832E-12
   4.320000      7.8707015E-12
   4.380000      7.7375580E-12
   4.440000      6.4336652E-12
   4.500000      3.6316664E-12
   4.560000     -7.6008947E-13
   4.620000     -6.3906441E-12
   4.680000     -1.2394638E-11
   4.740000     -1.7537137E-11
   4.800000     -2.0561849E-11
   4.860000     -2.0621836E-11
   4.920000     -1.7604083E-11
   4.980000     -1.2173109E-11
   5.040000     -5.4616940E-12
   5.100000      1.5056693E-12
   5.160000      8.4241355E-12
   5.220000      1.6055636E-11
   5.280000      2.6068224E-11
   5.340000      4.0294542E-11
   5.400000      5.9564319E-11
   5.460000      8.2464716E-11
   5.520000      1.0447082E-10
   5.580000      1.1782451E-10
   5.640000      1.1233961E-10
   5.700000      7.7041935E-11
   5.760000      2.3111435E-12
   5.820000     -1.1794313E-10
   5.880000     -2.8452238E-10
   5.940000     -4.9190357E-10
   6.000000     -7.2802248E-10
   6.060000     -9.7478292E-10
   6.120000     -1.2090969E-09
   6.180000     -1.4042719E-09
   6.240000     -1.5316517E-09
   6.300000     -1.5625253E-09
   6.360000     -1.4703678E-09
   6.420000     -1.2334215E-09
   6.480000     -8.3748924E-10
   6.540000     -2.7862401E-10
   6.600000      4.3473425E-10
   6.660000      1.2806429E-09
   6.720000      2.2239142E-09
   6.780000      3.2178609E-09
   6.840000      4.2073873E-09
   6.900000      5.1330744E-09
   6.960000      5.9358074E-09
   7.020000      6.5615295E-09
   7.080000      6.9657946E-09
   7.140000      7.1178525E-09
   7.200000      7.0040067E-09
   7.260000      6.6298664E-09
   7.320000      6.0209993E-09
   7.380000      5.2214628E-09
   7.440000      4.2898423E-09
   7.500000      3.2928469E-09
   7.560000      2.2970965E-09
   7.620000      1.3603251E-09
   7.680000      5.2361748E-10
   7.740000     -1.9368880E-10
   7.800000     -7.9524881E-10
   7.860000     -1.3047070E-09
   7.920000     -1.7590051E-09
   7.980000     -2.1993800E-09
   8.040000     -2.6618960E-09
   8.100000     -3.1693512E-09
   8.160000     -3.7259511E-09
   8.220000     -4.3154524E-09
   8.280000     -4.9027449E-09
   8.340000     -5.4382858E-09
   8.400000     -5.8645031E-09
   8.460000     -6.1232401E-09
   8.520000     -6.1633854E-09
   8.580000     -5.9479266E-09
   8.640000     -5.4596527E-09
   8.700000     -4.7047024E-09
   8.760000     -3.7131627E-09
   8.820000     -2.5361591E-09
   8.880000     -1.2393899E-09
   8.940000      1.0617706E-10
   9.000000      1.4349251E-09
   9.060000      2.6964329E-09
   9.120000      3.8623926E-09
   9.180000      4.9290207E-09
   9.240000      5.9144813E-09
   9.300000      6.8521624E-09
   9.360000      7.7817486E-09
   9.420000      8.7405212E-09
   9.480000      9.7570476E-09
   9.540000      1.0848409E-08
   9.600000      1.2020851E-08
   9.660000      1.3272535E-08
   9.720000      1.4596585E-08
   9.780000      1.5982767E-08
   9.840000      1.7417078E-08
   9.900000      1.8879735E-08
   9.960000      2.0342972E-08
   10.02000      2.1770518E-08
   10.08000      2.3120126E-08
   10.14000      2.4349490E-08
   10.20000      2.5424425E-08
   10.26000      2.6327188E-08
   10.32000      2.7062178E-08
   10.38000      2.7656895E-08
   10.44000      2.8157135E-08
   10.50000      2.8617151E-08
   10.56000      2.9087103E-08
   10.62000      2.9601042E-08
   10.68000      3.0168799E-08
   10.74000      3.0774121E-08
   10.80000      3.1379695E-08
   10.86000      3.1937763E-08
   10.92000      3.2403342E-08
   10.98000      3.2746289E-08
   11.04000      3.2958663E-08
   11.10000      3.3055308E-08
   11.16000      3.3067643E-08
   11.22000      3.3032659E-08
   11.28000      3.2980747E-08
   11.34000      3.2926401E-08
   11.40000      3.2864818E-08
   11.46000      3.2775759E-08
   11.52000      3.2633498E-08
   11.58000      3.2419710E-08
   11.64000      3.2134981E-08
   11.70000      3.1804927E-08
   11.76000      3.1478297E-08
   11.82000      3.1216945E-08
   11.88000      3.1080056E-08
   11.94000      3.1107149E-08
   12.00000      3.1304943E-08
   12.06000      3.1642479E-08
   12.12000      3.2056615E-08
   12.18000      3.2467000E-08
   12.24000      3.2796677E-08
   12.30000      3.2992705E-08
   12.36000      3.3040806E-08
   12.42000      3.2969737E-08
   12.48000      3.2843911E-08
   12.54000      3.2746069E-08
   12.60000      3.2754741E-08
   12.66000      3.2922550E-08
   12.72000      3.3261141E-08
   12.78000      3.3736757E-08
   12.84000      3.4277335E-08
   12.90000      3.4789235E-08
   12.96000      3.5178974E-08
   13.02000      3.5374249E-08
   13.08000      3.5338793E-08
   13.14000      3.5077282E-08
   13.20000      3.4629242E-08
   13.26000      3.4053816E-08
   13.32000      3.3409712E-08
   13.38000      3.2735951E-08
   13.44000      3.2038635E-08
   13.50000      3.1287350E-08
   13.56000      3.0422026E-08
   13.62000      2.9368165E-08
   13.68000      2.8056137E-08
   13.74000      2.6439281E-08
   13.80000      2.4505935E-08
   13.86000      2.2282510E-08
   13.92000      1.9827173E-08
   13.98000      1.7216362E-08
   14.04000      1.4528243E-08
   14.10000      1.1827762E-08
   14.16000      9.1572856E-09
   14.22000      6.5348065E-09
   14.28000      3.9593386E-09
   14.34000      1.4209631E-09
   14.40000     -1.0881467E-09
   14.46000     -3.5652061E-09
   14.52000     -5.9929626E-09
   14.58000     -8.3407299E-09
   14.64000     -1.0568878E-08
   14.70000     -1.2634507E-08
   14.76000     -1.4496292E-08
   14.82000     -1.6117568E-08
   14.88000     -1.7467929E-08
   14.94000     -1.8524503E-08
   15.00000     -1.9274037E-08
   15.06000     -1.9716211E-08
   15.12000     -1.9867532E-08
   15.18000     -1.9764247E-08
   15.24000     -1.9462476E-08
   15.30000     -1.9034291E-08
   15.36000     -1.8559618E-08
   15.42000     -1.8115134E-08
   15.48000     -1.7762501E-08
   15.54000     -1.7538659E-08
   15.60000     -1.7450684E-08
   15.66000     -1.7476603E-08
   15.72000     -1.7572143E-08
   15.78000     -1.7681838E-08
   15.84000     -1.7751885E-08
   15.90000     -1.7741685E-08
   15.96000     -1.7631573E-08
   16.02000     -1.7425359E-08
   16.08000     -1.7147919E-08
   16.14000     -1.6839360E-08
   16.20000     -1.6548112E-08
   16.26000     -1.6325167E-08
   16.32000     -1.6220797E-08
   16.38000     -1.6283714E-08
   16.44000     -1.6561406E-08
   16.50000     -1.7099710E-08
   16.56000     -1.7939911E-08
   16.62000     -1.9112745E-08
   16.68000     -2.0630143E-08
   16.74000     -2.2476925E-08
   16.80000     -2.4605200E-08
   16.86000     -2.6933840E-08
   16.92000     -2.9354078E-08
   16.98000     -3.1740516E-08
   17.04000     -3.3965247E-08
   17.10000     -3.5912141E-08
   17.16000     -3.7488313E-08
   17.22000     -3.8631200E-08
   17.28000     -3.9310734E-08
   17.34000     -3.9527841E-08
   17.40000     -3.9310741E-08
   17.46000     -3.8710859E-08
   17.52000     -3.7798998E-08
   17.58000     -3.6661817E-08
   17.64000     -3.5397612E-08
   17.70000     -3.4110371E-08
   17.76000     -3.2901529E-08
   17.82000     -3.1859884E-08
   17.88000     -3.1051279E-08
   17.94000     -3.0510456E-08
   18.00000     -3.0237498E-08
   18.06000     -3.0200599E-08
   18.12000     -3.0345266E-08
   18.18000     -3.0608472E-08
   18.24000     -3.0934583E-08
   18.30000     -3.1289169E-08
   18.36000     -3.1667010E-08
   18.42000     -3.2091791E-08
   18.48000     -3.2607041E-08
   18.54000     -3.3260292E-08
   18.60000     -3.4084362E-08
   18.66000     -3.5080873E-08
   18.72000     -3.6210871E-08
   18.78000     -3.7395562E-08
   18.84000     -3.8527720E-08
   18.90000     -3.9491091E-08
   18.96000     -4.0182815E-08
   19.02000     -4.0532957E-08
   19.08000     -4.0516049E-08
   19.14000     -4.0151900E-08
   19.20000     -3.9496058E-08
   19.26000     -3.8623227E-08
   19.32000     -3.7608729E-08
   19.38000     -3.6513214E-08
   19.44000     -3.5374345E-08
   19.50000     -3.4206717E-08
   19.56000     -3.3008661E-08
   19.62000     -3.1772529E-08
   19.68000     -3.0494490E-08
   19.74000     -2.9180411E-08
   19.80000     -2.7846166E-08
   19.86000     -2.6512854E-08
   19.92000     -2.5199041E-08
   19.98000     -2.3913044E-08
   20.04000     -2.2648019E-08
   20.10000     -2.1381485E-08
   20.16000     -2.0079439E-08
   20.22000     -1.8703712E-08
   20.28000     -1.7220493E-08
   20.34000     -1.5607739E-08
   20.40000     -1.3859716E-08
   20.46000     -1.1987860E-08
   20.52000     -1.0018112E-08
   20.58000     -7.9857330E-09
   20.64000     -5.9290368E-09
   20.70000     -3.8835077E-09
   20.76000     -1.8774537E-09
   20.82000      7.0230738E-11
   20.88000      1.9501685E-09
   20.94000      3.7608672E-09
   21.00000      5.5059290E-09
   21.06000      7.1906485E-09
   21.12000      8.8184589E-09
   21.18000      1.0387643E-08
   21.24000      1.1888769E-08
   21.30000      1.3303478E-08
   21.36000      1.4605238E-08
   21.42000      1.5762531E-08
   21.48000      1.6744449E-08
   21.54000      1.7528013E-08
   21.60000      1.8105748E-08
   21.66000      1.8491686E-08
   21.72000      1.8723769E-08
   21.78000      1.8861265E-08
   21.84000      1.8976824E-08
   21.90000      1.9144263E-08
   21.96000      1.9424535E-08
   22.02000      1.9853267E-08
   22.08000      2.0433317E-08
   22.14000      2.1134699E-08
   22.20000      2.1902361E-08
   22.26000      2.2669921E-08
   22.32000      2.3375691E-08
   22.38000      2.3976373E-08
   22.44000      2.4454479E-08
   22.50000      2.4817332E-08
   22.56000      2.5088116E-08
   22.62000      2.5291795E-08
   22.68000      2.5440359E-08
   22.74000      2.5522112E-08
   22.80000      2.5498533E-08
   22.86000      2.5310062E-08
   22.92000      2.4889491E-08
   22.98000      2.4179316E-08
   23.04000      2.3147990E-08
   23.10000      2.1800208E-08
   23.16000      2.0177904E-08
   23.22000      1.8351413E-08
   23.28000      1.6403140E-08
   23.34000      1.4408464E-08
   23.40000      1.2419339E-08
   23.46000      1.0455312E-08
   23.52000      8.5043199E-09
   23.58000      6.5327033E-09
   23.64000      4.5011168E-09
   23.70000      2.3813673E-09
   23.76000      1.6905295E-10
   23.82000     -2.1117610E-09
   23.88000     -4.4130819E-09
   23.94000     -6.6751684E-09
   24.00000     -8.8424219E-09
   24.06000     -1.0877966E-08
   24.12000     -1.2772440E-08
   24.18000     -1.4544475E-08
   24.24000     -1.6233079E-08
   24.30000     -1.7884615E-08
   24.36000     -1.9538515E-08
   24.42000     -2.1215854E-08
   24.48000     -2.2913524E-08
   24.54000     -2.4604901E-08
   24.60000     -2.6246083E-08
   24.66000     -2.7785596E-08
   24.72000     -2.9175137E-08
   24.78000     -3.0379045E-08
   24.84000     -3.1380690E-08
   24.90000     -3.2184687E-08
   24.96000     -3.2814452E-08
   25.02000     -3.3305817E-08
   25.08000     -3.3698285E-08
   25.14000     -3.4026240E-08
   25.20000     -3.4312620E-08
   25.26000     -3.4566828E-08
   25.32000     -3.4787366E-08
   25.38000     -3.4968160E-08
   25.44000     -3.5106357E-08
   25.50000     -3.5208956E-08
   25.56000     -3.5296065E-08
   25.62000     -3.5399637E-08
   25.68000     -3.5558042E-08
   25.74000     -3.5808004E-08
   25.80000     -3.6176509E-08
   25.86000     -3.6675289E-08
   25.92000     -3.7299881E-08
   25.98000     -3.8033932E-08
   26.04000     -3.8857426E-08
   26.10000     -3.9756202E-08
   26.16000     -4.0729201E-08
   26.22000     -4.1790656E-08
   26.28000     -4.2965947E-08
   26.34000     -4.4282242E-08
   26.40000     -4.5756934E-08
   26.46000     -4.7387751E-08
   26.52000     -4.9147928E-08
   26.58000     -5.0988191E-08
   26.64000     -5.2845053E-08
   26.70000     -5.4653235E-08
   26.76000     -5.6358651E-08
   26.82000     -5.7928631E-08
   26.88000     -5.9356598E-08
   26.94000     -6.0660120E-08
   27.00000     -6.1873010E-08
   27.06000     -6.3033688E-08
   27.12000     -6.4173491E-08
   27.18000     -6.5308335E-08
   27.24000     -6.6436463E-08
   27.30000     -6.7542807E-08
   27.36000     -6.8608109E-08
   27.42000     -6.9619233E-08
   27.48000     -7.0576299E-08
   27.54000     -7.1493588E-08
   27.60000     -7.2393362E-08
   27.66000     -7.3294544E-08
   27.72000     -7.4200472E-08
   27.78000     -7.5090313E-08
   27.84000     -7.5917896E-08
   27.90000     -7.6619173E-08
   27.96000     -7.7126451E-08
   28.02000     -7.7385408E-08
   28.08000     -7.7369506E-08
   28.14000     -7.7087272E-08
   28.20000     -7.6579745E-08
   28.26000     -7.5908609E-08
   28.32000     -7.5138239E-08
   28.38000     -7.4317072E-08
   28.44000     -7.3463774E-08
   28.50000     -7.2562578E-08
   28.56000     -7.1569190E-08
   28.62000     -7.0425607E-08
   28.68000     -6.9079526E-08
   28.74000     -6.7502498E-08
   28.80000     -6.5701521E-08
   28.86000     -6.3720577E-08
   28.92000     -6.1631795E-08
   28.98000     -5.9518960E-08
   29.04000     -5.7458507E-08
   29.10000     -5.5503754E-08
   29.16000     -5.3677145E-08
   29.22000     -5.1972421E-08
   29.28000     -5.0365404E-08
   29.34000     -4.8828980E-08
   29.40000     -4.7346703E-08
   29.46000     -4.5920075E-08
   29.52000     -4.4567145E-08
   29.58000     -4.3313531E-08
   29.64000     -4.2179714E-08
   29.70000     -4.1169962E-08
   29.76000     -4.0267363E-08
   29.82000     -3.9437094E-08
   29.88000     -3.8636891E-08
   29.94000     -3.7830894E-08
   30.00000     -3.7001787E-08
   30.06000     -3.6156575E-08
   30.12000     -3.5323616E-08
   30.18000     -3.4541664E-08
   30.24000     -3.3844696E-08
   30.30000     -3.3248227E-08
   30.36000     -3.2742641E-08
   30.42000     -3.2296835E-08
   30.48000     -3.1871689E-08
   30.54000     -3.1438979E-08
   30.60000     -3.0998660E-08
   30.66000     -3.0587429E-08
   30.72000     -3.0274116E-08
   30.78000     -3.0142033E-08
   30.84000     -3.0263525E-08
   30.90000     -3.0675057E-08
   30.96000     -3.1361804E-08
   31.02000     -3.2257852E-08
   31.08000     -3.3263138E-08
   31.14000     -3.4272439E-08
   31.20000     -3.5207488E-08
   31.26000     -3.6041609E-08
   31.32000     -3.6808249E-08
   31.38000     -3.7589739E-08
   31.44000     -3.8488992E-08
   31.50000     -3.9592724E-08
   31.56000     -4.0938176E-08
   31.62000     -4.2494598E-08
   31.68000     -4.4166480E-08
   31.74000     -4.5818258E-08
   31.80000     -4.7313051E-08
   31.86000     -4.8552987E-08
   31.92000     -4.9507616E-08
   31.98000     -5.0220748E-08
   32.04000     -5.0792952E-08
   32.10000     -5.1345076E-08
   32.16000     -5.1974524E-08
   32.22000     -5.2718711E-08
   32.28000     -5.3537910E-08
   32.34000     -5.4323628E-08
   32.40000     -5.4930158E-08
   32.46000     -5.5219370E-08
   32.52000     -5.5104064E-08
   32.58000     -5.4575359E-08
   32.64000     -5.3704785E-08
   32.70000     -5.2619782E-08
   32.76000     -5.1460486E-08
   32.82000     -5.0331948E-08
   32.88000     -4.9267602E-08
   32.94000     -4.8216361E-08
   33.00000     -4.7057874E-08
   33.06000     -4.5641428E-08
   33.12000     -4.3836209E-08
   33.18000     -4.1577159E-08
   33.24000     -3.8891844E-08
   33.30000     -3.5899820E-08
   33.36000     -3.2784538E-08
   33.42000     -2.9746225E-08
   33.48000     -2.6950307E-08
   33.54000     -2.4487198E-08
   33.60000     -2.2355708E-08
   33.66000     -2.0474772E-08
   33.72000     -1.8718987E-08
   33.78000     -1.6965881E-08
   33.84000     -1.5139156E-08
   33.90000     -1.3234151E-08
   33.96000     -1.1318172E-08
   34.02000     -9.5071115E-09
   34.08000     -7.9276452E-09
   34.14000     -6.6784045E-09
   34.20000     -5.8028826E-09
   34.26000     -5.2818749E-09
   34.32000     -5.0462057E-09
   34.38000     -5.0038529E-09
   34.44000     -5.0714783E-09
   34.50000     -5.1998525E-09
   34.56000     -5.3854836E-09
   34.62000     -5.6657452E-09
   34.68000     -6.1002594E-09
   34.74000     -6.7455779E-09
   34.80000     -7.6320426E-09
   34.86000     -8.7505860E-09
   34.92000     -1.0053543E-08
   34.98000     -1.1468502E-08
   35.04000     -1.2919584E-08
   35.10000     -1.4347963E-08
   35.16000     -1.5723936E-08
   35.22000     -1.7046290E-08
   35.28000     -1.8329700E-08
   35.34000     -1.9585681E-08
   35.40000     -2.0804986E-08
   35.46000     -2.1948894E-08
   35.52000     -2.2953097E-08
   35.58000     -2.3743075E-08
   35.64000     -2.4255250E-08
   35.70000     -2.4456007E-08
   35.76000     -2.4351433E-08
   35.82000     -2.3984086E-08
   35.88000     -2.3417860E-08
   35.94000     -2.2716318E-08
   36.00000     -2.1922018E-08
   36.06000     -2.1043913E-08
   36.12000     -2.0056891E-08
   36.18000     -1.8913250E-08
   36.24000     -1.7561867E-08
   36.30000     -1.5968471E-08
   36.36000     -1.4130230E-08
   36.42000     -1.2080153E-08
   36.48000     -9.8802433E-09
   36.54000     -7.6061868E-09
   36.60000     -5.3289884E-09
   36.66000     -3.0997969E-09
   36.72000     -9.4282293E-10
   36.78000      1.1417373E-09
   36.84000      3.1664864E-09
   36.90000      5.1420113E-09
   36.96000      7.0644068E-09
   37.02000      8.9100523E-09
   37.08000      1.0639619E-08
   37.14000      1.2209510E-08
   37.20000      1.3585870E-08
   37.26000      1.4755229E-08
   37.32000      1.5727247E-08
   37.38000      1.6528416E-08
   37.44000      1.7189430E-08
   37.50000      1.7731686E-08
   37.56000      1.8158607E-08
   37.62000      1.8455353E-08
   37.68000      1.8596738E-08
   37.74000      1.8559659E-08
   37.80000      1.8334463E-08
   37.86000      1.7930455E-08
   37.92000      1.7373390E-08
   37.98000      1.6696317E-08
   38.04000      1.5928022E-08
   38.10000      1.5084128E-08
   38.16000      1.4164801E-08
   38.22000      1.3160276E-08
   38.28000      1.2062229E-08
   38.34000      1.0876724E-08
   38.40000      9.6334505E-09
   38.46000      8.3869933E-09
   38.52000      7.2082824E-09
   38.58000      6.1677730E-09
   38.64000      5.3150693E-09
   38.70000      4.6616928E-09
   38.76000      4.1735180E-09
   38.82000      3.7768237E-09
   38.88000      3.3775125E-09
   38.94000      2.8882499E-09
   39.00000      2.2549116E-09
   39.06000      1.4732788E-09
   39.12000      5.8985683E-10
   39.18000     -3.1388608E-10
   39.24000     -1.1486281E-09
   39.30000     -1.8462710E-09
   39.36000     -2.3808615E-09
   39.42000     -2.7742124E-09
   39.48000     -3.0846603E-09
   39.54000     -3.3834389E-09
   39.60000     -3.7274974E-09
   39.66000     -4.1386903E-09
   39.72000     -4.5968229E-09
   39.78000     -5.0490523E-09
   39.84000     -5.4322782E-09
   39.90000     -5.7005756E-09
   39.96000     -5.8477720E-09
   40.02000     -5.9167671E-09
   40.08000     -5.9915060E-09
   40.14000     -6.1733751E-09
   40.20000     -6.5492132E-09
   40.26000     -7.1613258E-09
   40.32000     -7.9898008E-09
   40.38000     -8.9538092E-09
   40.44000     -9.9326654E-09
   40.50000     -1.0800917E-08
   40.56000     -1.1466765E-08
   40.62000     -1.1901585E-08
   40.68000     -1.2150582E-08
   40.74000     -1.2320524E-08
   40.80000     -1.2547898E-08
   40.86000     -1.2957445E-08
   40.92000     -1.3624528E-08
   40.98000     -1.4553692E-08
   41.04000     -1.5680460E-08
   41.10000     -1.6895513E-08
   41.16000     -1.8082783E-08
   41.22000     -1.9158371E-08
   41.28000     -2.0097193E-08
   41.34000     -2.0938849E-08
   41.40000     -2.1771543E-08
   41.46000     -2.2700418E-08
   41.52000     -2.3811529E-08
   41.58000     -2.5143562E-08
   41.64000     -2.6676156E-08
   41.70000     -2.8337725E-08
   41.76000     -3.0029192E-08
   41.82000     -3.1655127E-08
   41.88000     -3.3151927E-08
   41.94000     -3.4504097E-08
   42.00000     -3.5743870E-08
   42.06000     -3.6934949E-08
   42.12000     -3.8146219E-08
   42.18000     -3.9424428E-08
   42.24000     -4.0775110E-08
   42.30000     -4.2158256E-08
   42.36000     -4.3500254E-08
   42.42000     -4.4718142E-08
   42.48000     -4.5747882E-08
   42.54000     -4.6566925E-08
   42.60000     -4.7203155E-08
   42.66000     -4.7726978E-08
   42.72000     -4.8229044E-08
   42.78000     -4.8791140E-08
   42.84000     -4.9460152E-08
   42.90000     -5.0233826E-08
   42.96000     -5.1063179E-08
   43.02000     -5.1870593E-08
   43.08000     -5.2577594E-08
   43.14000     -5.3133132E-08
   43.20000     -5.3533281E-08
   43.26000     -5.3826273E-08
   43.32000     -5.4101555E-08
   43.38000     -5.4466593E-08
   43.44000     -5.5018734E-08
   43.50000     -5.5820532E-08
   43.56000     -5.6885426E-08
   43.62000     -5.8177335E-08
   43.68000     -5.9623289E-08
   43.74000     -6.1134521E-08
   43.80000     -6.2629304E-08
   43.86000     -6.4050802E-08
   43.92000     -6.5375005E-08
   43.98000     -6.6607392E-08
   44.04000     -6.7770308E-08
   44.10000     -6.8885988E-08
   44.16000     -6.9960876E-08
   44.22000     -7.0976505E-08
   44.28000     -7.1889332E-08
   44.34000     -7.2639061E-08
   44.40000     -7.3162354E-08
   44.46000     -7.3407172E-08
   44.52000     -7.3343543E-08
   44.58000     -7.2967723E-08
   44.64000     -7.2299265E-08
   44.70000     -7.1372440E-08
   44.76000     -7.0224985E-08
   44.82000     -6.8887601E-08
   44.88000     -6.7376980E-08
   44.94000     -6.5694238E-08
   45.00000     -6.3829006E-08
   45.06000     -6.1768219E-08
   45.12000     -5.9507215E-08
   45.18000     -5.7060376E-08
   45.24000     -5.4468398E-08
   45.30000     -5.1799940E-08
   45.36000     -4.9146916E-08
   45.42000     -4.6614485E-08
   45.48000     -4.4308347E-08
   45.54000     -4.2323265E-08
   45.60000     -4.0736385E-08
   45.66000     -3.9607841E-08
   45.72000     -3.8988706E-08
   45.78000     -3.8933976E-08
   45.84000     -3.9516539E-08
   45.90000     -4.0837858E-08
   45.96000     -4.3032436E-08
   46.02000     -4.6265679E-08
   46.08000     -5.0727294E-08
   46.14000     -5.6624152E-08
   46.20000     -6.4176625E-08
   46.26000     -7.3621244E-08
   46.32000     -8.5220464E-08
   46.38000     -9.9278196E-08
   46.44000     -1.1615846E-07
   46.50000     -1.3630397E-07
   46.56000     -1.6025163E-07
   46.62000     -1.8864331E-07
   46.68000     -2.2223108E-07
   46.74000     -2.6187789E-07
   46.80000     -3.0855622E-07
   46.86000     -3.6334853E-07
   46.92000     -4.2745256E-07
   46.98000     -5.0219535E-07
   47.04000     -5.8905624E-07
   47.10000     -6.8969837E-07
   47.16000     -8.0600478E-07
   47.22000     -9.4011369E-07
   47.28000     -1.0944510E-06
   47.34000     -1.2717533E-06
   47.40000     -1.4750847E-06
   47.46000     -1.7078470E-06
   47.52000     -1.9737893E-06
   47.58000     -2.2770203E-06
   47.64000     -2.6220296E-06
   47.70000     -3.0137157E-06
   47.76000     -3.4574230E-06
   47.82000     -3.9589804E-06
   47.88000     -4.5247416E-06
   47.94000     -5.1616189E-06
   48.00000     -5.8771102E-06
   48.06000     -6.6793191E-06
   48.12000     -7.5769685E-06
   48.18000     -8.5794072E-06
   48.24000     -9.6966078E-06
   48.30000     -1.0939170E-05
   48.36000     -1.2318315E-05
   48.42000     -1.3845877E-05
   48.48000     -1.5534313E-05
   48.54000     -1.7396689E-05
   48.60000     -1.9446685E-05
   48.66000     -2.1698557E-05
   48.72000     -2.4167119E-05
   48.78000     -2.6867670E-05
   48.84000     -2.9815932E-05
   48.90000     -3.3027954E-05
   48.96000     -3.6520039E-05
   49.02000     -4.0308623E-05
   49.08000     -4.4410197E-05
   49.14000     -4.8841186E-05
   49.20000     -5.3617849E-05
   49.26000     -5.8756126E-05
   49.32000     -6.4271539E-05
   49.38000     -7.0179005E-05
   49.44000     -7.6492703E-05
   49.50000     -8.3225888E-05
   49.56000     -9.0390720E-05
   49.62000     -9.7998083E-05
   49.68000     -1.0605744E-04
   49.74000     -1.1457661E-04
   49.80000     -1.2356164E-04
   49.86000     -1.3301664E-04
   49.92000     -1.4294365E-04
   49.98000     -1.5334239E-04
   50.04000     -1.6421023E-04
   50.10000     -1.7554194E-04
   50.16000     -1.8732973E-04
   50.22000     -1.9956300E-04
   50.28000     -2.1222833E-04
   50.34000     -2.2530950E-04
   50.40000     -2.3878732E-04
   50.46000     -2.5263982E-04
   50.52000     -2.6684214E-04
   50.58000     -2.8136675E-04
   50.64000     -2.9618343E-04
   50.70000     -3.1125930E-04
   50.76000     -3.2655930E-04
   50.82000     -3.4204611E-04
   50.88000     -3.5768046E-04
   50.94000     -3.7342127E-04
   51.00000     -3.8922604E-04
   51.06000     -4.0505113E-04
   51.12000     -4.2085210E-04
   51.18000     -4.3658412E-04
   51.24000     -4.5220231E-04
   51.30000     -4.6766215E-04
   51.36000     -4.8291992E-04
   51.42000     -4.9793301E-04
   51.48000     -5.1266025E-04
   51.54000     -5.2706245E-04
   51.60000     -5.4110267E-04
   51.66000     -5.5474660E-04
   51.72000     -5.6796311E-04
   51.78000     -5.8072439E-04
   51.84000     -5.9300632E-04
   51.90000     -6.0478901E-04
   51.96000     -6.1605650E-04
   52.02000     -6.2679726E-04
   52.08000     -6.3700427E-04
   52.14000     -6.4667535E-04
   52.20000     -6.5581262E-04
   52.26000     -6.6442310E-04
   52.32000     -6.7251845E-04
   52.38000     -6.8011455E-04
   52.44000     -6.8723183E-04
   52.50000     -6.9389469E-04
   52.56000     -7.0013141E-04
   52.62000     -7.0597383E-04
   52.68000     -7.1145722E-04
   52.74000     -7.1661943E-04
   52.80000     -7.2150084E-04
   52.86000     -7.2614365E-04
   52.92000     -7.3059154E-04
   52.98000     -7.3488877E-04
   53.04000     -7.3908002E-04
   53.10000     -7.4320973E-04
   53.16000     -7.4732170E-04
   53.22000     -7.5145875E-04
   53.28000     -7.5566169E-04
   53.34000     -7.5996952E-04
   53.40000     -7.6441828E-04
   53.46000     -7.6904084E-04
   53.52000     -7.7386689E-04
   53.58000     -7.7892200E-04
   53.64000     -7.8422757E-04
   53.70000     -7.8980095E-04
   53.76000     -7.9565489E-04
   53.82000     -8.0179755E-04
   53.88000     -8.0823241E-04
   53.94000     -8.1495818E-04
   54.00000     -8.2196924E-04
   54.06000     -8.2925509E-04
   54.12000     -8.3680102E-04
   54.18000     -8.4458833E-04
   54.24000     -8.5259438E-04
   54.30000     -8.6079305E-04
   54.36000     -8.6915540E-04
   54.42000     -8.7764952E-04
   54.48000     -8.8624127E-04
   54.54000     -8.9489494E-04
   54.60000     -9.0357324E-04
   54.66000     -9.1223838E-04
   54.72000     -9.2085201E-04
   54.78000     -9.2937629E-04
   54.84000     -9.3777379E-04
   54.90000     -9.4600843E-04
   54.96000     -9.5404551E-04
   55.02000     -9.6185249E-04
   55.08000     -9.6939917E-04
   55.14000     -9.7665796E-04
   55.20000     -9.8360446E-04
   55.26000     -9.9021697E-04
   55.32000     -9.9647755E-04
   55.38000     -1.0023720E-03
   55.44000     -1.0078892E-03
   55.50000     -1.0130225E-03
   55.56000     -1.0177686E-03