  -2.400000      0.0000000E+00
  -2.340000      0.0000000E+00
  -2.280000      0.0000000E+00
  -2.220000      0.0000000E+00
  -2.160000      0.0000000E+00
  -2.100000      0.0000000E+00
  -2.040000      0.0000000E+00
  -1.980000      0.0000000E+00
  -1.920000     -8.1645334E-25
  -1.860000     -7.7974672E-24
  -1.800000     -3.2452090E-23
  -1.740000     -5.9797884E-23
  -1.680000      6.8348442E-23
  -1.620000      7.9328943E-22
  -1.560000      2.5923885E-21
  -1.500000      4.5933982E-21
  -1.440000      1.8930606E-21
  -1.380000     -1.5933714E-20
  -1.320000     -5.8603905E-20
  -1.260000     -1.1398307E-19
  -1.200000     -1.1575436E-19
  -1.140000      6.9971706E-20
  -1.080000      5.8085657E-19
  -1.020000      1.3679783E-18
 -0.9600000      1.9214136E-18
 -0.9000000      1.1305780E-18
 -0.8400000     -2.3451476E-18
 -0.7800000     -8.8979388E-18
 -0.7200000     -1.6205714E-17
 -0.6600000     -1.8009110E-17
 -0.6000000     -5.3362170E-18
 -0.5400000      2.8223965E-17
 -0.4800000      7.7791248E-17
 -0.4200000      1.1942447E-16
 -0.3600000      1.1114193E-16
 -0.3000000      1.0085202E-17
 -0.2400000     -1.9410876E-16
 -0.1800000     -4.4308577E-16
 -0.1200000     -5.9715389E-16
 -5.9999999E-02 -4.7443480E-16
  0.0000000E+00  4.9374457E-17
  5.9999999E-02  9.1167247E-16
  0.1200000      1.7784829E-15
  0.1800000      2.0953880E-15
  0.2400000      1.3240286E-15
  0.3000000     -6.8718925E-16
  0.3600000     -3.3745945E-15
  0.4200000     -5.4219803E-15
  0.4800000     -5.2035424E-15
  0.5400000     -1.6735403E-15
  0.6000000      4.6481615E-15
  0.6600000      1.1191245E-14
  0.7200000      1.3921501E-14
  0.7800000      9.1573071E-15
  0.8400000     -3.9380451E-15
  0.9000000     -2.1434099E-14
  0.9600000     -3.4747402E-14
   1.020000     -3.3659094E-14
   1.080000     -1.1703382E-14
   1.140000      2.8279626E-14
   1.200000      7.1670189E-14
   1.260000      9.5429747E-14
   1.320000      7.7725261E-14
   1.380000      1.0751180E-14
   1.440000     -8.9357998E-14
   1.500000     -1.8226539E-13
   1.560000     -2.1653623E-13
   1.620000     -1.5358652E-13
   1.680000      7.0381208E-15
   1.740000      2.1456724E-13
   1.800000      3.7734101E-13
   1.860000      3.9851884E-13
   1.920000      2.2574785E-13
   1.980000     -1.0781373E-13
   2.040000     -4.7584479E-13
   2.100000     -6.9847719E-13
   2.160000     -6.2150225E-13
   2.220000     -2.0399641E-13
   2.280000      4.2988589E-13
   2.340000      1.0119043E-12
   2.400000      1.2313827E-12
   2.460000      8.8463622E-13
   2.520000      5.8957504E-15
   2.580000     -1.0929130E-12
   2.640000     -1.9156738E-12
   2.700000     -1.9912915E-12
   2.760000     -1.1170959E-12
   2.820000      4.8057294E-13
   2.880000      2.1680201E-12
   2.940000      3.1350365E-12
   3.000000      2.7610045E-12
   3.060000      9.5951957E-13
   3.120000     -1.6742233E-12
   3.180000     -4.0228645E-12
   3.240000     -4.8899418E-12
   3.300000     -3.5595452E-12
   3.360000     -2.2085986E-13
   3.420000      3.9680572E-12
   3.480000      7.2624142E-12
   3.540000      8.0416064E-12
   3.600000      5.5585710E-12
   3.660000      3.8169085E-13
   3.720000     -5.7125498E-12
   3.780000     -1.0405299E-11
   3.840000     -1.1805335E-11
   3.900000     -9.2992636E-12
   3.960000     -3.8734775E-12
   4.020000      2.2872151E-12
   4.080000      6.7911479E-12
   4.140000      8.1914857E-12
   4.200000      6.7486468E-12
   4.260000      4.3870194E-12
   4.320000      3.7761547E-12
   4.380000      6.8830449E-12
   4.440000      1.3638161E-11
   4.500000      2.1383374E-11
   4.560000      2.5487801E-11
   4.620000      2.1030190E-11
   4.680000      4.9578857E-12
   4.740000     -2.2138480E-11
   4.800000     -5.5412973E-11
   4.860000     -8.6672197E-11
   4.920000     -1.0656491E-10
   4.980000     -1.0729489E-10
   5.040000     -8.4878680E-11
   5.100000     -4.0152645E-11
   5.160000      2.1749812E-11
   5.220000      9.3095739E-11
   5.280000      1.6558901E-10
   5.340000      2.3179342E-10
   5.400000      2.8529526E-10
   5.460000      3.1956329E-10
   5.520000      3.2611114E-10
   5.580000      2.9297603E-10
   5.640000      2.0450586E-10
   5.700000      4.2978985E-11
   5.760000     -2.0815845E-10
   5.820000     -5.6037069E-10
   5.880000     -1.0167512E-09
   5.940000     -1.5705878E-09
   6.000000     -2.2063726E-09
   6.060000     -2.9029732E-09
   6.120000     -3.6378782E-09
   6.180000     -4.3910284E-09
   6.240000     -5.1469482E-09
   6.300000     -5.8945999E-09
   6.360000     -6.6253505E-09
   6.420000     -7.3302466E-09
   6.480000     -7.9980591E-09
   6.540000     -8.6151690E-09
   6.600000     -9.1674659E-09
   6.660000     -9.6433768E-09
   6.720000     -1.0036460E-08
   6.780000     -1.0346049E-08
   6.840000     -1.0575162E-08
   6.900000     -1.0726216E-08
   6.960000     -1.0796218E-08
   7.020000     -1.0773701E-08
   7.080000     -1.0639265E-08
   7.140000     -1.0370320E-08
   7.200000     -9.9489670E-09
   7.260000     -9.3705035E-09
   7.320000     -8.6495744E-09
   7.380000     -7.8215319E-09
   7.440000     -6.9382158E-09
   7.500000     -6.0592042E-09
   7.560000     -5.2411715E-09
   7.620000     -4.5285047E-09
   7.680000     -3.9477230E-09
   7.740000     -3.5067502E-09
   7.800000     -3.1983574E-09
   7.860000     -3.0058058E-09
   7.920000     -2.9083527E-09
   7.980000     -2.8848834E-09
   8.040000     -2.9151663E-09
   8.100000     -2.9794947E-09
   8.160000     -3.0582135E-09
   8.220000     -3.1325564E-09
   8.280000     -3.1873892E-09
   8.340000     -3.2152871E-09
   8.400000     -3.2204133E-09
   8.460000     -3.2203333E-09
   8.520000     -3.2444023E-09
   8.580000     -3.3284966E-09
   8.640000     -3.5071901E-09
   8.700000     -3.8054995E-09
   8.760000     -4.2325885E-09
   8.820000     -4.7792503E-09
   8.880000     -5.4197540E-09
   8.940000     -6.1172436E-09
   9.000000     -6.8308088E-09
   9.060000     -7.5220328E-09
   9.120000     -8.1593567E-09
   9.180000     -8.7196819E-09
   9.240000     -9.1878887E-09
   9.300000     -9.5556487E-09
   9.360000     -9.8209583E-09
   9.420000     -9.9889759E-09
   9.480000     -1.0073651E-08
   9.540000     -1.0098604E-08
   9.600000     -1.0095544E-08
   9.660000     -1.0099232E-08
   9.720000     -1.0139476E-08
   9.780000     -1.0232281E-08
   9.840000     -1.0373248E-08
   9.900000     -1.0536160E-08
   9.960000     -1.0678238E-08
   10.02000     -1.0751262E-08
   10.08000     -1.0715533E-08
   10.14000     -1.0552251E-08
   10.20000     -1.0270115E-08
   10.26000     -9.9036139E-09
   10.32000     -9.5031982E-09
   10.38000     -9.1202166E-09
   10.44000     -8.7913437E-09
   10.50000     -8.5274472E-09
   10.56000     -8.3104563E-09
   10.62000     -8.0992715E-09
   10.68000     -7.8429174E-09
   10.74000     -7.4968876E-09
   10.80000     -7.0377317E-09
   10.86000     -6.4714913E-09
   10.92000     -5.8335088E-09
   10.98000     -5.1796949E-09
   11.04000     -4.5718420E-09
   11.10000     -4.0612536E-09
   11.16000     -3.6753898E-09
   11.22000     -3.4112801E-09
   11.28000     -3.2374550E-09
   11.34000     -3.1036564E-09
   11.40000     -2.9553420E-09
   11.46000     -2.7486806E-09
   11.52000     -2.4617348E-09
   11.58000     -2.0988442E-09
   11.64000     -1.6874449E-09
   11.70000     -1.2689317E-09
   11.76000     -8.8689095E-10
   11.82000     -5.7652377E-10
   11.88000     -3.5822756E-10
   11.94000     -2.3650010E-10
   12.00000     -2.0333726E-10
   12.06000     -2.4389657E-10
   12.12000     -3.4189235E-10
   12.18000     -4.8294491E-10
   12.24000     -6.5544764E-10
   12.30000     -8.4975005E-10
   12.36000     -1.0570333E-09
   12.42000     -1.2690075E-09
   12.48000     -1.4787623E-09
   12.54000     -1.6822601E-09
   12.60000     -1.8795170E-09
   12.66000     -2.0746853E-09
   12.72000     -2.2748359E-09
   12.78000     -2.4878983E-09
   12.84000     -2.7205864E-09
   12.90000     -2.9770519E-09
   12.96000     -3.2585605E-09
   13.02000     -3.5639502E-09
   13.08000     -3.8902637E-09
   13.14000     -4.2329331E-09
   13.20000     -4.5851745E-09
   13.26000     -4.9367195E-09
   13.32000     -5.2723941E-09
   13.38000     -5.5712763E-09
   13.44000     -5.8070544E-09
   13.50000     -5.9499059E-09
   13.56000     -5.9697416E-09
   13.62000     -5.8402110E-09
   13.68000     -5.5425278E-09
   13.74000     -5.0681277E-09
   13.80000     -4.4193529E-09
   13.86000     -3.6078858E-09
   13.92000     -2.6512899E-09
   13.98000     -1.5686634E-09
   14.04000     -3.7678632E-10
   14.10000      9.1193103E-10
   14.16000      2.2889646E-09
   14.22000      3.7468713E-09
   14.28000      5.2753508E-09
   14.34000      6.8579378E-09
   14.40000      8.4709821E-09
   14.46000      1.0085721E-08
   14.52000      1.1672951E-08
   14.58000      1.3208668E-08
   14.64000      1.4678430E-08
   14.70000      1.6078646E-08
   14.76000      1.7414040E-08
   14.82000      1.8692097E-08
   14.88000      1.9916365E-08
   14.94000      2.1081032E-08
   15.00000      2.2168729E-08
   15.06000      2.3152449E-08
   15.12000      2.4001132E-08
   15.18000      2.4687317E-08
   15.24000      2.5194613E-08
   15.30000      2.5522752E-08
   15.36000      2.5688729E-08
   15.42000      2.5723569E-08
   15.48000      2.5665555E-08
   15.54000      2.5551735E-08
   15.60000      2.5409966E-08
   15.66000      2.5253531E-08
   15.72000      2.5079490E-08
   15.78000      2.4870905E-08
   15.84000      2.4602009E-08
   15.90000      2.4244832E-08
   15.96000      2.3775598E-08
   16.02000      2.3179444E-08
   16.08000      2.2452483E-08
   16.14000      2.1600917E-08
   16.20000      2.0637627E-08
   16.26000      1.9577470E-08
   16.32000      1.8432941E-08
   16.38000      1.7211869E-08
   16.44000      1.5918086E-08
   16.50000      1.4554775E-08
   16.56000      1.3129068E-08
   16.62000      1.1655786E-08
   16.68000      1.0158572E-08
   16.74000      8.6678353E-09
   16.80000      7.2162636E-09
   16.86000      5.8336012E-09
   16.92000      4.5424478E-09
   16.98000      3.3561041E-09
   17.04000      2.2785203E-09
   17.10000      1.3056999E-09
   17.16000      4.2777221E-10
   17.22000     -3.6877926E-10
   17.28000     -1.0988979E-09
   17.34000     -1.7767736E-09
   17.40000     -2.4138169E-09
   17.46000     -3.0170255E-09
   17.52000     -3.5879668E-09
   17.58000     -4.1224690E-09
   17.64000     -4.6110142E-09
   17.70000     -5.0399129E-09
   17.76000     -5.3935150E-09
   17.82000     -5.6576752E-09
   17.88000     -5.8242917E-09
   17.94000     -5.8959495E-09
   18.00000     -5.8890746E-09
   18.06000     -5.8340053E-09
   18.12000     -5.7712892E-09
   18.18000     -5.7449800E-09
   18.24000     -5.7949991E-09
   18.30000     -5.9510152E-09
   18.36000     -6.2295560E-09
   18.42000     -6.6346404E-09
   18.48000     -7.1608843E-09
   18.54000     -7.7974960E-09
   18.60000     -8.5318268E-09
   18.66000     -9.3519379E-09
   18.72000     -1.0248117E-08
   18.78000     -1.1213396E-08
   18.84000     -1.2242861E-08
   18.90000     -1.3331498E-08
   18.96000     -1.4470754E-08
   19.02000     -1.5644780E-08
   19.08000     -1.6827872E-08
   19.14000     -1.7984576E-08
   19.20000     -1.9072887E-08
   19.26000     -2.0049665E-08
   19.32000     -2.0876401E-08
   19.38000     -2.1523384E-08
   19.44000     -2.1971230E-08
   19.50000     -2.2209951E-08
   19.56000     -2.2236817E-08
   19.62000     -2.2054444E-08
   19.68000     -2.1670060E-08
   19.74000     -2.1095977E-08
   19.80000     -2.0350576E-08
   19.86000     -1.9458890E-08
   19.92000     -1.8451987E-08
   19.98000     -1.7365016E-08
   20.04000     -1.6234177E-08
   20.10000     -1.5093404E-08
   20.16000     -1.3971719E-08
   20.22000     -1.2892064E-08
   20.28000     -1.1872052E-08
   20.34000     -1.0926319E-08
   20.40000     -1.0069482E-08
   20.46000     -9.3182670E-09
   20.52000     -8.6915595E-09
   20.58000     -8.2079197E-09
   20.64000     -7.8811935E-09
   20.70000     -7.7157960E-09
   20.76000     -7.7035125E-09
   20.82000     -7.8231439E-09
   20.88000     -8.0432461E-09
   20.94000     -8.3270981E-09
   21.00000     -8.6383514E-09
   21.06000     -8.9458050E-09
   21.12000     -9.2262784E-09
   21.18000     -9.4653361E-09
   21.24000     -9.6562038E-09
   21.30000     -9.7975610E-09
   21.36000     -9.8909121E-09
   21.42000     -9.9381978E-09
   21.48000     -9.9402540E-09
   21.54000     -9.8966551E-09
   21.60000     -9.8072421E-09
   21.66000     -9.6751913E-09
   21.72000     -9.5107859E-09
   21.78000     -9.3345287E-09
   21.84000     -9.1780858E-09
   21.90000     -9.0820436E-09
   21.96000     -9.0905550E-09
   22.02000     -9.2440784E-09
   22.08000     -9.5722417E-09
   22.14000     -1.0088827E-08
   22.20000     -1.0790029E-08
   22.26000     -1.1655960E-08
   22.32000     -1.2654279E-08
   22.38000     -1.3744484E-08
   22.44000     -1.4881672E-08
   22.50000     -1.6019452E-08
   22.56000     -1.7112352E-08
   22.62000     -1.8118362E-08
   22.68000     -1.9001995E-08
   22.74000     -1.9737712E-08
   22.80000     -2.0312990E-08
   22.86000     -2.0730281E-08
   22.92000     -2.1007255E-08
   22.98000     -2.1175223E-08
   23.04000     -2.1276074E-08
   23.10000     -2.1358272E-08
   23.16000     -2.1472532E-08
   23.22000     -2.1667695E-08
   23.28000     -2.1987141E-08
   23.34000     -2.2465812E-08
   23.40000     -2.3127749E-08
   23.46000     -2.3983835E-08
   23.52000     -2.5029550E-08
   23.58000     -2.6242796E-08
   23.64000     -2.7582438E-08
   23.70000     -2.8988495E-08
   23.76000     -3.0385095E-08
   23.82000     -3.1686689E-08
   23.88000     -3.2807154E-08
   23.94000     -3.3670329E-08
   24.00000     -3.4219887E-08
   24.06000     -3.4426485E-08
   24.12000     -3.4290697E-08
   24.18000     -3.3841371E-08
   24.24000     -3.3129929E-08
   24.30000     -3.2221863E-08
   24.36000     -3.1186790E-08
   24.42000     -3.0088511E-08
   24.48000     -2.8976244E-08
   24.54000     -2.7878196E-08
   24.60000     -2.6798451E-08
   24.66000     -2.5717810E-08
   24.72000     -2.4598574E-08
   24.78000     -2.3392602E-08
   24.84000     -2.2051193E-08
   24.90000     -2.0535030E-08
   24.96000     -1.8822375E-08
   25.02000     -1.6914212E-08
   25.08000     -1.4835495E-08
   25.14000     -1.2632401E-08
   25.20000     -1.0366073E-08
   25.26000     -8.1039415E-09
   25.32000     -5.9102918E-09
   25.38000     -3.8381023E-09
   25.44000     -1.9240143E-09
   25.50000     -1.8760768E-10
   25.56000      1.3651765E-09
   25.62000      2.7359985E-09
   25.68000      3.9279184E-09
   25.74000      4.9414255E-09
   25.80000      5.7740119E-09
   25.86000      6.4229604E-09
   25.92000      6.8895352E-09
   25.98000      7.1821882E-09
   26.04000      7.3168880E-09
   26.10000      7.3140054E-09
   26.16000      7.1926909E-09
   26.22000      6.9646342E-09
   26.28000      6.6292563E-09
   26.34000      6.1718044E-09
   26.40000      5.5649050E-09
   26.46000      4.7732498E-09
   26.52000      3.7604870E-09
   26.58000      2.4970159E-09
   26.64000      9.6719455E-10
   26.70000     -8.2557572E-10
   26.76000     -2.8571570E-09
   26.82000     -5.0850306E-09
   26.88000     -7.4543820E-09
   26.94000     -9.9065334E-09
   27.00000     -1.2387611E-08
   27.06000     -1.4855218E-08
   27.12000     -1.7281538E-08
   27.18000     -1.9652427E-08
   27.24000     -2.1963322E-08
   27.30000     -2.4213604E-08
   27.36000     -2.6401379E-08
   27.42000     -2.8520232E-08
   27.48000     -3.0558692E-08
   27.54000     -3.2502196E-08
   27.60000     -3.4336541E-08
   27.66000     -3.6051393E-08
   27.72000     -3.7642508E-08
   27.78000     -3.9111733E-08
   27.84000     -4.0464776E-08
   27.90000     -4.1707370E-08
   27.96000     -4.2841119E-08
   28.02000     -4.3860428E-08
   28.08000     -4.4751488E-08
   28.14000     -4.5493831E-08
   28.20000     -4.6063970E-08
   28.26000     -4.6440178E-08
   28.32000     -4.6607095E-08
   28.38000     -4.6558927E-08
   28.44000     -4.6300368E-08
   28.50000     -4.5845205E-08
   28.56000     -4.5213135E-08
   28.62000     -4.4426017E-08
   28.68000     -4.3504816E-08
   28.74000     -4.2468137E-08
   28.80000     -4.1332481E-08
   28.86000     -4.0113406E-08
   28.92000     -3.8826332E-08
   28.98000     -3.7485730E-08
   29.04000     -3.6102385E-08
   29.10000     -3.4679523E-08
   29.16000     -3.3209606E-08
   29.22000     -3.1673874E-08
   29.28000     -3.0046035E-08
   29.34000     -2.8299944E-08
   29.40000     -2.6419352E-08
   29.46000     -2.4406772E-08
   29.52000     -2.2288223E-08
   29.58000     -2.0111818E-08
   29.64000     -1.7940089E-08
   29.70000     -1.5837971E-08
   29.76000     -1.3859893E-08
   29.82000     -1.2039600E-08
   29.88000     -1.0385404E-08
   29.94000     -8.8817611E-09
   30.00000     -7.4962632E-09
   30.06000     -6.1896879E-09
   30.12000     -4.9263940E-09
   30.18000     -3.6826440E-09
   30.24000     -2.4513200E-09
   30.30000     -1.2424181E-09
   30.36000     -7.9527634E-11
   30.42000      1.0068539E-09
   30.48000      1.9877620E-09
   30.54000      2.8440983E-09
   30.60000      3.5728087E-09
   30.66000      4.1891628E-09
   30.72000      4.7243174E-09
   30.78000      5.2186766E-09
   30.84000      5.7128835E-09
   30.90000      6.2389969E-09
   30.96000      6.8142585E-09
   31.02000      7.4388318E-09
   31.08000      8.0975129E-09
   31.14000      8.7641592E-09
   31.20000      9.4070316E-09
   31.26000      9.9933741E-09
   31.32000      1.0492238E-08
   31.38000      1.0875380E-08
   31.44000      1.1116643E-08
   31.50000      1.1190525E-08
   31.56000      1.1070608E-08
   31.62000      1.0728464E-08
   31.68000      1.0133537E-08
   31.74000      9.2544834E-09
   31.80000      8.0623117E-09
   31.86000      6.5352554E-09
   31.92000      4.6647499E-09
   31.98000      2.4611324E-09
   32.04000     -4.2758977E-11
   32.10000     -2.7918041E-09
   32.16000     -5.7135043E-09
   32.22000     -8.7269969E-09
   32.28000     -1.1754099E-08
   32.34000     -1.4729341E-08
   32.40000     -1.7606077E-08
   32.46000     -2.0356962E-08
   32.52000     -2.2969109E-08
   32.58000     -2.5435970E-08
   32.64000     -2.7749095E-08
   32.70000     -2.9892682E-08
   32.76000     -3.1842539E-08
   32.82000     -3.3569400E-08
   32.88000     -3.5044955E-08
   32.94000     -3.6248426E-08
   33.00000     -3.7171567E-08
   33.06000     -3.7820850E-08
   33.12000     -3.8216665E-08
   33.18000     -3.8390070E-08
   33.24000     -3.8378012E-08
   33.30000     -3.8218090E-08
   33.36000     -3.7943671E-08
   33.42000     -3.7580243E-08
   33.48000     -3.7143501E-08
   33.54000     -3.6639825E-08
   33.60000     -3.6069050E-08
   33.66000     -3.5429121E-08
   33.72000     -3.4721293E-08
   33.78000     -3.3954137E-08
   33.84000     -3.3144847E-08
   33.90000     -3.2317008E-08
   33.96000     -3.1495546E-08
   34.02000     -3.0700747E-08
   34.08000     -2.9943802E-08
   34.14000     -2.9225896E-08
   34.20000     -2.8541269E-08
   34.26000     -2.7883054E-08
   34.32000     -2.7249364E-08
   34.38000     -2.6647143E-08
   34.44000     -2.6092307E-08
   34.50000     -2.5606282E-08
   34.56000     -2.5210472E-08
   34.62000     -2.4920633E-08
   34.68000     -2.4742821E-08
   34.74000     -2.4671717E-08
   34.80000     -2.4691399E-08
   34.86000     -2.4778220E-08
   34.92000     -2.4905368E-08
   34.98000     -2.5048484E-08
   35.04000     -2.5191241E-08
   35.10000     -2.5329305E-08
   35.16000     -2.5470857E-08
   35.22000     -2.5632609E-08
   35.28000     -2.5831842E-08
   35.34000     -2.6076895E-08
   35.40000     -2.6359846E-08
   35.46000     -2.6654842E-08
   35.52000     -2.6923622E-08
   35.58000     -2.7126839E-08
   35.64000     -2.7237173E-08
   35.70000     -2.7249158E-08
   35.76000     -2.7181855E-08
   35.82000     -2.7073122E-08
   35.88000     -2.6967706E-08
   35.94000     -2.6903507E-08
   36.00000     -2.6900798E-08
   36.06000     -2.6957574E-08
   36.12000     -2.7051696E-08
   36.18000     -2.7148024E-08
   36.24000     -2.7207633E-08
   36.30000     -2.7196304E-08
   36.36000     -2.7090641E-08
   36.42000     -2.6881358E-08
   36.48000     -2.6573833E-08
   36.54000     -2.6186171E-08
   36.60000     -2.5744743E-08
   36.66000     -2.5277492E-08
   36.72000     -2.4806161E-08
   36.78000     -2.4339576E-08
   36.84000     -2.3870685E-08
   36.90000     -2.3379197E-08
   36.96000     -2.2839712E-08
   37.02000     -2.2232737E-08
   37.08000     -2.1554367E-08
   37.14000     -2.0820570E-08
   37.20000     -2.0064203E-08
   37.26000     -1.9325990E-08
   37.32000     -1.8643364E-08
   37.38000     -1.8041789E-08
   37.44000     -1.7531720E-08
   37.50000     -1.7111542E-08
   37.56000     -1.6773987E-08
   37.62000     -1.6512343E-08
   37.68000     -1.6323460E-08
   37.74000     -1.6206734E-08
   37.80000     -1.6160595E-08
   37.86000     -1.6179211E-08
   37.92000     -1.6251818E-08
   37.98000     -1.6365412E-08
   38.04000     -1.6509752E-08
   38.10000     -1.6682311E-08
   38.16000     -1.6890871E-08
   38.22000     -1.7152425E-08
   38.28000     -1.7488532E-08
   38.34000     -1.7918676E-08
   38.40000     -1.8453870E-08
   38.46000     -1.9092745E-08
   38.52000     -1.9821615E-08
   38.58000     -2.0618669E-08
   38.64000     -2.1461116E-08
   38.70000     -2.2332840E-08
   38.76000     -2.3229791E-08
   38.82000     -2.4160885E-08
   38.88000     -2.5143724E-08
   38.94000     -2.6196513E-08
   39.00000     -2.7329067E-08
   39.06000     -2.8536386E-08
   39.12000     -2.9797361E-08
   39.18000     -3.1079164E-08
   39.24000     -3.2345611E-08
   39.30000     -3.3566256E-08
   39.36000     -3.4722653E-08
   39.42000     -3.5809570E-08
   39.48000     -3.6830883E-08
   39.54000     -3.7792091E-08
   39.60000     -3.8692733E-08
   39.66000     -3.9521908E-08
   39.72000     -4.0259014E-08
   39.78000     -4.0879733E-08
   39.84000     -4.1365208E-08
   39.90000     -4.1711132E-08
   39.96000     -4.1933333E-08
   40.02000     -4.2067484E-08
   40.08000     -4.2162664E-08
   40.14000     -4.2270489E-08
   40.20000     -4.2432983E-08
   40.26000     -4.2672756E-08
   40.32000     -4.2988276E-08
   40.38000     -4.3355463E-08
   40.44000     -4.3735021E-08
   40.50000     -4.4083503E-08
   40.56000     -4.4365144E-08
   40.62000     -4.4561272E-08
   40.68000     -4.4674838E-08
   40.74000     -4.4728601E-08
   40.80000     -4.4757233E-08
   40.86000     -4.4795446E-08
   40.92000     -4.4865555E-08
   40.98000     -4.4968484E-08
   41.04000     -4.5081450E-08
   41.10000     -4.5163592E-08
   41.16000     -4.5168250E-08
   41.22000     -4.5058044E-08
   41.28000     -4.4817995E-08
   41.34000     -4.4462016E-08
   41.40000     -4.4030415E-08
   41.46000     -4.3578712E-08
   41.52000     -4.3161176E-08
   41.58000     -4.2814076E-08
   41.64000     -4.2544134E-08
   41.70000     -4.2326135E-08
   41.76000     -4.2110738E-08
   41.82000     -4.1840501E-08
   41.88000     -4.1469136E-08
   41.94000     -4.0977930E-08
   42.00000     -4.0383906E-08
   42.06000     -3.9736971E-08
   42.12000     -3.9107004E-08
   42.18000     -3.8565091E-08
   42.24000     -3.8165087E-08
   42.30000     -3.7931130E-08
   42.36000     -3.7854498E-08
   42.42000     -3.7899742E-08
   42.48000     -3.8017152E-08
   42.54000     -3.8157058E-08
   42.60000     -3.8281648E-08
   42.66000     -3.8371475E-08
   42.72000     -3.8425910E-08
   42.78000     -3.8458484E-08
   42.84000     -3.8489194E-08
   42.90000     -3.8536200E-08
   42.96000     -3.8609318E-08
   43.02000     -3.8707185E-08
   43.08000     -3.8818925E-08
   43.14000     -3.8929908E-08
   43.20000     -3.9029551E-08
   43.26000     -3.9118163E-08
   43.32000     -3.9209656E-08
   43.38000     -3.9328377E-08
   43.44000     -3.9500620E-08
   43.50000     -3.9743892E-08
   43.56000     -4.0058165E-08
   43.62000     -4.0422936E-08
   43.68000     -4.0801407E-08
   43.74000     -4.1150269E-08
   43.80000     -4.1431178E-08
   43.86000     -4.1619661E-08
   43.92000     -4.1708613E-08
   43.98000     -4.1706191E-08
   44.04000     -4.1630095E-08
   44.10000     -4.1501092E-08
   44.16000     -4.1338030E-08
   44.22000     -4.1154873E-08
   44.28000     -4.0959208E-08
   44.34000     -4.0751281E-08
   44.40000     -4.0523606E-08
   44.46000     -4.0261916E-08
   44.52000     -3.9948659E-08
   44.58000     -3.9569120E-08
   44.64000     -3.9118628E-08
   44.70000     -3.8607944E-08
   44.76000     -3.8063927E-08
   44.82000     -3.7524345E-08
   44.88000     -3.7028059E-08
   44.94000     -3.6604199E-08
   45.00000     -3.6264261E-08
   45.06000     -3.6000063E-08
   45.12000     -3.5787881E-08
   45.18000     -3.5596990E-08
   45.24000     -3.5399587E-08
   45.30000     -3.5179454E-08
   45.36000     -3.4937916E-08
   45.42000     -3.4696807E-08
   45.48000     -3.4498846E-08
   45.54000     -3.4405552E-08
   45.60000     -3.4492782E-08
   45.66000     -3.4843985E-08
   45.72000     -3.5542065E-08
   45.78000     -3.6661696E-08
   45.84000     -3.8264492E-08
   45.90000     -4.0399204E-08
   45.96000     -4.3107711E-08
   46.02000     -4.6436103E-08
   46.08000     -5.0448573E-08
   46.14000     -5.5241344E-08
   46.20000     -6.0953987E-08
   46.26000     -6.7776583E-08
   46.32000     -7.5952265E-08
   46.38000     -8.5775845E-08
   46.44000     -9.7589897E-08
   46.50000     -1.1178034E-07
   46.56000     -1.2877338E-07
   46.62000     -1.4903583E-07
   46.68000     -1.7307997E-07
   46.74000     -2.0147344E-07
   46.80000     -2.3485369E-07
   46.86000     -2.7394520E-07
   46.92000     -3.1957725E-07
   46.98000     -3.7269996E-07
   47.04000     -4.3439670E-07
   47.10000     -5.0589307E-07
   47.16000     -5.8856295E-07
   47.22000     -6.8393513E-07
   47.28000     -7.9370363E-07
   47.34000     -9.1974408E-07
   47.40000     -1.0641363E-06
   47.46000     -1.2291910E-06
   47.52000     -1.4174772E-06
   47.58000     -1.6318468E-06
   47.64000     -1.8754547E-06
   47.70000     -2.1517719E-06
   47.76000     -2.4645985E-06
   47.82000     -2.8180727E-06
   47.88000     -3.2166865E-06
   47.94000     -3.6652984E-06
   48.00000     -4.1691519E-06
   48.06000     -4.7338926E-06
   48.12000     -5.3655881E-06
   48.18000     -6.0707457E-06
   48.24000     -6.8563231E-06
   48.30000     -7.7297445E-06
   48.36000     -8.6988975E-06
   48.42000     -9.7721349E-06
   48.48000     -1.0958253E-05
   48.54000     -1.2266475E-05
   48.60000     -1.3706417E-05
   48.66000     -1.5288073E-05
   48.72000     -1.7021770E-05
   48.78000     -1.8918161E-05
   48.84000     -2.0988175E-05
   48.90000     -2.3242974E-05
   48.96000     -2.5693897E-05
   49.02000     -2.8352397E-05
   49.08000     -3.1229956E-05
   49.14000     -3.4338020E-05
   49.20000     -3.7687889E-05
   49.26000     -4.1290645E-05
   49.32000     -4.5157019E-05
   49.38000     -4.9297323E-05
   49.44000     -5.3721316E-05
   49.50000     -5.8438090E-05
   49.56000     -6.3455947E-05
   49.62000     -6.8782290E-05
   49.68000     -7.4423486E-05
   49.74000     -8.0384743E-05
   49.80000     -8.6670007E-05
   49.86000     -9.3281807E-05
   49.92000     -1.0022118E-04
   49.98000     -1.0748747E-04
   50.04000     -1.1507831E-04
   50.10000     -1.2298954E-04
   50.16000     -1.3121511E-04
   50.22000     -1.3974698E-04
   50.28000     -1.4857510E-04
   50.34000     -1.5768735E-04
   50.40000     -1.6706956E-04
   50.46000     -1.7670557E-04
   50.52000     -1.8657709E-04
   50.58000     -1.9666387E-04
   50.64000     -2.0694375E-04
   50.70000     -2.1739271E-04
   50.76000     -2.2798502E-04
   50.82000     -2.3869341E-04
   50.88000     -2.4948907E-04
   50.94000     -2.6034212E-04
   51.00000     -2.7122151E-04
   51.06000     -2.8209543E-04
   51.12000     -2.9293148E-04
   51.18000     -3.0369696E-04
   51.24000     -3.1435906E-04
   51.30000     -3.2488513E-04
   51.36000     -3.3524304E-04
   51.42000     -3.4540147E-04
   51.48000     -3.5533015E-04
   51.54000     -3.6500031E-04
   51.60000     -3.7438466E-04
   51.66000     -3.8345795E-04
   51.72000     -3.9219690E-04
   51.78000     -4.0058082E-04
   51.84000     -4.0859130E-04
   51.90000     -4.1621301E-04
   51.96000     -4.2343355E-04
   52.02000     -4.3024358E-04
   52.08000     -4.3663700E-04
   52.14000     -4.4261102E-04
   52.20000     -4.4816619E-04
   52.26000     -4.5330627E-04
   52.32000     -4.5803844E-04
   52.38000     -4.6237285E-04
   52.44000     -4.6632267E-04
   52.50000     -4.6990401E-04
   52.56000     -4.7313556E-04
   52.62000     -4.7603846E-04
   52.68000     -4.7863598E-04
   52.74000     -4.8095343E-04
   52.80000     -4.8301744E-04
   52.86000     -4.8485602E-04
   52.92000     -4.8649794E-04
   52.98000     -4.8797257E-04
   53.04000     -4.8930920E-04
   53.10000     -4.9053691E-04
   53.16000     -4.9168419E-04
   53.22000     -4.9277832E-04
   53.28000     -4.9384526E-04
   53.34000     -4.9490901E-04
   53.40000     -4.9599161E-04
   53.46000     -4.9711275E-04
   53.52000     -4.9828942E-04
   53.58000     -4.9953599E-04
   53.64000     -5.0086365E-04
   53.70000     -5.0228066E-04
   53.76000     -5.0379179E-04
   53.82000     -5.0539844E-04
   53.88000     -5.0709880E-04
   53.94000     -5.0888764E-04
   54.00000     -5.1075645E-04
   54.06000     -5.1269389E-04
   54.12000     -5.1468582E-04
   54.18000     -5.1671534E-04
   54.24000     -5.1876321E-04
   54.30000     -5.2080816E-04
   54.36000     -5.2282721E-04
   54.42000     -5.2479602E-04
   54.48000     -5.2668923E-04
   54.54000     -5.2848062E-04
   54.60000     -5.3014391E-04
   54.66000     -5.3165288E-04
   54.72000     -5.3298194E-04
   54.78000     -5.3410657E-04
   54.84000     -5.3500384E-04
   54.90000     -5.3565262E-04
   54.96000     -5.3603377E-04
   55.02000     -5.3613039E-04
   55.08000     -5.3592835E-04
   55.14000     -5.3541613E-04
   55.20000     -5.3458550E-04
   55.26000     -5.3343165E-04
   55.32000     -5.3195306E-04
   55.38000     -5.3015182E-04
   55.44000     -5.2803330E-04
   55.50000     -5.2560621E-04
   55.56000     -5.2288244E-04