  -2.400000      0.0000000E+00
  -2.340000      0.0000000E+00
  -2.280000      0.0000000E+00
  -2.220000      0.0000000E+00
  -2.160000      0.0000000E+00
  -2.100000      0.0000000E+00
  -2.040000      0.0000000E+00
  -1.980000      0.0000000E+00
  -1.920000     -1.5516475E-25
  -1.860000     -3.8031635E-24
  -1.800000     -3.4470972E-23
  -1.740000     -1.7817726E-22
  -1.680000     -5.9764713E-22
  -1.620000     -1.2871137E-21
  -1.560000     -1.2120569E-21
  -1.500000      3.0209395E-21
  -1.440000      1.7093905E-20
  -1.380000      4.3412309E-20
  -1.320000      6.6727212E-20
  -1.260000      3.6551373E-20
  -1.200000     -1.3035697E-19
  -1.140000     -4.9073441E-19
  -1.080000     -9.4110055E-19
  -1.020000     -1.0680768E-18
 -0.9600000     -1.5538186E-19
 -0.9000000      2.4244542E-18
 -0.8400000      6.3582996E-18
 -0.7800000      9.4465043E-18
 -0.7200000      7.4933580E-18
 -0.6600000     -3.8420004E-18
 -0.6000000     -2.4908165E-17
 -0.5400000     -4.7302770E-17
 -0.4800000     -5.2501981E-17
 -0.4200000     -1.8583072E-17
 -0.3600000      6.3421274E-17
 -0.3000000      1.6947800E-16
 -0.2400000      2.3333497E-16
 -0.1800000      1.6545736E-16
 -0.1200000     -9.2612366E-17
 -5.9999999E-02 -4.9535678E-16
  0.0000000E+00 -8.4697535E-16
  5.9999999E-02 -8.3857554E-16
  0.1200000     -2.0004283E-16
  0.1800000      1.0700725E-15
  0.2400000      2.5173322E-15
  0.3000000      3.2531169E-15
  0.3600000      2.3008816E-15
  0.4200000     -7.8302685E-16
  0.4800000     -5.2885332E-15
  0.5400000     -9.1597414E-15
  0.6000000     -9.5975389E-15
  0.6600000     -4.4750737E-15
  0.7200000      5.9515351E-15
  0.7800000      1.8006564E-14
  0.8400000      2.5227233E-14
  0.9000000      2.1048696E-14
  0.9600000      2.7899804E-15
   1.020000     -2.4964001E-14
   1.080000     -4.9936377E-14
   1.140000     -5.6208405E-14
   1.200000     -3.2158009E-14
   1.260000      2.0889684E-14
   1.320000      8.4155827E-14
   1.380000      1.2531693E-13
   1.440000      1.1176805E-13
   1.500000      2.9077869E-14
   1.560000     -1.0402981E-13
   1.620000     -2.3391052E-13
   1.680000     -2.8906014E-13
   1.740000     -2.1290706E-13
   1.800000      5.7607886E-16
   1.860000      2.8707703E-13
   1.920000      5.2373855E-13
   1.980000      5.7583902E-13
   2.040000      3.6363081E-13
   2.100000     -8.0599488E-14
   2.160000     -5.9838283E-13
   2.220000     -9.5304526E-13
   2.280000     -9.3094803E-13
   2.340000     -4.5644093E-13
   2.400000      3.3630997E-13
   2.460000      1.1226310E-12
   2.520000      1.5092176E-12
   2.580000      1.2187648E-12
   2.640000      2.5568892E-13
   2.700000     -1.0366935E-12
   2.760000     -2.0796945E-12
   2.820000     -2.3030269E-12
   2.880000     -1.4318114E-12
   2.940000      3.2110832E-13
   3.000000      2.2725320E-12
   3.060000      3.5243549E-12
   3.120000      3.3690412E-12
   3.180000      1.6660246E-12
   3.240000     -1.0044041E-12
   3.300000     -3.5210576E-12
   3.360000     -4.6955781E-12
   3.420000     -3.8460684E-12
   3.480000     -1.1985297E-12
   3.540000      2.1082324E-12
   3.600000      4.4716184E-12
   3.660000      4.5672489E-12
   3.720000      2.0558791E-12
   3.780000     -2.0993398E-12
   3.840000     -5.9150363E-12
   3.900000     -7.2136472E-12
   3.960000     -4.6671946E-12
   4.020000      1.4123637E-12
   4.080000      8.9436097E-12
   4.140000      1.4750447E-11
   4.200000      1.5825879E-11
   4.260000      1.0675892E-11
   4.320000      1.4932704E-13
   4.380000     -1.2659891E-11
   4.440000     -2.3468305E-11
   4.500000     -2.8421312E-11
   4.560000     -2.5605438E-11
   4.620000     -1.5797688E-11
   4.680000     -2.1054408E-12
   4.740000      1.1366257E-11
   4.800000      2.1238374E-11
   4.860000      2.6191571E-11
   4.920000      2.7279739E-11
   4.980000      2.7044761E-11
   5.040000      2.7815115E-11
   5.100000      2.9989750E-11
   5.160000      3.1183053E-11
   5.220000      2.6779842E-11
   5.280000      1.1842520E-11
   5.340000     -1.6317697E-11
   5.400000     -5.5965201E-11
   5.460000     -1.0014772E-10
   5.520000     -1.3776040E-10
   5.580000     -1.5617850E-10
   5.640000     -1.4448052E-10
   5.700000     -9.5967734E-11
   5.760000     -8.9041439E-12
   5.820000      1.1491182E-10
   5.880000      2.7324445E-10
   5.940000      4.6696852E-10
   6.000000      7.0261308E-10
   6.060000      9.9281172E-10
   6.120000      1.3544046E-09
   6.180000      1.8048965E-09
   6.240000      2.3586528E-09
   6.300000      3.0243059E-09
   6.360000      3.8042840E-09
   6.420000      4.6963931E-09
   6.480000      5.6963785E-09
   6.540000      6.7998416E-09
   6.600000      8.0020435E-09
   6.660000      9.2950074E-09
   6.720000      1.0662592E-08
   6.780000      1.2075327E-08
   6.840000      1.3487319E-08
   6.900000      1.4837108E-08
   6.960000      1.6053123E-08
   7.020000      1.7062799E-08
   7.080000      1.7803014E-08
   7.140000      1.8229020E-08
   7.200000      1.8319533E-08
   7.260000      1.8077046E-08
   7.320000      1.7524131E-08
   7.380000      1.6697790E-08
   7.440000      1.5644160E-08
   7.500000      1.4415193E-08
   7.560000      1.3067401E-08
   7.620000      1.1661365E-08
   7.680000      1.0260044E-08
   7.740000      8.9244274E-09
   7.800000      7.7065065E-09
   7.860000      6.6413373E-09
   7.920000      5.7411413E-09
   7.980000      4.9943467E-09
   8.040000      4.3710560E-09
   8.100000      3.8340988E-09
   8.160000      3.3525700E-09
   8.220000      2.9135017E-09
   8.280000      2.5276470E-09
   8.340000      2.2272759E-09
   8.400000      2.0566133E-09
   8.460000      2.0581203E-09
   8.520000      2.2591973E-09
   8.580000      2.6636013E-09
   8.640000      3.2500356E-09
   8.700000      3.9777501E-09
   8.760000      4.7966164E-09
   8.820000      5.6578746E-09
   8.880000      6.5220034E-09
   8.940000      7.3617459E-09
   9.000000      8.1604838E-09
   9.060000      8.9079695E-09
   9.120000      9.5962180E-09
   9.180000      1.0217821E-08
   9.240000      1.0767486E-08
   9.300000      1.1245788E-08
   9.360000      1.1662935E-08
   9.420000      1.2040094E-08
   9.480000      1.2406828E-08
   9.540000      1.2794763E-08
   9.600000      1.3229341E-08
   9.660000      1.3722420E-08
   9.720000      1.4268376E-08
   9.780000      1.4845234E-08
   9.840000      1.5420516E-08
   9.900000      1.5959881E-08
   9.960000      1.6435679E-08
   10.02000      1.6832701E-08
   10.08000      1.7149462E-08
   10.14000      1.7395152E-08
   10.20000      1.7583703E-08
   10.26000      1.7727412E-08
   10.32000      1.7832225E-08
   10.38000      1.7895919E-08
   10.44000      1.7909052E-08
   10.50000      1.7857548E-08
   10.56000      1.7725574E-08
   10.62000      1.7497655E-08
   10.68000      1.7160081E-08
   10.74000      1.6702204E-08
   10.80000      1.6118584E-08
   10.86000      1.5412244E-08
   10.92000      1.4598337E-08
   10.98000      1.3706569E-08
   11.04000      1.2780542E-08
   11.10000      1.1872929E-08
   11.16000      1.1036934E-08
   11.22000      1.0316152E-08
   11.28000      9.7358921E-09
   11.34000      9.2988506E-09
   11.40000      8.9865342E-09
   11.46000      8.7658343E-09
   11.52000      8.5982688E-09
   11.58000      8.4487493E-09
   11.64000      8.2912637E-09
   11.70000      8.1105229E-09
   11.76000      7.9004359E-09
   11.82000      7.6613977E-09
   11.88000      7.3983939E-09
   11.94000      7.1208532E-09
   12.00000      6.8437722E-09
   12.06000      6.5886216E-09
   12.12000      6.3825296E-09
   12.18000      6.2551453E-09
   12.24000      6.2339529E-09
   12.30000      6.3397945E-09
   12.36000      6.5844783E-09
   12.42000      6.9714101E-09
   12.48000      7.4987296E-09
   12.54000      8.1631173E-09
   12.60000      8.9620302E-09
   12.66000      9.8927826E-09
   12.72000      1.0948420E-08
   12.78000      1.2112034E-08
   12.84000      1.3352075E-08
   12.90000      1.4621058E-08
   12.96000      1.5858678E-08
   13.02000      1.6998481E-08
   13.08000      1.7975635E-08
   13.14000      1.8732999E-08
   13.20000      1.9223547E-08
   13.26000      1.9409111E-08
   13.32000      1.9257213E-08
   13.38000      1.8738765E-08
   13.44000      1.7828890E-08
   13.50000      1.6511505E-08
   13.56000      1.4786201E-08
   13.62000      1.2674625E-08
   13.68000      1.0223259E-08
   13.74000      7.5007502E-09
   13.80000      4.5898574E-09
   13.86000      1.5759506E-09
   13.92000     -1.4648470E-09
   13.98000     -4.4747894E-09
   14.04000     -7.4187327E-09
   14.10000     -1.0282802E-08
   14.16000     -1.3068379E-08
   14.22000     -1.5783508E-08
   14.28000     -1.8434308E-08
   14.34000     -2.1018785E-08
   14.40000     -2.3524374E-08
   14.46000     -2.5929278E-08
   14.52000     -2.8206255E-08
   14.58000     -3.0326856E-08
   14.64000     -3.2264268E-08
   14.70000     -3.3993892E-08
   14.76000     -3.5492160E-08
   14.82000     -3.6735063E-08
   14.88000     -3.7698122E-08
   14.94000     -3.8358664E-08
   15.00000     -3.8700129E-08
   15.06000     -3.8716880E-08
   15.12000     -3.8417515E-08
   15.18000     -3.7825171E-08
   15.24000     -3.6974370E-08
   15.30000     -3.5905511E-08
   15.36000     -3.4658882E-08
   15.42000     -3.3270521E-08
   15.48000     -3.1771439E-08
   15.54000     -3.0190524E-08
   15.60000     -2.8559770E-08
   15.66000     -2.6919480E-08
   15.72000     -2.5320752E-08
   15.78000     -2.3823365E-08
   15.84000     -2.2488928E-08
   15.90000     -2.1371005E-08
   15.96000     -2.0505277E-08
   16.02000     -1.9902950E-08
   16.08000     -1.9549503E-08
   16.14000     -1.9408875E-08
   16.20000     -1.9431313E-08
   16.26000     -1.9562069E-08
   16.32000     -1.9748212E-08
   16.38000     -1.9942087E-08
   16.44000     -2.0101407E-08
   16.50000     -2.0187157E-08
   16.56000     -2.0161044E-08
   16.62000     -1.9983966E-08
   16.68000     -1.9616451E-08
   16.74000     -1.9021366E-08
   16.80000     -1.8168626E-08
   16.86000     -1.7041161E-08
   16.92000     -1.5640994E-08
   16.98000     -1.3993868E-08
   17.04000     -1.2150853E-08
   17.10000     -1.0185707E-08
   17.16000     -8.1876639E-09
   17.22000     -6.2505188E-09
   17.28000     -4.4600266E-09
   17.34000     -2.8822571E-09
   17.40000     -1.5554472E-09
   17.46000     -4.8706822E-10
   17.52000      3.4350242E-10
   17.58000      9.7773367E-10
   17.64000      1.4682311E-09
   17.70000      1.8690860E-09
   17.76000      2.2284279E-09
   17.82000      2.5842908E-09
   17.88000      2.9636353E-09
   17.94000      3.3833842E-09
   18.00000      3.8520489E-09
   18.06000      4.3710604E-09
   18.12000      4.9358846E-09
   18.18000      5.5377991E-09
   18.24000      6.1672605E-09
   18.30000      6.8189294E-09
   18.36000      7.4970785E-09
   18.42000      8.2190610E-09
   18.48000      9.0145180E-09
   18.54000      9.9192814E-09
   18.60000      1.0964980E-08
   18.66000      1.2167336E-08
   18.72000      1.3516978E-08
   18.78000      1.4975884E-08
   18.84000      1.6480735E-08
   18.90000      1.7952010E-08
   18.96000      1.9306064E-08
   19.02000      2.0466818E-08
   19.08000      2.1374513E-08
   19.14000      2.1990370E-08
   19.20000      2.2297533E-08
   19.26000      2.2299457E-08
   19.32000      2.2017037E-08
   19.38000      2.1485222E-08
   19.44000      2.0749267E-08
   19.50000      1.9860357E-08
   19.56000      1.8870585E-08
   19.62000      1.7827643E-08
   19.68000      1.6770283E-08
   19.74000      1.5725691E-08
   19.80000      1.4709689E-08
   19.86000      1.3729796E-08
   19.92000      1.2790192E-08
   19.98000      1.1896967E-08
   20.04000      1.1061903E-08
   20.10000      1.0303690E-08
   20.16000      9.6464321E-09
   20.22000      9.1162509E-09
   20.28000      8.7372838E-09
   20.34000      8.5282119E-09
   20.40000      8.4999145E-09
   20.46000      8.6541680E-09
   20.52000      8.9830170E-09
   20.58000      9.4685122E-09
   20.64000      1.0082979E-08
   20.70000      1.0790390E-08
   20.76000      1.1549523E-08
   20.82000      1.2319134E-08
   20.88000      1.3064591E-08
   20.94000      1.3764377E-08
   21.00000      1.4414386E-08
   21.06000      1.5028006E-08
   21.12000      1.5631121E-08
   21.18000      1.6252867E-08
   21.24000      1.6914800E-08
   21.30000      1.7622231E-08
   21.36000      1.8361147E-08
   21.42000      1.9102288E-08
   21.48000      1.9811035E-08
   21.54000      2.0459163E-08
   21.60000      2.1033268E-08
   21.66000      2.1535897E-08
   21.72000      2.1978625E-08
   21.78000      2.2370230E-08
   21.84000      2.2705770E-08
   21.90000      2.2962375E-08
   21.96000      2.3104580E-08
   22.02000      2.3097385E-08
   22.08000      2.2921258E-08
   22.14000      2.2582062E-08
   22.20000      2.2111127E-08
   22.26000      2.1555355E-08
   22.32000      2.0962050E-08
   22.38000      2.0365530E-08
   22.44000      1.9781398E-08
   22.50000      1.9210290E-08
   22.56000      1.8648066E-08
   22.62000      1.8096376E-08
   22.68000      1.7567766E-08
   22.74000      1.7082655E-08
   22.80000      1.6659817E-08
   22.86000      1.6305286E-08
   22.92000      1.6005071E-08
   22.98000      1.5725014E-08
   23.04000      1.5417571E-08
   23.10000      1.5032271E-08
   23.16000      1.4525465E-08
   23.22000      1.3865956E-08
   23.28000      1.3035454E-08
   23.34000      1.2025291E-08
   23.40000      1.0832107E-08
   23.46000      9.4551798E-09
   23.52000      7.8967437E-09
   23.58000      6.1650138E-09
   23.64000      4.2784096E-09
   23.70000      2.2689652E-09
   23.76000      1.8329906E-10
   23.82000     -1.9197126E-09
   23.88000     -3.9744452E-09
   23.94000     -5.9162923E-09
   24.00000     -7.6901499E-09
   24.06000     -9.2577430E-09
   24.12000     -1.0601984E-08
   24.18000     -1.1727070E-08
   24.24000     -1.2654139E-08
   24.30000     -1.3413726E-08
   24.36000     -1.4037395E-08
   24.42000     -1.4551399E-08
   24.48000     -1.4974333E-08
   24.54000     -1.5318944E-08
   24.60000     -1.5596211E-08
   24.66000     -1.5818529E-08
   24.72000     -1.5999365E-08
   24.78000     -1.6148665E-08
   24.84000     -1.6265956E-08
   24.90000     -1.6334917E-08
   24.96000     -1.6323044E-08
   25.02000     -1.6187780E-08
   25.08000     -1.5887375E-08
   25.14000     -1.5392143E-08
   25.20000     -1.4691474E-08
   25.26000     -1.3793946E-08
   25.32000     -1.2721367E-08
   25.38000     -1.1500517E-08
   25.44000     -1.0157284E-08
   25.50000     -8.7161842E-09
   25.56000     -7.2048900E-09
   25.62000     -5.6601448E-09
   25.68000     -4.1302064E-09
   25.74000     -2.6704434E-09
   25.80000     -1.3322790E-09
   25.86000     -1.4953327E-10
   25.92000      8.7173191E-10
   25.98000      1.7546510E-09
   26.04000      2.5426830E-09
   26.10000      3.2835130E-09
   26.16000      4.0122794E-09
   26.22000      4.7411728E-09
   26.28000      5.4596323E-09
   26.34000      6.1444472E-09
   26.40000      6.7744597E-09
   26.46000      7.3424284E-09
   26.52000      7.8580937E-09
   26.58000      8.3408747E-09
   26.64000      8.8058094E-09
   26.70000      9.2498071E-09
   26.76000      9.6452855E-09
   26.82000      9.9448743E-09
   26.88000      1.0095642E-08
   26.94000      1.0056815E-08
   27.00000      9.8133759E-09
   27.06000      9.3798231E-09
   27.12000      8.7929433E-09
   27.18000      8.0973130E-09
   27.24000      7.3302604E-09
   27.30000      6.5128325E-09
   27.36000      5.6501288E-09
   27.42000      4.7398836E-09
   27.48000      3.7843702E-09
   27.54000      2.7993963E-09
   27.60000      1.8156721E-09
   27.66000      8.7142837E-10
   27.72000     -8.3439999E-13
   27.78000     -7.8793416E-10
   27.84000     -1.5040788E-09
   27.90000     -2.1896482E-09
   27.96000     -2.9004694E-09
   28.02000     -3.6909737E-09
   28.08000     -4.5969855E-09
   28.14000     -5.6241340E-09
   28.20000     -6.7459589E-09
   28.26000     -7.9123676E-09
   28.32000     -9.0653955E-09
   28.38000     -1.0156594E-08
   28.44000     -1.1159774E-08
   28.50000     -1.2074607E-08
   28.56000     -1.2920132E-08
   28.62000     -1.3721164E-08
   28.68000     -1.4493404E-08
   28.74000     -1.5233461E-08
   28.80000     -1.5917884E-08
   28.86000     -1.6511448E-08
   28.92000     -1.6980939E-08
   28.98000     -1.7308480E-08
   29.04000     -1.7498516E-08
   29.10000     -1.7575552E-08
   29.16000     -1.7573559E-08
   29.22000     -1.7521712E-08
   29.28000     -1.7432496E-08
   29.34000     -1.7297179E-08
   29.40000     -1.7090271E-08
   29.46000     -1.6780637E-08
   29.52000     -1.6343989E-08
   29.58000     -1.5771105E-08
   29.64000     -1.5068277E-08
   29.70000     -1.4250376E-08
   29.76000     -1.3330492E-08
   29.82000     -1.2311808E-08
   29.88000     -1.1186049E-08
   29.94000     -9.9394875E-09
   30.00000     -8.5633696E-09
   30.06000     -7.0633619E-09
   30.12000     -5.4629181E-09
   30.18000     -3.7986343E-09
   30.24000     -2.1097237E-09
   30.30000     -4.2671952E-10
   30.36000      1.2351905E-09
   30.42000      2.8752856E-09
   30.48000      4.4998605E-09
   30.54000      6.1123924E-09
   30.60000      7.7064435E-09
   30.66000      9.2646895E-09
   30.72000      1.0764113E-08
   30.78000      1.2184218E-08
   30.84000      1.3513669E-08
   30.90000      1.4751776E-08
   30.96000      1.5903959E-08
   31.02000      1.6973535E-08
   31.08000      1.7954228E-08
   31.14000      1.8827729E-08
   31.20000      1.9568517E-08
   31.26000      2.0154680E-08
   31.32000      2.0580266E-08
   31.38000      2.0863350E-08
   31.44000      2.1045047E-08
   31.50000      2.1178391E-08
   31.56000      2.1310584E-08
   31.62000      2.1465720E-08
   31.68000      2.1635795E-08
   31.74000      2.1784714E-08
   31.80000      2.1864397E-08
   31.86000      2.1836215E-08
   31.92000      2.1687947E-08
   31.98000      2.1437884E-08
   32.04000      2.1123533E-08
   32.10000      2.0779803E-08
   32.16000      2.0417078E-08
   32.22000      2.0010331E-08
   32.28000      1.9505531E-08
   32.34000      1.8841499E-08
   32.40000      1.7977522E-08
   32.46000      1.6913685E-08
   32.52000      1.5693702E-08
   32.58000      1.4387855E-08
   32.64000      1.3063024E-08
   32.70000      1.1753136E-08
   32.76000      1.0443596E-08
   32.82000      9.0771648E-09
   32.88000      7.5791169E-09
   32.94000      5.8906822E-09
   33.00000      3.9960697E-09
   33.06000      1.9313653E-09
   33.12000     -2.2807922E-10
   33.18000     -2.3954783E-09
   33.24000     -4.5028732E-09
   33.30000     -6.5206613E-09
   33.36000     -8.4588461E-09
   33.42000     -1.0351227E-08
   33.48000     -1.2231300E-08
   33.54000     -1.4111571E-08
   33.60000     -1.5975189E-08
   33.66000     -1.7782156E-08
   33.72000     -1.9485404E-08
   33.78000     -2.1047903E-08
   33.84000     -2.2452742E-08
   33.90000     -2.3702491E-08
   33.96000     -2.4810019E-08
   34.02000     -2.5786871E-08
   34.08000     -2.6635925E-08
   34.14000     -2.7352046E-08
   34.20000     -2.7929813E-08
   34.26000     -2.8373469E-08
   34.32000     -2.8703047E-08
   34.38000     -2.8952559E-08
   34.44000     -2.9160384E-08
   34.50000     -2.9356123E-08
   34.56000     -2.9550387E-08
   34.62000     -2.9732982E-08
   34.68000     -2.9881079E-08
   34.74000     -2.9974125E-08
   34.80000     -3.0008753E-08
   34.86000     -3.0006319E-08
   34.92000     -3.0008856E-08
   34.98000     -3.0064317E-08
   35.04000     -3.0206952E-08
   35.10000     -3.0441374E-08
   35.16000     -3.0737514E-08
   35.22000     -3.1039399E-08
   35.28000     -3.1284777E-08
   35.34000     -3.1428034E-08
   35.40000     -3.1457162E-08
   35.46000     -3.1397864E-08
   35.52000     -3.1302786E-08
   35.58000     -3.1230005E-08
   35.64000     -3.1219077E-08
   35.70000     -3.1274318E-08
   35.76000     -3.1362102E-08
   35.82000     -3.1423475E-08
   35.88000     -3.1397164E-08
   35.94000     -3.1243530E-08
   36.00000     -3.0959558E-08
   36.06000     -3.0578619E-08
   36.12000     -3.0155164E-08
   36.18000     -2.9741235E-08
   36.24000     -2.9365236E-08
   36.30000     -2.9022397E-08
   36.36000     -2.8680942E-08
   36.42000     -2.8300605E-08
   36.48000     -2.7854332E-08
   36.54000     -2.7342491E-08
   36.60000     -2.6792684E-08
   36.66000     -2.6245322E-08
   36.72000     -2.5732135E-08
   36.78000     -2.5258322E-08
   36.84000     -2.4797224E-08
   36.90000     -2.4300217E-08
   36.96000     -2.3716954E-08
   37.02000     -2.3016124E-08
   37.08000     -2.2196721E-08
   37.14000     -2.1284681E-08
   37.20000     -2.0316985E-08
   37.26000     -1.9321403E-08
   37.32000     -1.8301840E-08
   37.38000     -1.7236143E-08
   37.44000     -1.6086885E-08
   37.50000     -1.4819344E-08
   37.56000     -1.3417806E-08
   37.62000     -1.1892709E-08
   37.68000     -1.0276091E-08
   37.74000     -8.6085050E-09
   37.80000     -6.9243264E-09
   37.86000     -5.2424176E-09
   37.92000     -3.5657672E-09
   37.98000     -1.8890867E-09
   38.04000     -2.0960225E-10
   38.10000      1.4647167E-09
   38.16000      3.1134550E-09
   38.22000      4.7090722E-09
   38.28000      6.2264389E-09
   38.34000      7.6520994E-09
   38.40000      8.9891987E-09
   38.46000      1.0256064E-08
   38.52000      1.1479016E-08
   38.58000      1.2682091E-08
   38.64000      1.3877236E-08
   38.70000      1.5058225E-08
   38.76000      1.6200268E-08
   38.82000      1.7265434E-08
   38.88000      1.8212145E-08
   38.94000      1.9005610E-08
   39.00000      1.9625457E-08
   39.06000      2.0067665E-08
   39.12000      2.0339860E-08
   39.18000      2.0451846E-08
   39.24000      2.0405610E-08
   39.30000      2.0189750E-08
   39.36000      1.9781806E-08
   39.42000      1.9158296E-08
   39.48000      1.8308405E-08
   39.54000      1.7244679E-08
   39.60000      1.6004812E-08
   39.66000      1.4642405E-08
   39.72000      1.3209972E-08
   39.78000      1.1741695E-08
   39.84000      1.0244150E-08
   39.90000      8.6997591E-09
   39.96000      7.0815607E-09
   40.02000      5.3721361E-09
   40.08000      3.5772136E-09
   40.14000      1.7269670E-09
   40.20000     -1.3580836E-10
   40.26000     -1.9747151E-09
   40.32000     -3.7762935E-09
   40.38000     -5.5555858E-09
   40.44000     -7.3477797E-09
   40.50000     -9.1900763E-09
   40.56000     -1.1102855E-08
   40.62000     -1.3079502E-08
   40.68000     -1.5089867E-08
   40.74000     -1.7095390E-08
   40.80000     -1.9068192E-08
   40.86000     -2.1004489E-08
   40.92000     -2.2925461E-08
   40.98000     -2.4864852E-08
   41.04000     -2.6848712E-08
   41.10000     -2.8876395E-08
   41.16000     -3.0911167E-08
   41.22000     -3.2884518E-08
   41.28000     -3.4712279E-08
   41.34000     -3.6315999E-08
   41.40000     -3.7641321E-08
   41.46000     -3.8666972E-08
   41.52000     -3.9402469E-08
   41.58000     -3.9877133E-08
   41.64000     -4.0126128E-08
   41.70000     -4.0179579E-08
   41.76000     -4.0058467E-08
   41.82000     -3.9777621E-08
   41.88000     -3.9352919E-08
   41.94000     -3.8808452E-08
   42.00000     -3.8180147E-08
   42.06000     -3.7514415E-08
   42.12000     -3.6862957E-08
   42.18000     -3.6276365E-08
   42.24000     -3.5799282E-08
   42.30000     -3.5468574E-08
   42.36000     -3.5314109E-08
   42.42000     -3.5360404E-08
   42.48000     -3.5627007E-08
   42.54000     -3.6126405E-08
   42.60000     -3.6859770E-08
   42.66000     -3.7812438E-08
   42.72000     -3.8951566E-08
   42.78000     -4.0228034E-08
   42.84000     -4.1582947E-08
   42.90000     -4.2957215E-08
   42.96000     -4.4300993E-08
   43.02000     -4.5579547E-08
   43.08000     -4.6773149E-08
   43.14000     -4.7870934E-08
   43.20000     -4.8861324E-08
   43.26000     -4.9723244E-08
   43.32000     -5.0422205E-08
   43.38000     -5.0913464E-08
   43.44000     -5.1151137E-08
   43.50000     -5.1099491E-08
   43.56000     -5.0741363E-08
   43.62000     -5.0080001E-08
   43.68000     -4.9133657E-08
   43.74000     -4.7925692E-08
   43.80000     -4.6474977E-08
   43.86000     -4.4791186E-08
   43.92000     -4.2876827E-08
   43.98000     -4.0734665E-08
   44.04000     -3.8376410E-08
   44.10000     -3.5828240E-08
   44.16000     -3.3130565E-08
   44.22000     -3.0332366E-08
   44.28000     -2.7483184E-08
   44.34000     -2.4626434E-08
   44.40000     -2.1796815E-08
   44.46000     -1.9021924E-08
   44.52000     -1.6326041E-08
   44.58000     -1.3732984E-08
   44.64000     -1.1265719E-08
   44.70000     -8.9423189E-09
   44.76000     -6.7698949E-09
   44.82000     -4.7391548E-09
   44.88000     -2.8218918E-09
   44.94000     -9.7218933E-10
   45.00000      8.6967344E-10
   45.06000      2.7728104E-09
   45.12000      4.8130460E-09
   45.18000      7.0731372E-09
   45.24000      9.6455031E-09
   45.30000      1.2635796E-08
   45.36000      1.6165261E-08
   45.42000      2.0370583E-08
   45.48000      2.5401343E-08
   45.54000      3.1416842E-08
   45.60000      3.8585025E-08
   45.66000      4.7086036E-08
   45.72000      5.7121785E-08
   45.78000      6.8930930E-08
   45.84000      8.2806856E-08
   45.90000      9.9115603E-08
   45.96000      1.1831069E-07
   46.02000      1.4094408E-07
   46.08000      1.6767464E-07
   46.14000      1.9927690E-07
   46.20000      2.3665410E-07
   46.26000      2.8085756E-07
   46.32000      3.3311247E-07
   46.38000      3.9484809E-07
   46.44000      4.6772877E-07
   46.50000      5.5368349E-07
   46.56000      6.5493390E-07
   46.62000      7.7402268E-07
   46.68000      9.1384737E-07
   46.74000      1.0777024E-06
   46.80000      1.2693322E-06
   46.86000      1.4929918E-06
   46.92000      1.7535160E-06
   46.98000      2.0563875E-06
   47.04000      2.4078086E-06
   47.10000      2.8147699E-06
   47.16000      3.2851267E-06
   47.22000      3.8276744E-06
   47.28000      4.4522358E-06
   47.34000      5.1697552E-06
   47.40000      5.9923950E-06
   47.46000      6.9336402E-06
   47.52000      8.0084019E-06
   47.58000      9.2331256E-06
   47.64000      1.0625900E-05
   47.70000      1.2206573E-05
   47.76000      1.3996862E-05
   47.82000      1.6020471E-05
   47.88000      1.8303192E-05
   47.94000      2.0873011E-05
   48.00000      2.3760191E-05
   48.06000      2.6997343E-05
   48.12000      3.0619500E-05
   48.18000      3.4664175E-05
   48.24000      3.9171417E-05
   48.30000      4.4183842E-05
   48.36000      4.9746657E-05
   48.42000      5.5907658E-05
   48.48000      6.2717161E-05
   48.54000      7.0227958E-05
   48.60000      7.8495177E-05
   48.66000      8.7576147E-05
   48.72000      9.7530246E-05
   48.78000      1.0841869E-04
   48.84000      1.2030426E-04
   48.90000      1.3325109E-04
   48.96000      1.4732432E-04
   49.02000      1.6258971E-04
   49.08000      1.7911327E-04
   49.14000      1.9696073E-04
   49.20000      2.1619708E-04
   49.26000      2.3688607E-04
   49.32000      2.5908957E-04
   49.38000      2.8286705E-04
   49.44000      3.0827487E-04
   49.50000      3.3536565E-04
   49.56000      3.6418761E-04
   49.62000      3.9478386E-04
   49.68000      4.2719161E-04
   49.74000      4.6144161E-04
   49.80000      4.9755746E-04
   49.86000      5.3555489E-04
   49.92000      5.7544123E-04
   49.98000      6.1721465E-04
   50.04000      6.6086382E-04
   50.10000      7.0636696E-04
   50.16000      7.5369200E-04
   50.22000      8.0279569E-04
   50.28000      8.5362379E-04
   50.34000      9.0611062E-04
   50.40000      9.6017920E-04
   50.46000      1.0157409E-03
   50.52000      1.0726959E-03
   50.58000      1.1309338E-03
   50.64000      1.1903332E-03
   50.70000      1.2507630E-03
   50.76000      1.3120824E-03
   50.82000      1.3741426E-03
   50.88000      1.4367865E-03
   50.94000      1.4998509E-03
   51.00000      1.5631666E-03
   51.06000      1.6265605E-03
   51.12000      1.6898558E-03
   51.18000      1.7528752E-03
   51.24000      1.8154406E-03
   51.30000      1.8773756E-03
   51.36000      1.9385070E-03
   51.42000      1.9986662E-03
   51.48000      2.0576899E-03
   51.54000      2.1154231E-03
   51.60000      2.1717197E-03
   51.66000      2.2264440E-03
   51.72000      2.2794721E-03
   51.78000      2.3306936E-03
   51.84000      2.3800125E-03
   51.90000      2.4273484E-03
   51.96000      2.4726363E-03
   52.02000      2.5158280E-03
   52.08000      2.5568923E-03
   52.14000      2.5958160E-03
   52.20000      2.6326028E-03
   52.26000      2.6672746E-03
   52.32000      2.6998704E-03
   52.38000      2.7304457E-03
   52.44000      2.7590718E-03
   52.50000      2.7858343E-03
   52.56000      2.8108328E-03
   52.62000      2.8341797E-03
   52.68000      2.8559980E-03
   52.74000      2.8764212E-03
   52.80000      2.8955890E-03
   52.86000      2.9136478E-03
   52.92000      2.9307476E-03
   52.98000      2.9470401E-03
   53.04000      2.9626766E-03
   53.10000      2.9778064E-03
   53.16000      2.9925758E-03
   53.22000      3.0071242E-03
   53.28000      3.0215839E-03
   53.34000      3.0360769E-03
   53.40000      3.0507147E-03
   53.46000      3.0655952E-03
   53.52000      3.0808020E-03
   53.58000      3.0964056E-03
   53.64000      3.1124591E-03
   53.70000      3.1289989E-03
   53.76000      3.1460458E-03
   53.82000      3.1636024E-03
   53.88000      3.1816533E-03
   53.94000      3.2001669E-03
   54.00000      3.2190948E-03
   54.06000      3.2383727E-03
   54.12000      3.2579221E-03
   54.18000      3.2776501E-03
   54.24000      3.2974510E-03
   54.30000      3.3172087E-03
   54.36000      3.3367982E-03
   54.42000      3.3560863E-03
   54.48000      3.3749347E-03
   54.54000      3.3932012E-03
   54.60000      3.4107408E-03
   54.66000      3.4274107E-03
   54.72000      3.4430686E-03
   54.78000      3.4575774E-03
   54.84000      3.4708052E-03
   54.90000      3.4826288E-03
   54.96000      3.4929342E-03
   55.02000      3.5016185E-03
   55.08000      3.5085913E-03
   55.14000      3.5137758E-03
   55.20000      3.5171099E-03
   55.26000      3.5185462E-03
   55.32000      3.5180547E-03
   55.38000      3.5156209E-03
   55.44000      3.5112470E-03
   55.50000      3.5049515E-03
   55.56000      3.4967691E-03