  -2.400000      0.0000000E+00
  -2.340000      0.0000000E+00
  -2.280000      0.0000000E+00
  -2.220000      0.0000000E+00
  -2.160000      0.0000000E+00
  -2.100000     -5.2191129E-20
  -2.040000     -3.2033226E-19
  -1.980000     -8.3560581E-19
  -1.920000     -7.3099455E-19
  -1.860000      2.3506136E-18
  -1.800000      1.0919654E-17
  -1.740000      2.3194247E-17
  -1.680000      2.7634534E-17
  -1.620000      2.6999994E-18
  -1.560000     -7.1387507E-17
  -1.500000     -1.8881869E-16
  -1.440000     -2.9453829E-16
  -1.380000     -2.8264836E-16
  -1.320000     -3.5843499E-17
  -1.260000      4.9458534E-16
  -1.200000      1.1976172E-15
  -1.140000      1.7530615E-15
  -1.080000      1.6796781E-15
  -1.020000      5.1243757E-16
 -0.9600000     -1.9094687E-15
 -0.9000000     -5.1305569E-15
 -0.8400000     -7.9012351E-15
 -0.7800000     -8.3345653E-15
 -0.7200000     -4.5532963E-15
 -0.6600000      4.2071754E-15
 -0.6000000      1.6408319E-14
 -0.5400000      2.7644763E-14
 -0.4800000      3.1509754E-14
 -0.4200000      2.2241638E-14
 -0.3600000     -1.5323474E-15
 -0.3000000     -3.3850615E-14
 -0.2400000     -6.1717775E-14
 -0.1800000     -7.0146220E-14
 -0.1200000     -5.0815367E-14
 -5.9999999E-02 -1.0002496E-14
  0.0000000E+00  3.0259537E-14
  5.9999999E-02  4.1920948E-14
  0.1200000      9.7135866E-15
  0.1800000     -5.0400564E-14
  0.2400000     -8.6926736E-14
  0.3000000     -3.2970788E-14
  0.3600000      1.5140187E-13
  0.4200000      4.3343251E-13
  0.4800000      6.8836712E-13
  0.5400000      7.3180009E-13
  0.6000000      4.0563993E-13
  0.6600000     -3.1393302E-13
  0.7200000     -1.2440379E-12
  0.7800000     -2.0146933E-12
  0.8400000     -2.2008552E-12
  0.9000000     -1.5276057E-12
  0.9600000     -5.5406807E-14
   1.020000      1.7616928E-12
   1.080000      3.2077047E-12
   1.140000      3.5983718E-12
   1.200000      2.6142456E-12
   1.260000      5.0535986E-13
   1.320000     -1.9602078E-12
   1.380000     -3.8130770E-12
   1.440000     -4.3302237E-12
   1.500000     -3.3876198E-12
   1.560000     -1.5127899E-12
   1.620000      4.2798390E-13
   1.680000      1.7739518E-12
   1.740000      2.5555627E-12
   1.800000      3.6120672E-12
   1.860000      6.1822886E-12
   1.920000      1.1076064E-11
   1.980000      1.7791954E-11
   2.040000      2.4059917E-11
   2.100000      2.6176561E-11
   2.160000      2.0189442E-11
   2.220000      3.6016795E-12
   2.280000     -2.3017853E-11
   2.340000     -5.5181502E-11
   2.400000     -8.4824509E-11
   2.460000     -1.0187087E-10
   2.520000     -9.6636560E-11
   2.580000     -6.2437312E-11
   2.640000      2.2169079E-12
   2.700000      9.2216436E-11
   2.760000      1.9529033E-10
   2.820000      2.9212063E-10
   2.880000      3.5695469E-10
   2.940000      3.5872263E-10
   3.000000      2.6291200E-10
   3.060000      3.4558034E-11
   3.120000     -3.5746781E-10
   3.180000     -9.3514196E-10
   3.240000     -1.7057956E-09
   3.300000     -2.6577385E-09
   3.360000     -3.7583603E-09
   3.420000     -4.9556519E-09
   3.480000     -6.1832797E-09
   3.540000     -7.3684032E-09
   3.600000     -8.4406606E-09
   3.660000     -9.3404795E-09
   3.720000     -1.0025129E-08
   3.780000     -1.0471667E-08
   3.840000     -1.0676874E-08
   3.900000     -1.0655063E-08
   3.960000     -1.0435037E-08
   4.020000     -1.0057382E-08
   4.080000     -9.5726707E-09
   4.140000     -9.0403534E-09
   4.200000     -8.5273975E-09
   4.260000     -8.1054479E-09
   4.320000     -7.8455100E-09
   4.380000     -7.8100584E-09
   4.440000     -8.0435560E-09
   4.500000     -8.5634273E-09
   4.560000     -9.3539958E-09
   4.620000     -1.0365552E-08
   4.680000     -1.1519608E-08
   4.740000     -1.2719808E-08
   4.800000     -1.3866447E-08
   4.860000     -1.4871619E-08
   4.920000     -1.5671974E-08
   4.980000     -1.6236777E-08
   5.040000     -1.6570201E-08
   5.100000     -1.6708061E-08
   5.160000     -1.6710020E-08
   5.220000     -1.6648809E-08
   5.280000     -1.6598014E-08
   5.340000     -1.6619971E-08
   5.400000     -1.6755328E-08
   5.460000     -1.7015841E-08
   5.520000     -1.7381954E-08
   5.580000     -1.7806116E-08
   5.640000     -1.8221854E-08
   5.700000     -1.8557254E-08
   5.760000     -1.8750098E-08
   5.820000     -1.8761236E-08
   5.880000     -1.8582796E-08
   5.940000     -1.8239117E-08
   6.000000     -1.7780156E-08
   6.060000     -1.7269221E-08
   6.120000     -1.6768446E-08
   6.180000     -1.6325945E-08
   6.240000     -1.5967951E-08
   6.300000     -1.5697569E-08
   6.360000     -1.5499694E-08
   6.420000     -1.5349739E-08
   6.480000     -1.5222822E-08
   6.540000     -1.5100159E-08
   6.600000     -1.4970672E-08
   6.660000     -1.4827778E-08
   6.720000     -1.4663212E-08
   6.780000     -1.4460871E-08
   6.840000     -1.4193669E-08
   6.900000     -1.3825116E-08
   6.960000     -1.3315468E-08
   7.020000     -1.2630551E-08
   7.080000     -1.1750435E-08
   7.140000     -1.0675348E-08
   7.200000     -9.4273371E-09
   7.260000     -8.0476212E-09
   7.320000     -6.5906187E-09
   7.380000     -5.1161457E-09
   7.440000     -3.6811041E-09
   7.500000     -2.3317317E-09
   7.560000     -1.0973344E-09
   7.620000      1.3494070E-11
   7.680000      1.0130718E-09
   7.740000      1.9305098E-09
   7.800000      2.8034555E-09
   7.860000      3.6672689E-09
   7.920000      4.5444226E-09
   7.980000      5.4374305E-09
   8.040000      6.3279133E-09
   8.100000      7.1826300E-09
   8.160000      7.9650091E-09
   8.220000      8.6487209E-09
   8.280000      9.2290104E-09
   8.340000      9.7280983E-09
   8.400000      1.0192889E-08
   8.460000      1.0685650E-08
   8.520000      1.1270422E-08
   8.580000      1.1999004E-08
   8.640000      1.2900125E-08
   8.700000      1.3974169E-08
   8.760000      1.5194258E-08
   8.820000      1.6512919E-08
   8.880000      1.7872612E-08
   8.940000      1.9217779E-08
   9.000000      2.0505791E-08
   9.060000      2.1714264E-08
   9.120000      2.2842794E-08
   9.180000      2.3908369E-08
   9.240000      2.4935606E-08
   9.300000      2.5944830E-08
   9.360000      2.6942061E-08
   9.420000      2.7914599E-08
   9.480000      2.8833869E-08
   9.540000      2.9664404E-08
   9.600000      3.0375457E-08
   9.660000      3.0950876E-08
   9.720000      3.1393835E-08
   9.780000      3.1725438E-08
   9.840000      3.1978388E-08
   9.900000      3.2188574E-08
   9.960000      3.2387316E-08
   10.02000      3.2596006E-08
   10.08000      3.2823738E-08
   10.14000      3.3067561E-08
   10.20000      3.3314834E-08
   10.26000      3.3547213E-08
   10.32000      3.3745589E-08
   10.38000      3.3894967E-08
   10.44000      3.3987870E-08
   10.50000      3.4025007E-08
   10.56000      3.4012825E-08
   10.62000      3.3959029E-08
   10.68000      3.3868222E-08
   10.74000      3.3739990E-08
   10.80000      3.3570604E-08
   10.86000      3.3357534E-08
   10.92000      3.3104364E-08
   10.98000      3.2823245E-08
   11.04000      3.2533240E-08
   11.10000      3.2254981E-08
   11.16000      3.2004053E-08
   11.22000      3.1786069E-08
   11.28000      3.1595484E-08
   11.34000      3.1418164E-08
   11.40000      3.1235967E-08
   11.46000      3.1031071E-08
   11.52000      3.0788513E-08
   11.58000      3.0496896E-08
   11.64000      3.0148342E-08
   11.70000      2.9738700E-08
   11.76000      2.9268211E-08
   11.82000      2.8741798E-08
   11.88000      2.8168033E-08
   11.94000      2.7556549E-08
   12.00000      2.6914945E-08
   12.06000      2.6246768E-08
   12.12000      2.5551582E-08
   12.18000      2.4826848E-08
   12.24000      2.4070026E-08
   12.30000      2.3279208E-08
   12.36000      2.2451852E-08
   12.42000      2.1582723E-08
   12.48000      2.0663052E-08
   12.54000      1.9682297E-08
   12.60000      1.8632075E-08
   12.66000      1.7510089E-08
   12.72000      1.6321525E-08
   12.78000      1.5076711E-08
   12.84000      1.3786048E-08
   12.90000      1.2454829E-08
   12.96000      1.1080585E-08
   13.02000      9.6539354E-09
   13.08000      8.1619005E-09
   13.14000      6.5915540E-09
   13.20000      4.9323581E-09
   13.26000      3.1770957E-09
   13.32000      1.3225845E-09
   13.38000     -6.2865591E-10
   13.44000     -2.6659805E-09
   13.50000     -4.7692259E-09
   13.56000     -6.9106028E-09
   13.62000     -9.0607886E-09
   13.68000     -1.1197597E-08
   13.74000     -1.3313482E-08
   13.80000     -1.5417958E-08
   13.86000     -1.7533143E-08
   13.92000     -1.9684139E-08
   13.98000     -2.1888688E-08
   14.04000     -2.4150973E-08
   14.10000     -2.6462072E-08
   14.16000     -2.8805887E-08
   14.22000     -3.1166458E-08
   14.28000     -3.3532146E-08
   14.34000     -3.5894590E-08
   14.40000     -3.8244053E-08
   14.46000     -4.0565311E-08
   14.52000     -4.2838206E-08
   14.58000     -4.5043699E-08
   14.64000     -4.7172463E-08
   14.70000     -4.9230543E-08
   14.76000     -5.1237528E-08
   14.82000     -5.3216827E-08
   14.88000     -5.5182330E-08
   14.94000     -5.7128272E-08
   15.00000     -5.9027816E-08
   15.06000     -6.0841032E-08
   15.12000     -6.2527938E-08
   15.18000     -6.4059520E-08
   15.24000     -6.5421425E-08
   15.30000     -6.6609637E-08
   15.36000     -6.7622615E-08
   15.42000     -6.8455854E-08
   15.48000     -6.9103095E-08
   15.54000     -6.9562937E-08
   15.60000     -6.9845996E-08
   15.66000     -6.9976387E-08
   15.72000     -6.9985084E-08
   15.78000     -6.9897887E-08
   15.84000     -6.9724663E-08
   15.90000     -6.9456519E-08
   15.96000     -6.9073188E-08
   16.02000     -6.8557100E-08
   16.08000     -6.7906370E-08
   16.14000     -6.7139347E-08
   16.20000     -6.6288067E-08
   16.26000     -6.5383901E-08
   16.32000     -6.4443164E-08
   16.38000     -6.3460149E-08
   16.44000     -6.2410763E-08
   16.50000     -6.1264231E-08
   16.56000     -5.9996125E-08
   16.62000     -5.8596271E-08
   16.68000     -5.7068831E-08
   16.74000     -5.5426593E-08
   16.80000     -5.3684740E-08
   16.86000     -5.1858315E-08
   16.92000     -4.9964100E-08
   16.98000     -4.8023555E-08
   17.04000     -4.6062159E-08
   17.10000     -4.4103004E-08
   17.16000     -4.2156966E-08
   17.22000     -4.0215578E-08
   17.28000     -3.8252519E-08
   17.34000     -3.6235384E-08
   17.40000     -3.4143245E-08
   17.46000     -3.1981362E-08
   17.52000     -2.9785015E-08
   17.58000     -2.7609923E-08
   17.64000     -2.5513717E-08
   17.70000     -2.3537782E-08
   17.76000     -2.1698112E-08
   17.82000     -1.9988596E-08
   17.88000     -1.8393111E-08
   17.94000     -1.6898646E-08
   18.00000     -1.5502165E-08
   18.06000     -1.4208758E-08
   18.12000     -1.3024169E-08
   18.18000     -1.1947797E-08
   18.24000     -1.0970849E-08
   18.30000     -1.0080017E-08
   18.36000     -9.2628758E-09
   18.42000     -8.5100256E-09
   18.48000     -7.8115594E-09
   18.54000     -7.1499033E-09
   18.60000     -6.4943331E-09
   18.66000     -5.8023568E-09
   18.72000     -5.0295812E-09
   18.78000     -4.1447548E-09
   18.84000     -3.1434340E-09
   18.90000     -2.0539288E-09
   18.96000     -9.3277630E-10
   19.02000      1.4820174E-10
   19.08000      1.1177472E-09
   19.14000      1.9179514E-09
   19.20000      2.5104618E-09
   19.26000      2.8762472E-09
   19.32000      3.0118763E-09
   19.38000      2.9258629E-09
   19.44000      2.6371128E-09
   19.50000      2.1750859E-09
   19.56000      1.5795429E-09
   19.62000      8.9768576E-10
   19.68000      1.7802654E-10
   19.74000     -5.3755611E-10
   19.80000     -1.2207025E-09
   19.86000     -1.8596136E-09
   19.92000     -2.4569895E-09
   19.98000     -3.0237319E-09
   20.04000     -3.5708598E-09
   20.10000     -4.1024548E-09
   20.16000     -4.6116133E-09
   20.22000     -5.0799605E-09
   20.28000     -5.4801266E-09
   20.34000     -5.7801324E-09
   20.40000     -5.9487815E-09
   20.46000     -5.9614433E-09
   20.52000     -5.8056302E-09
   20.58000     -5.4854303E-09
   20.64000     -5.0236251E-09
   20.70000     -4.4605750E-09
   20.76000     -3.8498009E-09
   20.82000     -3.2512923E-09
   20.88000     -2.7242200E-09
   20.94000     -2.3205953E-09
   21.00000     -2.0805853E-09
   21.06000     -2.0293405E-09
   21.12000     -2.1749400E-09
   21.18000     -2.5075144E-09
   21.24000     -3.0002922E-09
   21.30000     -3.6133831E-09
   21.36000     -4.3001958E-09
   21.42000     -5.0148987E-09
   21.48000     -5.7183231E-09
   21.54000     -6.3801289E-09
   21.60000     -6.9769839E-09
   21.66000     -7.4888753E-09
   21.72000     -7.8968911E-09
   21.78000     -8.1848848E-09
   21.84000     -8.3446734E-09
   21.90000     -8.3815186E-09
   21.96000     -8.3156415E-09
   22.02000     -8.1772589E-09
   22.08000     -7.9964195E-09
   22.14000     -7.7923801E-09
   22.20000     -7.5681905E-09
   22.26000     -7.3137207E-09
   22.32000     -7.0157800E-09
   22.38000     -6.6699610E-09
   22.44000     -6.2877432E-09
   22.50000     -5.8949876E-09
   22.56000     -5.5227249E-09
   22.62000     -5.1953091E-09
   22.68000     -4.9222497E-09
   22.74000     -4.6976556E-09
   22.80000     -4.5068176E-09
   22.86000     -4.3355892E-09
   22.92000     -4.1771431E-09
   22.98000     -4.0327759E-09
   23.04000     -3.9073096E-09
   23.10000     -3.8028021E-09
   23.16000     -3.7148886E-09
   23.22000     -3.6338650E-09
   23.28000     -3.5491428E-09
   23.34000     -3.4532976E-09
   23.40000     -3.3422485E-09
   23.46000     -3.2110212E-09
   23.52000     -3.0482008E-09
   23.58000     -2.8339893E-09
   23.64000     -2.5452549E-09
   23.70000     -2.1666127E-09
   23.76000     -1.7020219E-09
   23.82000     -1.1796308E-09
   23.88000     -6.4525718E-10
   23.94000     -1.4585889E-10
   24.00000      2.8971917E-10
   24.06000      6.6321815E-10
   24.12000      1.0062509E-09
   24.18000      1.3668477E-09
   24.24000      1.7903050E-09
   24.30000      2.3037772E-09
   24.36000      2.9109315E-09
   24.42000      3.5964922E-09
   24.48000      4.3349360E-09
   24.54000      5.0965006E-09
   24.60000      5.8474652E-09
   24.66000      6.5473476E-09
   24.72000      7.1489703E-09
   24.78000      7.6056885E-09
   24.84000      7.8845082E-09
   24.90000      7.9783131E-09
   24.96000      7.9091436E-09
   25.02000      7.7187892E-09
   25.08000      7.4502959E-09
   25.14000      7.1296764E-09
   25.20000      6.7571992E-09
   25.26000      6.3121206E-09
   25.32000      5.7669318E-09
   25.38000      5.1022098E-09
   25.44000      4.3138288E-09
   25.50000      3.4098151E-09
   25.56000      2.4006652E-09
   25.62000      1.2901700E-09
   25.68000      7.2114328E-11
   25.74000     -1.2666309E-09
   25.80000     -2.7404004E-09
   25.86000     -4.3609445E-09
   25.92000     -6.1372543E-09
   25.98000     -8.0768139E-09
   26.04000     -1.0184489E-08
   26.10000     -1.2457304E-08
   26.16000     -1.4877659E-08
   26.22000     -1.7410654E-08
   26.28000     -2.0010450E-08
   26.34000     -2.2635724E-08
   26.40000     -2.5268228E-08
   26.46000     -2.7924962E-08
   26.52000     -3.0656430E-08
   26.58000     -3.3529798E-08
   26.64000     -3.6603456E-08
   26.70000     -3.9903924E-08
   26.76000     -4.3414701E-08
   26.82000     -4.7080803E-08
   26.88000     -5.0825047E-08
   26.94000     -5.4567931E-08
   27.00000     -5.8242957E-08
   27.06000     -6.1804030E-08
   27.12000     -6.5226502E-08
   27.18000     -6.8506033E-08
   27.24000     -7.1658043E-08
   27.30000     -7.4716716E-08
   27.36000     -7.7729794E-08
   27.42000     -8.0746069E-08
   27.48000     -8.3797175E-08
   27.54000     -8.6880625E-08
   27.60000     -8.9952984E-08
   27.66000     -9.2938954E-08
   27.72000     -9.5754388E-08
   27.78000     -9.8333381E-08
   27.84000     -1.0064657E-07
   27.90000     -1.0270180E-07
   27.96000     -1.0452751E-07
   28.02000     -1.0614832E-07
   28.08000     -1.0756629E-07
   28.14000     -1.0875717E-07
   28.20000     -1.0968240E-07
   28.26000     -1.1030851E-07
   28.32000     -1.1062252E-07
   28.38000     -1.1063517E-07
   28.44000     -1.1037196E-07
   28.50000     -1.0985874E-07
   28.56000     -1.0911037E-07
   28.62000     -1.0812755E-07
   28.68000     -1.0690058E-07
   28.74000     -1.0541491E-07
   28.80000     -1.0365387E-07
   28.86000     -1.0159814E-07
   28.92000     -9.9226014E-08
   28.98000     -9.6519393E-08
   29.04000     -9.3476608E-08
   29.10000     -9.0127187E-08
   29.16000     -8.6539757E-08
   29.22000     -8.2815603E-08
   29.28000     -7.9066950E-08
   29.34000     -7.5387511E-08
   29.40000     -7.1827735E-08
   29.46000     -6.8386214E-08
   29.52000     -6.5021077E-08
   29.58000     -6.1675841E-08
   29.64000     -5.8307538E-08
   29.70000     -5.4904906E-08
   29.76000     -5.1490208E-08
   29.82000     -4.8106994E-08
   29.88000     -4.4802253E-08
   29.94000     -4.1612452E-08
   30.00000     -3.8558866E-08
   30.06000     -3.5651301E-08
   30.12000     -3.2895251E-08
   30.18000     -3.0297375E-08
   30.24000     -2.7867607E-08
   30.30000     -2.5619949E-08
   30.36000     -2.3575129E-08
   30.42000     -2.1765709E-08
   30.48000     -2.0240121E-08
   30.54000     -1.9059943E-08
   30.60000     -1.8286958E-08
   30.66000     -1.7962718E-08
   30.72000     -1.8089629E-08
   30.78000     -1.8624647E-08
   30.84000     -1.9491898E-08
   30.90000     -2.0611193E-08
   30.96000     -2.1930159E-08
   31.02000     -2.3444741E-08
   31.08000     -2.5197849E-08
   31.14000     -2.7256799E-08
   31.20000     -2.9680553E-08
   31.26000     -3.2491851E-08
   31.32000     -3.5665206E-08
   31.38000     -3.9132470E-08
   31.44000     -4.2799275E-08
   31.50000     -4.6562764E-08
   31.56000     -5.0324743E-08
   31.62000     -5.4000445E-08
   31.68000     -5.7526897E-08
   31.74000     -6.0872964E-08
   31.80000     -6.4047931E-08
   31.86000     -6.7101112E-08
   31.92000     -7.0106637E-08
   31.98000     -7.3135062E-08
   32.04000     -7.6222527E-08
   32.10000     -7.9352318E-08
   32.16000     -8.2459550E-08
   32.22000     -8.5457174E-08
   32.28000     -8.8270390E-08
   32.34000     -9.0860830E-08
   32.40000     -9.3228266E-08
   32.46000     -9.5390192E-08
   32.52000     -9.7352903E-08
   32.58000     -9.9091515E-08
   32.64000     -1.0055049E-07
   32.70000     -1.0166334E-07
   32.76000     -1.0237911E-07
   32.82000     -1.0268086E-07
   32.88000     -1.0258744E-07
   32.94000     -1.0214141E-07
   33.00000     -1.0139296E-07
   33.06000     -1.0038966E-07
   33.12000     -9.9174905E-08
   33.18000     -9.7789190E-08
   33.24000     -9.6266476E-08
   33.30000     -9.4622131E-08
   33.36000     -9.2838121E-08
   33.42000     -9.0857050E-08
   33.48000     -8.8594589E-08
   33.54000     -8.5969901E-08
   33.60000     -8.2941774E-08
   33.66000     -7.9532278E-08
   33.72000     -7.5824047E-08
   33.78000     -7.1930941E-08
   33.84000     -6.7955803E-08
   33.90000     -6.3956449E-08
   33.96000     -5.9936177E-08
   34.02000     -5.5861427E-08
   34.08000     -5.1695029E-08
   34.14000     -4.7426120E-08
   34.20000     -4.3082117E-08
   34.26000     -3.8719921E-08
   34.32000     -3.4405620E-08
   34.38000     -3.0196670E-08
   34.44000     -2.6136030E-08
   34.50000     -2.2257533E-08
   34.56000     -1.8593674E-08
   34.62000     -1.5176367E-08
   34.68000     -1.2028052E-08
   34.74000     -9.1499395E-09
   34.80000     -6.5184014E-09
   34.86000     -4.0963832E-09
   34.92000     -1.8561382E-09
   34.98000      2.0000948E-10
   35.04000      2.0355857E-09
   35.10000      3.5984562E-09
   35.16000      4.8534745E-09
   35.22000      5.8102581E-09
   35.28000      6.5276220E-09
   35.34000      7.0886688E-09
   35.40000      7.5579489E-09
   35.46000      7.9438740E-09
   35.52000      8.1880307E-09
   35.58000      8.1886657E-09
   35.64000      7.8466478E-09
   35.70000      7.1101263E-09
   35.76000      5.9957195E-09
   35.82000      4.5782622E-09
   35.88000      2.9586975E-09
   35.94000      1.2300477E-09
   36.00000     -5.4112981E-10
   36.06000     -2.3130751E-09
   36.12000     -4.0559476E-09
   36.18000     -5.7424629E-09
   36.24000     -7.3512370E-09
   36.30000     -8.8799190E-09
   36.36000     -1.0355548E-08
   36.42000     -1.1829552E-08
   36.48000     -1.3354884E-08
   36.54000     -1.4955971E-08
   36.60000     -1.6609411E-08
   36.66000     -1.8248951E-08
   36.72000     -1.9794415E-08
   36.78000     -2.1189498E-08
   36.84000     -2.2427093E-08
   36.90000     -2.3547496E-08
   36.96000     -2.4610380E-08
   37.02000     -2.5656652E-08
   37.08000     -2.6681823E-08
   37.14000     -2.7635156E-08
   37.20000     -2.8443523E-08
   37.26000     -2.9044935E-08
   37.32000     -2.9412485E-08
   37.38000     -2.9557025E-08
   37.44000     -2.9510568E-08
   37.50000     -2.9303703E-08
   37.56000     -2.8952099E-08
   37.62000     -2.8459331E-08
   37.68000     -2.7831382E-08
   37.74000     -2.7090593E-08
   37.80000     -2.6278062E-08
   37.86000     -2.5442404E-08
   37.92000     -2.4622777E-08
   37.98000     -2.3838370E-08
   38.04000     -2.3091969E-08
   38.10000     -2.2385375E-08
   38.16000     -2.1735932E-08
   38.22000     -2.1182281E-08
   38.28000     -2.0774591E-08
   38.34000     -2.0555026E-08
   38.40000     -2.0541041E-08
   38.46000     -2.0722581E-08
   38.52000     -2.1075220E-08
   38.58000     -2.1580838E-08
   38.64000     -2.2242389E-08
   38.70000     -2.3083070E-08
   38.76000     -2.4130209E-08
   38.82000     -2.5393961E-08
   38.88000     -2.6853995E-08
   38.94000     -2.8462228E-08
   39.00000     -3.0159576E-08
   39.06000     -3.1896459E-08
   39.12000     -3.3645325E-08
   39.18000     -3.5399324E-08
   39.24000     -3.7160039E-08
   39.30000     -3.8923361E-08
   39.36000     -4.0672195E-08
   39.42000     -4.2378879E-08
   39.48000     -4.4013209E-08
   39.54000     -4.5548688E-08
   39.60000     -4.6961937E-08
   39.66000     -4.8226159E-08
   39.72000     -4.9304727E-08
   39.78000     -5.0151804E-08
   39.84000     -5.0722569E-08
   39.90000     -5.0989005E-08
   39.96000     -5.0952721E-08
   40.02000     -5.0646740E-08
   40.08000     -5.0123685E-08
   40.14000     -4.9435133E-08
   40.20000     -4.8611781E-08
   40.26000     -4.7653810E-08
   40.32000     -4.6535515E-08
   40.38000     -4.5220951E-08
   40.44000     -4.3682096E-08
   40.50000     -4.1910717E-08
   40.56000     -3.9919627E-08
   40.62000     -3.7735354E-08
   40.68000     -3.5389103E-08
   40.74000     -3.2912677E-08
   40.80000     -3.0341802E-08
   40.86000     -2.7723276E-08
   40.92000     -2.5118748E-08
   40.98000     -2.2599453E-08
   41.04000     -2.0231733E-08
   41.10000     -1.8059769E-08
   41.16000     -1.6095006E-08
   41.22000     -1.4319014E-08
   41.28000     -1.2699351E-08
   41.34000     -1.1210674E-08
   41.40000     -9.8503863E-09
   41.46000     -8.6414991E-09
   41.52000     -7.6230782E-09
   41.58000     -6.8355601E-09
   41.64000     -6.3101147E-09
   41.70000     -6.0669065E-09
   41.76000     -6.1198304E-09
   41.82000     -6.4803523E-09
   41.88000     -7.1540693E-09
   41.94000     -8.1300966E-09
   42.00000     -9.3706634E-09
   42.06000     -1.0810825E-08
   42.12000     -1.2373378E-08
   42.18000     -1.3994292E-08
   42.24000     -1.5645730E-08
   42.30000     -1.7342753E-08
   42.36000     -1.9127855E-08
   42.42000     -2.1040119E-08
   42.48000     -2.3085404E-08
   42.54000     -2.5224267E-08
   42.60000     -2.7384711E-08
   42.66000     -2.9492860E-08
   42.72000     -3.1504648E-08
   42.78000     -3.3421742E-08
   42.84000     -3.5284671E-08
   42.90000     -3.7149526E-08
   42.96000     -3.9062897E-08
   43.02000     -4.1048558E-08
   43.08000     -4.3109839E-08
   43.14000     -4.5240760E-08
   43.20000     -4.7434259E-08
   43.26000     -4.9679944E-08
   43.32000     -5.1954007E-08
   43.38000     -5.4211714E-08
   43.44000     -5.6393045E-08
   43.50000     -5.8443032E-08
   43.56000     -6.0336632E-08
   43.62000     -6.2091715E-08
   43.68000     -6.3758399E-08
   43.74000     -6.5386985E-08
   43.80000     -6.6991014E-08
   43.86000     -6.8527591E-08
   43.92000     -6.9908829E-08
   43.98000     -7.1040503E-08
   44.04000     -7.1867149E-08
   44.10000     -7.2397974E-08
   44.16000     -7.2697993E-08
   44.22000     -7.2849083E-08
   44.28000     -7.2903099E-08
   44.34000     -7.2853624E-08
   44.40000     -7.2641306E-08
   44.46000     -7.2187888E-08
   44.52000     -7.1437711E-08
   44.58000     -7.0383400E-08
   44.64000     -6.9064576E-08
   44.70000     -6.7546381E-08
   44.76000     -6.5896117E-08
   44.82000     -6.4173804E-08
   44.88000     -6.2438808E-08
   44.94000     -6.0759582E-08
   45.00000     -5.9209437E-08
   45.06000     -5.7841120E-08
   45.12000     -5.6651210E-08
   45.18000     -5.5558214E-08
   45.24000     -5.4415860E-08
   45.30000     -5.3064447E-08
   45.36000     -5.1399070E-08
   45.42000     -4.9419508E-08
   45.48000     -4.7233140E-08
   45.54000     -4.5006459E-08
   45.60000     -4.2889393E-08
   45.66000     -4.0951779E-08
   45.72000     -3.9164220E-08
   45.78000     -3.7429867E-08
   45.84000     -3.5645527E-08
   45.90000     -3.3756496E-08
   45.96000     -3.1777290E-08
   46.02000     -2.9773732E-08
   46.08000     -2.7824880E-08
   46.14000     -2.5991584E-08
   46.20000     -2.4308198E-08
   46.26000     -2.2793891E-08
   46.32000     -2.1465288E-08
   46.38000     -2.0333191E-08
   46.44000     -1.9381906E-08
   46.50000     -1.8547942E-08
   46.56000     -1.7721252E-08
   46.62000     -1.6780362E-08
   46.68000     -1.5649558E-08
   46.74000     -1.4347223E-08
   46.80000     -1.2993692E-08
   46.86000     -1.1767115E-08
   46.92000     -1.0825635E-08
   46.98000     -1.0235173E-08
   47.04000     -9.9408242E-09
   47.10000     -9.7962278E-09
   47.16000     -9.6334603E-09
   47.22000     -9.3350288E-09
   47.28000     -8.8716297E-09
   47.34000     -8.2920408E-09
   47.40000     -7.6799163E-09
   47.46000     -7.1085635E-09
   47.52000     -6.6200530E-09
   47.58000     -6.2342944E-09
   47.64000     -5.9721250E-09
   47.70000     -5.8686207E-09
   47.76000     -5.9632317E-09
   47.82000     -6.2734595E-09
   47.88000     -6.7735360E-09
   47.94000     -7.3979209E-09
   48.00000     -8.0721785E-09
   48.06000     -8.7530303E-09
   48.12000     -9.4503561E-09
   48.18000     -1.0213813E-08
   48.24000     -1.1089955E-08
   48.30000     -1.2076671E-08
   48.36000     -1.3105755E-08
   48.42000     -1.4067769E-08
   48.48000     -1.4866323E-08
   48.54000     -1.5469221E-08
   48.60000     -1.5924874E-08
   48.66000     -1.6334019E-08
   48.72000     -1.6794877E-08
   48.78000     -1.7356362E-08
   48.84000     -1.8007654E-08
   48.90000     -1.8708096E-08
   48.96000     -1.9435078E-08
   49.02000     -2.0217117E-08
   49.08000     -2.1131038E-08
   49.14000     -2.2267661E-08
   49.20000     -2.3691777E-08
   49.26000     -2.5424919E-08
   49.32000     -2.7462175E-08
   49.38000     -2.9809588E-08
   49.44000     -3.2514262E-08
   49.50000     -3.5665295E-08
   49.56000     -3.9365684E-08
   49.62000     -4.3697554E-08
   49.68000     -4.8709538E-08
   49.74000     -5.4440942E-08
   49.80000     -6.0971992E-08
   49.86000     -6.8470783E-08
   49.92000     -7.7208547E-08
   49.98000     -8.7535071E-08
   50.04000     -9.9832327E-08
   50.10000     -1.1447868E-07
   50.16000     -1.3184908E-07
   50.22000     -1.5235369E-07
   50.28000     -1.7649300E-07
   50.34000     -2.0489897E-07
   50.40000     -2.3834279E-07
   50.46000     -2.7771338E-07
   50.52000     -3.2399035E-07
   50.58000     -3.7823915E-07
   50.64000     -4.4164074E-07
   50.70000     -5.1554639E-07
   50.76000     -6.0153309E-07
   50.82000     -7.0143693E-07
   50.88000     -8.1735737E-07
   50.94000     -9.5164683E-07
   51.00000     -1.1069101E-06
   51.06000     -1.2860324E-06
   51.12000     -1.4922372E-06
   51.18000     -1.7291552E-06
   51.24000     -2.0008827E-06
   51.30000     -2.3120094E-06
   51.36000     -2.6676205E-06
   51.42000     -3.0732965E-06
   51.48000     -3.5351311E-06
   51.54000     -4.0597824E-06
   51.60000     -4.6545520E-06
   51.66000     -5.3274634E-06
   51.72000     -6.0873144E-06
   51.78000     -6.9437015E-06
   51.84000     -7.9070096E-06
   51.90000     -8.9884188E-06
   51.96000     -1.0199929E-05
   52.02000     -1.1554420E-05
   52.08000     -1.3065726E-05
   52.14000     -1.4748685E-05
   52.20000     -1.6619153E-05
   52.26000     -1.8693974E-05
   52.32000     -2.0990936E-05
   52.38000     -2.3528717E-05
   52.44000     -2.6326865E-05
   52.50000     -2.9405806E-05
   52.56000     -3.2786840E-05
   52.62000     -3.6492122E-05
   52.68000     -4.0544586E-05
   52.74000     -4.4967841E-05
   52.80000     -4.9786035E-05
   52.86000     -5.5023767E-05
   52.92000     -6.0705977E-05
   52.98000     -6.6857821E-05
   53.04000     -7.3504518E-05
   53.10000     -8.0671183E-05
   53.16000     -8.8382563E-05
   53.22000     -9.6662836E-05
   53.28000     -1.0553538E-04
   53.34000     -1.1502260E-04
   53.40000     -1.2514579E-04
   53.46000     -1.3592481E-04
   53.52000     -1.4737796E-04
   53.58000     -1.5952159E-04
   53.64000     -1.7236988E-04
   53.70000     -1.8593451E-04
   53.76000     -2.0022452E-04
   53.82000     -2.1524592E-04
   53.88000     -2.3100172E-04
   53.94000     -2.4749149E-04
   54.00000     -2.6471139E-04
   54.06000     -2.8265369E-04
   54.12000     -3.0130692E-04
   54.18000     -3.2065541E-04
   54.24000     -3.4067943E-04
   54.30000     -3.6135493E-04
   54.36000     -3.8265379E-04
   54.42000     -4.0454351E-04
   54.48000     -4.2698733E-04
   54.54000     -4.4994449E-04
   54.60000     -4.7337002E-04
   54.66000     -4.9721531E-04
   54.72000     -5.2142801E-04
   54.78000     -5.4595229E-04
   54.84000     -5.7072967E-04
   54.90000     -5.9569860E-04
   54.96000     -6.2079547E-04
   55.02000     -6.4595457E-04
   55.08000     -6.7110878E-04
   55.14000     -6.9618988E-04
   55.20000     -7.2112924E-04
   55.26000     -7.4585807E-04
   55.32000     -7.7030860E-04
   55.38000     -7.9441420E-04
   55.44000     -8.1810995E-04
   55.50000     -8.4133307E-04
   55.56000     -8.6402346E-04