  -2.400000      0.0000000E+00
  -2.340000      0.0000000E+00
  -2.280000      0.0000000E+00
  -2.220000      0.0000000E+00
  -2.160000      0.0000000E+00
  -2.100000      5.3147304E-20
  -2.040000      4.4475185E-19
  -1.980000      1.9312206E-18
  -1.920000      5.5980627E-18
  -1.860000      1.1510632E-17
  -1.800000      1.5724925E-17
  -1.740000      7.2254301E-18
  -1.680000     -3.0705093E-17
  -1.620000     -1.0950629E-16
  -1.560000     -2.1511167E-16
  -1.500000     -2.9045739E-16
  -1.440000     -2.4239322E-16
  -1.380000      1.0666508E-17
  -1.320000      4.6125862E-16
  -1.260000      9.5413550E-16
  -1.200000      1.2125484E-15
  -1.140000      9.8282694E-16
  -1.080000      2.4564485E-16
  -1.020000     -6.4848355E-16
 -0.9600000     -1.0820775E-15
 -0.9000000     -5.6793723E-16
 -0.8400000      7.1557497E-16
 -0.7800000      1.6102470E-15
 -0.7200000      2.7625095E-16
 -0.6600000     -4.7484629E-15
 -0.6000000     -1.3052334E-14
 -0.5400000     -2.1227755E-14
 -0.4800000     -2.3115001E-14
 -0.4200000     -1.2036936E-14
 -0.3600000      1.5289505E-14
 -0.3000000      5.4678179E-14
 -0.2400000      9.2614725E-14
 -0.1800000      1.0885747E-13
 -0.1200000      8.4198253E-14
 -5.9999999E-02  1.1361339E-14
  0.0000000E+00 -9.5816821E-14
  5.9999999E-02 -2.0104384E-13
  0.1200000     -2.5629200E-13
  0.1800000     -2.2341851E-13
  0.2400000     -9.8376060E-14
  0.3000000      7.5426393E-14
  0.3600000      2.1693418E-13
  0.4200000      2.4335552E-13
  0.4800000      1.1998252E-13
  0.5400000     -1.0164936E-13
  0.6000000     -2.8516420E-13
  0.6600000     -2.6376714E-13
  0.7200000      6.6961600E-14
  0.7800000      6.6118329E-13
  0.8400000      1.2943237E-12
  0.9000000      1.6296108E-12
  0.9600000      1.3687439E-12
   1.020000      4.2245889E-13
   1.080000     -9.9246501E-13
   1.140000     -2.4038037E-12
   1.200000     -3.2871642E-12
   1.260000     -3.3378094E-12
   1.320000     -2.6662587E-12
   1.380000     -1.7838327E-12
   1.440000     -1.3368756E-12
   1.500000     -1.6863651E-12
   1.560000     -2.5429181E-12
   1.620000     -2.8858923E-12
   1.680000     -1.2904824E-12
   1.740000      3.4063720E-12
   1.800000      1.1361899E-11
   1.860000      2.1253501E-11
   1.920000      3.0347135E-11
   1.980000      3.5161363E-11
   2.040000      3.2516954E-11
   2.100000      2.0584741E-11
   2.160000     -4.5198109E-13
   2.220000     -2.8316417E-11
   2.280000     -5.9059459E-11
   2.340000     -8.7692548E-11
   2.400000     -1.0871856E-10
   2.460000     -1.1643597E-10
   2.520000     -1.0519104E-10
   2.580000     -6.9978023E-11
   2.640000     -7.7694474E-12
   2.700000      8.0360073E-11
   2.760000      1.8676494E-10
   2.820000      2.9532915E-10
   2.880000      3.8121181E-10
   2.940000      4.1301659E-10
   3.000000      3.5746348E-10
   3.060000      1.8578084E-10
   3.120000     -1.1964220E-10
   3.180000     -5.6001842E-10
   3.240000     -1.1176823E-09
   3.300000     -1.7569580E-09
   3.360000     -2.4281086E-09
   3.420000     -3.0734257E-09
   3.480000     -3.6342227E-09
   3.540000     -4.0575809E-09
   3.600000     -4.3019766E-09
   3.660000     -4.3412549E-09
   3.720000     -4.1666448E-09
   3.780000     -3.7866812E-09
   3.840000     -3.2250622E-09
   3.900000     -2.5167326E-09
   3.960000     -1.7028160E-09
   4.020000     -8.2530299E-10
   4.080000      7.7495989E-11
   4.140000      9.7389918E-10
   4.200000      1.8398116E-09
   4.260000      2.6578340E-09
   4.320000      3.4151459E-09
   4.380000      4.1010546E-09
   4.440000      4.7051065E-09
   4.500000      5.2164677E-09
   4.560000      5.6249094E-09
   4.620000      5.9233143E-09
   4.680000      6.1111232E-09
   4.740000      6.1977738E-09
   4.800000      6.2049206E-09
   4.860000      6.1663634E-09
   4.920000      6.1250942E-09
   4.980000      6.1277192E-09
   5.040000      6.2174341E-09
   5.100000      6.4273560E-09
   5.160000      6.7761050E-09
   5.220000      7.2668982E-09
   5.280000      7.8903328E-09
   5.340000      8.6298524E-09
   5.400000      9.4680743E-09
   5.460000      1.0392029E-08
   5.520000      1.1395891E-08
   5.580000      1.2480765E-08
   5.640000      1.3652039E-08
   5.700000      1.4915443E-08
   5.760000      1.6273029E-08
   5.820000      1.7720019E-08
   5.880000      1.9242940E-08
   5.940000      2.0819257E-08
   6.000000      2.2418480E-08
   6.060000      2.4004773E-08
   6.120000      2.5541091E-08
   6.180000      2.6994352E-08
   6.240000      2.8340715E-08
   6.300000      2.9569380E-08
   6.360000      3.0683413E-08
   6.420000      3.1696654E-08
   6.480000      3.2627270E-08
   6.540000      3.3489894E-08
   6.600000      3.4289283E-08
   6.660000      3.5018047E-08
   6.720000      3.5659749E-08
   6.780000      3.6196468E-08
   6.840000      3.6618342E-08
   6.900000      3.6931823E-08
   6.960000      3.7164281E-08
   7.020000      3.7363801E-08
   7.080000      3.7594809E-08
   7.140000      3.7930697E-08
   7.200000      3.8444831E-08
   7.260000      3.9200692E-08
   7.320000      4.0242117E-08
   7.380000      4.1584777E-08
   7.440000      4.3211045E-08
   7.500000      4.5070369E-08
   7.560000      4.7086324E-08
   7.620000      4.9169369E-08
   7.680000      5.1231670E-08
   7.740000      5.3199180E-08
   7.800000      5.5016805E-08
   7.860000      5.6645330E-08
   7.920000      5.8052471E-08
   7.980000      5.9202925E-08
   8.040000      6.0052891E-08
   8.100000      6.0551933E-08
   8.160000      6.0651786E-08
   8.220000      6.0317866E-08
   8.280000      5.9538507E-08
   8.340000      5.8327700E-08
   8.400000      5.6720424E-08
   8.460000      5.4762925E-08
   8.520000      5.2502180E-08
   8.580000      4.9978759E-08
   8.640000      4.7225281E-08
   8.700000      4.4269960E-08
   8.760000      4.1142755E-08
   8.820000      3.7880827E-08
   8.880000      3.4531219E-08
   8.940000      3.1150087E-08
   9.000000      2.7799572E-08
   9.060000      2.4543837E-08
   9.120000      2.1445137E-08
   9.180000      1.8559918E-08
   9.240000      1.5934170E-08
   9.300000      1.3597738E-08
   9.360000      1.1558607E-08
   9.420000      9.7995025E-09
   9.480000      8.2794509E-09
   9.540000      6.9414989E-09
   9.600000      5.7251874E-09
   9.660000      4.5798902E-09
   9.720000      3.4743122E-09
   9.780000      2.3990046E-09
   9.840000      1.3620320E-09
   9.900000      3.8107922E-10
   9.960000     -5.2349103E-10
   10.02000     -1.3315938E-09
   10.08000     -2.0226034E-09
   10.14000     -2.5738933E-09
   10.20000     -2.9625271E-09
   10.26000     -3.1717355E-09
   10.32000     -3.2001899E-09
   10.38000     -3.0693150E-09
   10.44000     -2.8239313E-09
   10.50000     -2.5245395E-09
   10.56000     -2.2338433E-09
   10.62000     -2.0030746E-09
   10.68000     -1.8635176E-09
   10.74000     -1.8255589E-09
   10.80000     -1.8835078E-09
   10.86000     -2.0219817E-09
   10.92000     -2.2201436E-09
   10.98000     -2.4529552E-09
   11.04000     -2.6917009E-09
   11.10000     -2.9070506E-09
   11.16000     -3.0761320E-09
   11.22000     -3.1916452E-09
   11.28000     -3.2684147E-09
   11.34000     -3.3428680E-09
   11.40000     -3.4640446E-09
   11.46000     -3.6790349E-09
   11.52000     -4.0187582E-09
   11.58000     -4.4898307E-09
   11.64000     -5.0751643E-09
   11.70000     -5.7416920E-09
   11.76000     -6.4507191E-09
   11.82000     -7.1662711E-09
   11.88000     -7.8591169E-09
   11.94000     -8.5072074E-09
   12.00000     -9.0950989E-09
   12.06000     -9.6146273E-09
   12.12000     -1.0067213E-08
   12.18000     -1.0466153E-08
   12.24000     -1.0836446E-08
   12.30000     -1.1210665E-08
   12.36000     -1.1621319E-08
   12.42000     -1.2092016E-08
   12.48000     -1.2630402E-08
   12.54000     -1.3225192E-08
   12.60000     -1.3847933E-08
   12.66000     -1.4458437E-08
   12.72000     -1.5011743E-08
   12.78000     -1.5464526E-08
   12.84000     -1.5779779E-08
   12.90000     -1.5930063E-08
   12.96000     -1.5900538E-08
   13.02000     -1.5693047E-08
   13.08000     -1.5331079E-08
   13.14000     -1.4863446E-08
   13.20000     -1.4363042E-08
   13.26000     -1.3917475E-08
   13.32000     -1.3611358E-08
   13.38000     -1.3504351E-08
   13.44000     -1.3612648E-08
   13.50000     -1.3901970E-08
   13.56000     -1.4296312E-08
   13.62000     -1.4700293E-08
   13.68000     -1.5026883E-08
   13.74000     -1.5220049E-08
   13.80000     -1.5264655E-08
   13.86000     -1.5182257E-08
   13.92000     -1.5017655E-08
   13.98000     -1.4823766E-08
   14.04000     -1.4650631E-08
   14.10000     -1.4539636E-08
   14.16000     -1.4520113E-08
   14.22000     -1.4604812E-08
   14.28000     -1.4783630E-08
   14.34000     -1.5018957E-08
   14.40000     -1.5247894E-08
   14.46000     -1.5394461E-08
   14.52000     -1.5389899E-08
   14.58000     -1.5194001E-08
   14.64000     -1.4808793E-08
   14.70000     -1.4278586E-08
   14.76000     -1.3676352E-08
   14.82000     -1.3082132E-08
   14.88000     -1.2561847E-08
   14.94000     -1.2153395E-08
   15.00000     -1.1862729E-08
   15.06000     -1.1668146E-08
   15.12000     -1.1528742E-08
   15.18000     -1.1393449E-08
   15.24000     -1.1209153E-08
   15.30000     -1.0928368E-08
   15.36000     -1.0517257E-08
   15.42000     -9.9634248E-09
   15.48000     -9.2809369E-09
   15.54000     -8.5091818E-09
   15.60000     -7.7035631E-09
   15.66000     -6.9193908E-09
   15.72000     -6.1942358E-09
   15.78000     -5.5361387E-09
   15.84000     -4.9238111E-09
   15.90000     -4.3202073E-09
   15.96000     -3.6945860E-09
   16.02000     -3.0434999E-09
   16.08000     -2.4008469E-09
   16.14000     -1.8318268E-09
   16.20000     -1.4133325E-09
   16.26000     -1.2099309E-09
   16.32000     -1.2564714E-09
   16.38000     -1.5542591E-09
   16.44000     -2.0799962E-09
   16.50000     -2.7998066E-09
   16.56000     -3.6788468E-09
   16.62000     -4.6812878E-09
   16.68000     -5.7630367E-09
   16.74000     -6.8654176E-09
   16.80000     -7.9180431E-09
   16.86000     -8.8529477E-09
   16.92000     -9.6236050E-09
   16.98000     -1.0217361E-08
   17.04000     -1.0652005E-08
   17.10000     -1.0955929E-08
   17.16000     -1.1141611E-08
   17.22000     -1.1187441E-08
   17.28000     -1.1039469E-08
   17.34000     -1.0633905E-08
   17.40000     -9.9292672E-09
   17.46000     -8.9309049E-09
   17.52000     -7.6943030E-09
   17.58000     -6.3048895E-09
   17.64000     -4.8448929E-09
   17.70000     -3.3645249E-09
   17.76000     -1.8718065E-09
   17.82000     -3.4456138E-10
   17.88000      1.2441062E-09
   17.94000      2.9021501E-09
   18.00000      4.6095954E-09
   18.06000      6.3275003E-09
   18.12000      8.0174152E-09
   18.18000      9.6583781E-09
   18.24000      1.1251024E-08
   18.30000      1.2807073E-08
   18.36000      1.4331620E-08
   18.42000      1.5809855E-08
   18.48000      1.7206656E-08
   18.54000      1.8479469E-08
   18.60000      1.9596692E-08
   18.66000      2.0550781E-08
   18.72000      2.1358790E-08
   18.78000      2.2050825E-08
   18.84000      2.2654028E-08
   18.90000      2.3182000E-08
   18.96000      2.3635764E-08
   19.02000      2.4015042E-08
   19.08000      2.4332275E-08
   19.14000      2.4620237E-08
   19.20000      2.4928067E-08
   19.26000      2.5307450E-08
   19.32000      2.5796254E-08
   19.38000      2.6407927E-08
   19.44000      2.7131012E-08
   19.50000      2.7936981E-08
   19.56000      2.8790074E-08
   19.62000      2.9653041E-08
   19.68000      3.0486724E-08
   19.74000      3.1246987E-08
   19.80000      3.1885037E-08
   19.86000      3.2355238E-08
   19.92000      3.2628702E-08
   19.98000      3.2705540E-08
   20.04000      3.2617162E-08
   20.10000      3.2414484E-08
   20.16000      3.2145600E-08
   20.22000      3.1833409E-08
   20.28000      3.1464797E-08
   20.34000      3.0997441E-08
   20.40000      3.0381095E-08
   20.46000      2.9582234E-08
   20.52000      2.8599626E-08
   20.58000      2.7463873E-08
   20.64000      2.6223372E-08
   20.70000      2.4926493E-08
   20.76000      2.3610749E-08
   20.82000      2.2303958E-08
   20.88000      2.1033896E-08
   20.94000      1.9837108E-08
   21.00000      1.8758262E-08
   21.06000      1.7838193E-08
   21.12000      1.7096928E-08
   21.18000      1.6522357E-08
   21.24000      1.6072747E-08
   21.30000      1.5693418E-08
   21.36000      1.5339495E-08
   21.42000      1.4992809E-08
   21.48000      1.4664119E-08
   21.54000      1.4380042E-08
   21.60000      1.4162479E-08
   21.66000      1.4012219E-08
   21.72000      1.3905757E-08
   21.78000      1.3806951E-08
   21.84000      1.3687190E-08
   21.90000      1.3543683E-08
   21.96000      1.3406800E-08
   22.02000      1.3333322E-08
   22.08000      1.3389160E-08
   22.14000      1.3629532E-08
   22.20000      1.4084564E-08
   22.26000      1.4754765E-08
   22.32000      1.5615738E-08
   22.38000      1.6627745E-08
   22.44000      1.7744835E-08
   22.50000      1.8920090E-08
   22.56000      2.0106794E-08
   22.62000      2.1257879E-08
   22.68000      2.2326745E-08
   22.74000      2.3271038E-08
   22.80000      2.4058714E-08
   22.86000      2.4673826E-08
   22.92000      2.5119325E-08
   22.98000      2.5415538E-08
   23.04000      2.5594925E-08
   23.10000      2.5695051E-08
   23.16000      2.5751673E-08
   23.22000      2.5792826E-08
   23.28000      2.5833909E-08
   23.34000      2.5873684E-08
   23.40000      2.5892042E-08
   23.46000      2.5851227E-08
   23.52000      2.5701807E-08
   23.58000      2.5392996E-08
   23.64000      2.4884390E-08
   23.70000      2.4154795E-08
   23.76000      2.3204750E-08
   23.82000      2.2052186E-08
   23.88000      2.0724151E-08
   23.94000      1.9249095E-08
   24.00000      1.7653027E-08
   24.06000      1.5959577E-08
   24.12000      1.4190817E-08
   24.18000      1.2365195E-08
   24.24000      1.0491466E-08
   24.30000      8.5616971E-09
   24.36000      6.5492451E-09
   24.42000      4.4166253E-09
   24.48000      2.1333648E-09
   24.54000     -3.0227687E-10
   24.60000     -2.8477263E-09
   24.66000     -5.4154570E-09
   24.72000     -7.8899376E-09
   24.78000     -1.0156662E-08
   24.84000     -1.2131912E-08
   24.90000     -1.3781545E-08
   24.96000     -1.5122367E-08
   25.02000     -1.6207771E-08
   25.08000     -1.7105805E-08
   25.14000     -1.7879787E-08
   25.20000     -1.8578037E-08
   25.26000     -1.9233248E-08
   25.32000     -1.9866773E-08
   25.38000     -2.0491793E-08
   25.44000     -2.1112157E-08
   25.50000     -2.1718281E-08
   25.56000     -2.2284746E-08
   25.62000     -2.2773804E-08
   25.68000     -2.3145356E-08
   25.74000     -2.3369539E-08
   25.80000     -2.3435797E-08
   25.86000     -2.3353943E-08
   25.92000     -2.3147065E-08
   25.98000     -2.2840620E-08
   26.04000     -2.2453651E-08
   26.10000     -2.1996163E-08
   26.16000     -2.1472387E-08
   26.22000     -2.0886263E-08
   26.28000     -2.0244880E-08
   26.34000     -1.9558016E-08
   26.40000     -1.8835493E-08
   26.46000     -1.8085554E-08
   26.52000     -1.7316268E-08
   26.58000     -1.6538561E-08
   26.64000     -1.5766936E-08
   26.70000     -1.5014640E-08
   26.76000     -1.4283875E-08
   26.82000     -1.3556439E-08
   26.88000     -1.2792105E-08
   26.94000     -1.1939137E-08
   27.00000     -1.0954736E-08
   27.06000     -9.8266080E-09
   27.12000     -8.5846086E-09
   27.18000     -7.2954252E-09
   27.24000     -6.0417227E-09
   27.30000     -4.8951247E-09
   27.36000     -3.8954679E-09
   27.42000     -3.0449807E-09
   27.48000     -2.3178492E-09
   27.54000     -1.6779352E-09
   27.60000     -1.0945290E-09
   27.66000     -5.4921484E-10
   27.72000     -3.3580180E-11
   27.78000      4.5685214E-10
   27.84000      9.2593877E-10
   27.90000      1.3745852E-09
   27.96000      1.7953279E-09
   28.02000      2.1696862E-09
   28.08000      2.4729074E-09
   28.14000      2.6857223E-09
   28.20000      2.8073219E-09
   28.26000      2.8616958E-09
   28.32000      2.8922638E-09
   28.38000      2.9459224E-09
   28.44000      3.0536051E-09
   28.50000      3.2166985E-09
   28.56000      3.4059167E-09
   28.62000      3.5731575E-09
   28.68000      3.6707404E-09
   28.74000      3.6694643E-09
   28.80000      3.5682639E-09
   28.86000      3.3926475E-09
   28.92000      3.1840326E-09
   28.98000      2.9850908E-09
   29.04000      2.8264246E-09
   29.10000      2.7180866E-09
   29.16000      2.6471749E-09
   29.22000      2.5813187E-09
   29.28000      2.4773437E-09
   29.34000      2.2940709E-09
   29.40000      2.0070876E-09
   29.46000      1.6215282E-09
   29.52000      1.1776291E-09
   29.58000      7.4462181E-10
   29.64000      4.0228260E-10
   29.70000      2.1506674E-10
   29.76000      2.0847998E-10
   29.82000      3.5822056E-10
   29.88000      5.9822208E-10
   29.94000      8.4554103E-10
   30.00000      1.0320130E-09
   30.06000      1.1290883E-09
   30.12000      1.1554614E-09
   30.18000      1.1655225E-09
   30.24000      1.2257579E-09
   30.30000      1.3911218E-09
   30.36000      1.6915673E-09
   30.42000      2.1319952E-09
   30.48000      2.7013138E-09
   30.54000      3.3826777E-09
   30.60000      4.1590051E-09
   30.66000      5.0134137E-09
   30.72000      5.9288543E-09
   30.78000      6.8916188E-09
   30.84000      7.8991693E-09
   30.90000      8.9673904E-09
   30.96000      1.0130042E-08
   31.02000      1.1426313E-08
   31.08000      1.2879471E-08
   31.14000      1.4476100E-08
   31.20000      1.6157124E-08
   31.26000      1.7826988E-08
   31.32000      1.9378763E-08
   31.38000      2.0725221E-08
   31.44000      2.1823441E-08
   31.50000      2.2684141E-08
   31.56000      2.3364089E-08
   31.62000      2.3946660E-08
   31.68000      2.4518471E-08
   31.74000      2.5149141E-08
   31.80000      2.5877897E-08
   31.86000      2.6708182E-08
   31.92000      2.7610159E-08
   31.98000      2.8530753E-08
   32.04000      2.9410042E-08
   32.10000      3.0200631E-08
   32.16000      3.0884035E-08
   32.22000      3.1477416E-08
   32.28000      3.2026374E-08
   32.34000      3.2584921E-08
   32.40000      3.3189981E-08
   32.46000      3.3840980E-08
   32.52000      3.4493812E-08
   32.58000      3.5072528E-08
   32.64000      3.5494327E-08
   32.70000      3.5697663E-08
   32.76000      3.5661898E-08
   32.82000      3.5410945E-08
   32.88000      3.5000280E-08
   32.94000      3.4493596E-08
   33.00000      3.3939077E-08
   33.06000      3.3354713E-08
   33.12000      3.2727524E-08
   33.18000      3.2025874E-08
   33.24000      3.1219045E-08
   33.30000      3.0296206E-08
   33.36000      2.9277913E-08
   33.42000      2.8216462E-08
   33.48000      2.7185369E-08
   33.54000      2.6261525E-08
   33.60000      2.5505301E-08
   33.66000      2.4944159E-08
   33.72000      2.4564143E-08
   33.78000      2.4311561E-08
   33.84000      2.4104587E-08
   33.90000      2.3851985E-08
   33.96000      2.3474215E-08
   34.02000      2.2921556E-08
   34.08000      2.2184695E-08
   34.14000      2.1295332E-08
   34.20000      2.0316996E-08
   34.26000      1.9328528E-08
   34.32000      1.8404290E-08
   34.38000      1.7595696E-08
   34.44000      1.6918642E-08
   34.50000      1.6350523E-08
   34.56000      1.5838605E-08
   34.62000      1.5318619E-08
   34.68000      1.4738569E-08
   34.74000      1.4079825E-08
   34.80000      1.3367170E-08
   34.86000      1.2662601E-08
   34.92000      1.2044072E-08
   34.98000      1.1576984E-08
   35.04000      1.1290028E-08
   35.10000      1.1165517E-08
   35.16000      1.1147983E-08
   35.22000      1.1166589E-08
   35.28000      1.1160942E-08
   35.34000      1.1099183E-08
   35.40000      1.0981793E-08
   35.46000      1.0831740E-08
   35.52000      1.0677530E-08
   35.58000      1.0537625E-08
   35.64000      1.0412293E-08
   35.70000      1.0284408E-08
   35.76000      1.0126687E-08
   35.82000      9.9112265E-09
   35.88000      9.6179260E-09
   35.94000      9.2400825E-09
   36.00000      8.7866114E-09
   36.06000      8.2805771E-09
   36.12000      7.7535969E-09
   36.18000      7.2363142E-09
   36.24000      6.7467836E-09
   36.30000      6.2805996E-09
   36.36000      5.8073790E-09
   36.42000      5.2767279E-09
   36.48000      4.6331903E-09
   36.54000      3.8354746E-09
   36.60000      2.8726590E-09
   36.66000      1.7706527E-09
   36.72000      5.8596517E-10
   36.78000     -6.1080452E-10
   36.84000     -1.7549565E-09
   36.90000     -2.8030400E-09
   36.96000     -3.7378269E-09
   37.02000     -4.5621036E-09
   37.08000     -5.2855076E-09
   37.14000     -5.9114336E-09
   37.20000     -6.4302959E-09
   37.26000     -6.8217658E-09
   37.32000     -7.0639703E-09
   37.38000     -7.1443851E-09
   37.44000     -7.0669008E-09
   37.50000     -6.8520407E-09
   37.56000     -6.5311290E-09
   37.62000     -6.1381189E-09
   37.68000     -5.7032747E-09
   37.74000     -5.2510121E-09
   37.80000     -4.8012128E-09
   37.86000     -4.3712212E-09
   37.92000     -3.9757637E-09
   37.98000     -3.6240975E-09
   38.04000     -3.3163390E-09
   38.10000     -3.0422607E-09
   38.16000     -2.7848612E-09
   38.22000     -2.5280931E-09
   38.28000     -2.2650641E-09
   38.34000     -2.0018818E-09
   38.40000     -1.7540386E-09
   38.46000     -1.5362213E-09
   38.52000     -1.3503828E-09
   38.58000     -1.1785318E-09
   38.64000     -9.8471542E-10
   38.70000     -7.2601120E-10
   38.76000     -3.6748085E-10
   38.82000      1.0625645E-10
   38.88000      6.8846862E-10
   38.94000      1.3575601E-09
   39.00000      2.0896034E-09
   39.06000      2.8688909E-09
   39.12000      3.6906176E-09
   39.18000      4.5545652E-09
   39.24000      5.4539768E-09
   39.30000      6.3666836E-09
   39.36000      7.2542092E-09
   39.42000      8.0699056E-09
   39.48000      8.7718597E-09
   39.54000      9.3335126E-09
   39.60000      9.7462891E-09
   39.66000      1.0013252E-08
   39.72000      1.0138099E-08
   39.78000      1.0116503E-08
   39.84000      9.9352349E-09
   39.90000      9.5796295E-09
   39.96000      9.0445296E-09
   40.02000      8.3414067E-09
   40.08000      7.4963387E-09
   40.14000      6.5391470E-09
   40.20000      5.4897660E-09
   40.26000      4.3503778E-09
   40.32000      3.1091461E-09
   40.38000      1.7546961E-09
   40.44000      2.9379651E-10
   40.50000     -1.2380564E-09
   40.56000     -2.7801588E-09
   40.62000     -4.2635335E-09
   40.68000     -5.6328551E-09
   40.74000     -6.8618609E-09
   40.80000     -7.9544087E-09
   40.86000     -8.9316714E-09
   40.92000     -9.8140154E-09
   40.98000     -1.0608842E-08
   41.04000     -1.1311303E-08
   41.10000     -1.1916076E-08
   41.16000     -1.2430848E-08
   41.22000     -1.2880879E-08
   41.28000     -1.3299965E-08
   41.34000     -1.3712611E-08
   41.40000     -1.4119023E-08
   41.46000     -1.4493913E-08
   41.52000     -1.4802049E-08
   41.58000     -1.5022961E-08
   41.64000     -1.5170746E-08
   41.70000     -1.5297067E-08
   41.76000     -1.5474781E-08
   41.82000     -1.5770867E-08
   41.88000     -1.6223208E-08
   41.94000     -1.6833130E-08
   42.00000     -1.7576202E-08
   42.06000     -1.8423455E-08
   42.12000     -1.9360479E-08
   42.18000     -2.0394708E-08
   42.24000     -2.1549505E-08
   42.30000     -2.2851387E-08
   42.36000     -2.4319270E-08
   42.42000     -2.5961093E-08
   42.48000     -2.7776558E-08
   42.54000     -2.9760356E-08
   42.60000     -3.1900811E-08
   42.66000     -3.4173905E-08
   42.72000     -3.6537962E-08
   42.78000     -3.8935855E-08
   42.84000     -4.1307540E-08
   42.90000     -4.3608917E-08
   42.96000     -4.5827484E-08
   43.02000     -4.7985193E-08
   43.08000     -5.0124942E-08
   43.14000     -5.2285799E-08
   43.20000     -5.4478424E-08
   43.26000     -5.6672761E-08
   43.32000     -5.8803959E-08
   43.38000     -6.0793575E-08
   43.44000     -6.2575722E-08
   43.50000     -6.4116243E-08
   43.56000     -6.5417112E-08
   43.62000     -6.6506267E-08
   43.68000     -6.7419528E-08
   43.74000     -6.8184029E-08
   43.80000     -6.8810145E-08
   43.86000     -6.9293137E-08
   43.92000     -6.9620995E-08
   43.98000     -6.9782736E-08
   44.04000     -6.9773009E-08
   44.10000     -6.9592325E-08
   44.16000     -6.9245452E-08
   44.22000     -6.8740682E-08
   44.28000     -6.8091168E-08
   44.34000     -6.7316535E-08
   44.40000     -6.6442070E-08
   44.46000     -6.5493722E-08
   44.52000     -6.4490159E-08
   44.58000     -6.3435827E-08
   44.64000     -6.2319323E-08
   44.70000     -6.1119380E-08
   44.76000     -5.9816948E-08
   44.82000     -5.8408524E-08
   44.88000     -5.6915006E-08
   44.94000     -5.5382056E-08
   45.00000     -5.3871236E-08
   45.06000     -5.2444626E-08
   45.12000     -5.1147833E-08
   45.18000     -4.9996686E-08
   45.24000     -4.8971959E-08
   45.30000     -4.8024244E-08
   45.36000     -4.7088353E-08
   45.42000     -4.6103366E-08
   45.48000     -4.5031843E-08
   45.54000     -4.3870966E-08
   45.60000     -4.2650662E-08
   45.66000     -4.1418620E-08
   45.72000     -4.0218136E-08
   45.78000     -3.9068631E-08
   45.84000     -3.7957854E-08
   45.90000     -3.6849670E-08
   45.96000     -3.5703504E-08
   46.02000     -3.4495926E-08
   46.08000     -3.3234077E-08
   46.14000     -3.1955317E-08
   46.20000     -3.0714514E-08
   46.26000     -2.9566003E-08
   46.32000     -2.8548145E-08
   46.38000     -2.7675100E-08
   46.44000     -2.6935696E-08
   46.50000     -2.6296618E-08
   46.56000     -2.5707958E-08
   46.62000     -2.5111730E-08
   46.68000     -2.4455234E-08
   46.74000     -2.3708786E-08
   46.80000     -2.2882427E-08
   46.86000     -2.2032630E-08
   46.92000     -2.1251584E-08
   46.98000     -2.0639195E-08
   47.04000     -2.0267995E-08
   47.10000     -2.0157335E-08
   47.16000     -2.0270715E-08
   47.22000     -2.0539014E-08
   47.28000     -2.0898449E-08
   47.34000     -2.1323480E-08
   47.40000     -2.1837323E-08
   47.46000     -2.2495193E-08
   47.52000     -2.3351017E-08
   47.58000     -2.4427594E-08
   47.64000     -2.5707580E-08
   47.70000     -2.7149603E-08
   47.76000     -2.8718212E-08
   47.82000     -3.0407925E-08
   47.88000     -3.2245325E-08
   47.94000     -3.4266776E-08
   48.00000     -3.6484526E-08
   48.06000     -3.8861415E-08
   48.12000     -4.1309537E-08
   48.18000     -4.3714383E-08
   48.24000     -4.5971312E-08
   48.30000     -4.8014765E-08
   48.36000     -4.9825971E-08
   48.42000     -5.1418031E-08
   48.48000     -5.2810357E-08
   48.54000     -5.4008908E-08
   48.60000     -5.5002584E-08
   48.66000     -5.5773789E-08
   48.72000     -5.6310832E-08
   48.78000     -5.6608791E-08
   48.84000     -5.6654187E-08
   48.90000     -5.6401497E-08
   48.96000     -5.5757770E-08
   49.02000     -5.4588462E-08
   49.08000     -5.2745129E-08
   49.14000     -5.0100663E-08
   49.20000     -4.6570587E-08
   49.26000     -4.2104723E-08
   49.32000     -3.6649681E-08
   49.38000     -3.0099720E-08
   49.44000     -2.2260606E-08
   49.50000     -1.2843850E-08
   49.56000     -1.4905623E-09
   49.62000      1.2193655E-08
   49.68000      2.8618391E-08
   49.74000      4.8220357E-08
   49.80000      7.1507181E-08
   49.86000      9.9115681E-08
   49.92000      1.3186077E-07
   49.98000      1.7075890E-07
   50.04000      2.1702570E-07
   50.10000      2.7206215E-07
   50.16000      3.3744840E-07
   50.22000      4.1495872E-07
   50.28000      5.0659929E-07
   50.34000      6.1466085E-07
   50.40000      7.4177620E-07
   50.46000      8.9097767E-07
   50.52000      1.0657564E-06
   50.58000      1.2701270E-06
   50.64000      1.5087030E-06
   50.70000      1.7867762E-06
   50.76000      2.1103942E-06
   50.82000      2.4864305E-06
   50.88000      2.9226467E-06
   50.94000      3.4277557E-06
   51.00000      4.0115037E-06
   51.06000      4.6847777E-06
   51.12000      5.4597458E-06
   51.18000      6.3500206E-06
   51.24000      7.3708284E-06
   51.30000      8.5391621E-06
   51.36000      9.8739138E-06
   51.42000      1.1395981E-05
   51.48000      1.3128373E-05
   51.54000      1.5096321E-05
   51.60000      1.7327426E-05
   51.66000      1.9851828E-05
   51.72000      2.2702419E-05
   51.78000      2.5915011E-05
   51.84000      2.9528521E-05
   51.90000      3.3585089E-05
   51.96000      3.8130165E-05
   52.02000      4.3212589E-05
   52.08000      4.8884638E-05
   52.14000      5.5202119E-05
   52.20000      6.2224433E-05
   52.26000      7.0014619E-05
   52.32000      7.8639387E-05
   52.38000      8.8169079E-05
   52.44000      9.8677629E-05
   52.50000      1.1024245E-04
   52.56000      1.2294432E-04
   52.62000      1.3686709E-04
   52.68000      1.5209759E-04
   52.74000      1.6872516E-04
   52.80000      1.8684135E-04
   52.86000      2.0653948E-04
   52.92000      2.2791413E-04
   52.98000      2.5106076E-04
   53.04000      2.7607515E-04
   53.10000      3.0305272E-04
   53.16000      3.3208801E-04
   53.22000      3.6327378E-04
   53.28000      3.9670034E-04
   53.34000      4.3245466E-04
   53.40000      4.7061939E-04
   53.46000      5.1127211E-04
   53.52000      5.5448426E-04
   53.58000      6.0032023E-04
   53.64000      6.4883643E-04
   53.70000      7.0008053E-04
   53.76000      7.5409026E-04
   53.82000      8.1089273E-04
   53.88000      8.7050343E-04
   53.94000      9.3292521E-04
   54.00000      9.9814788E-04
   54.06000      1.0661472E-03
   54.12000      1.1368840E-03
   54.18000      1.2103037E-03
   54.24000      1.2863365E-03
   54.30000      1.3648961E-03
   54.36000      1.4458802E-03
   54.42000      1.5291702E-03
   54.48000      1.6146314E-03
   54.54000      1.7021127E-03
   54.60000      1.7914476E-03
   54.66000      1.8824544E-03
   54.72000      1.9749368E-03
   54.78000      2.0686847E-03
   54.84000      2.1634754E-03
   54.90000      2.2590735E-03
   54.96000      2.3552338E-03
   55.02000      2.4517016E-03
   55.08000      2.5482150E-03
   55.14000      2.6445065E-03
   55.20000      2.7403035E-03
   55.26000      2.8353313E-03
   55.32000      2.9293136E-03
   55.38000      3.0219757E-03
   55.44000      3.1130451E-03
   55.50000      3.2022549E-03
   55.56000      3.2893445E-03