  -2.400000      0.0000000E+00
  -2.340000      0.0000000E+00
  -2.280000      0.0000000E+00
  -2.220000      0.0000000E+00
  -2.160000      0.0000000E+00
  -2.100000     -1.8943888E-20
  -2.040000     -1.4022955E-19
  -1.980000     -4.9313334E-19
  -1.920000     -9.8313869E-19
  -1.860000     -7.4519776E-19
  -1.800000      2.1596842E-18
  -1.740000      9.7711355E-18
  -1.680000      2.1379462E-17
  -1.620000      3.0080830E-17
  -1.560000      2.2285925E-17
  -1.500000     -1.6194592E-17
  -1.440000     -8.7963518E-17
  -1.380000     -1.7300439E-16
  -1.320000     -2.2991862E-16
  -1.260000     -2.1547066E-16
  -1.200000     -1.1421866E-16
  -1.140000      4.4518248E-17
  -1.080000      2.0591824E-16
  -1.020000      3.4740387E-16
 -0.9600000      5.4078781E-16
 -0.9000000      9.5641074E-16
 -0.8400000      1.7540870E-15
 -0.7800000      2.8623308E-15
 -0.7200000      3.7395603E-15
 -0.6600000      3.2951864E-15
 -0.6000000      1.6409346E-16
 -0.5400000     -6.5768580E-15
 -0.4800000     -1.6395568E-14
 -0.4200000     -2.6436152E-14
 -0.3600000     -3.1444075E-14
 -0.3000000     -2.5060910E-14
 -0.2400000     -2.5827472E-15
 -0.1800000      3.5547523E-14
 -0.1200000      8.1074660E-14
 -5.9999999E-02  1.1796948E-13
  0.0000000E+00  1.2640504E-13
  5.9999999E-02  9.0267149E-14
  0.1200000      5.7446681E-15
  0.1800000     -1.1286273E-13
  0.2400000     -2.3372295E-13
  0.3000000     -3.1577754E-13
  0.3600000     -3.2260788E-13
  0.4200000     -2.3660799E-13
  0.4800000     -6.7320532E-14
  0.5400000      1.5006075E-13
  0.6000000      3.6560303E-13
  0.6600000      5.3004118E-13
  0.7200000      6.0767813E-13
  0.7800000      5.8148077E-13
  0.8400000      4.4983410E-13
  0.9000000      2.1957382E-13
  0.9600000     -9.7721547E-14
   1.020000     -4.8144653E-13
   1.080000     -8.9097864E-13
   1.140000     -1.2556707E-12
   1.200000     -1.4761590E-12
   1.260000     -1.4437448E-12
   1.320000     -1.0757817E-12
   1.380000     -3.5525565E-13
   1.440000      6.4245207E-13
   1.500000      1.7496984E-12
   1.560000      2.7373527E-12
   1.620000      3.3671115E-12
   1.680000      3.4475129E-12
   1.740000      2.8757146E-12
   1.800000      1.6554074E-12
   1.860000     -1.0704592E-13
   1.920000     -2.2178858E-12
   1.980000     -4.4120215E-12
   2.040000     -6.3664928E-12
   2.100000     -7.7173667E-12
   2.160000     -8.0910677E-12
   2.220000     -7.1578546E-12
   2.280000     -4.7052228E-12
   2.340000     -7.1816435E-13
   2.400000      4.5524340E-12
   2.460000      1.0550394E-11
   2.520000      1.6415484E-11
   2.580000      2.1033113E-11
   2.640000      2.3141659E-11
   2.700000      2.1509192E-11
   2.760000      1.5186487E-11
   2.820000      3.8213647E-12
   2.880000     -1.2018600E-11
   2.940000     -3.0609085E-11
   3.000000     -4.9032309E-11
   3.060000     -6.3432266E-11
   3.120000     -6.9581438E-11
   3.180000     -6.3674267E-11
   3.240000     -4.3165665E-11
   3.300000     -7.4251430E-12
   3.360000      4.1993374E-11
   3.420000      1.0156447E-10
   3.480000      1.6644475E-10
   3.540000      2.3139886E-10
   3.600000      2.9175726E-10
   3.660000      3.4417194E-10
   3.720000      3.8700831E-10
   3.780000      4.2031970E-10
   3.840000      4.4546022E-10
   3.900000      4.6447202E-10
   3.960000      4.7942128E-10
   4.020000      4.9184945E-10
   4.080000      5.0246579E-10
   4.140000      5.1114168E-10
   4.200000      5.1719395E-10
   4.260000      5.1987320E-10
   4.320000      5.1892091E-10
   4.380000      5.1502524E-10
   4.440000      5.1001225E-10
   4.500000      5.0665305E-10
   4.560000      5.0806465E-10
   4.620000      5.1681265E-10
   4.680000      5.3395560E-10
   4.740000      5.5835614E-10
   4.800000      5.8656058E-10
   4.860000      6.1340488E-10
   4.920000      6.3325878E-10
   4.980000      6.4157923E-10
   5.040000      6.3628813E-10
   5.100000      6.1851257E-10
   5.160000      5.9241667E-10
   5.220000      5.6414812E-10
   5.280000      5.4020011E-10
   5.340000      5.2565630E-10
   5.400000      5.2280014E-10
   5.460000      5.3043692E-10
   5.520000      5.4407345E-10
   5.580000      5.5687366E-10
   5.640000      5.6112770E-10
   5.700000      5.4986615E-10
   5.760000      5.1823518E-10
   5.820000      4.6433174E-10
   5.880000      3.8934653E-10
   5.940000      2.9704209E-10
   6.000000      1.9274771E-10
   6.060000      8.2152583E-11
   6.120000     -2.9782649E-11
   6.180000     -1.3950573E-10
   6.240000     -2.4494337E-10
   6.300000     -3.4493289E-10
   6.360000     -4.3821677E-10
   6.420000     -5.2244226E-10
   6.480000     -5.9372518E-10
   6.540000     -6.4720190E-10
   6.600000     -6.7858219E-10
   6.660000     -6.8617440E-10
   6.720000     -6.7245076E-10
   6.780000     -6.4425759E-10
   6.840000     -6.1130567E-10
   6.900000     -5.8340083E-10
   6.960000     -5.6755367E-10
   7.020000     -5.6625160E-10
   7.080000     -5.7767141E-10
   7.140000     -5.9770172E-10
   7.200000     -6.2283984E-10
   7.260000     -6.5272754E-10
   7.320000     -6.9142947E-10
   7.380000     -7.4726830E-10
   7.440000     -8.3168844E-10
   7.500000     -9.5788799E-10
   7.560000     -1.1397588E-09
   7.620000     -1.3912548E-09
   7.680000     -1.7259371E-09
   7.740000     -2.1563491E-09
   7.800000     -2.6930305E-09
   7.860000     -3.3432423E-09
   7.920000     -4.1097139E-09
   7.980000     -4.9898090E-09
   8.040000     -5.9754517E-09
   8.100000     -7.0539308E-09
   8.160000     -8.2094456E-09
   8.220000     -9.4249275E-09
   8.280000     -1.0683499E-08
   8.340000     -1.1969056E-08
   8.400000     -1.3265805E-08
   8.460000     -1.4557156E-08
   8.520000     -1.5824698E-08
   8.580000     -1.7047952E-08
   8.640000     -1.8205066E-08
   8.700000     -1.9273973E-08
   8.760000     -2.0233133E-08
   8.820000     -2.1061224E-08
   8.880000     -2.1735838E-08
   8.940000     -2.2232156E-08
   9.000000     -2.2522851E-08
   9.060000     -2.2580281E-08
   9.120000     -2.2380979E-08
   9.180000     -2.1911520E-08
   9.240000     -2.1174113E-08
   9.300000     -2.0190335E-08
   9.360000     -1.9001909E-08
   9.420000     -1.7668249E-08
   9.480000     -1.6261055E-08
   9.540000     -1.4856870E-08
   9.600000     -1.3528681E-08
   9.660000     -1.2337876E-08
   9.720000     -1.1327892E-08
   9.780000     -1.0520627E-08
   9.840000     -9.9162225E-09
   9.900000     -9.4960981E-09
   9.960000     -9.2285717E-09
   10.02000     -9.0759507E-09
   10.08000     -9.0018588E-09
   10.14000     -8.9776186E-09
   10.20000     -8.9866230E-09
   10.26000     -9.0259036E-09
   10.32000     -9.1045802E-09
   10.38000     -9.2395913E-09
   10.44000     -9.4499049E-09
   10.50000     -9.7508774E-09
   10.56000     -1.0150266E-08
   10.62000     -1.0646549E-08
   10.68000     -1.1229150E-08
   10.74000     -1.1879417E-08
   10.80000     -1.2571326E-08
   10.86000     -1.3271655E-08
   10.92000     -1.3940427E-08
   10.98000     -1.4532864E-08
   11.04000     -1.5003643E-08
   11.10000     -1.5313104E-08
   11.16000     -1.5433884E-08
   11.22000     -1.5355914E-08
   11.28000     -1.5088201E-08
   11.34000     -1.4656875E-08
   11.40000     -1.4100157E-08
   11.46000     -1.3461567E-08
   11.52000     -1.2782747E-08
   11.58000     -1.2096992E-08
   11.64000     -1.1424312E-08
   11.70000     -1.0768724E-08
   11.76000     -1.0118335E-08
   11.82000     -9.4484705E-09
   11.88000     -8.7273673E-09
   11.94000     -7.9231910E-09
   12.00000     -7.0106800E-09
   12.06000     -5.9758984E-09
   12.12000     -4.8183231E-09
   12.18000     -3.5504373E-09
   12.24000     -2.1955771E-09
   12.30000     -7.8484147E-10
   12.36000      6.4647077E-10
   12.42000      2.0627344E-09
   12.48000      3.4319432E-09
   12.54000      4.7291273E-09
   12.60000      5.9383511E-09
   12.66000      7.0526069E-09
   12.72000      8.0717175E-09
   12.78000      8.9993231E-09
   12.84000      9.8405284E-09
   12.90000      1.0601372E-08
   12.96000      1.1290088E-08
   13.02000      1.1918858E-08
   13.08000      1.2504247E-08
   13.14000      1.3065108E-08
   13.20000      1.3618222E-08
   13.26000      1.4173395E-08
   13.32000      1.4730208E-08
   13.38000      1.5277971E-08
   13.44000      1.5798895E-08
   13.50000      1.6273125E-08
   13.56000      1.6683670E-08
   13.62000      1.7019630E-08
   13.68000      1.7277147E-08
   13.74000      1.7458317E-08
   13.80000      1.7568766E-08
   13.86000      1.7614507E-08
   13.92000      1.7598801E-08
   13.98000      1.7519723E-08
   14.04000      1.7369549E-08
   14.10000      1.7136770E-08
   14.16000      1.6810811E-08
   14.22000      1.6388174E-08
   14.28000      1.5877598E-08
   14.34000      1.5301605E-08
   14.40000      1.4693027E-08
   14.46000      1.4087126E-08
   14.52000      1.3511883E-08
   14.58000      1.2979988E-08
   14.64000      1.2485410E-08
   14.70000      1.2005690E-08
   14.76000      1.1509051E-08
   14.82000      1.0963957E-08
   14.88000      1.0348299E-08
   14.94000      9.6557393E-09
   15.00000      8.8976249E-09
   15.06000      8.0999882E-09
   15.12000      7.2962409E-09
   15.18000      6.5173791E-09
   15.24000      5.7824296E-09
   15.30000      5.0921436E-09
   15.36000      4.4281996E-09
   15.42000      3.7584664E-09
   15.48000      3.0467535E-09
   15.54000      2.2638533E-09
   15.60000      1.3963013E-09
   15.66000      4.5025664E-10
   15.72000     -5.5031285E-10
   15.78000     -1.5701598E-09
   15.84000     -2.5718805E-09
   15.90000     -3.5251713E-09
   15.96000     -4.4139647E-09
   16.02000     -5.2396820E-09
   16.08000     -6.0195107E-09
   16.14000     -6.7796702E-09
   16.20000     -7.5450615E-09
   16.26000     -8.3282030E-09
   16.32000     -9.1211740E-09
   16.38000     -9.8937827E-09
   16.44000     -1.0599217E-08
   16.50000     -1.1185719E-08
   16.56000     -1.1610501E-08
   16.62000     -1.1851257E-08
   16.68000     -1.1911612E-08
   16.74000     -1.1819067E-08
   16.80000     -1.1616511E-08
   16.86000     -1.1350174E-08
   16.92000     -1.1057575E-08
   16.98000     -1.0758664E-08
   17.04000     -1.0452315E-08
   17.10000     -1.0118892E-08
   17.16000     -9.7280539E-09
   17.22000     -9.2493915E-09
   17.28000     -8.6626271E-09
   17.34000     -7.9640543E-09
   17.40000     -7.1672712E-09
   17.46000     -6.2983840E-09
   17.52000     -5.3879874E-09
   17.58000     -4.4633439E-09
   17.64000     -3.5437235E-09
   17.70000     -2.6402309E-09
   17.76000     -1.7594849E-09
   17.82000     -9.0919233E-10
   17.88000     -1.0340752E-10
   17.94000      6.3420891E-10
   18.00000      1.2700511E-09
   18.06000      1.7634604E-09
   18.12000      2.0726461E-09
   18.18000      2.1627100E-09
   18.24000      2.0138711E-09
   18.30000      1.6271514E-09
   18.36000      1.0248672E-09
   18.42000      2.4469415E-10
   18.48000     -6.7143791E-10
   18.54000     -1.6899664E-09
   18.60000     -2.7951670E-09
   18.66000     -3.9918704E-09
   18.72000     -5.3005289E-09
   18.78000     -6.7467645E-09
   18.84000     -8.3494394E-09
   18.90000     -1.0111345E-08
   18.96000     -1.2015105E-08
   19.02000     -1.4024791E-08
   19.08000     -1.6092084E-08
   19.14000     -1.8164902E-08
   19.20000     -2.0196289E-08
   19.26000     -2.2151436E-08
   19.32000     -2.4011179E-08
   19.38000     -2.5770881E-08
   19.44000     -2.7434920E-08
   19.50000     -2.9008476E-08
   19.56000     -3.0489428E-08
   19.62000     -3.1863475E-08
   19.68000     -3.3104449E-08
   19.74000     -3.4179678E-08
   19.80000     -3.5058555E-08
   19.86000     -3.5721182E-08
   19.92000     -3.6164220E-08
   19.98000     -3.6402412E-08
   20.04000     -3.6465522E-08
   20.10000     -3.6391768E-08
   20.16000     -3.6219571E-08
   20.22000     -3.5979639E-08
   20.28000     -3.5689471E-08
   20.34000     -3.5351903E-08
   20.40000     -3.4958227E-08
   20.46000     -3.4495059E-08
   20.52000     -3.3952556E-08
   20.58000     -3.3330938E-08
   20.64000     -3.2642721E-08
   20.70000     -3.1909753E-08
   20.76000     -3.1156386E-08
   20.82000     -3.0401470E-08
   20.88000     -2.9652291E-08
   20.94000     -2.8902321E-08
   21.00000     -2.8133162E-08
   21.06000     -2.7319533E-08
   21.12000     -2.6435657E-08
   21.18000     -2.5461533E-08
   21.24000     -2.4388097E-08
   21.30000     -2.3220625E-08
   21.36000     -2.1979821E-08
   21.42000     -2.0700156E-08
   21.48000     -1.9425416E-08
   21.54000     -1.8202126E-08
   21.60000     -1.7072441E-08
   21.66000     -1.6068508E-08
   21.72000     -1.5210031E-08
   21.78000     -1.4505837E-08
   21.84000     -1.3958868E-08
   21.90000     -1.3572792E-08
   21.96000     -1.3357925E-08
   22.02000     -1.3334217E-08
   22.08000     -1.3530041E-08
   22.14000     -1.3976689E-08
   22.20000     -1.4699873E-08
   22.26000     -1.5710354E-08
   22.32000     -1.6996252E-08
   22.38000     -1.8519215E-08
   22.44000     -2.0215742E-08
   22.50000     -2.2003803E-08
   22.56000     -2.3793648E-08
   22.62000     -2.5500784E-08
   22.68000     -2.7058459E-08
   22.74000     -2.8426873E-08
   22.80000     -2.9597000E-08
   22.86000     -3.0587888E-08
   22.92000     -3.1438141E-08
   22.98000     -3.2193821E-08
   23.04000     -3.2896029E-08
   23.10000     -3.3571563E-08
   23.16000     -3.4228670E-08
   23.22000     -3.4858225E-08
   23.28000     -3.5438866E-08
   23.34000     -3.5943859E-08
   23.40000     -3.6347434E-08
   23.46000     -3.6629359E-08
   23.52000     -3.6777340E-08
   23.58000     -3.6787430E-08
   23.64000     -3.6662765E-08
   23.70000     -3.6411073E-08
   23.76000     -3.6041445E-08
   23.82000     -3.5561381E-08
   23.88000     -3.4975230E-08
   23.94000     -3.4284813E-08
   24.00000     -3.3492270E-08
   24.06000     -3.2603822E-08
   24.12000     -3.1632759E-08
   24.18000     -3.0599878E-08
   24.24000     -2.9530641E-08
   24.30000     -2.8449637E-08
   24.36000     -2.7373980E-08
   24.42000     -2.6307744E-08
   24.48000     -2.5239181E-08
   24.54000     -2.4141903E-08
   24.60000     -2.2980023E-08
   24.66000     -2.1716517E-08
   24.72000     -2.0322888E-08
   24.78000     -1.8787862E-08
   24.84000     -1.7122607E-08
   24.90000     -1.5360863E-08
   24.96000     -1.3553662E-08
   25.02000     -1.1760086E-08
   25.08000     -1.0036609E-08
   25.14000     -8.4279517E-09
   25.20000     -6.9616042E-09
   25.26000     -5.6468052E-09
   25.32000     -4.4774051E-09
   25.38000     -3.4371486E-09
   25.44000     -2.5056588E-09
   25.50000     -1.6636708E-09
   25.56000     -8.9653479E-10
   25.62000     -1.9553272E-10
   25.68000      4.4294302E-10
   25.74000      1.0198000E-09
   25.80000      1.5362877E-09
   25.86000      1.9964883E-09
   25.92000      2.4082345E-09
   25.98000      2.7819369E-09
   26.04000      3.1275447E-09
   26.10000      3.4505503E-09
   26.16000      3.7483665E-09
   26.22000      4.0083807E-09
   26.28000      4.2085730E-09
   26.34000      4.3208161E-09
   26.40000      4.3161466E-09
   26.46000      4.1706358E-09
   26.52000      3.8702392E-09
   26.58000      3.4133674E-09
   26.64000      2.8106966E-09
   26.70000      2.0826629E-09
   26.76000      1.2557003E-09
   26.82000      3.5830935E-10
   26.88000     -5.8237987E-10
   26.94000     -1.5434541E-09
   27.00000     -2.5086289E-09
   27.06000     -3.4702057E-09
   27.12000     -4.4301536E-09
   27.18000     -5.3996887E-09
   27.24000     -6.3970038E-09
   27.30000     -7.4434521E-09
   27.36000     -8.5591116E-09
   27.42000     -9.7588231E-09
   27.48000     -1.1049447E-08
   27.54000     -1.2428460E-08
   27.60000     -1.3883655E-08
   27.66000     -1.5393793E-08
   27.72000     -1.6930342E-08
   27.78000     -1.8460572E-08
   27.84000     -1.9951841E-08
   27.90000     -2.1376122E-08
   27.96000     -2.2713307E-08
   28.02000     -2.3952030E-08
   28.08000     -2.5087889E-08
   28.14000     -2.6120311E-08
   28.20000     -2.7050049E-08
   28.26000     -2.7878936E-08
   28.32000     -2.8611968E-08
   28.38000     -2.9260120E-08
   28.44000     -2.9841527E-08
   28.50000     -3.0379134E-08
   28.56000     -3.0894746E-08
   28.62000     -3.1401221E-08
   28.68000     -3.1895766E-08
   28.74000     -3.2357125E-08
   28.80000     -3.2748076E-08
   28.86000     -3.3022886E-08
   28.92000     -3.3137731E-08
   28.98000     -3.3061283E-08
   29.04000     -3.2782708E-08
   29.10000     -3.2315054E-08
   29.16000     -3.1693272E-08
   29.22000     -3.0967428E-08
   29.28000     -3.0192723E-08
   29.34000     -2.9418663E-08
   29.40000     -2.8679679E-08
   29.46000     -2.7989165E-08
   29.52000     -2.7338176E-08
   29.58000     -2.6699183E-08
   29.64000     -2.6034362E-08
   29.70000     -2.5306877E-08
   29.76000     -2.4492609E-08
   29.82000     -2.3589212E-08
   29.88000     -2.2619586E-08
   29.94000     -2.1628388E-08
   30.00000     -2.0672447E-08
   30.06000     -1.9808166E-08
   30.12000     -1.9080058E-08
   30.18000     -1.8513916E-08
   30.24000     -1.8115978E-08
   30.30000     -1.7877051E-08
   30.36000     -1.7779023E-08
   30.42000     -1.7801277E-08
   30.48000     -1.7925563E-08
   30.54000     -1.8139209E-08
   30.60000     -1.8437115E-08
   30.66000     -1.8822609E-08
   30.72000     -1.9306791E-08
   30.78000     -1.9905920E-08
   30.84000     -2.0637154E-08
   30.90000     -2.1513928E-08
   30.96000     -2.2542661E-08
   31.02000     -2.3721979E-08
   31.08000     -2.5044228E-08
   31.14000     -2.6497986E-08
   31.20000     -2.8070001E-08
   31.26000     -2.9745809E-08
   31.32000     -3.1509501E-08
   31.38000     -3.3343710E-08
   31.44000     -3.5230595E-08
   31.50000     -3.7153644E-08
   31.56000     -3.9099188E-08
   31.62000     -4.1056637E-08
   31.68000     -4.3017121E-08
   31.74000     -4.4971319E-08
   31.80000     -4.6907793E-08
   31.86000     -4.8812691E-08
   31.92000     -5.0671034E-08
   31.98000     -5.2468824E-08
   32.04000     -5.4195191E-08
   32.10000     -5.5843874E-08
   32.16000     -5.7413903E-08
   32.22000     -5.8909475E-08
   32.28000     -6.0338877E-08
   32.34000     -6.1712278E-08
   32.40000     -6.3038328E-08
   32.46000     -6.4320226E-08
   32.52000     -6.5552186E-08
   32.58000     -6.6717831E-08
   32.64000     -6.7791376E-08
   32.70000     -6.8741606E-08
   32.76000     -6.9537947E-08
   32.82000     -7.0157007E-08
   32.88000     -7.0587973E-08
   32.94000     -7.0835370E-08
   33.00000     -7.0918432E-08
   33.06000     -7.0867266E-08
   33.12000     -7.0716688E-08
   33.18000     -7.0499460E-08
   33.24000     -7.0240738E-08
   33.30000     -6.9954943E-08
   33.36000     -6.9645282E-08
   33.42000     -6.9305251E-08
   33.48000     -6.8920990E-08
   33.54000     -6.8473732E-08
   33.60000     -6.7942423E-08
   33.66000     -6.7306736E-08
   33.72000     -6.6550655E-08
   33.78000     -6.5665986E-08
   33.84000     -6.4654486E-08
   33.90000     -6.3527530E-08
   33.96000     -6.2303208E-08
   34.02000     -6.1002154E-08
   34.08000     -5.9644087E-08
   34.14000     -5.8246627E-08
   34.20000     -5.6826352E-08
   34.26000     -5.5400783E-08
   34.32000     -5.3989282E-08
   34.38000     -5.2611583E-08
   34.44000     -5.1284186E-08
   34.50000     -5.0016130E-08
   34.56000     -4.8806140E-08
   34.62000     -4.7642487E-08
   34.68000     -4.6505900E-08
   34.74000     -4.5374694E-08
   34.80000     -4.4230944E-08
   34.86000     -4.3066166E-08
   34.92000     -4.1885315E-08
   34.98000     -4.0707750E-08
   35.04000     -3.9564416E-08
   35.10000     -3.8491276E-08
   35.16000     -3.7520319E-08
   35.22000     -3.6670695E-08
   35.28000     -3.5942875E-08
   35.34000     -3.5318052E-08
   35.40000     -3.4763222E-08
   35.46000     -3.4240436E-08
   35.52000     -3.3717232E-08
   35.58000     -3.3175020E-08
   35.64000     -3.2613084E-08
   35.70000     -3.2047275E-08
   35.76000     -3.1504175E-08
   35.82000     -3.1012693E-08
   35.88000     -3.0595622E-08
   35.94000     -3.0263646E-08
   36.00000     -3.0013389E-08
   36.06000     -2.9829931E-08
   36.12000     -2.9692673E-08
   36.18000     -2.9582411E-08
   36.24000     -2.9487097E-08
   36.30000     -2.9404347E-08
   36.36000     -2.9340180E-08
   36.42000     -2.9304793E-08
   36.48000     -2.9307371E-08
   36.54000     -2.9352048E-08
   36.60000     -2.9436631E-08
   36.66000     -2.9554505E-08
   36.72000     -2.9698983E-08
   36.78000     -2.9868364E-08
   36.84000     -3.0069646E-08
   36.90000     -3.0319118E-08
   36.96000     -3.0639093E-08
   37.02000     -3.1051329E-08
   37.08000     -3.1569087E-08
   37.14000     -3.2190325E-08
   37.20000     -3.2894484E-08
   37.26000     -3.3644149E-08
   37.32000     -3.4391320E-08
   37.38000     -3.5086590E-08
   37.44000     -3.5688668E-08
   37.50000     -3.6171663E-08
   37.56000     -3.6528196E-08
   37.62000     -3.6767652E-08
   37.68000     -3.6910123E-08
   37.74000     -3.6977795E-08
   37.80000     -3.6986414E-08
   37.86000     -3.6939543E-08
   37.92000     -3.6827604E-08
   37.98000     -3.6632052E-08
   38.04000     -3.6333201E-08
   38.10000     -3.5918614E-08
   38.16000     -3.5388837E-08
   38.22000     -3.4758216E-08
   38.28000     -3.4050682E-08
   38.34000     -3.3292359E-08
   38.40000     -3.2503880E-08
   38.46000     -3.1695272E-08
   38.52000     -3.0864911E-08
   38.58000     -3.0002592E-08
   38.64000     -2.9095608E-08
   38.70000     -2.8135974E-08
   38.76000     -2.7126838E-08
   38.82000     -2.6086186E-08
   38.88000     -2.5046498E-08
   38.94000     -2.4049722E-08
   39.00000     -2.3138515E-08
   39.06000     -2.2346061E-08
   39.12000     -2.1687846E-08
   39.18000     -2.1158550E-08
   39.24000     -2.0735600E-08
   39.30000     -2.0388564E-08
   39.36000     -2.0091338E-08
   39.42000     -1.9833006E-08
   39.48000     -1.9623803E-08
   39.54000     -1.9494371E-08
   39.60000     -1.9488688E-08
   39.66000     -1.9653001E-08
   39.72000     -2.0024089E-08
   39.78000     -2.0620279E-08
   39.84000     -2.1437678E-08
   39.90000     -2.2452575E-08
   39.96000     -2.3629008E-08
   40.02000     -2.4928831E-08
   40.08000     -2.6320812E-08
   40.14000     -2.7785699E-08
   40.20000     -2.9315895E-08
   40.26000     -3.0910400E-08
   40.32000     -3.2567378E-08
   40.38000     -3.4277182E-08
   40.44000     -3.6018076E-08
   40.50000     -3.7755679E-08
   40.56000     -3.9446075E-08
   40.62000     -4.1041659E-08
   40.68000     -4.2498492E-08
   40.74000     -4.3783341E-08
   40.80000     -4.4878220E-08
   40.86000     -4.5780400E-08
   40.92000     -4.6497149E-08
   40.98000     -4.7036526E-08
   41.04000     -4.7397993E-08
   41.10000     -4.7567433E-08
   41.16000     -4.7519837E-08
   41.22000     -4.7229651E-08
   41.28000     -4.6684935E-08
   41.34000     -4.5899402E-08
   41.40000     -4.4916899E-08
   41.46000     -4.3806036E-08
   41.52000     -4.2646462E-08
   41.58000     -4.1511427E-08
   41.64000     -4.0451887E-08
   41.70000     -3.9486551E-08
   41.76000     -3.8600071E-08
   41.82000     -3.7749619E-08
   41.88000     -3.6878319E-08
   41.94000     -3.5932562E-08
   42.00000     -3.4879204E-08
   42.06000     -3.3717882E-08
   42.12000     -3.2484543E-08
   42.18000     -3.1244340E-08
   42.24000     -3.0075650E-08
   42.30000     -2.9049950E-08
   42.36000     -2.8214043E-08
   42.42000     -2.7580233E-08
   42.48000     -2.7127191E-08
   42.54000     -2.6810667E-08
   42.60000     -2.6580139E-08
   42.66000     -2.6396016E-08
   42.72000     -2.6242224E-08
   42.78000     -2.6130589E-08
   42.84000     -2.6095755E-08
   42.90000     -2.6182175E-08
   42.96000     -2.6427230E-08
   43.02000     -2.6846097E-08
   43.08000     -2.7423905E-08
   43.14000     -2.8118510E-08
   43.20000     -2.8873423E-08
   43.26000     -2.9636416E-08
   43.32000     -3.0376853E-08
   43.38000     -3.1095023E-08
   43.44000     -3.1819766E-08
   43.50000     -3.2595143E-08
   43.56000     -3.3461006E-08
   43.62000     -3.4434457E-08
   43.68000     -3.5498619E-08
   43.74000     -3.6602437E-08
   43.80000     -3.7671469E-08
   43.86000     -3.8626151E-08
   43.92000     -3.9401954E-08
   43.98000     -3.9965457E-08
   44.04000     -4.0321826E-08
   44.10000     -4.0511733E-08
   44.16000     -4.0598849E-08
   44.22000     -4.0651624E-08
   44.28000     -4.0724593E-08
   44.34000     -4.0844313E-08
   44.40000     -4.1003684E-08
   44.46000     -4.1165954E-08
   44.52000     -4.1277065E-08
   44.58000     -4.1282672E-08
   44.64000     -4.1144880E-08
   44.70000     -4.0853770E-08
   44.76000     -4.0430379E-08
   44.82000     -3.9920227E-08
   44.88000     -3.9379849E-08
   44.94000     -3.8860797E-08
   45.00000     -3.8396525E-08
   45.06000     -3.7996156E-08
   45.12000     -3.7646437E-08
   45.18000     -3.7320131E-08
   45.24000     -3.6987071E-08
   45.30000     -3.6623891E-08
   45.36000     -3.6219646E-08
   45.42000     -3.5776800E-08
   45.48000     -3.5308641E-08
   45.54000     -3.4835004E-08
   45.60000     -3.4377891E-08
   45.66000     -3.3957839E-08
   45.72000     -3.3591174E-08
   45.78000     -3.3288121E-08
   45.84000     -3.3051766E-08
   45.90000     -3.2878233E-08
   45.96000     -3.2758294E-08
   46.02000     -3.2680344E-08
   46.08000     -3.2634059E-08
   46.14000     -3.2613595E-08
   46.20000     -3.2618917E-08
   46.26000     -3.2654341E-08
   46.32000     -3.2724351E-08
   46.38000     -3.2827916E-08
   46.44000     -3.2953434E-08
   46.50000     -3.3076610E-08
   46.56000     -3.3162511E-08
   46.62000     -3.3171450E-08
   46.68000     -3.3066840E-08
   46.74000     -3.2822356E-08
   46.80000     -3.2426136E-08
   46.86000     -3.1881118E-08
   46.92000     -3.1202021E-08
   46.98000     -3.0410384E-08
   47.04000     -2.9529133E-08
   47.10000     -2.8577753E-08
   47.16000     -2.7568577E-08
   47.22000     -2.6504704E-08
   47.28000     -2.5380112E-08
   47.34000     -2.4182395E-08
   47.40000     -2.2897998E-08
   47.46000     -2.1518886E-08
   47.52000     -2.0048658E-08
   47.58000     -1.8506169E-08
   47.64000     -1.6925341E-08
   47.70000     -1.5351240E-08
   47.76000     -1.3833674E-08
   47.82000     -1.2420142E-08
   47.88000     -1.1149909E-08
   47.94000     -1.0050295E-08
   48.00000     -9.1356185E-09
   48.06000     -8.4085796E-09
   48.12000     -7.8634699E-09
   48.18000     -7.4902555E-09
   48.24000     -7.2785071E-09
   48.30000     -7.2202773E-09
   48.36000     -7.3113631E-09
   48.42000     -7.5508968E-09
   48.48000     -7.9395397E-09
   48.54000     -8.4767899E-09
   48.60000     -9.1580743E-09
   48.66000     -9.9725241E-09
   48.72000     -1.0902580E-08
   48.78000     -1.1926326E-08
   48.84000     -1.3022599E-08
   48.90000     -1.4177474E-08
   48.96000     -1.5389473E-08
   49.02000     -1.6670869E-08
   49.08000     -1.8044133E-08
   49.14000     -1.9535186E-08
   49.20000     -2.1167294E-08
   49.26000     -2.2959460E-08
   49.32000     -2.4930848E-08
   49.38000     -2.7109316E-08
   49.44000     -2.9539843E-08
   49.50000     -3.2288895E-08
   49.56000     -3.5443353E-08
   49.62000     -3.9106030E-08
   49.68000     -4.3391513E-08
   49.74000     -4.8425218E-08
   49.80000     -5.4346206E-08
   49.86000     -6.1312129E-08
   49.92000     -6.9504267E-08
   49.98000     -7.9132164E-08
   50.04000     -9.0438753E-08
   50.10000     -1.0370757E-07
   50.16000     -1.1927237E-07
   50.22000     -1.3752810E-07
   50.28000     -1.5894148E-07
   50.34000     -1.8406034E-07
   50.40000     -2.1352298E-07
   50.46000     -2.4806866E-07
   50.52000     -2.8855032E-07
   50.58000     -3.3594873E-07
   50.64000     -3.9138564E-07
   50.70000     -4.5613601E-07
   50.76000     -5.3163984E-07
   50.82000     -6.1951772E-07
   50.88000     -7.2159253E-07
   50.94000     -8.3991785E-07
   51.00000     -9.7681016E-07
   51.06000     -1.1348811E-06
   51.12000     -1.3170686E-06
   51.18000     -1.5266662E-06
   51.24000     -1.7673540E-06
   51.30000     -2.0432321E-06
   51.36000     -2.3588539E-06
   51.42000     -2.7192591E-06
   51.48000     -3.1300044E-06
   51.54000     -3.5971912E-06
   51.60000     -4.1274998E-06
   51.66000     -4.7282279E-06
   51.72000     -5.4073344E-06
   51.78000     -6.1734854E-06
   51.84000     -7.0360911E-06
   51.90000     -8.0053387E-06
   51.96000     -9.0922149E-06
   52.02000     -1.0308531E-05
   52.08000     -1.1666946E-05
   52.14000     -1.3180989E-05
   52.20000     -1.4865083E-05
   52.26000     -1.6734546E-05
   52.32000     -1.8805593E-05
   52.38000     -2.1095320E-05
   52.44000     -2.3621684E-05
   52.50000     -2.6403475E-05
   52.56000     -2.9460296E-05
   52.62000     -3.2812502E-05
   52.68000     -3.6481157E-05
   52.74000     -4.0487921E-05
   52.80000     -4.4854965E-05
   52.86000     -4.9604874E-05
   52.92000     -5.4760512E-05
   52.98000     -6.0344930E-05
   53.04000     -6.6381188E-05
   53.10000     -7.2892217E-05
   53.16000     -7.9900587E-05
   53.22000     -8.7428351E-05
   53.28000     -9.5496835E-05
   53.34000     -1.0412640E-04
   53.40000     -1.1333627E-04
   53.46000     -1.2314429E-04
   53.52000     -1.3356665E-04
   53.58000     -1.4461770E-04
   53.64000     -1.5630964E-04
   53.70000     -1.6865222E-04
   53.76000     -1.8165255E-04
   53.82000     -1.9531487E-04
   53.88000     -2.0964029E-04
   53.94000     -2.2462658E-04
   54.00000     -2.4026795E-04
   54.06000     -2.5655483E-04
   54.12000     -2.7347376E-04
   54.18000     -2.9100716E-04
   54.24000     -3.0913344E-04
   54.30000     -3.2782665E-04
   54.36000     -3.4705660E-04
   54.42000     -3.6678868E-04
   54.48000     -3.8698400E-04
   54.54000     -4.0759944E-04
   54.60000     -4.2858763E-04
   54.66000     -4.4989723E-04
   54.72000     -4.7147306E-04
   54.78000     -4.9325626E-04
   54.84000     -5.1518466E-04
   54.90000     -5.3719297E-04
   54.96000     -5.5921328E-04
   55.02000     -5.8117538E-04
   55.08000     -6.0300704E-04
   55.14000     -6.2463473E-04
   55.20000     -6.4598396E-04
   55.26000     -6.6697982E-04
   55.32000     -6.8754720E-04
   55.38000     -7.0761208E-04
   55.44000     -7.2710105E-04
   55.50000     -7.4594276E-04
   55.56000     -7.6406787E-04