  -2.400000      0.0000000E+00
  -2.340000      0.0000000E+00
  -2.280000      0.0000000E+00
  -2.220000      0.0000000E+00
  -2.160000      0.0000000E+00
  -2.100000     -6.2804965E-19
  -2.040000     -2.8980194E-18
  -1.980000     -1.9798185E-18
  -1.920000      2.3628040E-17
  -1.860000      1.0437203E-16
  -1.800000      2.1899605E-16
  -1.740000      1.9217830E-16
  -1.680000     -3.3103212E-16
  -1.620000     -1.6423757E-15
  -1.560000     -3.3902665E-15
  -1.500000     -3.9774363E-15
  -1.440000     -6.8631792E-16
  -1.380000      8.7084228E-15
  -1.320000      2.2917146E-14
  -1.260000      3.4327311E-14
  -1.200000      2.9334537E-14
  -1.140000     -5.6421441E-15
  -1.080000     -7.2855554E-14
  -1.020000     -1.5175301E-13
 -0.9600000     -1.9620177E-13
 -0.9000000     -1.4852284E-13
 -0.8400000      2.8875970E-14
 -0.7800000      3.1552454E-13
 -0.7200000      6.1048399E-13
 -0.6600000      7.4865163E-13
 -0.6000000      5.6547209E-13
 -0.5400000     -6.1896793E-15
 -0.4800000     -8.5055221E-13
 -0.4200000     -1.6505331E-12
 -0.3600000     -1.9758294E-12
 -0.3000000     -1.4706425E-12
 -0.2400000     -7.4389679E-14
 -0.1800000      1.8348543E-12
 -0.1200000      3.4809796E-12
 -5.9999999E-02  3.9566618E-12
  0.0000000E+00  2.6487831E-12
  5.9999999E-02 -3.5308353E-13
  0.1200000     -4.0862478E-12
  0.1800000     -6.9427923E-12
  0.2400000     -7.2909474E-12
  0.3000000     -4.2764971E-12
  0.3600000      1.5599284E-12
  0.4200000      8.2099345E-12
  0.4800000      1.2833961E-11
  0.5400000      1.2944935E-11
  0.6000000      7.6607019E-12
  0.6600000     -1.5870010E-12
  0.7200000     -1.1342874E-11
  0.7800000     -1.7451738E-11
  0.8400000     -1.6933397E-11
  0.9000000     -9.5673209E-12
  0.9600000      1.6439179E-12
   1.020000      1.1530073E-11
   1.080000      1.5026055E-11
   1.140000      9.7123655E-12
   1.200000     -2.5905742E-12
   1.260000     -1.6086507E-11
   1.320000     -2.3252462E-11
   1.380000     -1.8260253E-11
   1.440000     -1.0451306E-13
   1.500000      2.6054164E-11
   1.560000      5.0152507E-11
   1.620000      6.0809580E-11
   1.680000      4.9889592E-11
   1.740000      1.6176815E-11
   1.800000     -3.3420648E-11
   1.860000     -8.5727959E-11
   1.920000     -1.2552792E-10
   1.980000     -1.4045369E-10
   2.040000     -1.2457532E-10
   2.100000     -7.9290761E-11
   2.160000     -1.1318333E-11
   2.220000      7.1153479E-11
   2.280000      1.6233785E-10
   2.340000      2.6098490E-10
   2.400000      3.6987619E-10
   2.460000      4.9302490E-10
   2.520000      6.3200251E-10
   2.580000      7.8324397E-10
   2.640000      9.3777486E-10
   2.700000      1.0837660E-09
   2.760000      1.2111028E-09
   2.820000      1.3162818E-09
   2.880000      1.4057672E-09
   2.940000      1.4964902E-09
   3.000000      1.6132087E-09
   3.060000      1.7835364E-09
   3.120000      2.0321964E-09
   3.180000      2.3762259E-09
   3.240000      2.8224401E-09
   3.300000      3.3676588E-09
   3.360000      4.0012798E-09
   3.420000      4.7090714E-09
   3.480000      5.4767417E-09
   3.540000      6.2920078E-09
   3.600000      7.1445041E-09
   3.660000      8.0237159E-09
   3.720000      8.9159382E-09
   3.780000      9.8017141E-09
   3.840000      1.0655163E-08
   3.900000      1.1445907E-08
   3.960000      1.2143292E-08
   4.020000      1.2721602E-08
   4.080000      1.3164409E-08
   4.140000      1.3466447E-08
   4.200000      1.3632338E-08
   4.260000      1.3672813E-08
   4.320000      1.3600208E-08
   4.380000      1.3425328E-08
   4.440000      1.3157186E-08
   4.500000      1.2805676E-08
   4.560000      1.2385678E-08
   4.620000      1.1920084E-08
   4.680000      1.1439366E-08
   4.740000      1.0976705E-08
   4.800000      1.0559696E-08
   4.860000      1.0201534E-08
   4.920000      9.8953343E-09
   4.980000      9.6144959E-09
   5.040000      9.3198222E-09
   5.100000      8.9715266E-09
   5.160000      8.5421492E-09
   5.220000      8.0258751E-09
   5.280000      7.4409279E-09
   5.340000      6.8241892E-09
   5.400000      6.2199730E-09
   5.460000      5.6668781E-09
   5.520000      5.1871063E-09
   5.580000      4.7815800E-09
   5.640000      4.4320410E-09
   5.700000      4.1089607E-09
   5.760000      3.7823131E-09
   5.820000      3.4315584E-09
   5.880000      3.0516705E-09
   5.940000      2.6534688E-09
   6.000000      2.2584574E-09
   6.060000      1.8902475E-09
   6.120000      1.5658695E-09
   6.180000      1.2904379E-09
   6.240000      1.0575075E-09
   6.300000      8.5533758E-10
   6.360000      6.7683725E-10
   6.420000      5.2917554E-10
   6.480000      4.3874432E-10
   6.540000      4.4865592E-10
   6.600000      6.0882110E-10
   6.660000      9.6172481E-10
   6.720000      1.5290088E-09
   6.780000      2.3039262E-09
   6.840000      3.2525642E-09
   6.900000      4.3233142E-09
   6.960000      5.4608442E-09
   7.020000      6.6191967E-09
   7.080000      7.7692910E-09
   7.140000      8.8987537E-09
   7.200000      1.0005386E-08
   7.260000      1.1088170E-08
   7.320000      1.2140323E-08
   7.380000      1.3147345E-08
   7.440000      1.4090024E-08
   7.500000      1.4949691E-08
   7.560000      1.5711857E-08
   7.620000      1.6365574E-08
   7.680000      1.6898703E-08
   7.740000      1.7292122E-08
   7.800000      1.7517173E-08
   7.860000      1.7539396E-08
   7.920000      1.7328146E-08
   7.980000      1.6868258E-08
   8.040000      1.6167995E-08
   8.100000      1.5258760E-08
   8.160000      1.4185828E-08
   8.220000      1.2993715E-08
   8.280000      1.1712622E-08
   8.340000      1.0351886E-08
   8.400000      8.9029824E-09
   8.460000      7.3501032E-09
   8.520000      5.6829750E-09
   8.580000      3.9061896E-09
   8.640000      2.0415694E-09
   8.700000      1.2374117E-10
   8.760000     -1.8080462E-09
   8.820000     -3.7180612E-09
   8.880000     -5.5796172E-09
   8.940000     -7.3775697E-09
   9.000000     -9.1089012E-09
   9.060000     -1.0782619E-08
   9.120000     -1.2419178E-08
   9.180000     -1.4048463E-08
   9.240000     -1.5705110E-08
   9.300000     -1.7420879E-08
   9.360000     -1.9215538E-08
   9.420000     -2.1089074E-08
   9.480000     -2.3018341E-08
   9.540000     -2.4960032E-08
   9.600000     -2.6859718E-08
   9.660000     -2.8664594E-08
   9.720000     -3.0336171E-08
   9.780000     -3.1859223E-08
   9.840000     -3.3244465E-08
   9.900000     -3.4524426E-08
   9.960000     -3.5743859E-08
   10.02000     -3.6947448E-08
   10.08000     -3.8167904E-08
   10.14000     -3.9417298E-08
   10.20000     -4.0683272E-08
   10.26000     -4.1930775E-08
   10.32000     -4.3108784E-08
   10.38000     -4.4160561E-08
   10.44000     -4.5035456E-08
   10.50000     -4.5699498E-08
   10.56000     -4.6142173E-08
   10.62000     -4.6377128E-08
   10.68000     -4.6436330E-08
   10.74000     -4.6359098E-08
   10.80000     -4.6179785E-08
   10.86000     -4.5918483E-08
   10.92000     -4.5578311E-08
   10.98000     -4.5149815E-08
   11.04000     -4.4619924E-08
   11.10000     -4.3980545E-08
   11.16000     -4.3232212E-08
   11.22000     -4.2380854E-08
   11.28000     -4.1429615E-08
   11.34000     -4.0370551E-08
   11.40000     -3.9181241E-08
   11.46000     -3.7828972E-08
   11.52000     -3.6281044E-08
   11.58000     -3.4516525E-08
   11.64000     -3.2534018E-08
   11.70000     -3.0352048E-08
   11.76000     -2.8002521E-08
   11.82000     -2.5521091E-08
   11.88000     -2.2939378E-08
   11.94000     -2.0282524E-08
   12.00000     -1.7572390E-08
   12.06000     -1.4833488E-08
   12.12000     -1.2097440E-08
   12.18000     -9.4026191E-09
   12.24000     -6.7883539E-09
   12.30000     -4.2859729E-09
   12.36000     -1.9107438E-09
   12.42000      3.4151296E-10
   12.48000      2.4913200E-09
   12.54000      4.5669246E-09
   12.60000      6.5933650E-09
   12.66000      8.5832408E-09
   12.72000      1.0532297E-08
   12.78000      1.2420938E-08
   12.84000      1.4220567E-08
   12.90000      1.5902209E-08
   12.96000      1.7444595E-08
   13.02000      1.8839696E-08
   13.08000      2.0094937E-08
   13.14000      2.1232340E-08
   13.20000      2.2285390E-08
   13.26000      2.3294390E-08
   13.32000      2.4300988E-08
   13.38000      2.5342542E-08
   13.44000      2.6447237E-08
   13.50000      2.7630991E-08
   13.56000      2.8896924E-08
   13.62000      3.0237615E-08
   13.68000      3.1639352E-08
   13.74000      3.3087002E-08
   13.80000      3.4567979E-08
   13.86000      3.6074084E-08
   13.92000      3.7600888E-08
   13.98000      3.9145000E-08
   14.04000      4.0700179E-08
   14.10000      4.2253500E-08
   14.16000      4.3782769E-08
   14.22000      4.5256151E-08
   14.28000      4.6634444E-08
   14.34000      4.7875790E-08
   14.40000      4.8941647E-08
   14.46000      4.9802583E-08
   14.52000      5.0442260E-08
   14.58000      5.0858699E-08
   14.64000      5.1062891E-08
   14.70000      5.1075503E-08
   14.76000      5.0922811E-08
   14.82000      5.0632682E-08
   14.88000      5.0230998E-08
   14.94000      4.9738617E-08
   15.00000      4.9168925E-08
   15.06000      4.8526381E-08
   15.12000      4.7806388E-08
   15.18000      4.6996693E-08
   15.24000      4.6080025E-08
   15.30000      4.5037353E-08
   15.36000      4.3851205E-08
   15.42000      4.2508812E-08
   15.48000      4.1005151E-08
   15.54000      3.9345746E-08
   15.60000      3.7548570E-08
   15.66000      3.5643758E-08
   15.72000      3.3670005E-08
   15.78000      3.1667476E-08
   15.84000      2.9668891E-08
   15.90000      2.7691751E-08
   15.96000      2.5734845E-08
   16.02000      2.3780879E-08
   16.08000      2.1804521E-08
   16.14000      1.9782993E-08
   16.20000      1.7705332E-08
   16.26000      1.5577244E-08
   16.32000      1.3420528E-08
   16.38000      1.1268317E-08
   16.44000      9.1586765E-09
   16.50000      7.1291173E-09
   16.56000      5.2133555E-09
   16.62000      3.4401926E-09
   16.68000      1.8332769E-09
   16.74000      4.1037351E-10
   16.80000     -8.1855056E-10
   16.86000     -1.8540028E-09
   16.92000     -2.7090428E-09
   16.98000     -3.4091185E-09
   17.04000     -3.9886090E-09
   17.10000     -4.4843071E-09
   17.16000     -4.9275379E-09
   17.22000     -5.3375468E-09
   17.28000     -5.7186207E-09
   17.34000     -6.0620384E-09
   17.40000     -6.3519350E-09
   17.46000     -6.5724319E-09
   17.52000     -6.7129213E-09
   17.58000     -6.7695063E-09
   17.64000     -6.7427179E-09
   17.70000     -6.6336510E-09
   17.76000     -6.4413772E-09
   17.82000     -6.1635177E-09
   17.88000     -5.7997633E-09
   17.94000     -5.3561791E-09
   18.00000     -4.8475117E-09
   18.06000     -4.2958206E-09
   18.12000     -3.7259005E-09
   18.18000     -3.1598493E-09
   18.24000     -2.6136331E-09
   18.30000     -2.0973416E-09
   18.36000     -1.6186973E-09
   18.42000     -1.1875552E-09
   18.48000     -8.1862106E-10
   18.54000     -5.3061827E-10
   18.60000     -3.4201897E-10
   18.66000     -2.6517649E-10
   18.72000     -3.0139566E-10
   18.78000     -4.3898216E-10
   18.84000     -6.5500916E-10
   18.90000     -9.2012331E-10
   18.96000     -1.2047349E-09
   19.02000     -1.4846303E-09
   19.08000     -1.7443350E-09
   19.14000     -1.9772979E-09
   19.20000     -2.1829747E-09
   19.26000     -2.3619597E-09
   19.32000     -2.5111397E-09
   19.38000     -2.6210230E-09
   19.44000     -2.6766962E-09
   19.50000     -2.6624170E-09
   19.56000     -2.5682123E-09
   19.62000     -2.3958546E-09
   19.68000     -2.1617699E-09
   19.74000     -1.8958000E-09
   19.80000     -1.6365568E-09
   19.86000     -1.4254626E-09
   19.92000     -1.3017605E-09
   19.98000     -1.2998144E-09
   20.04000     -1.4485594E-09
   20.10000     -1.7718969E-09
   20.16000     -2.2886772E-09
   20.22000     -3.0116138E-09
   20.28000     -3.9454471E-09
   20.34000     -5.0852900E-09
   20.40000     -6.4160548E-09
   20.46000     -7.9133775E-09
   20.52000     -9.5458912E-09
   20.58000     -1.1278385E-08
   20.64000     -1.3075355E-08
   20.70000     -1.4904419E-08
   20.76000     -1.6739021E-08
   20.82000     -1.8559772E-08
   20.88000     -2.0353935E-08
   20.94000     -2.2113133E-08
   21.00000     -2.3830175E-08
   21.06000     -2.5496417E-08
   21.12000     -2.7100963E-08
   21.18000     -2.8632186E-08
   21.24000     -3.0080908E-08
   21.30000     -3.1443751E-08
   21.36000     -3.2725318E-08
   21.42000     -3.3938548E-08
   21.48000     -3.5103792E-08
   21.54000     -3.6247343E-08
   21.60000     -3.7400074E-08
   21.66000     -3.8595680E-08
   21.72000     -3.9867526E-08
   21.78000     -4.1243311E-08
   21.84000     -4.2737909E-08
   21.90000     -4.4346340E-08
   21.96000     -4.6039613E-08
   22.02000     -4.7765802E-08
   22.08000     -4.9456851E-08
   22.14000     -5.1039486E-08
   22.20000     -5.2446911E-08
   22.26000     -5.3627993E-08
   22.32000     -5.4551709E-08
   22.38000     -5.5206826E-08
   22.44000     -5.5598179E-08
   22.50000     -5.5741719E-08
   22.56000     -5.5659626E-08
   22.62000     -5.5376024E-08
   22.68000     -5.4912725E-08
   22.74000     -5.4284818E-08
   22.80000     -5.3496549E-08
   22.86000     -5.2538940E-08
   22.92000     -5.1390909E-08
   22.98000     -5.0024742E-08
   23.04000     -4.8415050E-08
   23.10000     -4.6548646E-08
   23.16000     -4.4431840E-08
   23.22000     -4.2092328E-08
   23.28000     -3.9574822E-08
   23.34000     -3.6931915E-08
   23.40000     -3.4213350E-08
   23.46000     -3.1457262E-08
   23.52000     -2.8685722E-08
   23.58000     -2.5905090E-08
   23.64000     -2.3109951E-08
   23.70000     -2.0288754E-08
   23.76000     -1.7429491E-08
   23.82000     -1.4524551E-08
   23.88000     -1.1574449E-08
   23.94000     -8.5902139E-09
   24.00000     -5.5938818E-09
   24.06000     -2.6163822E-09
   24.12000      3.0735567E-10
   24.18000      3.1451004E-09
   24.24000      5.8736256E-09
   24.30000      8.4819787E-09
   24.36000      1.0969893E-08
   24.42000      1.3341469E-08
   24.48000      1.5596436E-08
   24.54000      1.7722579E-08
   24.60000      1.9692653E-08
   24.66000      2.1467304E-08
   24.72000      2.3003034E-08
   24.78000      2.4262327E-08
   24.84000      2.5222370E-08
   24.90000      2.5879633E-08
   24.96000      2.6249323E-08
   25.02000      2.6360443E-08
   25.08000      2.6248417E-08
   25.14000      2.5947417E-08
   25.20000      2.5484161E-08
   25.26000      2.4874177E-08
   25.32000      2.4120862E-08
   25.38000      2.3217085E-08
   25.44000      2.2148692E-08
   25.50000      2.0898907E-08
   25.56000      1.9452479E-08
   25.62000      1.7798527E-08
   25.68000      1.5931452E-08
   25.74000      1.3849888E-08
   25.80000      1.1554437E-08
   25.86000      9.0451966E-09
   25.92000      6.3202861E-09
   25.98000      3.3760861E-09
   26.04000      2.0943933E-10
   26.10000     -3.1786300E-09
   26.16000     -6.7785790E-09
   26.22000     -1.0568588E-08
   26.28000     -1.4512560E-08
   26.34000     -1.8560748E-08
   26.40000     -2.2653209E-08
   26.46000     -2.6725543E-08
   26.52000     -3.0715533E-08
   26.58000     -3.4569027E-08
   26.64000     -3.8243488E-08
   26.70000     -4.1708443E-08
   26.76000     -4.4943167E-08
   26.82000     -4.7932769E-08
   26.88000     -5.0664259E-08
   26.94000     -5.3123799E-08
   27.00000     -5.5295608E-08
   27.06000     -5.7162026E-08
   27.12000     -5.8704082E-08
   27.18000     -5.9901964E-08
   27.24000     -6.0735537E-08
   27.30000     -6.1185688E-08
   27.36000     -6.1237053E-08
   27.42000     -6.0882371E-08
   27.48000     -6.0127469E-08
   27.54000     -5.8995052E-08
   27.60000     -5.7525504E-08
   27.66000     -5.5773526E-08
   27.72000     -5.3800932E-08
   27.78000     -5.1667364E-08
   27.84000     -4.9421384E-08
   27.90000     -4.7094410E-08
   27.96000     -4.4698787E-08
   28.02000     -4.2230237E-08
   28.08000     -3.9673424E-08
   28.14000     -3.7009094E-08
   28.20000     -3.4220918E-08
   28.26000     -3.1300903E-08
   28.32000     -2.8252613E-08
   28.38000     -2.5092197E-08
   28.44000     -2.1847450E-08
   28.50000     -1.8555433E-08
   28.56000     -1.5259131E-08
   28.62000     -1.2003659E-08
   28.68000     -8.8323979E-09
   28.74000     -5.7834306E-09
   28.80000     -2.8866145E-09
   28.86000     -1.6158444E-10
   28.92000      2.3830593E-09
   28.98000      4.7492903E-09
   29.04000      6.9480097E-09
   29.10000      8.9964676E-09
   29.16000      1.0915058E-08
   29.22000      1.2723766E-08
   29.28000      1.4438503E-08
   29.34000      1.6067613E-08
   29.40000      1.7609082E-08
   29.46000      1.9049095E-08
   29.52000      2.0362700E-08
   29.58000      2.1516824E-08
   29.64000      2.2475199E-08
   29.70000      2.3204013E-08
   29.76000      2.3676646E-08
   29.82000      2.3876273E-08
   29.88000      2.3795849E-08
   29.94000      2.3436197E-08
   30.00000      2.2803471E-08
   30.06000      2.1907272E-08
   30.12000      2.0760003E-08
   30.18000      1.9377186E-08
   30.24000      1.7777921E-08
   30.30000      1.5984748E-08
   30.36000      1.4022658E-08
   30.42000      1.1917634E-08
   30.48000      9.6953654E-09
   30.54000      7.3805642E-09
   30.60000      4.9969482E-09
   30.66000      2.5675408E-09
   30.72000      1.1493807E-10
   30.78000     -2.3385980E-09
   30.84000     -4.7711355E-09
   30.90000     -7.1610509E-09
   30.96000     -9.4870902E-09
   31.02000     -1.1728865E-08
   31.08000     -1.3868042E-08
   31.14000     -1.5890095E-08
   31.20000     -1.7785853E-08
   31.26000     -1.9551685E-08
   31.32000     -2.1187464E-08
   31.38000     -2.2692355E-08
   31.44000     -2.4059736E-08
   31.50000     -2.5273401E-08
   31.56000     -2.6307223E-08
   31.62000     -2.7129328E-08
   31.68000     -2.7710120E-08
   31.74000     -2.8031762E-08
   31.80000     -2.8096002E-08
   31.86000     -2.7927641E-08
   31.92000     -2.7572444E-08
   31.98000     -2.7090342E-08
   32.04000     -2.6546216E-08
   32.10000     -2.6001173E-08
   32.16000     -2.5506676E-08
   32.22000     -2.5102471E-08
   32.28000     -2.4817826E-08
   32.34000     -2.4674620E-08
   32.40000     -2.4690481E-08
   32.46000     -2.4880656E-08
   32.52000     -2.5257975E-08
   32.58000     -2.5831136E-08
   32.64000     -2.6602018E-08
   32.70000     -2.7563001E-08
   32.76000     -2.8695359E-08
   32.82000     -2.9969542E-08
   32.88000     -3.1347792E-08
   32.94000     -3.2788776E-08
   33.00000     -3.4253148E-08
   33.06000     -3.5708251E-08
   33.12000     -3.7130121E-08
   33.18000     -3.8501675E-08
   33.24000     -3.9807329E-08
   33.30000     -4.1025899E-08
   33.36000     -4.2124743E-08
   33.42000     -4.3057867E-08
   33.48000     -4.3769585E-08
   33.54000     -4.4203105E-08
   33.60000     -4.4311530E-08
   33.66000     -4.4067789E-08
   33.72000     -4.3470191E-08
   33.78000     -4.2542087E-08
   33.84000     -4.1326008E-08
   33.90000     -3.9874422E-08
   33.96000     -3.8240032E-08
   34.02000     -3.6468187E-08
   34.08000     -3.4592954E-08
   34.14000     -3.2637058E-08
   34.20000     -3.0615048E-08
   34.26000     -2.8538384E-08
   34.32000     -2.6421048E-08
   34.38000     -2.4284345E-08
   34.44000     -2.2159538E-08
   34.50000     -2.0087287E-08
   34.56000     -1.8113443E-08
   34.62000     -1.6281859E-08
   34.68000     -1.4626059E-08
   34.74000     -1.3162566E-08
   34.80000     -1.1888623E-08
   34.86000     -1.0785724E-08
   34.92000     -9.8281845E-09
   34.98000     -8.9937657E-09
   35.04000     -8.2722620E-09
   35.10000     -7.6684916E-09
   35.16000     -7.1984121E-09
   35.22000     -6.8798940E-09
   35.28000     -6.7219506E-09
   35.34000     -6.7167698E-09
   35.40000     -6.8375678E-09
   35.46000     -7.0428396E-09
   35.52000     -7.2850619E-09
   35.58000     -7.5205042E-09
   35.64000     -7.7169098E-09
   35.70000     -7.8570697E-09
   35.76000     -7.9380804E-09
   35.82000     -7.9674907E-09
   35.88000     -7.9582181E-09
   35.94000     -7.9240001E-09
   36.00000     -7.8765838E-09
   36.06000     -7.8250482E-09
   36.12000     -7.7769373E-09
   36.18000     -7.7403550E-09
   36.24000     -7.7259275E-09
   36.30000     -7.7476887E-09
   36.36000     -7.8223561E-09
   36.42000     -7.9670848E-09
   36.48000     -8.1963210E-09
   36.54000     -8.5185574E-09
   36.60000     -8.9337613E-09
   36.66000     -9.4319015E-09
   36.72000     -9.9928181E-09
   36.78000     -1.0587508E-08
   36.84000     -1.1180853E-08
   36.90000     -1.1735662E-08
   36.96000     -1.2217471E-08
   37.02000     -1.2599132E-08
   37.08000     -1.2864060E-08
   37.14000     -1.3007210E-08
   37.20000     -1.3033703E-08
   37.26000     -1.2955779E-08
   37.32000     -1.2789261E-08
   37.38000     -1.2550590E-08
   37.44000     -1.2254833E-08
   37.50000     -1.1914532E-08
   37.56000     -1.1539036E-08
   37.62000     -1.1134357E-08
   37.68000     -1.0704038E-08
   37.74000     -1.0251672E-08
   37.80000     -9.7850643E-09
   37.86000     -9.3209040E-09
   37.92000     -8.8879561E-09
   37.98000     -8.5266523E-09
   38.04000     -8.2841272E-09
   38.10000     -8.2055349E-09
   38.16000     -8.3241831E-09
   38.22000     -8.6536955E-09
   38.28000     -9.1847383E-09
   38.34000     -9.8871693E-09
   38.40000     -1.0716607E-08
   38.46000     -1.1623148E-08
   38.52000     -1.2559760E-08
   38.58000     -1.3488538E-08
   38.64000     -1.4384070E-08
   38.70000     -1.5234116E-08
   38.76000     -1.6038308E-08
   38.82000     -1.6805675E-08
   38.88000     -1.7551606E-08
   38.94000     -1.8294811E-08
   39.00000     -1.9054525E-08
   39.06000     -1.9848352E-08
   39.12000     -2.0690880E-08
   39.18000     -2.1593156E-08
   39.24000     -2.2562816E-08
   39.30000     -2.3604519E-08
   39.36000     -2.4720222E-08
   39.42000     -2.5908845E-08
   39.48000     -2.7165253E-08
   39.54000     -2.8478823E-08
   39.60000     -2.9832282E-08
   39.66000     -3.1201704E-08
   39.72000     -3.2558361E-08
   39.78000     -3.3872467E-08
   39.84000     -3.5118084E-08
   39.90000     -3.6277722E-08
   39.96000     -3.7345011E-08
   40.02000     -3.8324210E-08
   40.08000     -3.9226400E-08
   40.14000     -4.0063330E-08
   40.20000     -4.0840686E-08
   40.26000     -4.1553029E-08
   40.32000     -4.2182020E-08
   40.38000     -4.2698762E-08
   40.44000     -4.3069853E-08
   40.50000     -4.3265683E-08
   40.56000     -4.3268795E-08
   40.62000     -4.3079844E-08
   40.68000     -4.2719268E-08
   40.74000     -4.2223796E-08
   40.80000     -4.1638479E-08
   40.86000     -4.1006484E-08
   40.92000     -4.0359744E-08
   40.98000     -3.9713402E-08
   41.04000     -3.9065618E-08
   41.10000     -3.8402398E-08
   41.16000     -3.7705092E-08
   41.22000     -3.6957484E-08
   41.28000     -3.6149860E-08
   41.34000     -3.5279150E-08
   41.40000     -3.4346279E-08
   41.46000     -3.3352929E-08
   41.52000     -3.2300143E-08
   41.58000     -3.1189664E-08
   41.64000     -3.0027401E-08
   41.70000     -2.8827046E-08
   41.76000     -2.7611723E-08
   41.82000     -2.6412538E-08
   41.88000     -2.5264233E-08
   41.94000     -2.4199419E-08
   42.00000     -2.3243166E-08
   42.06000     -2.2409429E-08
   42.12000     -2.1699920E-08
   42.18000     -2.1105352E-08
   42.24000     -2.0608587E-08
   42.30000     -2.0189054E-08
   42.36000     -1.9827768E-08
   42.42000     -1.9511930E-08
   42.48000     -1.9237950E-08
   42.54000     -1.9011676E-08
   42.60000     -1.8845382E-08
   42.66000     -1.8752123E-08
   42.72000     -1.8739307E-08
   42.78000     -1.8803961E-08
   42.84000     -1.8931770E-08
   42.90000     -1.9100515E-08
   42.96000     -1.9286851E-08
   43.02000     -1.9473912E-08
   43.08000     -1.9657016E-08
   43.14000     -1.9845563E-08
   43.20000     -2.0060780E-08
   43.26000     -2.0330507E-08
   43.32000     -2.0682970E-08
   43.38000     -2.1141398E-08
   43.44000     -2.1720572E-08
   43.50000     -2.2425429E-08
   43.56000     -2.3251308E-08
   43.62000     -2.4185299E-08
   43.68000     -2.5208344E-08
   43.74000     -2.6297991E-08
   43.80000     -2.7431572E-08
   43.86000     -2.8589325E-08
   43.92000     -2.9756572E-08
   43.98000     -3.0924124E-08
   44.04000     -3.2086461E-08
   44.10000     -3.3238138E-08
   44.16000     -3.4369727E-08
   44.22000     -3.5465074E-08
   44.28000     -3.6501540E-08
   44.34000     -3.7453820E-08
   44.40000     -3.8300659E-08
   44.46000     -3.9032521E-08
   44.52000     -3.9657539E-08
   44.58000     -4.0203268E-08
   44.64000     -4.0713001E-08
   44.70000     -4.1237101E-08
   44.76000     -4.1821480E-08
   44.82000     -4.2496691E-08
   44.88000     -4.3270973E-08
   44.94000     -4.4129649E-08
   45.00000     -4.5041237E-08
   45.06000     -4.5968594E-08
   45.12000     -4.6881873E-08
   45.18000     -4.7769742E-08
   45.24000     -4.8646186E-08
   45.30000     -4.9551840E-08
   45.36000     -5.0550600E-08
   45.42000     -5.1723383E-08
   45.48000     -5.3161298E-08
   45.54000     -5.4960008E-08
   45.60000     -5.7216440E-08
   45.66000     -6.0028079E-08
   45.72000     -6.3494682E-08
   45.78000     -6.7721821E-08
   45.84000     -7.2825699E-08
   45.90000     -7.8938342E-08
   45.96000     -8.6212772E-08
   46.02000     -9.4827989E-08
   46.08000     -1.0499398E-07
   46.14000     -1.1695737E-07
   46.20000     -1.3100801E-07
   46.26000     -1.4748665E-07
   46.32000     -1.6679321E-07
   46.38000     -1.8939491E-07
   46.44000     -2.1583351E-07
   46.50000     -2.4673162E-07
   46.56000     -2.8279845E-07
   46.62000     -3.2483507E-07
   46.68000     -3.7374005E-07
   46.74000     -4.3051557E-07
   46.80000     -4.9627454E-07
   46.86000     -5.7224963E-07
   46.92000     -6.5980612E-07
   46.98000     -7.6045637E-07
   47.04000     -8.7587881E-07
   47.10000     -1.0079375E-06
   47.16000     -1.1587015E-06
   47.22000     -1.3304613E-06
   47.28000     -1.5257446E-06
   47.34000     -1.7473304E-06
   47.40000     -1.9982622E-06
   47.46000     -2.2818624E-06
   47.52000     -2.6017453E-06
   47.58000     -2.9618313E-06
   47.64000     -3.3663580E-06
   47.70000     -3.8198900E-06
   47.76000     -4.3273262E-06
   47.82000     -4.8939100E-06
   47.88000     -5.5252372E-06
   47.94000     -6.2272611E-06
   48.00000     -7.0062993E-06
   48.06000     -7.8690282E-06
   48.12000     -8.8224760E-06
   48.18000     -9.8740029E-06
   48.24000     -1.1031285E-05
   48.30000     -1.2302291E-05
   48.36000     -1.3695262E-05
   48.42000     -1.5218685E-05
   48.48000     -1.6881255E-05
   48.54000     -1.8691846E-05
   48.60000     -2.0659467E-05
   48.66000     -2.2793196E-05
   48.72000     -2.5102147E-05
   48.78000     -2.7595366E-05
   48.84000     -3.0281777E-05
   48.90000     -3.3170087E-05
   48.96000     -3.6268710E-05
   49.02000     -3.9585673E-05
   49.08000     -4.3128537E-05
   49.14000     -4.6904279E-05
   49.20000     -5.0919218E-05
   49.26000     -5.5178902E-05
   49.32000     -5.9688016E-05
   49.38000     -6.4450294E-05
   49.44000     -6.9468399E-05
   49.50000     -7.4743868E-05
   49.56000     -8.0276972E-05
   49.62000     -8.6066641E-05
   49.68000     -9.2110400E-05
   49.74000     -9.8404278E-05
   49.80000     -1.0494277E-04
   49.86000     -1.1171881E-04
   49.92000     -1.1872369E-04
   49.98000     -1.2594712E-04
   50.04000     -1.3337714E-04
   50.10000     -1.4100024E-04
   50.16000     -1.4880128E-04
   50.22000     -1.5676355E-04
   50.28000     -1.6486883E-04
   50.34000     -1.7309755E-04
   50.40000     -1.8142878E-04
   50.46000     -1.8984052E-04
   50.52000     -1.9830966E-04
   50.58000     -2.0681227E-04
   50.64000     -2.1532370E-04
   50.70000     -2.2381876E-04
   50.76000     -2.3227195E-04
   50.82000     -2.4065777E-04
   50.88000     -2.4895079E-04
   50.94000     -2.5712603E-04
   51.00000     -2.6515909E-04
   51.06000     -2.7302632E-04
   51.12000     -2.8070528E-04
   51.18000     -2.8817478E-04
   51.24000     -2.9541532E-04
   51.30000     -3.0240914E-04
   51.36000     -3.0914054E-04
   51.42000     -3.1559591E-04
   51.48000     -3.2176389E-04
   51.54000     -3.2763553E-04
   51.60000     -3.3320463E-04
   51.66000     -3.3846765E-04
   51.72000     -3.4342380E-04
   51.78000     -3.4807526E-04
   51.84000     -3.5242687E-04
   51.90000     -3.5648621E-04
   51.96000     -3.6026363E-04
   52.02000     -3.6377204E-04
   52.08000     -3.6702678E-04
   52.14000     -3.7004569E-04
   52.20000     -3.7284868E-04
   52.26000     -3.7545746E-04
   52.32000     -3.7789557E-04
   52.38000     -3.8018773E-04
   52.44000     -3.8235990E-04
   52.50000     -3.8443875E-04
   52.56000     -3.8645149E-04
   52.62000     -3.8842543E-04
   52.68000     -3.9038763E-04
   52.74000     -3.9236477E-04
   52.80000     -3.9438272E-04
   52.86000     -3.9646623E-04
   52.92000     -3.9863860E-04
   52.98000     -4.0092127E-04
   53.04000     -4.0333366E-04
   53.10000     -4.0589276E-04
   53.16000     -4.0861321E-04
   53.22000     -4.1150703E-04
   53.28000     -4.1458348E-04
   53.34000     -4.1784887E-04
   53.40000     -4.2130653E-04
   53.46000     -4.2495664E-04
   53.52000     -4.2879643E-04
   53.58000     -4.3282015E-04
   53.64000     -4.3701913E-04
   53.70000     -4.4138197E-04
   53.76000     -4.4589472E-04
   53.82000     -4.5054095E-04
   53.88000     -4.5530213E-04
   53.94000     -4.6015781E-04
   54.00000     -4.6508608E-04
   54.06000     -4.7006359E-04
   54.12000     -4.7506593E-04
   54.18000     -4.8006795E-04
   54.24000     -4.8504412E-04
   54.30000     -4.8996886E-04
   54.36000     -4.9481692E-04
   54.42000     -4.9956376E-04
   54.48000     -5.0418603E-04
   54.54000     -5.0866127E-04
   54.60000     -5.1296846E-04
   54.66000     -5.1708845E-04
   54.72000     -5.2100385E-04
   54.78000     -5.2469975E-04
   54.84000     -5.2816374E-04
   54.90000     -5.3138577E-04
   54.96000     -5.3435843E-04
   55.02000     -5.3707650E-04
   55.08000     -5.3953723E-04
   55.14000     -5.4174021E-04
   55.20000     -5.4368778E-04
   55.26000     -5.4538442E-04
   55.32000     -5.4683705E-04
   55.38000     -5.4805458E-04
   55.44000     -5.4904766E-04
   55.50000     -5.4982852E-04
   55.56000     -5.5041042E-04