  -2.400000      0.0000000E+00
  -2.340000      0.0000000E+00
  -2.280000      0.0000000E+00
  -2.220000      0.0000000E+00
  -2.160000      0.0000000E+00
  -2.100000      1.0704571E-19
  -2.040000      9.9850264E-19
  -1.980000      4.5887613E-18
  -1.920000      1.3205001E-17
  -1.860000      2.4173002E-17
  -1.800000      1.9394775E-17
  -1.740000     -4.0973492E-17
  -1.680000     -2.0086952E-16
  -1.620000     -4.5069511E-16
  -1.560000     -6.4643236E-16
  -1.500000     -4.7464471E-16
  -1.440000      4.3905918E-16
  -1.380000      2.2324803E-15
  -1.320000      4.4227787E-15
  -1.260000      5.7110447E-15
  -1.200000      4.3004523E-15
  -1.140000     -1.1481373E-15
  -1.080000     -1.0232083E-14
  -1.020000     -1.9940384E-14
 -0.9600000     -2.5048136E-14
 -0.9000000     -2.0142000E-14
 -0.8400000     -2.7095595E-15
 -0.7800000      2.4189309E-14
 -0.7200000      5.1414714E-14
 -0.6600000      6.6396643E-14
 -0.6000000      5.8383955E-14
 -0.5400000      2.4152523E-14
 -0.4800000     -2.8654887E-14
 -0.4200000     -8.2655786E-14
 -0.3600000     -1.1651291E-13
 -0.3000000     -1.1337049E-13
 -0.2400000     -6.8518691E-14
 -0.1800000      7.0947331E-15
 -0.1200000      8.9387739E-14
 -5.9999999E-02  1.4923262E-13
  0.0000000E+00  1.6331405E-13
  5.9999999E-02  1.2351476E-13
  0.1200000      4.0674949E-14
  0.1800000     -5.9521812E-14
  0.2400000     -1.4738104E-13
  0.3000000     -2.0190426E-13
  0.3600000     -2.1849995E-13
  0.4200000     -2.0632506E-13
  0.4800000     -1.7529852E-13
  0.5400000     -1.2003683E-13
  0.6000000     -1.2698513E-14
  0.6600000      1.8523389E-13
  0.7200000      4.9197240E-13
  0.7800000      8.6860770E-13
  0.8400000      1.1993724E-12
  0.9000000      1.3097407E-12
  0.9600000      1.0271432E-12
   1.020000      2.6557551E-13
   1.080000     -9.0320015E-13
   1.140000     -2.2308689E-12
   1.200000     -3.3461721E-12
   1.260000     -3.8687621E-12
   1.320000     -3.5418474E-12
   1.380000     -2.3310264E-12
   1.440000     -4.4981407E-13
   1.500000      1.6972215E-12
   1.560000      3.6305587E-12
   1.620000      4.9288768E-12
   1.680000      5.3373668E-12
   1.740000      4.8242270E-12
   1.800000      3.5771813E-12
   1.860000      1.9459237E-12
   1.920000      3.4402128E-13
   1.980000     -8.7083839E-13
   2.040000     -1.5123079E-12
   2.100000     -1.6432779E-12
   2.160000     -1.5822634E-12
   2.220000     -1.8169957E-12
   2.280000     -2.8292913E-12
   2.340000     -4.8637760E-12
   2.400000     -7.6910370E-12
   2.460000     -1.0415014E-11
   2.520000     -1.1358962E-11
   2.580000     -8.0471688E-12
   2.640000      2.7065826E-12
   2.700000      2.4587284E-11
   2.760000      6.1424171E-11
   2.820000      1.1669253E-10
   2.880000      1.9292040E-10
   2.940000      2.9111596E-10
   3.000000      4.1038078E-10
   3.060000      5.4786892E-10
   3.120000      6.9917255E-10
   3.180000      8.5908314E-10
   3.240000      1.0225358E-09
   3.300000      1.1854663E-09
   3.360000      1.3453223E-09
   3.420000      1.5010901E-09
   3.480000      1.6528652E-09
   3.540000      1.8011587E-09
   3.600000      1.9462210E-09
   3.660000      2.0876361E-09
   3.720000      2.2243321E-09
   3.780000      2.3549771E-09
   3.840000      2.4785742E-09
   3.900000      2.5949876E-09
   3.960000      2.7051508E-09
   4.020000      2.8108318E-09
   4.080000      2.9140077E-09
   4.140000      3.0160698E-09
   4.200000      3.1171588E-09
   4.260000      3.2158993E-09
   4.320000      3.3096421E-09
   4.380000      3.3951182E-09
   4.440000      3.4692351E-09
   4.500000      3.5296914E-09
   4.560000      3.5751857E-09
   4.620000      3.6052050E-09
   4.680000      3.6195951E-09
   4.740000      3.6182446E-09
   4.800000      3.6011540E-09
   4.860000      3.5689312E-09
   4.920000      3.5234664E-09
   4.980000      3.4683203E-09
   5.040000      3.4083596E-09
   5.100000      3.3484340E-09
   5.160000      3.2913201E-09
   5.220000      3.2355993E-09
   5.280000      3.1743563E-09
   5.340000      3.0954692E-09
   5.400000      2.9837739E-09
   5.460000      2.8247196E-09
   5.520000      2.6085161E-09
   5.580000      2.3335043E-09
   5.640000      2.0076893E-09
   5.700000      1.6480199E-09
   5.760000      1.2778525E-09
   5.820000      9.2372521E-10
   5.880000      6.1281985E-10
   5.940000      3.7210565E-10
   6.000000      2.2931181E-10
   6.060000      2.1486520E-10
   6.120000      3.6323305E-10
   6.180000      7.1207196E-10
   6.240000      1.2983004E-09
   6.300000      2.1514566E-09
   6.360000      3.2859622E-09
   6.420000      4.6946420E-09
   6.480000      6.3456937E-09
   6.540000      8.1842391E-09
   6.600000      1.0138059E-08
   6.660000      1.2125769E-08
   6.720000      1.4065023E-08
   6.780000      1.5878761E-08
   6.840000      1.7498659E-08
   6.900000      1.8866336E-08
   6.960000      1.9933852E-08
   7.020000      2.0665063E-08
   7.080000      2.1038533E-08
   7.140000      2.1051472E-08
   7.200000      2.0722936E-08
   7.260000      2.0094307E-08
   7.320000      1.9225654E-08
   7.380000      1.8187995E-08
   7.440000      1.7052946E-08
   7.500000      1.5882367E-08
   7.560000      1.4720687E-08
   7.620000      1.3591885E-08
   7.680000      1.2501678E-08
   7.740000      1.1443970E-08
   7.800000      1.0409493E-08
   7.860000      9.3941424E-09
   7.920000      8.4048368E-09
   7.980000      7.4616748E-09
   8.040000      6.5963142E-09
   8.100000      5.8475429E-09
   8.160000      5.2555817E-09
   8.220000      4.8565627E-09
   8.280000      4.6780784E-09
   8.340000      4.7359285E-09
   8.400000      5.0316724E-09
   8.460000      5.5505569E-09
   8.520000      6.2599210E-09
   8.580000      7.1088455E-09
   8.640000      8.0302360E-09
   8.700000      8.9462819E-09
   8.760000      9.7772661E-09
   8.820000      1.0452371E-08
   8.880000      1.0920003E-08
   8.940000      1.1154851E-08
   9.000000      1.1159563E-08
   9.060000      1.0960462E-08
   9.120000      1.0598582E-08
   9.180000      1.0118733E-08
   9.240000      9.5599013E-09
   9.300000      8.9497112E-09
   9.360000      8.3041209E-09
   9.420000      7.6315736E-09
   9.480000      6.9390378E-09
   9.540000      6.2365899E-09
   9.600000      5.5377480E-09
   9.660000      4.8546185E-09
   9.720000      4.1894368E-09
   9.780000      3.5262564E-09
   9.840000      2.8272462E-09
   9.900000      2.0368554E-09
   9.960000      1.0942003E-09
   10.02000     -4.9448983E-11
   10.08000     -1.4137498E-09
   10.14000     -2.9790761E-09
   10.20000     -4.6871844E-09
   10.26000     -6.4532419E-09
   10.32000     -8.1857934E-09
   10.38000     -9.8085593E-09
   10.44000     -1.1277478E-08
   10.50000     -1.2588176E-08
   10.56000     -1.3772190E-08
   10.62000     -1.4883650E-08
   10.68000     -1.5980730E-08
   10.74000     -1.7107238E-08
   10.80000     -1.8279332E-08
   10.86000     -1.9480682E-08
   10.92000     -2.0666990E-08
   10.98000     -2.1778259E-08
   11.04000     -2.2755090E-08
   11.10000     -2.3554152E-08
   11.16000     -2.4158179E-08
   11.22000     -2.4577430E-08
   11.28000     -2.4842119E-08
   11.34000     -2.4988134E-08
   11.40000     -2.5040611E-08
   11.46000     -2.5000761E-08
   11.52000     -2.4840483E-08
   11.58000     -2.4507019E-08
   11.64000     -2.3936806E-08
   11.70000     -2.3074705E-08
   11.76000     -2.1892852E-08
   11.82000     -2.0403183E-08
   11.88000     -1.8659268E-08
   11.94000     -1.6746238E-08
   12.00000     -1.4761254E-08
   12.06000     -1.2790059E-08
   12.12000     -1.0886609E-08
   12.18000     -9.0618562E-09
   12.24000     -7.2850850E-09
   12.30000     -5.4972045E-09
   12.36000     -3.6318961E-09
   12.42000     -1.6383416E-09
   12.48000      5.0085064E-10
   12.54000      2.7611728E-09
   12.60000      5.0789928E-09
   12.66000      7.3643367E-09
   12.72000      9.5199786E-09
   12.78000      1.1461756E-08
   12.84000      1.3134840E-08
   12.90000      1.4521827E-08
   12.96000      1.5640582E-08
   13.02000      1.6532550E-08
   13.08000      1.7244979E-08
   13.14000      1.7812402E-08
   13.20000      1.8243110E-08
   13.26000      1.8514980E-08
   13.32000      1.8582147E-08
   13.38000      1.8390686E-08
   13.44000      1.7898536E-08
   13.50000      1.7093603E-08
   13.56000      1.6004371E-08
   13.62000      1.4699599E-08
   13.68000      1.3276867E-08
   13.74000      1.1842990E-08
   13.80000      1.0491732E-08
   13.86000      9.2850101E-09
   13.92000      8.2427372E-09
   13.98000      7.3438775E-09
   14.04000      6.5379298E-09
   14.10000      5.7630585E-09
   14.16000      4.9654125E-09
   14.22000      4.1142219E-09
   14.28000      3.2089718E-09
   14.34000      2.2776265E-09
   14.40000      1.3674866E-09
   14.46000      5.3212545E-10
   14.52000     -1.8158958E-10
   14.58000     -7.4300954E-10
   14.64000     -1.1418879E-09
   14.70000     -1.3872251E-09
   14.76000     -1.5023710E-09
   14.82000     -1.5188860E-09
   14.88000     -1.4715692E-09
   14.94000     -1.3960543E-09
   15.00000     -1.3288494E-09
   15.06000     -1.3083182E-09
   15.12000     -1.3745097E-09
   15.18000     -1.5662361E-09
   15.24000     -1.9151691E-09
   15.30000     -2.4383333E-09
   15.36000     -3.1315082E-09
   15.42000     -3.9661656E-09
   15.48000     -4.8916968E-09
   15.54000     -5.8431469E-09
   15.60000     -6.7530834E-09
   15.66000     -7.5649904E-09
   15.72000     -8.2450224E-09
   15.78000     -8.7890983E-09
   15.84000     -9.2231955E-09
   15.90000     -9.5962065E-09
   15.96000     -9.9665849E-09
   16.02000     -1.0385818E-08
   16.08000     -1.0882868E-08
   16.14000     -1.1453734E-08
   16.20000     -1.2059006E-08
   16.26000     -1.2630177E-08
   16.32000     -1.3083232E-08
   16.38000     -1.3336325E-08
   16.44000     -1.3327686E-08
   16.50000     -1.3030082E-08
   16.56000     -1.2459075E-08
   16.62000     -1.1673505E-08
   16.68000     -1.0767999E-08
   16.74000     -9.8588098E-09
   16.80000     -9.0656416E-09
   16.86000     -8.4931591E-09
   16.92000     -8.2159648E-09
   16.98000     -8.2698790E-09
   17.04000     -8.6505203E-09
   17.10000     -9.3182111E-09
   17.16000     -1.0206765E-08
   17.22000     -1.1233495E-08
   17.28000     -1.2308440E-08
   17.34000     -1.3341978E-08
   17.40000     -1.4250785E-08
   17.46000     -1.4962355E-08
   17.52000     -1.5418017E-08
   17.58000     -1.5574305E-08
   17.64000     -1.5402735E-08
   17.70000     -1.4888903E-08
   17.76000     -1.4032359E-08
   17.82000     -1.2848689E-08
   17.88000     -1.1374118E-08
   17.94000     -9.6712505E-09
   18.00000     -7.8329316E-09
   18.06000     -5.9807341E-09
   18.12000     -4.2555044E-09
   18.18000     -2.7997311E-09
   18.24000     -1.7343172E-09
   18.30000     -1.1347397E-09
   18.36000     -1.0126694E-09
   18.42000     -1.3084991E-09
   18.48000     -1.8979516E-09
   18.54000     -2.6125391E-09
   18.60000     -3.2700052E-09
   18.66000     -3.7080092E-09
   18.72000     -3.8131422E-09
   18.78000     -3.5384142E-09
   18.84000     -2.9054175E-09
   18.90000     -1.9915296E-09
   18.96000     -9.0643648E-10
   19.02000      2.3533303E-10
   19.08000      1.3389362E-09
   19.14000      2.3455657E-09
   19.20000      3.2381535E-09
   19.26000      4.0367607E-09
   19.32000      4.7861315E-09
   19.38000      5.5391212E-09
   19.44000      6.3401910E-09
   19.50000      7.2129622E-09
   19.56000      8.1549008E-09
   19.62000      9.1403809E-09
   19.68000      1.0130901E-08
   19.74000      1.1088668E-08
   19.80000      1.1988377E-08
   19.86000      1.2822449E-08
   19.92000      1.3597620E-08
   19.98000      1.4324407E-08
   20.04000      1.5004172E-08
   20.10000      1.5619626E-08
   20.16000      1.6133136E-08
   20.22000      1.6493932E-08
   20.28000      1.6651498E-08
   20.34000      1.6570212E-08
   20.40000      1.6239895E-08
   20.46000      1.5678820E-08
   20.52000      1.4928387E-08
   20.58000      1.4041392E-08
   20.64000      1.3067530E-08
   20.70000      1.2040437E-08
   20.76000      1.0969949E-08
   20.82000      9.8418642E-09
   20.88000      8.6253547E-09
   20.94000      7.2857445E-09
   21.00000      5.7984537E-09
   21.06000      4.1591388E-09
   21.12000      2.3861391E-09
   21.18000      5.1405308E-10
   21.24000     -1.4192802E-09
   21.30000     -3.3873602E-09
   21.36000     -5.3852762E-09
   21.42000     -7.4313089E-09
   21.48000     -9.5588657E-09
   21.54000     -1.1801480E-08
   21.60000     -1.4176292E-08
   21.66000     -1.6672075E-08
   21.72000     -1.9246309E-08
   21.78000     -2.1832744E-08
   21.84000     -2.4357250E-08
   21.90000     -2.6756885E-08
   21.96000     -2.8995718E-08
   22.02000     -3.1071810E-08
   22.08000     -3.3012537E-08
   22.14000     -3.4859490E-08
   22.20000     -3.6648121E-08
   22.26000     -3.8389533E-08
   22.32000     -4.0061391E-08
   22.38000     -4.1611614E-08
   22.44000     -4.2973948E-08
   22.50000     -4.4089791E-08
   22.56000     -4.4928573E-08
   22.62000     -4.5499291E-08
   22.68000     -4.5849255E-08
   22.74000     -4.6050239E-08
   22.80000     -4.6176385E-08
   22.86000     -4.6280448E-08
   22.92000     -4.6375568E-08
   22.98000     -4.6428152E-08
   23.04000     -4.6364654E-08
   23.10000     -4.6091483E-08
   23.16000     -4.5523166E-08
   23.22000     -4.4611035E-08
   23.28000     -4.3363507E-08
   23.34000     -4.1850740E-08
   23.40000     -4.0190915E-08
   23.46000     -3.8521350E-08
   23.52000     -3.6962991E-08
   23.58000     -3.5589327E-08
   23.64000     -3.4409283E-08
   23.70000     -3.3369002E-08
   23.76000     -3.2371020E-08
   23.82000     -3.1304051E-08
   23.88000     -3.0073924E-08
   23.94000     -2.8626852E-08
   24.00000     -2.6959338E-08
   24.06000     -2.5113508E-08
   24.12000     -2.3160862E-08
   24.18000     -2.1180568E-08
   24.24000     -1.9239542E-08
   24.30000     -1.7380671E-08
   24.36000     -1.5622669E-08
   24.42000     -1.3970874E-08
   24.48000     -1.2434148E-08
   24.54000     -1.1040481E-08
   24.60000     -9.8440571E-09
   24.66000     -8.9196126E-09
   24.72000     -8.3450340E-09
   24.78000     -8.1780493E-09
   24.84000     -8.4357330E-09
   24.90000     -9.0850607E-09
   24.96000     -1.0049021E-08
   25.02000     -1.1227296E-08
   25.08000     -1.2525290E-08
   25.14000     -1.3882221E-08
   25.20000     -1.5289130E-08
   25.26000     -1.6790917E-08
   25.32000     -1.8471713E-08
   25.38000     -2.0428452E-08
   25.44000     -2.2741212E-08
   25.50000     -2.5449822E-08
   25.56000     -2.8543754E-08
   25.62000     -3.1967446E-08
   25.68000     -3.5637864E-08
   25.74000     -3.9467157E-08
   25.80000     -4.3382272E-08
   25.86000     -4.7335515E-08
   25.92000     -5.1304074E-08
   25.98000     -5.5280850E-08
   26.04000     -5.9261556E-08
   26.10000     -6.3233543E-08
   26.16000     -6.7170340E-08
   26.22000     -7.1033313E-08
   26.28000     -7.4779372E-08
   26.34000     -7.8371684E-08
   26.40000     -8.1789565E-08
   26.46000     -8.5033513E-08
   26.52000     -8.8122540E-08
   26.58000     -9.1083265E-08
   26.64000     -9.3933082E-08
   26.70000     -9.6663086E-08
   26.76000     -9.9227705E-08
   26.82000     -1.0154699E-07
   26.88000     -1.0352343E-07
   26.94000     -1.0506946E-07
   27.00000     -1.0613658E-07
   27.06000     -1.0673494E-07
   27.12000     -1.0693509E-07
   27.18000     -1.0684914E-07
   27.24000     -1.0659703E-07
   27.30000     -1.0626896E-07
   27.36000     -1.0589689E-07
   27.42000     -1.0544483E-07
   27.48000     -1.0482110E-07
   27.54000     -1.0390825E-07
   27.60000     -1.0260065E-07
   27.66000     -1.0083821E-07
   27.72000     -9.8626217E-08
   27.78000     -9.6036246E-08
   27.84000     -9.3188483E-08
   27.90000     -9.0220951E-08
   27.96000     -8.7254222E-08
   28.02000     -8.4361417E-08
   28.08000     -8.1551470E-08
   28.14000     -7.8770640E-08
   28.20000     -7.5921790E-08
   28.26000     -7.2896569E-08
   28.32000     -6.9611126E-08
   28.38000     -6.6034850E-08
   28.44000     -6.2203220E-08
   28.50000     -5.8210489E-08
   28.56000     -5.4184429E-08
   28.62000     -5.0250911E-08
   28.68000     -4.6499803E-08
   28.74000     -4.2963002E-08
   28.80000     -3.9611404E-08
   28.86000     -3.6371105E-08
   28.92000     -3.3152784E-08
   28.98000     -2.9884060E-08
   29.04000     -2.6534190E-08
   29.10000     -2.3123789E-08
   29.16000     -1.9717586E-08
   29.22000     -1.6404044E-08
   29.28000     -1.3269509E-08
   29.34000     -1.0375526E-08
   29.40000     -7.7462081E-09
   29.46000     -5.3687308E-09
   29.52000     -3.2058578E-09
   29.58000     -1.2158423E-09
   29.64000      6.2695099E-10
   29.70000      2.3175306E-09
   29.76000      3.8170200E-09
   29.82000      5.0625628E-09
   29.88000      5.9881193E-09
   29.94000      6.5498775E-09
   30.00000      6.7475150E-09
   30.06000      6.6328991E-09
   30.12000      6.3013998E-09
   30.18000      5.8669718E-09
   30.24000      5.4284626E-09
   30.30000      5.0386331E-09
   30.36000      4.6872524E-09
   30.42000      4.3050910E-09
   30.48000      3.7882457E-09
   30.54000      3.0349248E-09
   30.60000      1.9823261E-09
   30.66000      6.3125244E-10
   30.72000     -9.4961372E-10
   30.78000     -2.6410525E-09
   30.84000     -4.3066373E-09
   30.90000     -5.8315979E-09
   30.96000     -7.1552684E-09
   31.02000     -8.2871905E-09
   31.08000     -9.3017958E-09
   31.14000     -1.0312935E-08
   31.20000     -1.1435735E-08
   31.26000     -1.2747548E-08
   31.32000     -1.4260649E-08
   31.38000     -1.5916170E-08
   31.44000     -1.7602089E-08
   31.50000     -1.9189986E-08
   31.56000     -2.0578419E-08
   31.62000     -2.1727928E-08
   31.68000     -2.2675184E-08
   31.74000     -2.3520929E-08
   31.80000     -2.4395595E-08
   31.86000     -2.5414506E-08
   31.92000     -2.6638167E-08
   31.98000     -2.8051188E-08
   32.04000     -2.9566621E-08
   32.10000     -3.1053624E-08
   32.16000     -3.2378527E-08
   32.22000     -3.3445399E-08
   32.28000     -3.4223159E-08
   32.34000     -3.4751352E-08
   32.40000     -3.5124099E-08
   32.46000     -3.5458456E-08
   32.52000     -3.5857859E-08
   32.58000     -3.6381952E-08
   32.64000     -3.7031430E-08
   32.70000     -3.7751473E-08
   32.76000     -3.8451713E-08
   32.82000     -3.9035754E-08
   32.88000     -3.9430809E-08
   32.94000     -3.9607858E-08
   33.00000     -3.9586112E-08
   33.06000     -3.9420268E-08
   33.12000     -3.9175323E-08
   33.18000     -3.8897937E-08
   33.24000     -3.8595299E-08
   33.30000     -3.8230056E-08
   33.36000     -3.7734004E-08
   33.42000     -3.7036124E-08
   33.48000     -3.6094395E-08
   33.54000     -3.4918941E-08
   33.60000     -3.3576953E-08
   33.66000     -3.2176871E-08
   33.72000     -3.0837285E-08
   33.78000     -2.9651936E-08
   33.84000     -2.8663520E-08
   33.90000     -2.7855133E-08
   33.96000     -2.7161530E-08
   34.02000     -2.6495165E-08
   34.08000     -2.5777393E-08
   34.14000     -2.4964462E-08
   34.20000     -2.4060668E-08
   34.26000     -2.3115744E-08
   34.32000     -2.2208436E-08
   34.38000     -2.1421870E-08
   34.44000     -2.0818176E-08
   34.50000     -2.0419771E-08
   34.56000     -2.0203050E-08
   34.62000     -2.0106826E-08
   34.68000     -2.0053633E-08
   34.74000     -1.9977525E-08
   34.80000     -1.9849095E-08
   34.86000     -1.9688404E-08
   34.92000     -1.9560124E-08
   34.98000     -1.9551543E-08
   35.04000     -1.9740853E-08
   35.10000     -2.0167393E-08
   35.16000     -2.0815222E-08
   35.22000     -2.1616215E-08
   35.28000     -2.2471182E-08
   35.34000     -2.3280361E-08
   35.40000     -2.3971429E-08
   35.46000     -2.4515064E-08
   35.52000     -2.4923844E-08
   35.58000     -2.5237263E-08
   35.64000     -2.5500427E-08
   35.70000     -2.5745193E-08
   35.76000     -2.5979844E-08
   35.82000     -2.6189106E-08
   35.88000     -2.6342313E-08
   35.94000     -2.6405493E-08
   36.00000     -2.6353005E-08
   36.06000     -2.6175604E-08
   36.12000     -2.5883100E-08
   36.18000     -2.5500951E-08
   36.24000     -2.5061347E-08
   36.30000     -2.4590719E-08
   36.36000     -2.4097368E-08
   36.42000     -2.3563890E-08
   36.48000     -2.2948491E-08
   36.54000     -2.2196550E-08
   36.60000     -2.1259668E-08
   36.66000     -2.0115646E-08
   36.72000     -1.8781478E-08
   36.78000     -1.7313473E-08
   36.84000     -1.5793573E-08
   36.90000     -1.4306597E-08
   36.96000     -1.2916898E-08
   37.02000     -1.1653044E-08
   37.08000     -1.0505603E-08
   37.14000     -9.4376267E-09
   37.20000     -8.4026581E-09
   37.26000     -7.3629525E-09
   37.32000     -6.3018355E-09
   37.38000     -5.2274367E-09
   37.44000     -4.1687378E-09
   37.50000     -3.1670224E-09
   37.56000     -2.2660360E-09
   37.62000     -1.5030128E-09
   37.68000     -9.0149893E-10
   37.74000     -4.6650878E-10
   37.80000     -1.8297072E-10
   37.86000     -1.8757450E-11
   37.92000      6.7106022E-11
   37.98000      1.1245072E-10
   38.04000      1.3994184E-10
   38.10000      1.4995086E-10
   38.16000      1.2202404E-10
   38.22000      2.5122210E-11
   38.28000     -1.6743551E-10
   38.34000     -4.6503953E-10
   38.40000     -8.5497659E-10
   38.46000     -1.3080179E-09
   38.52000     -1.7915661E-09
   38.58000     -2.2838065E-09
   38.64000     -2.7820211E-09
   38.70000     -3.3014820E-09
   38.76000     -3.8662518E-09
   38.82000     -4.4971005E-09
   38.88000     -5.2025575E-09
   38.94000     -5.9767213E-09
   39.00000     -6.8034964E-09
   39.06000     -7.6637505E-09
   39.12000     -8.5411980E-09
   39.18000     -9.4246007E-09
   39.24000     -1.0306693E-08
   39.30000     -1.1182221E-08
   39.36000     -1.2047466E-08
   39.42000     -1.2901933E-08
   39.48000     -1.3750756E-08
   39.54000     -1.4605340E-08
   39.60000     -1.5480465E-08
   39.66000     -1.6388025E-08
   39.72000     -1.7329512E-08
   39.78000     -1.8290280E-08
   39.84000     -1.9238001E-08
   39.90000     -2.0126137E-08
   39.96000     -2.0901574E-08
   40.02000     -2.1514593E-08
   40.08000     -2.1928967E-08
   40.14000     -2.2130285E-08
   40.20000     -2.2130669E-08
   40.26000     -2.1968434E-08
   40.32000     -2.1701801E-08
   40.38000     -2.1397074E-08
   40.44000     -2.1113566E-08
   40.50000     -2.0889239E-08
   40.56000     -2.0731603E-08
   40.62000     -2.0617120E-08
   40.68000     -2.0499584E-08
   40.74000     -2.0324578E-08
   40.80000     -2.0044926E-08
   40.86000     -1.9631914E-08
   40.92000     -1.9079044E-08
   40.98000     -1.8398332E-08
   41.04000     -1.7611899E-08
   41.10000     -1.6742865E-08
   41.16000     -1.5808967E-08
   41.22000     -1.4820523E-08
   41.28000     -1.3782470E-08
   41.34000     -1.2698887E-08
   41.40000     -1.1578289E-08
   41.46000     -1.0438145E-08
   41.52000     -9.3075627E-09
   41.58000     -8.2271949E-09
   41.64000     -7.2456161E-09
   41.70000     -6.4119181E-09
   41.76000     -5.7653220E-09
   41.82000     -5.3240874E-09
   41.88000     -5.0771578E-09
   41.94000     -4.9821889E-09
   42.00000     -4.9722790E-09
   42.06000     -4.9711857E-09
   42.12000     -4.9137721E-09
   42.18000     -4.7660400E-09
   42.24000     -4.5384132E-09
   42.30000     -4.2873523E-09
   42.36000     -4.1036126E-09
   42.42000     -4.0895580E-09
   42.48000     -4.3315276E-09
   42.54000     -4.8751390E-09
   42.60000     -5.7108833E-09
   42.66000     -6.7745320E-09
   42.72000     -7.9625675E-09
   42.78000     -9.1584109E-09
   42.84000     -1.0262014E-08
   42.90000     -1.1214364E-08
   42.96000     -1.2009921E-08
   43.02000     -1.2693601E-08
   43.08000     -1.3343370E-08
   43.14000     -1.4043889E-08
   43.20000     -1.4859258E-08
   43.26000     -1.5813326E-08
   43.32000     -1.6883709E-08
   43.38000     -1.8011455E-08
   43.44000     -1.9123172E-08
   43.50000     -2.0158138E-08
   43.56000     -2.1090941E-08
   43.62000     -2.1941336E-08
   43.68000     -2.2767292E-08
   43.74000     -2.3643121E-08
   43.80000     -2.4630268E-08
   43.86000     -2.5751525E-08
   43.92000     -2.6978604E-08
   43.98000     -2.8238382E-08
   44.04000     -2.9436222E-08
   44.10000     -3.0488152E-08
   44.16000     -3.1350158E-08
   44.22000     -3.2033778E-08
   44.28000     -3.2602255E-08
   44.34000     -3.3148705E-08
   44.40000     -3.3764149E-08
   44.46000     -3.4506570E-08
   44.52000     -3.5381195E-08
   44.58000     -3.6337990E-08
   44.64000     -3.7286611E-08
   44.70000     -3.8123925E-08
   44.76000     -3.8766103E-08
   44.82000     -3.9176534E-08
   44.88000     -3.9382190E-08
   44.94000     -3.9473758E-08
   45.00000     -3.9588706E-08
   45.06000     -3.9880948E-08
   45.12000     -4.0484789E-08
   45.18000     -4.1484050E-08
   45.24000     -4.2896932E-08
   45.30000     -4.4683667E-08
   45.36000     -4.6776755E-08
   45.42000     -4.9125671E-08
   45.48000     -5.1741686E-08
   45.54000     -5.4727529E-08
   45.60000     -5.8281195E-08
   45.66000     -6.2672768E-08
   45.72000     -6.8202873E-08
   45.78000     -7.5158781E-08
   45.84000     -8.3784776E-08
   45.90000     -9.4278285E-08
   45.96000     -1.0681413E-07
   46.02000     -1.2158969E-07
   46.08000     -1.3887768E-07
   46.14000     -1.5907207E-07
   46.20000     -1.8271633E-07
   46.26000     -2.1050886E-07
   46.32000     -2.4328784E-07
   46.38000     -2.8200265E-07
   46.44000     -3.2768213E-07
   46.50000     -3.8141158E-07
   46.56000     -4.4432863E-07
   46.62000     -5.1764488E-07
   46.68000     -6.0269304E-07
   46.74000     -7.0099344E-07
   46.80000     -8.1432495E-07
   46.86000     -9.4478452E-07
   46.92000     -1.0948211E-06
   46.98000     -1.2672383E-06
   47.04000     -1.4651728E-06
   47.10000     -1.6920636E-06
   47.16000     -1.9516319E-06
   47.22000     -2.2478862E-06
   47.28000     -2.5851609E-06
   47.34000     -2.9681787E-06
   47.40000     -3.4021266E-06
   47.46000     -3.8927237E-06
   47.52000     -4.4462777E-06
   47.58000     -5.0697117E-06
   47.64000     -5.7705747E-06
   47.70000     -6.5570352E-06
   47.76000     -7.4378672E-06
   47.82000     -8.4224330E-06
   47.88000     -9.5206815E-06
   47.94000     -1.0743149E-05
   48.00000     -1.2100978E-05
   48.06000     -1.3605940E-05
   48.12000     -1.5270462E-05
   48.18000     -1.7107646E-05
   48.24000     -1.9131252E-05
   48.30000     -2.1355669E-05
   48.36000     -2.3795843E-05
   48.42000     -2.6467198E-05
   48.48000     -2.9385557E-05
   48.54000     -3.2567055E-05
   48.60000     -3.6028072E-05
   48.66000     -3.9785155E-05
   48.72000     -4.3854932E-05
   48.78000     -4.8254024E-05
   48.84000     -5.2998923E-05
   48.90000     -5.8105867E-05
   48.96000     -6.3590698E-05
   49.02000     -6.9468690E-05
   49.08000     -7.5754411E-05
   49.14000     -8.2461520E-05
   49.20000     -8.9602618E-05
   49.26000     -9.7189062E-05
   49.32000     -1.0523079E-04
   49.38000     -1.1373613E-04
   49.44000     -1.2271160E-04
   49.50000     -1.3216177E-04
   49.56000     -1.4208918E-04
   49.62000     -1.5249409E-04
   49.68000     -1.6337443E-04
   49.74000     -1.7472554E-04
   49.80000     -1.8654027E-04
   49.86000     -1.9880866E-04
   49.92000     -2.1151795E-04
   49.98000     -2.2465250E-04
   50.04000     -2.3819378E-04
   50.10000     -2.5212034E-04
   50.16000     -2.6640782E-04
   50.22000     -2.8102909E-04
   50.28000     -2.9595435E-04
   50.34000     -3.1115121E-04
   50.40000     -3.2658500E-04
   50.46000     -3.4221873E-04
   50.52000     -3.5801355E-04
   50.58000     -3.7392875E-04
   50.64000     -3.8992215E-04
   50.70000     -4.0595041E-04
   50.76000     -4.2196939E-04
   50.82000     -4.3793459E-04
   50.88000     -4.5380151E-04
   50.94000     -4.6952590E-04
   51.00000     -4.8506432E-04
   51.06000     -5.0037430E-04
   51.12000     -5.1541487E-04
   51.18000     -5.3014711E-04
   51.24000     -5.4453424E-04
   51.30000     -5.5854244E-04
   51.36000     -5.7214074E-04
   51.42000     -5.8530172E-04
   51.48000     -5.9800147E-04
   51.54000     -6.1022025E-04
   51.60000     -6.2194222E-04
   51.66000     -6.3315599E-04
   51.72000     -6.4385467E-04
   51.78000     -6.5403600E-04
   51.84000     -6.6370243E-04
   51.90000     -6.7286100E-04
   51.96000     -6.8152329E-04
   52.02000     -6.8970519E-04
   52.08000     -6.9742679E-04
   52.14000     -7.0471206E-04
   52.20000     -7.1158877E-04
   52.26000     -7.1808824E-04
   52.32000     -7.2424451E-04
   52.38000     -7.3009467E-04
   52.44000     -7.3567760E-04
   52.50000     -7.4103399E-04
   52.56000     -7.4620539E-04
   52.62000     -7.5123395E-04
   52.68000     -7.5616204E-04
   52.74000     -7.6103158E-04
   52.80000     -7.6588360E-04
   52.86000     -7.7075756E-04
   52.92000     -7.7569101E-04
   52.98000     -7.8071898E-04
   53.04000     -7.8587350E-04
   53.10000     -7.9118356E-04
   53.16000     -7.9667429E-04
   53.22000     -8.0236694E-04
   53.28000     -8.0827856E-04
   53.34000     -8.1442180E-04
   53.40000     -8.2080456E-04
   53.46000     -8.2742999E-04
   53.52000     -8.3429669E-04
   53.58000     -8.4139861E-04
   53.64000     -8.4872532E-04
   53.70000     -8.5626217E-04
   53.76000     -8.6399040E-04
   53.82000     -8.7188726E-04
   53.88000     -8.7992661E-04
   53.94000     -8.8807929E-04
   54.00000     -8.9631340E-04
   54.06000     -9.0459525E-04
   54.12000     -9.1288931E-04
   54.18000     -9.2115905E-04
   54.24000     -9.2936686E-04
   54.30000     -9.3747472E-04
   54.36000     -9.4544463E-04
   54.42000     -9.5323968E-04
   54.48000     -9.6082420E-04
   54.54000     -9.6816465E-04
   54.60000     -9.7522978E-04
   54.66000     -9.8199071E-04
   54.72000     -9.8842161E-04
   54.78000     -9.9449931E-04
   54.84000     -1.0002038E-03
   54.90000     -1.0055191E-03
   54.96000     -1.0104325E-03
   55.02000     -1.0149354E-03
   55.08000     -1.0190231E-03
   55.14000     -1.0226944E-03
   55.20000     -1.0259515E-03
   55.26000     -1.0288002E-03
   55.32000     -1.0312495E-03
   55.38000     -1.0333115E-03
   55.44000     -1.0350005E-03
   55.50000     -1.0363337E-03
   55.56000     -1.0373300E-03