  -2.400000      0.0000000E+00
  -2.340000      0.0000000E+00
  -2.280000      0.0000000E+00
  -2.220000      0.0000000E+00
  -2.160000      0.0000000E+00
  -2.100000     -2.2506174E-18
  -2.040000     -1.6362177E-17
  -1.980000     -5.6951107E-17
  -1.920000     -1.1458974E-16
  -1.860000     -9.9372661E-17
  -1.800000      1.8809578E-16
  -1.740000      9.5214952E-16
  -1.680000      2.0966613E-15
  -1.620000      2.8390829E-15
  -1.560000      1.6275239E-15
  -1.500000     -3.1569987E-15
  -1.440000     -1.1578013E-14
  -1.380000     -2.0303769E-14
  -1.320000     -2.2152715E-14
  -1.260000     -8.7476557E-15
  -1.200000      2.3393712E-14
  -1.140000      6.5790167E-14
  -1.080000      9.5127641E-14
  -1.020000      8.0051559E-14
 -0.9600000     -8.9868809E-16
 -0.9000000     -1.3645710E-13
 -0.8400000     -2.6881966E-13
 -0.7800000     -3.0453071E-13
 -0.7200000     -1.5700576E-13
 -0.6600000      1.9082729E-13
 -0.6000000      6.3532073E-13
 -0.5400000      9.5234302E-13
 -0.4800000      8.7462280E-13
 -0.4200000      2.3397408E-13
 -0.3600000     -8.9061728E-13
 -0.3000000     -2.1071948E-12
 -0.2400000     -2.8012182E-12
 -0.1800000     -2.3905086E-12
 -0.1200000     -6.5790976E-13
 -5.9999999E-02  2.0022638E-12
  0.0000000E+00  4.5937234E-12
  5.9999999E-02  5.8607993E-12
  0.1200000      4.8742091E-12
  0.1800000      1.6046730E-12
  0.2400000     -2.8370071E-12
  0.3000000     -6.5148143E-12
  0.3600000     -7.5056593E-12
  0.4200000     -4.9287523E-12
  0.4800000      3.5337469E-13
  0.5400000      5.8226124E-12
  0.6000000      8.3127784E-12
  0.6600000      5.5931722E-12
  0.7200000     -2.2018114E-12
  0.7800000     -1.2093570E-11
  0.8400000     -1.9176036E-11
  0.9000000     -1.8719552E-11
  0.9600000     -8.5966069E-12
   1.020000      9.1448559E-12
   1.080000      2.8480187E-11
   1.140000      4.1535629E-11
   1.200000      4.1861962E-11
   1.260000      2.7419421E-11
   1.320000      1.8400229E-12
   1.380000     -2.6751162E-11
   1.440000     -4.8944987E-11
   1.500000     -5.7873119E-11
   1.560000     -5.1871278E-11
   1.620000     -3.4704708E-11
   1.680000     -1.3243226E-11
   1.740000      6.2503770E-12
   1.800000      2.1303593E-11
   1.860000      3.4155588E-11
   1.920000      4.9759540E-11
   1.980000      7.1694067E-11
   2.040000      9.7992073E-11
   2.100000      1.1916972E-10
   2.160000      1.1991372E-10
   2.220000      8.4285606E-11
   2.280000      2.6338365E-12
   2.340000     -1.2256265E-10
   2.400000     -2.7448535E-10
   2.460000     -4.2462320E-10
   2.520000     -5.3957466E-10
   2.580000     -5.8962785E-10
   2.640000     -5.5604465E-10
   2.700000     -4.3455556E-10
   2.760000     -2.3417662E-10
   2.820000      2.7631552E-11
   2.880000      3.3105849E-10
   2.940000      6.5863098E-10
   3.000000      9.9677444E-10
   3.060000      1.3342064E-09
   3.120000      1.6587393E-09
   3.180000      1.9548769E-09
   3.240000      2.2042048E-09
   3.300000      2.3892013E-09
   3.360000      2.4993392E-09
   3.420000      2.5370510E-09
   3.480000      2.5208657E-09
   3.540000      2.4839462E-09
   3.600000      2.4679836E-09
   3.660000      2.5142228E-09
   3.720000      2.6545492E-09
   3.780000      2.9056149E-09
   3.840000      3.2678940E-09
   3.900000      3.7297894E-09
   3.960000      4.2751038E-09
   4.020000      4.8910476E-09
   4.080000      5.5738401E-09
   4.140000      6.3299144E-09
   4.200000      7.1724040E-09
   4.260000      8.1143368E-09
   4.320000      9.1611998E-09
   4.380000      1.0305754E-08
   4.440000      1.1527194E-08
   4.500000      1.2795017E-08
   4.560000      1.4076234E-08
   4.620000      1.5343153E-08
   4.680000      1.6578742E-08
   4.740000      1.7777484E-08
   4.800000      1.8941485E-08
   4.860000      2.0073585E-08
   4.920000      2.1170552E-08
   4.980000      2.2219485E-08
   5.040000      2.3199277E-08
   5.100000      2.4086759E-08
   5.160000      2.4864994E-08
   5.220000      2.5530094E-08
   5.280000      2.6093288E-08
   5.340000      2.6577032E-08
   5.400000      2.7006481E-08
   5.460000      2.7399921E-08
   5.520000      2.7762429E-08
   5.580000      2.8085802E-08
   5.640000      2.8355224E-08
   5.700000      2.8560189E-08
   5.760000      2.8705250E-08
   5.820000      2.8816300E-08
   5.880000      2.8939848E-08
   5.940000      2.9135817E-08
   6.000000      2.9466966E-08
   6.060000      2.9989000E-08
   6.120000      3.0744676E-08
   6.180000      3.1762745E-08
   6.240000      3.3060143E-08
   6.300000      3.4644263E-08
   6.360000      3.6512557E-08
   6.420000      3.8648512E-08
   6.480000      4.1015447E-08
   6.540000      4.3551417E-08
   6.600000      4.6168598E-08
   6.660000      4.8759109E-08
   6.720000      5.1206623E-08
   6.780000      5.3400811E-08
   6.840000      5.5250435E-08
   6.900000      5.6691395E-08
   6.960000      5.7688041E-08
   7.020000      5.8228526E-08
   7.080000      5.8316918E-08
   7.140000      5.7965583E-08
   7.200000      5.7190686E-08
   7.260000      5.6011679E-08
   7.320000      5.4453871E-08
   7.380000      5.2551847E-08
   7.440000      5.0351566E-08
   7.500000      4.7909705E-08
   7.560000      4.5290555E-08
   7.620000      4.2561581E-08
   7.680000      3.9789029E-08
   7.740000      3.7034418E-08
   7.800000      3.4351764E-08
   7.860000      3.1784914E-08
   7.920000      2.9364886E-08
   7.980000      2.7107889E-08
   8.040000      2.5015490E-08
   8.100000      2.3078352E-08
   8.160000      2.1283419E-08
   8.220000      1.9622563E-08
   8.280000      1.8099161E-08
   8.340000      1.6729139E-08
   8.400000      1.5535027E-08
   8.460000      1.4534572E-08
   8.520000      1.3728280E-08
   8.580000      1.3091129E-08
   8.640000      1.2572297E-08
   8.700000      1.2103492E-08
   8.760000      1.1613000E-08
   8.820000      1.1040332E-08
   8.880000      1.0346406E-08
   8.940000      9.5162349E-09
   9.000000      8.5542098E-09
   9.060000      7.4747382E-09
   9.120000      6.2923915E-09
   9.180000      5.0153619E-09
   9.240000      3.6443344E-09
   9.300000      2.1765056E-09
   9.360000      6.1234090E-10
   9.420000     -1.0384867E-09
   9.480000     -2.7552645E-09
   9.540000     -4.5100457E-09
   9.600000     -6.2760446E-09
   9.660000     -8.0371594E-09
   9.720000     -9.7941495E-09
   9.780000     -1.1564044E-08
   9.840000     -1.3372204E-08
   9.900000     -1.5239960E-08
   9.960000     -1.7173013E-08
   10.02000     -1.9155783E-08
   10.08000     -2.1154376E-08
   10.14000     -2.3126997E-08
   10.20000     -2.5037421E-08
   10.26000     -2.6865981E-08
   10.32000     -2.8613908E-08
   10.38000     -3.0299944E-08
   10.44000     -3.1951252E-08
   10.50000     -3.3592524E-08
   10.56000     -3.5237161E-08
   10.62000     -3.6882941E-08
   10.68000     -3.8512812E-08
   10.74000     -4.0099582E-08
   10.80000     -4.1612612E-08
   10.86000     -4.3024333E-08
   10.92000     -4.4314842E-08
   10.98000     -4.5473424E-08
   11.04000     -4.6496847E-08
   11.10000     -4.7385633E-08
   11.16000     -4.8140169E-08
   11.22000     -4.8758920E-08
   11.28000     -4.9240022E-08
   11.34000     -4.9585719E-08
   11.40000     -4.9807518E-08
   11.46000     -4.9928772E-08
   11.52000     -4.9982315E-08
   11.58000     -5.0002630E-08
   11.64000     -5.0014918E-08
   11.70000     -5.0025267E-08
   11.76000     -5.0016379E-08
   11.82000     -4.9951581E-08
   11.88000     -4.9786596E-08
   11.94000     -4.9485060E-08
   12.00000     -4.9031854E-08
   12.06000     -4.8438565E-08
   12.12000     -4.7738240E-08
   12.18000     -4.6971017E-08
   12.24000     -4.6166413E-08
   12.30000     -4.5329880E-08
   12.36000     -4.4440004E-08
   12.42000     -4.3458051E-08
   12.48000     -4.2346038E-08
   12.54000     -4.1085109E-08
   12.60000     -3.9685691E-08
   12.66000     -3.8184673E-08
   12.72000     -3.6631285E-08
   12.78000     -3.5069050E-08
   12.84000     -3.3523392E-08
   12.90000     -3.2001445E-08
   12.96000     -3.0504207E-08
   13.02000     -2.9044561E-08
   13.08000     -2.7661144E-08
   13.14000     -2.6419851E-08
   13.20000     -2.5400807E-08
   13.26000     -2.4675824E-08
   13.32000     -2.4286145E-08
   13.38000     -2.4230134E-08
   13.44000     -2.4465946E-08
   13.50000     -2.4927258E-08
   13.56000     -2.5544615E-08
   13.62000     -2.6263086E-08
   13.68000     -2.7049762E-08
   13.74000     -2.7889937E-08
   13.80000     -2.8776315E-08
   13.86000     -2.9698123E-08
   13.92000     -3.0636002E-08
   13.98000     -3.1564316E-08
   14.04000     -3.2458107E-08
   14.10000     -3.3299248E-08
   14.16000     -3.4077217E-08
   14.22000     -3.4783504E-08
   14.28000     -3.5402987E-08
   14.34000     -3.5907991E-08
   14.40000     -3.6259742E-08
   14.46000     -3.6418001E-08
   14.52000     -3.6354699E-08
   14.58000     -3.6064851E-08
   14.64000     -3.5568714E-08
   14.70000     -3.4903639E-08
   14.76000     -3.4109046E-08
   14.82000     -3.3211819E-08
   14.88000     -3.2218757E-08
   14.94000     -3.1119345E-08
   15.00000     -2.9896778E-08
   15.06000     -2.8541596E-08
   15.12000     -2.7061478E-08
   15.18000     -2.5483519E-08
   15.24000     -2.3848965E-08
   15.30000     -2.2203867E-08
   15.36000     -2.0590031E-08
   15.42000     -1.9039454E-08
   15.48000     -1.7573113E-08
   15.54000     -1.6202861E-08
   15.60000     -1.4934368E-08
   15.66000     -1.3769292E-08
   15.72000     -1.2706035E-08
   15.78000     -1.1739268E-08
   15.84000     -1.0859080E-08
   15.90000     -1.0050618E-08
   15.96000     -9.2949604E-09
   16.02000     -8.5715559E-09
   16.08000     -7.8621394E-09
   16.14000     -7.1553359E-09
   16.20000     -6.4506427E-09
   16.26000     -5.7601524E-09
   16.32000     -5.1067111E-09
   16.38000     -4.5181223E-09
   16.44000     -4.0183026E-09
   16.50000     -3.6175298E-09
   16.56000     -3.3046033E-09
   16.62000     -3.0435698E-09
   16.68000     -2.7766558E-09
   16.74000     -2.4333069E-09
   16.80000     -1.9433153E-09
   16.86000     -1.2504318E-09
   16.92000     -3.2230829E-10
   16.98000      8.4646706E-10
   17.04000      2.2391520E-09
   17.10000      3.8273296E-09
   17.16000      5.5824874E-09
   17.22000      7.4834094E-09
   17.28000      9.5157997E-09
   17.34000      1.1664097E-08
   17.40000      1.3899325E-08
   17.46000      1.6169125E-08
   17.52000      1.8395649E-08
   17.58000      2.0483833E-08
   17.64000      2.2338075E-08
   17.70000      2.3881762E-08
   17.76000      2.5072909E-08
   17.82000      2.5910959E-08
   17.88000      2.6433463E-08
   17.94000      2.6705308E-08
   18.00000      2.6805195E-08
   18.06000      2.6814075E-08
   18.12000      2.6807950E-08
   18.18000      2.6854771E-08
   18.24000      2.7013085E-08
   18.30000      2.7329927E-08
   18.36000      2.7836785E-08
   18.42000      2.8544619E-08
   18.48000      2.9440431E-08
   18.54000      3.0488096E-08
   18.60000      3.1634666E-08
   18.66000      3.2821006E-08
   18.72000      3.3993562E-08
   18.78000      3.5113313E-08
   18.84000      3.6159086E-08
   18.90000      3.7124590E-08
   18.96000      3.8011141E-08
   19.02000      3.8819600E-08
   19.08000      3.9544744E-08
   19.14000      4.0173923E-08
   19.20000      4.0689404E-08
   19.26000      4.1072486E-08
   19.32000      4.1306961E-08
   19.38000      4.1380499E-08
   19.44000      4.1284064E-08
   19.50000      4.1010765E-08
   19.56000      4.0555836E-08
   19.62000      3.9918724E-08
   19.68000      3.9106965E-08
   19.74000      3.8140254E-08
   19.80000      3.7052516E-08
   19.86000      3.5890309E-08
   19.92000      3.4707043E-08
   19.98000      3.3554226E-08
   20.04000      3.2472371E-08
   20.10000      3.1484564E-08
   20.16000      3.0595146E-08
   20.22000      2.9794036E-08
   20.28000      2.9065051E-08
   20.34000      2.8394918E-08
   20.40000      2.7779301E-08
   20.46000      2.7223463E-08
   20.52000      2.6737675E-08
   20.58000      2.6329813E-08
   20.64000      2.5998888E-08
   20.70000      2.5732668E-08
   20.76000      2.5510362E-08
   20.82000      2.5308839E-08
   20.88000      2.5109015E-08
   20.94000      2.4899089E-08
   21.00000      2.4672929E-08
   21.06000      2.4424361E-08
   21.12000      2.4140315E-08
   21.18000      2.3796371E-08
   21.24000      2.3357448E-08
   21.30000      2.2784045E-08
   21.36000      2.2042087E-08
   21.42000      2.1112635E-08
   21.48000      1.9997588E-08
   21.54000      1.8718890E-08
   21.60000      1.7311251E-08
   21.66000      1.5811018E-08
   21.72000      1.4245423E-08
   21.78000      1.2626279E-08
   21.84000      1.0950316E-08
   21.90000      9.2055634E-09
   21.96000      7.3806299E-09
   22.02000      5.4728533E-09
   22.08000      3.4921535E-09
   22.14000      1.4597772E-09
   22.20000     -5.9645711E-10
   22.26000     -2.6475253E-09
   22.32000     -4.6667048E-09
   22.38000     -6.6304362E-09
   22.44000     -8.5176302E-09
   22.50000     -1.0309360E-08
   22.56000     -1.1990349E-08
   22.62000     -1.3552055E-08
   22.68000     -1.4995699E-08
   22.74000     -1.6333047E-08
   22.80000     -1.7583652E-08
   22.86000     -1.8768967E-08
   22.92000     -1.9905315E-08
   22.98000     -2.0998337E-08
   23.04000     -2.2040860E-08
   23.10000     -2.3014600E-08
   23.16000     -2.3894684E-08
   23.22000     -2.4655067E-08
   23.28000     -2.5273254E-08
   23.34000     -2.5733394E-08
   23.40000     -2.6027934E-08
   23.46000     -2.6158302E-08
   23.52000     -2.6135053E-08
   23.58000     -2.5977377E-08
   23.64000     -2.5711572E-08
   23.70000     -2.5368294E-08
   23.76000     -2.4978995E-08
   23.82000     -2.4572740E-08
   23.88000     -2.4174671E-08
   23.94000     -2.3806674E-08
   24.00000     -2.3489553E-08
   24.06000     -2.3244651E-08
   24.12000     -2.3092651E-08
   24.18000     -2.3048512E-08
   24.24000     -2.3113683E-08
   24.30000     -2.3269182E-08
   24.36000     -2.3473959E-08
   24.42000     -2.3671582E-08
   24.48000     -2.3804839E-08
   24.54000     -2.3833726E-08
   24.60000     -2.3749701E-08
   24.66000     -2.3579457E-08
   24.72000     -2.3375293E-08
   24.78000     -2.3194755E-08
   24.84000     -2.3077176E-08
   24.90000     -2.3026629E-08
   24.96000     -2.3008324E-08
   25.02000     -2.2959963E-08
   25.08000     -2.2813129E-08
   25.14000     -2.2515746E-08
   25.20000     -2.2046665E-08
   25.26000     -2.1417424E-08
   25.32000     -2.0662206E-08
   25.38000     -1.9822014E-08
   25.44000     -1.8930798E-08
   25.50000     -1.8009276E-08
   25.56000     -1.7067732E-08
   25.62000     -1.6114615E-08
   25.68000     -1.5165480E-08
   25.74000     -1.4247626E-08
   25.80000     -1.3398681E-08
   25.86000     -1.2660776E-08
   25.92000     -1.2073712E-08
   25.98000     -1.1670139E-08
   26.04000     -1.1473722E-08
   26.10000     -1.1499047E-08
   26.16000     -1.1751099E-08
   26.22000     -1.2223103E-08
   26.28000     -1.2893500E-08
   26.34000     -1.3724606E-08
   26.40000     -1.4665670E-08
   26.46000     -1.5661278E-08
   26.52000     -1.6663183E-08
   26.58000     -1.7641181E-08
   26.64000     -1.8588160E-08
   26.70000     -1.9516344E-08
   26.76000     -2.0445391E-08
   26.82000     -2.1386677E-08
   26.88000     -2.2330052E-08
   26.94000     -2.3238686E-08
   27.00000     -2.4054481E-08
   27.06000     -2.4712431E-08
   27.12000     -2.5158830E-08
   27.18000     -2.5366957E-08
   27.24000     -2.5344947E-08
   27.30000     -2.5133600E-08
   27.36000     -2.4795355E-08
   27.42000     -2.4398396E-08
   27.48000     -2.4001027E-08
   27.54000     -2.3640755E-08
   27.60000     -2.3330731E-08
   27.66000     -2.3063624E-08
   27.72000     -2.2820791E-08
   27.78000     -2.2583089E-08
   27.84000     -2.2339352E-08
   27.90000     -2.2089433E-08
   27.96000     -2.1840822E-08
   28.02000     -2.1600306E-08
   28.08000     -2.1364334E-08
   28.14000     -2.1112660E-08
   28.20000     -2.0808811E-08
   28.26000     -2.0408313E-08
   28.32000     -1.9872141E-08
   28.38000     -1.9180236E-08
   28.44000     -1.8339417E-08
   28.50000     -1.7382007E-08
   28.56000     -1.6355404E-08
   28.62000     -1.5306762E-08
   28.68000     -1.4269253E-08
   28.74000     -1.3255584E-08
   28.80000     -1.2261077E-08
   28.86000     -1.1274039E-08
   28.92000     -1.0287730E-08
   28.98000     -9.3076169E-09
   29.04000     -8.3501295E-09
   29.10000     -7.4336173E-09
   29.16000     -6.5663888E-09
   29.22000     -5.7384004E-09
   29.28000     -4.9215605E-09
   29.34000     -4.0793084E-09
   29.40000     -3.1813765E-09
   29.46000     -2.2167836E-09
   29.52000     -1.1986682E-09
   29.58000     -1.5840876E-10
   29.64000      8.6824525E-10
   29.70000      1.8562298E-09
   29.76000      2.7997946E-09
   29.82000      3.7101524E-09
   29.88000      4.6031339E-09
   29.94000      5.4831650E-09
   30.00000      6.3323053E-09
   30.06000      7.1111654E-09
   30.12000      7.7729823E-09
   30.18000      8.2854630E-09
   30.24000      8.6505123E-09
   30.30000      8.9119450E-09
   30.36000      9.1461141E-09
   30.42000      9.4379446E-09
   30.48000      9.8517381E-09
   30.54000      1.0408956E-08
   30.60000      1.1082537E-08
   30.66000      1.1810078E-08
   30.72000      1.2519886E-08
   30.78000      1.3158084E-08
   30.84000      1.3704704E-08
   30.90000      1.4171934E-08
   30.96000      1.4586221E-08
   31.02000      1.4963570E-08
   31.08000      1.5290619E-08
   31.14000      1.5521298E-08
   31.20000      1.5591416E-08
   31.26000      1.5444957E-08
   31.32000      1.5060248E-08
   31.38000      1.4464022E-08
   31.44000      1.3726826E-08
   31.50000      1.2941420E-08
   31.56000      1.2193089E-08
   31.62000      1.1533799E-08
   31.68000      1.0969895E-08
   31.74000      1.0466909E-08
   31.80000      9.9680184E-09
   31.86000      9.4178834E-09
   31.92000      8.7826457E-09
   31.98000      8.0596676E-09
   32.04000      7.2753563E-09
   32.10000      6.4738686E-09
   32.16000      5.7020140E-09
   32.22000      4.9957576E-09
   32.28000      4.3719655E-09
   32.34000      3.8265826E-09
   32.40000      3.3382965E-09
   32.46000      2.8755511E-09
   32.52000      2.4044811E-09
   32.58000      1.8957822E-09
   32.64000      1.3292754E-09
   32.70000      6.9577921E-10
   32.76000     -3.3876224E-12
   32.82000     -7.5851020E-10
   32.88000     -1.5543481E-09
   32.94000     -2.3731808E-09
   33.00000     -3.1977814E-09
   33.06000     -4.0142782E-09
   33.12000     -4.8147051E-09
   33.18000     -5.5986482E-09
   33.24000     -6.3730563E-09
   33.30000     -7.1494886E-09
   33.36000     -7.9389553E-09
   33.42000     -8.7458831E-09
   33.48000     -9.5637498E-09
   33.54000     -1.0374971E-08
   33.60000     -1.1156108E-08
   33.66000     -1.1886978E-08
   33.72000     -1.2559866E-08
   33.78000     -1.3184090E-08
   33.84000     -1.3782564E-08
   33.90000     -1.4380408E-08
   33.96000     -1.4989572E-08
   34.02000     -1.5596134E-08
   34.08000     -1.6156621E-08
   34.14000     -1.6606544E-08
   34.20000     -1.6879129E-08
   34.26000     -1.6927753E-08
   34.32000     -1.6743384E-08
   34.38000     -1.6359973E-08
   34.44000     -1.5845307E-08
   34.50000     -1.5280467E-08
   34.56000     -1.4735567E-08
   34.62000     -1.4250690E-08
   34.68000     -1.3828753E-08
   34.74000     -1.3442282E-08
   34.80000     -1.3050708E-08
   34.86000     -1.2621032E-08
   34.92000     -1.2143870E-08
   34.98000     -1.1639156E-08
   35.04000     -1.1150131E-08
   35.10000     -1.0728849E-08
   35.16000     -1.0419567E-08
   35.22000     -1.0246804E-08
   35.28000     -1.0212601E-08
   35.34000     -1.0303440E-08
   35.40000     -1.0503205E-08
   35.46000     -1.0806005E-08
   35.52000     -1.1222780E-08
   35.58000     -1.1778291E-08
   35.64000     -1.2499345E-08
   35.70000     -1.3399092E-08
   35.76000     -1.4464343E-08
   35.82000     -1.5651974E-08
   35.88000     -1.6896850E-08
   35.94000     -1.8128880E-08
   36.00000     -1.9292573E-08
   36.06000     -2.0361067E-08
   36.12000     -2.1338613E-08
   36.18000     -2.2250303E-08
   36.24000     -2.3123420E-08
   36.30000     -2.3968573E-08
   36.36000     -2.4769012E-08
   36.42000     -2.5482857E-08
   36.48000     -2.6057181E-08
   36.54000     -2.6447418E-08
   36.60000     -2.6633243E-08
   36.66000     -2.6623887E-08
   36.72000     -2.6450973E-08
   36.78000     -2.6152906E-08
   36.84000     -2.5758728E-08
   36.90000     -2.5279201E-08
   36.96000     -2.4708912E-08
   37.02000     -2.4037496E-08
   37.08000     -2.3263373E-08
   37.14000     -2.2402329E-08
   37.20000     -2.1486048E-08
   37.26000     -2.0551147E-08
   37.32000     -1.9624174E-08
   37.38000     -1.8710432E-08
   37.44000     -1.7792646E-08
   37.50000     -1.6840749E-08
   37.56000     -1.5828647E-08
   37.62000     -1.4750273E-08
   37.68000     -1.3627465E-08
   37.74000     -1.2505832E-08
   37.80000     -1.1440113E-08
   37.86000     -1.0475177E-08
   37.92000     -9.6306128E-09
   37.98000     -8.8951682E-09
   38.04000     -8.2329672E-09
   38.10000     -7.5984010E-09
   38.16000     -6.9530754E-09
   38.22000     -6.2776375E-09
   38.28000     -5.5739151E-09
   38.34000     -4.8573257E-09
   38.40000     -4.1440096E-09
   38.46000     -3.4394689E-09
   38.52000     -2.7346800E-09
   38.58000     -2.0118791E-09
   38.64000     -1.2573358E-09
   38.70000     -4.7466997E-10
   38.76000      3.0838004E-10
   38.82000      1.0439674E-09
   38.88000      1.6779972E-09
   38.94000      2.1679942E-09
   39.00000      2.4969251E-09
   39.06000      2.6766314E-09
   39.12000      2.7394207E-09
   39.18000      2.7220031E-09
   39.24000      2.6495739E-09
   39.30000      2.5275488E-09
   39.36000      2.3444655E-09
   39.42000      2.0838840E-09
   39.48000      1.7386705E-09
   39.54000      1.3200018E-09
   39.60000      8.5627627E-10
   39.66000      3.8229270E-10
   39.72000     -7.6068471E-11
   39.78000     -5.1423849E-10
   39.84000     -9.5247321E-10
   39.90000     -1.4287782E-09
   39.96000     -1.9843800E-09
   40.02000     -2.6480365E-09
   40.08000     -3.4256229E-09
   40.14000     -4.2987667E-09
   40.20000     -5.2322995E-09
   40.26000     -6.1868364E-09
   40.32000     -7.1312400E-09
   40.38000     -8.0504599E-09
   40.44000     -8.9464889E-09
   40.50000     -9.8329034E-09
   40.56000     -1.0725501E-08
   40.62000     -1.1632486E-08
   40.68000     -1.2547473E-08
   40.74000     -1.3447568E-08
   40.80000     -1.4297299E-08
   40.86000     -1.5057493E-08
   40.92000     -1.5696555E-08
   40.98000     -1.6200548E-08
   41.04000     -1.6578419E-08
   41.10000     -1.6860032E-08
   41.16000     -1.7087245E-08
   41.22000     -1.7301073E-08
   41.28000     -1.7529915E-08
   41.34000     -1.7783796E-08
   41.40000     -1.8057003E-08
   41.46000     -1.8337792E-08
   41.52000     -1.8620263E-08
   41.58000     -1.8912219E-08
   41.64000     -1.9234522E-08
   41.70000     -1.9611711E-08
   41.76000     -2.0058224E-08
   41.82000     -2.0567279E-08
   41.88000     -2.1108667E-08
   41.94000     -2.1637492E-08
   42.00000     -2.2110440E-08
   42.06000     -2.2502054E-08
   42.12000     -2.2813161E-08
   42.18000     -2.3067182E-08
   42.24000     -2.3296041E-08
   42.30000     -2.3522521E-08
   42.36000     -2.3747688E-08
   42.42000     -2.3949339E-08
   42.48000     -2.4091818E-08
   42.54000     -2.4141828E-08
   42.60000     -2.4082048E-08
   42.66000     -2.3915852E-08
   42.72000     -2.3661295E-08
   42.78000     -2.3338137E-08
   42.84000     -2.2955122E-08
   42.90000     -2.2504340E-08
   42.96000     -2.1965601E-08
   43.02000     -2.1318664E-08
   43.08000     -2.0557229E-08
   43.14000     -1.9697945E-08
   43.20000     -1.8780211E-08
   43.26000     -1.7856935E-08
   43.32000     -1.6980399E-08
   43.38000     -1.6189274E-08
   43.44000     -1.5501938E-08
   43.50000     -1.4918207E-08
   43.56000     -1.4427826E-08
   43.62000     -1.4021324E-08
   43.68000     -1.3698022E-08
   43.74000     -1.3467518E-08
   43.80000     -1.3343930E-08
   43.86000     -1.3335534E-08
   43.92000     -1.3434507E-08
   43.98000     -1.3611596E-08
   44.04000     -1.3818405E-08
   44.10000     -1.3996774E-08
   44.16000     -1.4091631E-08
   44.22000     -1.4062278E-08
   44.28000     -1.3887928E-08
   44.34000     -1.3565838E-08
   44.40000     -1.3103442E-08
   44.46000     -1.2507951E-08
   44.52000     -1.1777261E-08
   44.58000     -1.0894729E-08
   44.64000     -9.8284403E-09
   44.70000     -8.5340730E-09
   44.76000     -6.9597115E-09
   44.82000     -5.0511249E-09
   44.88000     -2.7562106E-09
   44.94000     -2.7280617E-11
   45.00000      3.1803988E-09
   45.06000      6.9153412E-09
   45.12000      1.1242360E-08
   45.18000      1.6259404E-08
   45.24000      2.2114907E-08
   45.30000      2.9020645E-08
   45.36000      3.7255848E-08
   45.42000      4.7161567E-08
   45.48000      5.9128730E-08
   45.54000      7.3587238E-08
   45.60000      9.1004352E-08
   45.66000      1.1189821E-07
   45.72000      1.3686655E-07
   45.78000      1.6662477E-07
   45.84000      2.0204362E-07
   45.90000      2.4417758E-07
   45.96000      2.9428000E-07
   46.02000      3.5380856E-07
   46.08000      4.2442915E-07
   46.14000      5.0802879E-07
   46.20000      6.0674381E-07
   46.26000      7.2300247E-07
   46.32000      8.5957743E-07
   46.38000      1.0196400E-06
   46.44000      1.2068109E-06
   46.50000      1.4252101E-06
   46.56000      1.6795087E-06
   46.62000      1.9749898E-06
   46.68000      2.3176233E-06
   46.74000      2.7141489E-06
   46.80000      3.1721647E-06
   46.86000      3.7002151E-06
   46.92000      4.3078740E-06
   46.98000      5.0058238E-06
   47.04000      5.8059450E-06
   47.10000      6.7214060E-06
   47.16000      7.7667737E-06
   47.22000      8.9581263E-06
   47.28000      1.0313174E-05
   47.34000      1.1851372E-05
   47.40000      1.3594033E-05
   47.46000      1.5564417E-05
   47.52000      1.7787841E-05
   47.58000      2.0291751E-05
   47.64000      2.3105831E-05
   47.70000      2.6262089E-05
   47.76000      2.9794932E-05
   47.82000      3.3741253E-05
   47.88000      3.8140453E-05
   47.94000      4.3034510E-05
   48.00000      4.8467940E-05
   48.06000      5.4487813E-05
   48.12000      6.1143699E-05
   48.18000      6.8487614E-05
   48.24000      7.6573917E-05
   48.30000      8.5459171E-05
   48.36000      9.5202013E-05
   48.42000      1.0586291E-04
   48.48000      1.1750391E-04
   48.54000      1.3018840E-04
   48.60000      1.4398077E-04
   48.66000      1.5894599E-04
   48.72000      1.7514933E-04
   48.78000      1.9265579E-04
   48.84000      2.1152965E-04
   48.90000      2.3183387E-04
   48.96000      2.5362958E-04
   49.02000      2.7697551E-04
   49.08000      3.0192721E-04
   49.14000      3.2853664E-04
   49.20000      3.5685126E-04
   49.26000      3.8691357E-04
   49.32000      4.1876020E-04
   49.38000      4.5242131E-04
   49.44000      4.8791990E-04
   49.50000      5.2527094E-04
   49.56000      5.6448125E-04
   49.62000      6.0554815E-04
   49.68000      6.4845954E-04
   49.74000      6.9319311E-04
   49.80000      7.3971617E-04
   49.86000      7.8798505E-04
   49.92000      8.3794480E-04
   49.98000      8.8952918E-04
   50.04000      9.4266055E-04
   50.10000      9.9724974E-04
   50.16000      1.0531967E-03
   50.22000      1.1103902E-03
   50.28000      1.1687087E-03
   50.34000      1.2280208E-03
   50.40000      1.2881857E-03
   50.46000      1.3490542E-03
   50.52000      1.4104695E-03
   50.58000      1.4722687E-03
   50.64000      1.5342834E-03
   50.70000      1.5963410E-03
   50.76000      1.6582666E-03
   50.82000      1.7198840E-03
   50.88000      1.7810171E-03
   50.94000      1.8414917E-03
   51.00000      1.9011371E-03
   51.06000      1.9597874E-03
   51.12000      2.0172840E-03
   51.18000      2.0734749E-03
   51.24000      2.1282185E-03
   51.30000      2.1813845E-03
   51.36000      2.2328543E-03
   51.42000      2.2825238E-03
   51.48000      2.3303025E-03
   51.54000      2.3761159E-03
   51.60000      2.4199060E-03
   51.66000      2.4616311E-03
   51.72000      2.5012679E-03
   51.78000      2.5388109E-03
   51.84000      2.5742715E-03
   51.90000      2.6076790E-03
   51.96000      2.6390788E-03
   52.02000      2.6685332E-03
   52.08000      2.6961202E-03
   52.14000      2.7219313E-03
   52.20000      2.7460735E-03
   52.26000      2.7686635E-03
   52.32000      2.7898299E-03
   52.38000      2.8097089E-03
   52.44000      2.8284434E-03
   52.50000      2.8461814E-03
   52.56000      2.8630728E-03
   52.62000      2.8792699E-03
   52.68000      2.8949224E-03
   52.74000      2.9101784E-03
   52.80000      2.9251801E-03
   52.86000      2.9400622E-03
   52.92000      2.9549510E-03
   52.98000      2.9699618E-03
   53.04000      2.9851978E-03
   53.10000      3.0007483E-03
   53.16000      3.0166882E-03
   53.22000      3.0330773E-03
   53.28000      3.0499580E-03
   53.34000      3.0673565E-03
   53.40000      3.0852812E-03
   53.46000      3.1037237E-03
   53.52000      3.1226585E-03
   53.58000      3.1420423E-03
   53.64000      3.1618173E-03
   53.70000      3.1819104E-03
   53.76000      3.2022342E-03
   53.82000      3.2226886E-03
   53.88000      3.2431630E-03
   53.94000      3.2635371E-03
   54.00000      3.2836825E-03
   54.06000      3.3034654E-03
   54.12000      3.3227480E-03
   54.18000      3.3413901E-03
   54.24000      3.3592526E-03
   54.30000      3.3761978E-03
   54.36000      3.3920924E-03
   54.42000      3.4068087E-03
   54.48000      3.4202277E-03
   54.54000      3.4322380E-03
   54.60000      3.4427401E-03
   54.66000      3.4516461E-03
   54.72000      3.4588811E-03
   54.78000      3.4643849E-03
   54.84000      3.4681128E-03
   54.90000      3.4700346E-03
   54.96000      3.4701359E-03
   55.02000      3.4684185E-03
   55.08000      3.4648988E-03
   55.14000      3.4596086E-03
   55.20000      3.4525944E-03
   55.26000      3.4439156E-03
   55.32000      3.4336445E-03
   55.38000      3.4218647E-03
   55.44000      3.4086709E-03
   55.50000      3.3941653E-03
   55.56000      3.3784579E-03