  -2.400000      0.0000000E+00
  -2.340000      0.0000000E+00
  -2.280000      0.0000000E+00
  -2.220000      0.0000000E+00
  -2.160000      0.0000000E+00
  -2.100000      6.3429768E-21
  -2.040000      5.3463588E-20
  -1.980000      2.2931204E-19
  -1.920000      6.4592471E-19
  -1.860000      1.2644351E-18
  -1.800000      1.5418556E-18
  -1.740000      6.4149608E-20
  -1.680000     -5.3990000E-18
  -1.620000     -1.6853390E-17
  -1.560000     -3.3776001E-17
  -1.500000     -5.0092179E-17
  -1.440000     -5.2094511E-17
  -1.380000     -1.9742057E-17
  -1.320000      6.6543616E-17
  -1.260000      2.1334225E-16
  -1.200000      3.9889127E-16
  -1.140000      5.6131084E-16
  -1.080000      5.9893123E-16
  -1.020000      3.9056493E-16
 -0.9600000     -1.6105208E-16
 -0.9000000     -1.0680793E-15
 -0.8400000     -2.1954539E-15
 -0.7800000     -3.2254263E-15
 -0.7200000     -3.6811827E-15
 -0.6600000     -3.0344345E-15
 -0.6000000     -8.9737254E-16
 -0.5400000      2.7403873E-15
 -0.4800000      7.3127751E-15
 -0.4200000      1.1625332E-14
 -0.3600000      1.4044750E-14
 -0.3000000      1.2954811E-14
 -0.2400000      7.3895586E-15
 -0.1800000     -2.3648065E-15
 -0.1200000     -1.4472335E-14
 -5.9999999E-02 -2.5782397E-14
  0.0000000E+00 -3.2654570E-14
  5.9999999E-02 -3.2177555E-14
  0.1200000     -2.3353603E-14
  0.1800000     -7.7311018E-15
  0.2400000      1.0892822E-14
  0.3000000      2.7721793E-14
  0.3600000      3.8738550E-14
  0.4200000      4.2257596E-14
  0.4800000      3.9475730E-14
  0.5400000      3.3607204E-14
  0.6000000      2.7835220E-14
  0.6600000      2.2968594E-14
  0.7200000      1.6033493E-14
  0.7800000      8.2436301E-16
  0.8400000     -2.9311023E-14
  0.9000000     -7.7203509E-14
  0.9600000     -1.3772796E-13
   1.020000     -1.9571246E-13
   1.080000     -2.2734164E-13
   1.140000     -2.0543517E-13
   1.200000     -1.0770849E-13
   1.260000      7.3889184E-14
   1.320000      3.2512580E-13
   1.380000      6.0500715E-13
   1.440000      8.4675517E-13
   1.500000      9.6564911E-13
   1.560000      8.7453786E-13
   1.620000      5.0673983E-13
   1.680000     -1.5598329E-13
   1.740000     -1.0558006E-12
   1.800000     -2.0404256E-12
   1.860000     -2.8650988E-12
   1.920000     -3.2250220E-12
   1.980000     -2.8223745E-12
   2.040000     -1.4612888E-12
   2.100000      8.4918449E-13
   2.160000      3.8155716E-12
   2.220000      6.8398100E-12
   2.280000      9.0875025E-12
   2.340000      9.6545124E-12
   2.400000      7.8133524E-12
   2.460000      3.2899670E-12
   2.520000     -3.5024984E-12
   2.580000     -1.1354575E-11
   2.640000     -1.8344496E-11
   2.700000     -2.2148727E-11
   2.760000     -2.0560886E-11
   2.820000     -1.2143334E-11
   2.880000      3.1142495E-12
   2.940000      2.3284520E-11
   3.000000      4.4294266E-11
   3.060000      6.0136313E-11
   3.120000      6.3551088E-11
   3.180000      4.7137096E-11
   3.240000      4.7517277E-12
   3.300000     -6.7020840E-11
   3.360000     -1.6761248E-10
   3.420000     -2.9170966E-10
   3.480000     -4.2922413E-10
   3.540000     -5.6612964E-10
   3.600000     -6.8615452E-10
   3.660000     -7.7315510E-10
   3.720000     -8.1384621E-10
   3.780000     -8.0045981E-10
   3.840000     -7.3287010E-10
   3.900000     -6.1978445E-10
   3.960000     -4.7874044E-10
   4.020000     -3.3485656E-10
   4.080000     -2.1851194E-10
   4.140000     -1.6233277E-10
   4.200000     -1.9798591E-10
   4.260000     -3.5330167E-10
   4.320000     -6.5014122E-10
   4.380000     -1.1032285E-09
   4.440000     -1.7199148E-09
   4.500000     -2.5006190E-09
   4.560000     -3.4395462E-09
   4.620000     -4.5252833E-09
   4.680000     -5.7410290E-09
   4.740000     -7.0644623E-09
   4.800000     -8.4675298E-09
   4.860000     -9.9166195E-09
   4.920000     -1.1373596E-08
   4.980000     -1.2797968E-08
   5.040000     -1.4150069E-08
   5.100000     -1.5394747E-08
   5.160000     -1.6504710E-08
   5.220000     -1.7462671E-08
   5.280000     -1.8261613E-08
   5.340000     -1.8903112E-08
   5.400000     -1.9394147E-08
   5.460000     -1.9743375E-08
   5.520000     -1.9958016E-08
   5.580000     -2.0042291E-08
   5.640000     -1.9997895E-08
   5.700000     -1.9826285E-08
   5.760000     -1.9531981E-08
   5.820000     -1.9125777E-08
   5.880000     -1.8626640E-08
   5.940000     -1.8061565E-08
   6.000000     -1.7463064E-08
   6.060000     -1.6864737E-08
   6.120000     -1.6295854E-08
   6.180000     -1.5776228E-08
   6.240000     -1.5312764E-08
   6.300000     -1.4898675E-08
   6.360000     -1.4515837E-08
   6.420000     -1.4140001E-08
   6.480000     -1.3747790E-08
   6.540000     -1.3323900E-08
   6.600000     -1.2866809E-08
   6.660000     -1.2391559E-08
   6.720000     -1.1928940E-08
   6.780000     -1.1521315E-08
   6.840000     -1.1216174E-08
   6.900000     -1.1059019E-08
   6.960000     -1.1087311E-08
   7.020000     -1.1326716E-08
   7.080000     -1.1790188E-08
   7.140000     -1.2479534E-08
   7.200000     -1.3388434E-08
   7.260000     -1.4505519E-08
   7.320000     -1.5816219E-08
   7.380000     -1.7302630E-08
   7.440000     -1.8941451E-08
   7.500000     -2.0700929E-08
   7.560000     -2.2538229E-08
   7.620000     -2.4398913E-08
   7.680000     -2.6219645E-08
   7.740000     -2.7934400E-08
   7.800000     -2.9483212E-08
   7.860000     -3.0821617E-08
   7.920000     -3.1928309E-08
   7.980000     -3.2808856E-08
   8.040000     -3.3494107E-08
   8.100000     -3.4033384E-08
   8.160000     -3.4483779E-08
   8.220000     -3.4898001E-08
   8.280000     -3.5313487E-08
   8.340000     -3.5745217E-08
   8.400000     -3.6183629E-08
   8.460000     -3.6597893E-08
   8.520000     -3.6943561E-08
   8.580000     -3.7172690E-08
   8.640000     -3.7244021E-08
   8.700000     -3.7131031E-08
   8.760000     -3.6825856E-08
   8.820000     -3.6338403E-08
   8.880000     -3.5690697E-08
   8.940000     -3.4907860E-08
   9.000000     -3.4007968E-08
   9.060000     -3.2993405E-08
   9.120000     -3.1846156E-08
   9.180000     -3.0528646E-08
   9.240000     -2.8990410E-08
   9.300000     -2.7179176E-08
   9.360000     -2.5053859E-08
   9.420000     -2.2596119E-08
   9.480000     -1.9817319E-08
   9.540000     -1.6758893E-08
   9.600000     -1.3485685E-08
   9.660000     -1.0073741E-08
   9.720000     -6.5956010E-09
   9.780000     -3.1067973E-09
   9.840000      3.6284678E-10
   9.900000      3.8107921E-09
   9.960000      7.2557151E-09
   10.02000      1.0725322E-08
   10.08000      1.4241278E-08
   10.14000      1.7805352E-08
   10.20000      2.1390719E-08
   10.26000      2.4941080E-08
   10.32000      2.8378160E-08
   10.38000      3.1615855E-08
   10.44000      3.4577290E-08
   10.50000      3.7210146E-08
   10.56000      3.9495859E-08
   10.62000      4.1450040E-08
   10.68000      4.3113932E-08
   10.74000      4.4539313E-08
   10.80000      4.5771209E-08
   10.86000      4.6833513E-08
   10.92000      4.7721631E-08
   10.98000      4.8404164E-08
   11.04000      4.8832980E-08
   11.10000      4.8958491E-08
   11.16000      4.8745370E-08
   11.22000      4.8184020E-08
   11.28000      4.7294201E-08
   11.34000      4.6119890E-08
   11.40000      4.4716856E-08
   11.46000      4.3136833E-08
   11.52000      4.1413141E-08
   11.58000      3.9552308E-08
   11.64000      3.7534367E-08
   11.70000      3.5321971E-08
   11.76000      3.2875512E-08
   11.82000      3.0169673E-08
   11.88000      2.7206115E-08
   11.94000      2.4018249E-08
   12.00000      2.0666521E-08
   12.06000      1.7225698E-08
   12.12000      1.3768248E-08
   12.18000      1.0349125E-08
   12.24000      6.9967672E-09
   12.30000      3.7128429E-09
   12.36000      4.8037962E-10
   12.42000     -2.7229392E-09
   12.48000     -5.9110978E-09
   12.54000     -9.0803525E-09
   12.60000     -1.2207098E-08
   12.66000     -1.5253315E-08
   12.72000     -1.8177314E-08
   12.78000     -2.0945766E-08
   12.84000     -2.3542835E-08
   12.90000     -2.5973364E-08
   12.96000     -2.8259270E-08
   13.02000     -3.0430598E-08
   13.08000     -3.2514350E-08
   13.14000     -3.4524835E-08
   13.20000     -3.6458470E-08
   13.26000     -3.8294434E-08
   13.32000     -4.0000621E-08
   13.38000     -4.1542705E-08
   13.44000     -4.2893273E-08
   13.50000     -4.4038288E-08
   13.56000     -4.4979014E-08
   13.62000     -4.5729131E-08
   13.68000     -4.6308109E-08
   13.74000     -4.6733078E-08
   13.80000     -4.7011639E-08
   13.86000     -4.7137842E-08
   13.92000     -4.7092655E-08
   13.98000     -4.6849024E-08
   14.04000     -4.6380411E-08
   14.10000     -4.5670674E-08
   14.16000     -4.4722711E-08
   14.22000     -4.3563364E-08
   14.28000     -4.2242924E-08
   14.34000     -4.0828890E-08
   14.40000     -3.9395204E-08
   14.46000     -3.8009407E-08
   14.52000     -3.6720976E-08
   14.58000     -3.5553693E-08
   14.64000     -3.4504009E-08
   14.70000     -3.3545643E-08
   14.76000     -3.2639065E-08
   14.82000     -3.1743181E-08
   14.88000     -3.0826115E-08
   14.94000     -2.9872528E-08
   15.00000     -2.8885946E-08
   15.06000     -2.7886047E-08
   15.12000     -2.6902288E-08
   15.18000     -2.5965866E-08
   15.24000     -2.5102297E-08
   15.30000     -2.4326324E-08
   15.36000     -2.3640007E-08
   15.42000     -2.3033943E-08
   15.48000     -2.2490742E-08
   15.54000     -2.1989599E-08
   15.60000     -2.1510740E-08
   15.66000     -2.1038753E-08
   15.72000     -2.0564272E-08
   15.78000     -2.0083805E-08
   15.84000     -1.9597879E-08
   15.90000     -1.9107999E-08
   15.96000     -1.8613260E-08
   16.02000     -1.8107508E-08
   16.08000     -1.7578060E-08
   16.14000     -1.7006522E-08
   16.20000     -1.6371745E-08
   16.26000     -1.5654127E-08
   16.32000     -1.4840015E-08
   16.38000     -1.3924847E-08
   16.44000     -1.2914104E-08
   16.50000     -1.1822013E-08
   16.56000     -1.0668786E-08
   16.62000     -9.4776356E-09
   16.68000     -8.2726572E-09
   16.74000     -7.0779937E-09
   16.80000     -5.9178484E-09
   16.86000     -4.8163891E-09
   16.92000     -3.7966590E-09
   16.98000     -2.8782712E-09
   17.04000     -2.0745516E-09
   17.10000     -1.3903901E-09
   17.16000     -8.2203666E-10
   17.22000     -3.5936584E-10
   17.28000      9.9330318E-12
   17.34000      2.9568989E-10
   17.40000      5.0189930E-10
   17.46000      6.2606326E-10
   17.52000      6.6167649E-10
   17.58000      6.0321453E-10
   17.64000      4.5216492E-10
   17.70000      2.2232759E-10
   17.76000     -5.7202389E-11
   17.82000     -3.4239978E-10
   17.88000     -5.7834676E-10
   17.94000     -7.0653261E-10
   18.00000     -6.7432748E-10
   18.06000     -4.4498905E-10
   18.12000     -6.2246631E-12
   18.18000      6.2461941E-10
   18.24000      1.4001533E-09
   18.30000      2.2477509E-09
   18.36000      3.0787941E-09
   18.42000      3.8005097E-09
   18.48000      4.3279789E-09
   18.54000      4.5940372E-09
   18.60000      4.5555657E-09
   18.66000      4.1957895E-09
   18.72000      3.5232646E-09
   18.78000      2.5688665E-09
   18.84000      1.3821447E-09
   18.90000      2.7958320E-11
   18.96000     -1.4164198E-09
   19.02000     -2.8642049E-09
   19.08000     -4.2228718E-09
   19.14000     -5.3996110E-09
   19.20000     -6.3088081E-09
   19.26000     -6.8811401E-09
   19.32000     -7.0730146E-09
   19.38000     -6.8744681E-09
   19.44000     -6.3134014E-09
   19.50000     -5.4544813E-09
   19.56000     -4.3919948E-09
   19.62000     -3.2373821E-09
   19.68000     -2.1035151E-09
   19.74000     -1.0887352E-09
   19.80000     -2.6379937E-10
   19.86000      3.3587375E-10
   19.92000      7.1164552E-10
   19.98000      8.9736818E-10
   20.04000      9.5120767E-10
   20.10000      9.4596564E-10
   20.16000      9.6002684E-10
   20.22000      1.0701816E-09
   20.28000      1.3465152E-09
   20.34000      1.8487186E-09
   20.40000      2.6228837E-09
   20.46000      3.6981156E-09
   20.52000      5.0829461E-09
   20.58000      6.7622632E-09
   20.64000      8.6959258E-09
   20.70000      1.0820251E-08
   20.76000      1.3053123E-08
   20.82000      1.5302639E-08
   20.88000      1.7478346E-08
   20.94000      1.9503284E-08
   21.00000      2.1324631E-08
   21.06000      2.2920691E-08
   21.12000      2.4302544E-08
   21.18000      2.5509534E-08
   21.24000      2.6599057E-08
   21.30000      2.7632398E-08
   21.36000      2.8659359E-08
   21.42000      2.9704911E-08
   21.48000      3.0760798E-08
   21.54000      3.1784065E-08
   21.60000      3.2702808E-08
   21.66000      3.3427877E-08
   21.72000      3.3867895E-08
   21.78000      3.3944165E-08
   21.84000      3.3602465E-08
   21.90000      3.2819468E-08
   21.96000      3.1603005E-08
   22.02000      2.9986804E-08
   22.08000      2.8021306E-08
   22.14000      2.5762933E-08
   22.20000      2.3263986E-08
   22.26000      2.0565162E-08
   22.32000      1.7691832E-08
   22.38000      1.4654518E-08
   22.44000      1.1453041E-08
   22.50000      8.0831395E-09
   22.56000      4.5437609E-09
   22.62000      8.4306878E-10
   22.68000     -2.9984981E-09
   22.74000     -6.9490609E-09
   22.80000     -1.0969893E-08
   22.86000     -1.5022559E-08
   22.92000     -1.9076584E-08
   22.98000     -2.3115364E-08
   23.04000     -2.7138539E-08
   23.10000     -3.1159889E-08
   23.16000     -3.5201264E-08
   23.22000     -3.9284011E-08
   23.28000     -4.3420290E-08
   23.34000     -4.7606576E-08
   23.40000     -5.1821136E-08
   23.46000     -5.6026227E-08
   23.52000     -6.0174351E-08
   23.58000     -6.4217112E-08
   23.64000     -6.8114417E-08
   23.70000     -7.1841775E-08
   23.76000     -7.5394141E-08
   23.82000     -7.8785433E-08
   23.88000     -8.2043819E-08
   23.94000     -8.5204015E-08
   24.00000     -8.8297952E-08
   24.06000     -9.1345740E-08
   24.12000     -9.4348621E-08
   24.18000     -9.7285266E-08
   24.24000     -1.0011221E-07
   24.30000     -1.0276848E-07
   24.36000     -1.0518364E-07
   24.42000     -1.0728759E-07
   24.48000     -1.0902021E-07
   24.54000     -1.1033862E-07
   24.60000     -1.1122047E-07
   24.66000     -1.1166286E-07
   24.72000     -1.1167753E-07
   24.78000     -1.1128393E-07
   24.84000     -1.1050263E-07
   24.90000     -1.0935082E-07
   24.96000     -1.0784113E-07
   25.02000     -1.0598374E-07
   25.08000     -1.0379053E-07
   25.14000     -1.0127976E-07
   25.20000     -9.8479362E-08
   25.26000     -9.5427858E-08
   25.32000     -9.2172442E-08
   25.38000     -8.8764551E-08
   25.44000     -8.5254058E-08
   25.50000     -8.1683261E-08
   25.56000     -7.8082003E-08
   25.62000     -7.4465234E-08
   25.68000     -7.0833480E-08
   25.74000     -6.7176835E-08
   25.80000     -6.3481636E-08
   25.86000     -5.9738696E-08
   25.92000     -5.5951027E-08
   25.98000     -5.2138891E-08
   26.04000     -4.8340585E-08
   26.10000     -4.4608321E-08
   26.16000     -4.1000089E-08
   26.22000     -3.7569752E-08
   26.28000     -3.4358266E-08
   26.34000     -3.1388609E-08
   26.40000     -2.8665914E-08
   26.46000     -2.6182352E-08
   26.52000     -2.3924930E-08
   26.58000     -2.1883373E-08
   26.64000     -2.0055603E-08
   26.70000     -1.8449299E-08
   26.76000     -1.7079728E-08
   26.82000     -1.5965234E-08
   26.88000     -1.5122396E-08
   26.94000     -1.4562554E-08
   27.00000     -1.4290534E-08
   27.06000     -1.4305326E-08
   27.12000     -1.4601816E-08
   27.18000     -1.5172546E-08
   27.24000     -1.6008840E-08
   27.30000     -1.7101142E-08
   27.36000     -1.8438801E-08
   27.42000     -2.0009528E-08
   27.48000     -2.1798551E-08
   27.54000     -2.3787374E-08
   27.60000     -2.5952117E-08
   27.66000     -2.8261825E-08
   27.72000     -3.0677633E-08
   27.78000     -3.3153832E-08
   27.84000     -3.5641602E-08
   27.90000     -3.8095163E-08
   27.96000     -4.0478994E-08
   28.02000     -4.2773905E-08
   28.08000     -4.4979622E-08
   28.14000     -4.7112490E-08
   28.20000     -4.9198452E-08
   28.26000     -5.1263225E-08
   28.32000     -5.3322680E-08
   28.38000     -5.5376390E-08
   28.44000     -5.7406471E-08
   28.50000     -5.9381655E-08
   28.56000     -6.1265112E-08
   28.62000     -6.3023180E-08
   28.68000     -6.4632140E-08
   28.74000     -6.6081228E-08
   28.80000     -6.7371396E-08
   28.86000     -6.8510801E-08
   28.92000     -6.9508935E-08
   28.98000     -7.0371215E-08
   29.04000     -7.1095450E-08
   29.10000     -7.1670677E-08
   29.16000     -7.2078258E-08
   29.22000     -7.2294661E-08
   29.28000     -7.2295236E-08
   29.34000     -7.2058491E-08
   29.40000     -7.1570255E-08
   29.46000     -7.0827035E-08
   29.52000     -6.9837789E-08
   29.58000     -6.8623457E-08
   29.64000     -6.7213762E-08
   29.70000     -6.5641743E-08
   29.76000     -6.3937094E-08
   29.82000     -6.2120066E-08
   29.88000     -6.0197628E-08
   29.94000     -5.8163280E-08
   30.00000     -5.6000630E-08
   30.06000     -5.3690002E-08
   30.12000     -5.1216251E-08
   30.18000     -4.8575853E-08
   30.24000     -4.5781476E-08
   30.30000     -4.2863117E-08
   30.36000     -3.9865743E-08
   30.42000     -3.6843979E-08
   30.48000     -3.3855052E-08
   30.54000     -3.0951178E-08
   30.60000     -2.8172570E-08
   30.66000     -2.5542258E-08
   30.72000     -2.3063684E-08
   30.78000     -2.0721826E-08
   30.84000     -1.8488027E-08
   30.90000     -1.6327913E-08
   30.96000     -1.4210729E-08
   31.02000     -1.2117799E-08
   31.08000     -1.0047550E-08
   31.14000     -8.0153963E-09
   31.20000     -6.0482535E-09
   31.26000     -4.1753196E-09
   31.32000     -2.4181863E-09
   31.38000     -7.8378776E-10
   31.44000      7.3720346E-10
   31.50000      2.1658646E-09
   31.56000      3.5259993E-09
   31.62000      4.8339301E-09
   31.68000      6.0908838E-09
   31.74000      7.2807649E-09
   31.80000      8.3740810E-09
   31.86000      9.3365138E-09
   31.92000      1.0139029E-08
   31.98000      1.0766030E-08
   32.04000      1.1218951E-08
   32.10000      1.1514428E-08
   32.16000      1.1678057E-08
   32.22000      1.1736102E-08
   32.28000      1.1707928E-08
   32.34000      1.1601435E-08
   32.40000      1.1412677E-08
   32.46000      1.1129403E-08
   32.52000      1.0737251E-08
   32.58000      1.0226479E-08
   32.64000      9.5971844E-09
   32.70000      8.8613339E-09
   32.76000      8.0409448E-09
   32.82000      7.1629067E-09
   32.88000      6.2520034E-09
   32.94000      5.3243947E-09
   33.00000      4.3837312E-09
   33.06000      3.4212850E-09
   33.12000      2.4201270E-09
   33.18000      1.3618922E-09
   33.24000      2.3368193E-10
   33.30000     -9.6748387E-10
   33.36000     -2.2343694E-09
   33.42000     -3.5534911E-09
   33.48000     -4.9117581E-09
   33.54000     -6.3030425E-09
   33.60000     -7.7318401E-09
   33.66000     -9.2122283E-09
   33.72000     -1.0762103E-08
   33.78000     -1.2394602E-08
   33.84000     -1.4109792E-08
   33.90000     -1.5889844E-08
   33.96000     -1.7699721E-08
   34.02000     -1.9493577E-08
   34.08000     -2.1224873E-08
   34.14000     -2.2857018E-08
   34.20000     -2.4371014E-08
   34.26000     -2.5767699E-08
   34.32000     -2.7064099E-08
   34.38000     -2.8285413E-08
   34.44000     -2.9455643E-08
   34.50000     -3.0590165E-08
   34.56000     -3.1692672E-08
   34.62000     -3.2757224E-08
   34.68000     -3.3774203E-08
   34.74000     -3.4737681E-08
   34.80000     -3.5651247E-08
   34.86000     -3.6530110E-08
   34.92000     -3.7398532E-08
   34.98000     -3.8283439E-08
   35.04000     -3.9206139E-08
   35.10000     -4.0174804E-08
   35.16000     -4.1179945E-08
   35.22000     -4.2194451E-08
   35.28000     -4.3178257E-08
   35.34000     -4.4086651E-08
   35.40000     -4.4880082E-08
   35.46000     -4.5533003E-08
   35.52000     -4.6039318E-08
   35.58000     -4.6412872E-08
   35.64000     -4.6682668E-08
   35.70000     -4.6883933E-08
   35.76000     -4.7047486E-08
   35.82000     -4.7190422E-08
   35.88000     -4.7310987E-08
   35.94000     -4.7389118E-08
   36.00000     -4.7392604E-08
   36.06000     -4.7286832E-08
   36.12000     -4.7044921E-08
   36.18000     -4.6655014E-08
   36.24000     -4.6122434E-08
   36.30000     -4.5466248E-08
   36.36000     -4.4711907E-08
   36.42000     -4.3882750E-08
   36.48000     -4.2993680E-08
   36.54000     -4.2049244E-08
   36.60000     -4.1046608E-08
   36.66000     -3.9982062E-08
   36.72000     -3.8858396E-08
   36.78000     -3.7690171E-08
   36.84000     -3.6504815E-08
   36.90000     -3.5338978E-08
   36.96000     -3.4231316E-08
   37.02000     -3.3214103E-08
   37.08000     -3.2306296E-08
   37.14000     -3.1510247E-08
   37.20000     -3.0812906E-08
   37.26000     -3.0191188E-08
   37.32000     -2.9619875E-08
   37.38000     -2.9079970E-08
   37.44000     -2.8565324E-08
   37.50000     -2.8085896E-08
   37.56000     -2.7666800E-08
   37.62000     -2.7343177E-08
   37.68000     -2.7151966E-08
   37.74000     -2.7122361E-08
   37.80000     -2.7267230E-08
   37.86000     -2.7577791E-08
   37.92000     -2.8023184E-08
   37.98000     -2.8555524E-08
   38.04000     -2.9119457E-08
   38.10000     -2.9663974E-08
   38.16000     -3.0153302E-08
   38.22000     -3.0573847E-08
   38.28000     -3.0935077E-08
   38.34000     -3.1264047E-08
   38.40000     -3.1595075E-08
   38.46000     -3.1957661E-08
   38.52000     -3.2366188E-08
   38.58000     -3.2814398E-08
   38.64000     -3.3276223E-08
   38.70000     -3.3712436E-08
   38.76000     -3.4081111E-08
   38.82000     -3.4348659E-08
   38.88000     -3.4498292E-08
   38.94000     -3.4533805E-08
   39.00000     -3.4477772E-08
   39.06000     -3.4365190E-08
   39.12000     -3.4234407E-08
   39.18000     -3.4117896E-08
   39.24000     -3.4035157E-08
   39.30000     -3.3989402E-08
   39.36000     -3.3968703E-08
   39.42000     -3.3951327E-08
   39.48000     -3.3914077E-08
   39.54000     -3.3841946E-08
   39.60000     -3.3736651E-08
   39.66000     -3.3621792E-08
   39.72000     -3.3542705E-08
   39.78000     -3.3560077E-08
   39.84000     -3.3738122E-08
   39.90000     -3.4129744E-08
   39.96000     -3.4762621E-08
   40.02000     -3.5630475E-08
   40.08000     -3.6692775E-08
   40.14000     -3.7883854E-08
   40.20000     -3.9129453E-08
   40.26000     -4.0366142E-08
   40.32000     -4.1557886E-08
   40.38000     -4.2704581E-08
   40.44000     -4.3840053E-08
   40.50000     -4.5020244E-08
   40.56000     -4.6305466E-08
   40.62000     -4.7742432E-08
   40.68000     -4.9351257E-08
   40.74000     -5.1120761E-08
   40.80000     -5.3012364E-08
   40.86000     -5.4970190E-08
   40.92000     -5.6933384E-08
   40.98000     -5.8846943E-08
   41.04000     -6.0668448E-08
   41.10000     -6.2370141E-08
   41.16000     -6.3937335E-08
   41.22000     -6.5364837E-08
   41.28000     -6.6653023E-08
   41.34000     -6.7804507E-08
   41.40000     -6.8821656E-08
   41.46000     -6.9704825E-08
   41.52000     -7.0451357E-08
   41.58000     -7.1055460E-08
   41.64000     -7.1509241E-08
   41.70000     -7.1804621E-08
   41.76000     -7.1935638E-08
   41.82000     -7.1899912E-08
   41.88000     -7.1698224E-08
   41.94000     -7.1332011E-08
   42.00000     -7.0799494E-08
   42.06000     -7.0092284E-08
   42.12000     -6.9194556E-08
   42.18000     -6.8086180E-08
   42.24000     -6.6749465E-08
   42.30000     -6.5177694E-08
   42.36000     -6.3382160E-08
   42.42000     -6.1394758E-08
   42.48000     -5.9264448E-08
   42.54000     -5.7048325E-08
   42.60000     -5.4799997E-08
   42.66000     -5.2559212E-08
   42.72000     -5.0346156E-08
   42.78000     -4.8162217E-08
   42.84000     -4.5996444E-08
   42.90000     -4.3834998E-08
   42.96000     -4.1669860E-08
   43.02000     -3.9503828E-08
   43.08000     -3.7350357E-08
   43.14000     -3.5229043E-08
   43.20000     -3.3159132E-08
   43.26000     -3.1153910E-08
   43.32000     -2.9218281E-08
   43.38000     -2.7350254E-08
   43.44000     -2.5545440E-08
   43.50000     -2.3802631E-08
   43.56000     -2.2128251E-08
   43.62000     -2.0538170E-08
   43.68000     -1.9056541E-08
   43.74000     -1.7712374E-08
   43.80000     -1.6535189E-08
   43.86000     -1.5551061E-08
   43.92000     -1.4779834E-08
   43.98000     -1.4233622E-08
   44.04000     -1.3916332E-08
   44.10000     -1.3823841E-08
   44.16000     -1.3944800E-08
   44.22000     -1.4262266E-08
   44.28000     -1.4756398E-08
   44.34000     -1.5408071E-08
   44.40000     -1.6202652E-08
   44.46000     -1.7132624E-08
   44.52000     -1.8197781E-08
   44.58000     -1.9402272E-08
   44.64000     -2.0748908E-08
   44.70000     -2.2232372E-08
   44.76000     -2.3833570E-08
   44.82000     -2.5517236E-08
   44.88000     -2.7233890E-08
   44.94000     -2.8925671E-08
   45.00000     -3.0534302E-08
   45.06000     -3.2008760E-08
   45.12000     -3.3310588E-08
   45.18000     -3.4415915E-08
   45.24000     -3.5314542E-08
   45.30000     -3.6007492E-08
   45.36000     -3.6504662E-08
   45.42000     -3.6823511E-08
   45.48000     -3.6988883E-08
   45.54000     -3.7033018E-08
   45.60000     -3.6994557E-08
   45.66000     -3.6915615E-08
   45.72000     -3.6836969E-08
   45.78000     -3.6792329E-08
   45.84000     -3.6803261E-08
   45.90000     -3.6876393E-08
   45.96000     -3.7003876E-08
   46.02000     -3.7167180E-08
   46.08000     -3.7343373E-08
   46.14000     -3.7512550E-08
   46.20000     -3.7664815E-08
   46.26000     -3.7805538E-08
   46.32000     -3.7958017E-08
   46.38000     -3.8163169E-08
   46.44000     -3.8476223E-08
   46.50000     -3.8961002E-08
   46.56000     -3.9682728E-08
   46.62000     -4.0700833E-08
   46.68000     -4.2063498E-08
   46.74000     -4.3805802E-08
   46.80000     -4.5952667E-08
   46.86000     -4.8526839E-08
   46.92000     -5.1560651E-08
   46.98000     -5.5109087E-08
   47.04000     -5.9260909E-08
   47.10000     -6.4144970E-08
   47.16000     -6.9930323E-08
   47.22000     -7.6820569E-08
   47.28000     -8.5045407E-08
   47.34000     -9.4853242E-08
   47.40000     -1.0650885E-07
   47.46000     -1.2029868E-07
   47.52000     -1.3654365E-07
   47.58000     -1.5561733E-07
   47.64000     -1.7796565E-07
   47.70000     -2.0412395E-07
   47.76000     -2.3472906E-07
   47.82000     -2.7052539E-07
   47.88000     -3.1236709E-07
   47.94000     -3.6121844E-07
   48.00000     -4.1815642E-07
   48.06000     -4.8437749E-07
   48.12000     -5.6121007E-07
   48.18000     -6.5013404E-07
   48.24000     -7.5280514E-07
   48.30000     -8.7108424E-07
   48.36000     -1.0070695E-06
   48.42000     -1.1631280E-06
   48.48000     -1.3419251E-06
   48.54000     -1.5464485E-06
   48.60000     -1.7800264E-06
   48.66000     -2.0463394E-06
   48.72000     -2.3494313E-06
   48.78000     -2.6937173E-06
   48.84000     -3.0840035E-06
   48.90000     -3.5255073E-06
   48.96000     -4.0238920E-06
   49.02000     -4.5853026E-06
   49.08000     -5.2164037E-06
   49.14000     -5.9244139E-06
   49.20000     -6.7171272E-06
   49.26000     -7.6029260E-06
   49.32000     -8.5907841E-06
   49.38000     -9.6902677E-06
   49.44000     -1.0911525E-05
   49.50000     -1.2265287E-05
   49.56000     -1.3762860E-05
   49.62000     -1.5416123E-05
   49.68000     -1.7237515E-05
   49.74000     -1.9240015E-05
   49.80000     -2.1437118E-05
   49.86000     -2.3842787E-05
   49.92000     -2.6471405E-05
   49.98000     -2.9337703E-05
   50.04000     -3.2456697E-05
   50.10000     -3.5843601E-05
   50.16000     -3.9513729E-05
   50.22000     -4.3482414E-05
   50.28000     -4.7764886E-05
   50.34000     -5.2376166E-05
   50.40000     -5.7330941E-05
   50.46000     -6.2643434E-05
   50.52000     -6.8327259E-05
   50.58000     -7.4395299E-05
   50.64000     -8.0859500E-05
   50.70000     -8.7730768E-05
   50.76000     -9.5018760E-05
   50.82000     -1.0273175E-04
   50.88000     -1.1087646E-04
   50.94000     -1.1945792E-04
   51.00000     -1.2847933E-04
   51.06000     -1.3794191E-04
   51.12000     -1.4784475E-04
   51.18000     -1.5818480E-04
   51.24000     -1.6895666E-04
   51.30000     -1.8015246E-04
   51.36000     -1.9176192E-04
   51.42000     -2.0377216E-04
   51.48000     -2.1616774E-04
   51.54000     -2.2893070E-04
   51.60000     -2.4204052E-04
   51.66000     -2.5547427E-04
   51.72000     -2.6920653E-04
   51.78000     -2.8320967E-04
   51.84000     -2.9745384E-04
   51.90000     -3.1190726E-04
   51.96000     -3.2653619E-04
   52.02000     -3.4130539E-04
   52.08000     -3.5617827E-04
   52.14000     -3.7111700E-04
   52.20000     -3.8608306E-04
   52.26000     -4.0103740E-04
   52.32000     -4.1594077E-04
   52.38000     -4.3075415E-04
   52.44000     -4.4543896E-04
   52.50000     -4.5995746E-04
   52.56000     -4.7427311E-04
   52.62000     -4.8835069E-04
   52.68000     -5.0215685E-04
   52.74000     -5.1566039E-04
   52.80000     -5.2883255E-04
   52.86000     -5.4164714E-04
   52.92000     -5.5408105E-04
   52.98000     -5.6611444E-04
   53.04000     -5.7773059E-04
   53.10000     -5.8891659E-04
   53.16000     -5.9966295E-04
   53.22000     -6.0996390E-04
   53.28000     -6.1981741E-04
   53.34000     -6.2922511E-04
   53.40000     -6.3819211E-04
   53.46000     -6.4672722E-04
   53.52000     -6.5484241E-04
   53.58000     -6.6255301E-04
   53.64000     -6.6987693E-04
   53.70000     -6.7683472E-04
   53.76000     -6.8344927E-04
   53.82000     -6.8974530E-04
   53.88000     -6.9574913E-04
   53.94000     -7.0148829E-04
   54.00000     -7.0699106E-04
   54.06000     -7.1228604E-04
   54.12000     -7.1740150E-04
   54.18000     -7.2236528E-04
   54.24000     -7.2720408E-04
   54.30000     -7.3194329E-04
   54.36000     -7.3660648E-04
   54.42000     -7.4121519E-04
   54.48000     -7.4578862E-04
   54.54000     -7.5034308E-04
   54.60000     -7.5489201E-04
   54.66000     -7.5944560E-04
   54.72000     -7.6401053E-04
   54.78000     -7.6859008E-04
   54.84000     -7.7318406E-04
   54.90000     -7.7778881E-04
   54.96000     -7.8239734E-04
   55.02000     -7.8699912E-04
   55.08000     -7.9158065E-04
   55.14000     -7.9612568E-04
   55.20000     -8.0061506E-04
   55.26000     -8.0502767E-04
   55.32000     -8.0934016E-04
   55.38000     -8.1352767E-04
   55.44000     -8.1756420E-04
   55.50000     -8.2142308E-04
   55.56000     -8.2507712E-04