  -2.400000      0.0000000E+00
  -2.340000      0.0000000E+00
  -2.280000      0.0000000E+00
  -2.220000      0.0000000E+00
  -2.160000      0.0000000E+00
  -2.100000     -9.3651709E-20
  -2.040000     -7.4723521E-19
  -1.980000     -3.0137314E-18
  -1.920000     -7.9362694E-18
  -1.860000     -1.4456014E-17
  -1.800000     -1.6396897E-17
  -1.740000     -1.2158361E-18
  -1.680000      4.5509869E-17
  -1.620000      1.2765897E-16
  -1.560000      2.2172992E-16
  -1.500000      2.6661476E-16
  -1.440000      1.7499861E-16
  -1.380000     -1.2398295E-16
  -1.320000     -6.1806671E-16
  -1.260000     -1.1514176E-15
  -1.200000     -1.4170080E-15
  -1.140000     -1.0430150E-15
  -1.080000      2.2082878E-16
  -1.020000      2.2689844E-15
 -0.9600000      4.4663658E-15
 -0.9000000      5.6648124E-15
 -0.8400000      4.4994843E-15
 -0.7800000     -4.8192330E-17
 -0.7200000     -7.9699719E-15
 -0.6600000     -1.7694107E-14
 -0.6000000     -2.5985250E-14
 -0.5400000     -2.8490278E-14
 -0.4800000     -2.0950015E-14
 -0.4200000     -8.5333530E-16
 -0.3600000      3.0911986E-14
 -0.3000000      6.8984748E-14
 -0.2400000      1.0358566E-13
 -0.1800000      1.2206689E-13
 -0.1200000      1.1196600E-13
 -5.9999999E-02  6.5092930E-14
  0.0000000E+00 -1.8343093E-14
  5.9999999E-02 -1.2696490E-13
  0.1200000     -2.3828257E-13
  0.1800000     -3.2255413E-13
  0.2400000     -3.5031263E-13
  0.3000000     -3.0185834E-13
  0.3600000     -1.7554823E-13
  0.4200000      8.8727252E-15
  0.4800000      2.1466398E-13
  0.5400000      4.0020111E-13
  0.6000000      5.3493690E-13
  0.6600000      6.1196686E-13
  0.7200000      6.4909021E-13
  0.7800000      6.7347045E-13
  0.8400000      6.9229822E-13
  0.9000000      6.6112518E-13
  0.9600000      4.6864324E-13
   1.020000     -4.3026265E-14
   1.080000     -1.0131452E-12
   1.140000     -2.4618732E-12
   1.200000     -4.1869255E-12
   1.260000     -5.7069813E-12
   1.320000     -6.3026416E-12
   1.380000     -5.1841934E-12
   1.440000     -1.7724436E-12
   1.500000      3.9743334E-12
   1.560000      1.1298433E-11
   1.620000      1.8570506E-11
   1.680000      2.3500415E-11
   1.740000      2.3647508E-11
   1.800000      1.7142678E-11
   1.860000      3.4367398E-12
   1.920000     -1.6163090E-11
   1.980000     -3.8385486E-11
   2.040000     -5.8431579E-11
   2.100000     -7.0913046E-11
   2.160000     -7.1083257E-11
   2.220000     -5.6038903E-11
   2.280000     -2.5554347E-11
   2.340000      1.7689751E-11
   2.400000      6.8535032E-11
   2.460000      1.2027150E-10
   2.520000      1.6574433E-10
   2.580000      1.9828580E-10
   2.640000      2.1221677E-10
   2.700000      2.0286878E-10
   2.760000      1.6630801E-10
   2.820000      9.9098847E-11
   2.880000     -1.5497941E-12
   2.940000     -1.3707831E-10
   3.000000     -3.0641725E-10
   3.060000     -5.0477444E-10
   3.120000     -7.2293704E-10
   3.180000     -9.4760988E-10
   3.240000     -1.1630273E-09
   3.300000     -1.3536386E-09
   3.360000     -1.5072222E-09
   3.420000     -1.6175167E-09
   3.480000     -1.6854791E-09
   3.540000     -1.7186338E-09
   3.600000     -1.7285406E-09
   3.660000     -1.7270170E-09
   3.720000     -1.7221603E-09
   3.780000     -1.7152920E-09
   3.840000     -1.6996331E-09
   3.900000     -1.6609430E-09
   3.960000     -1.5797079E-09
   4.020000     -1.4340027E-09
   4.080000     -1.2020339E-09
   4.140000     -8.6364760E-10
   4.200000     -4.0063100E-10
   4.260000      2.0376120E-10
   4.320000      9.6522956E-10
   4.380000      1.8979376E-09
   4.440000      3.0126159E-09
   4.500000      4.3134079E-09
   4.560000      5.7942691E-09
   4.620000      7.4361726E-09
   4.680000      9.2063459E-09
   4.740000      1.1060327E-08
   4.800000      1.2946797E-08
   4.860000      1.4814271E-08
   4.920000      1.6618088E-08
   4.980000      1.8325901E-08
   5.040000      1.9920282E-08
   5.100000      2.1397824E-08
   5.160000      2.2765098E-08
   5.220000      2.4032813E-08
   5.280000      2.5209875E-08
   5.340000      2.6299119E-08
   5.400000      2.7295801E-08
   5.460000      2.8189096E-08
   5.520000      2.8965877E-08
   5.580000      2.9615407E-08
   5.640000      3.0133339E-08
   5.700000      3.0523708E-08
   5.760000      3.0798372E-08
   5.820000      3.0974157E-08
   5.880000      3.1068712E-08
   5.940000      3.1096615E-08
   6.000000      3.1066982E-08
   6.060000      3.0983500E-08
   6.120000      3.0846806E-08
   6.180000      3.0658313E-08
   6.240000      3.0424051E-08
   6.300000      3.0156929E-08
   6.360000      2.9876499E-08
   6.420000      2.9606014E-08
   6.480000      2.9367815E-08
   6.540000      2.9178652E-08
   6.600000      2.9046772E-08
   6.660000      2.8971941E-08
   6.720000      2.8948541E-08
   6.780000      2.8970621E-08
   6.840000      2.9037032E-08
   6.900000      2.9154641E-08
   6.960000      2.9338423E-08
   7.020000      2.9608330E-08
   7.080000      2.9984193E-08
   7.140000      3.0480546E-08
   7.200000      3.1103216E-08
   7.260000      3.1848781E-08
   7.320000      3.2706637E-08
   7.380000      3.3662406E-08
   7.440000      3.4701007E-08
   7.500000      3.5807808E-08
   7.560000      3.6967503E-08
   7.620000      3.8161225E-08
   7.680000      3.9363638E-08
   7.740000      4.0541714E-08
   7.800000      4.1656492E-08
   7.860000      4.2668020E-08
   7.920000      4.3542258E-08
   7.980000      4.4257952E-08
   8.040000      4.4811131E-08
   8.100000      4.5215494E-08
   8.160000      4.5498115E-08
   8.220000      4.5691561E-08
   8.280000      4.5824457E-08
   8.340000      4.5913286E-08
   8.400000      4.5957901E-08
   8.460000      4.5941995E-08
   8.520000      4.5838473E-08
   8.580000      4.5618037E-08
   8.640000      4.5258574E-08
   8.700000      4.4752582E-08
   8.760000      4.4110816E-08
   8.820000      4.3361339E-08
   8.880000      4.2544571E-08
   8.940000      4.1705938E-08
   9.000000      4.0888160E-08
   9.060000      4.0125034E-08
   9.120000      3.9438024E-08
   9.180000      3.8836106E-08
   9.240000      3.8318550E-08
   9.300000      3.7879687E-08
   9.360000      3.7514322E-08
   9.420000      3.7222240E-08
   9.480000      3.7010423E-08
   9.540000      3.6892025E-08
   9.600000      3.6882014E-08
   9.660000      3.6990244E-08
   9.720000      3.7213802E-08
   9.780000      3.7530910E-08
   9.840000      3.7898428E-08
   9.900000      3.8254054E-08
   9.960000      3.8523012E-08
   10.02000      3.8627409E-08
   10.08000      3.8495742E-08
   10.14000      3.8069928E-08
   10.20000      3.7308222E-08
   10.26000      3.6183796E-08
   10.32000      3.4680124E-08
   10.38000      3.2785472E-08
   10.44000      3.0488710E-08
   10.50000      2.7778237E-08
   10.56000      2.4644560E-08
   10.62000      2.1085821E-08
   10.68000      1.7114482E-08
   10.74000      1.2762833E-08
   10.80000      8.0850739E-09
   10.86000      3.1545240E-09
   10.92000     -1.9441313E-09
   10.98000     -7.1260735E-09
   11.04000     -1.2318219E-08
   11.10000     -1.7468265E-08
   11.16000     -2.2547871E-08
   11.22000     -2.7548571E-08
   11.28000     -3.2471181E-08
   11.34000     -3.7311803E-08
   11.40000     -4.2048775E-08
   11.46000     -4.6634913E-08
   11.52000     -5.0997752E-08
   11.58000     -5.5047988E-08
   11.64000     -5.8693772E-08
   11.70000     -6.1856632E-08
   11.76000     -6.4484723E-08
   11.82000     -6.6559913E-08
   11.88000     -6.8097606E-08
   11.94000     -6.9140157E-08
   12.00000     -6.9746655E-08
   12.06000     -6.9982185E-08
   12.12000     -6.9909575E-08
   12.18000     -6.9585163E-08
   12.24000     -6.9058757E-08
   12.30000     -6.8376565E-08
   12.36000     -6.7585020E-08
   12.42000     -6.6733207E-08
   12.48000     -6.5872392E-08
   12.54000     -6.5052063E-08
   12.60000     -6.4313276E-08
   12.66000     -6.3681370E-08
   12.72000     -6.3160549E-08
   12.78000     -6.2732582E-08
   12.84000     -6.2360755E-08
   12.90000     -6.1998634E-08
   12.96000     -6.1601412E-08
   13.02000     -6.1136852E-08
   13.08000     -6.0592427E-08
   13.14000     -5.9976607E-08
   13.20000     -5.9313805E-08
   13.26000     -5.8634416E-08
   13.32000     -5.7963121E-08
   13.38000     -5.7309105E-08
   13.44000     -5.6661303E-08
   13.50000     -5.5990352E-08
   13.56000     -5.5256802E-08
   13.62000     -5.4423143E-08
   13.68000     -5.3465971E-08
   13.74000     -5.2384369E-08
   13.80000     -5.1201706E-08
   13.86000     -4.9960107E-08
   13.92000     -4.8709051E-08
   13.98000     -4.7491625E-08
   14.04000     -4.6332673E-08
   14.10000     -4.5232564E-08
   14.16000     -4.4168431E-08
   14.22000     -4.3102236E-08
   14.28000     -4.1992873E-08
   14.34000     -4.0808160E-08
   14.40000     -3.9532953E-08
   14.46000     -3.8170963E-08
   14.52000     -3.6740428E-08
   14.58000     -3.5265707E-08
   14.64000     -3.3768263E-08
   14.70000     -3.2260239E-08
   14.76000     -3.0742534E-08
   14.82000     -2.9207300E-08
   14.88000     -2.7643162E-08
   14.94000     -2.6040514E-08
   15.00000     -2.4394890E-08
   15.06000     -2.2707518E-08
   15.12000     -2.0983633E-08
   15.18000     -1.9230090E-08
   15.24000     -1.7453726E-08
   15.30000     -1.5661072E-08
   15.36000     -1.3859006E-08
   15.42000     -1.2055088E-08
   15.48000     -1.0256563E-08
   15.54000     -8.4678362E-09
   15.60000     -6.6874657E-09
   15.66000     -4.9064197E-09
   15.72000     -3.1092025E-09
   15.78000     -1.2783599E-09
   15.84000      5.9868732E-10
   15.90000      2.5227904E-09
   15.96000      4.4788608E-09
   16.02000      6.4361929E-09
   16.08000      8.3536396E-09
   16.14000      1.0188216E-08
   16.20000      1.1904547E-08
   16.26000      1.3482297E-08
   16.32000      1.4919518E-08
   16.38000      1.6231201E-08
   16.44000      1.7443819E-08
   16.50000      1.8587770E-08
   16.56000      1.9690081E-08
   16.62000      2.0769461E-08
   16.68000      2.1834889E-08
   16.74000      2.2887741E-08
   16.80000      2.3926230E-08
   16.86000      2.4950193E-08
   16.92000      2.5964184E-08
   16.98000      2.6977427E-08
   17.04000      2.8000633E-08
   17.10000      2.9040894E-08
   17.16000      3.0096949E-08
   17.22000      3.1157086E-08
   17.28000      3.2200877E-08
   17.34000      3.3204497E-08
   17.40000      3.4147554E-08
   17.46000      3.5018616E-08
   17.52000      3.5817081E-08
   17.58000      3.6550453E-08
   17.64000      3.7228066E-08
   17.70000      3.7854068E-08
   17.76000      3.8422900E-08
   17.82000      3.8919669E-08
   17.88000      3.9325847E-08
   17.94000      3.9628375E-08
   18.00000      3.9828642E-08
   18.06000      3.9947324E-08
   18.12000      4.0022481E-08
   18.18000      4.0100414E-08
   18.24000      4.0221614E-08
   18.30000      4.0406050E-08
   18.36000      4.0642760E-08
   18.42000      4.0887528E-08
   18.48000      4.1070123E-08
   18.54000      4.1109534E-08
   18.60000      4.0933195E-08
   18.66000      4.0494832E-08
   18.72000      3.9786102E-08
   18.78000      3.8839023E-08
   18.84000      3.7718962E-08
   18.90000      3.6510603E-08
   18.96000      3.5301124E-08
   19.02000      3.4165005E-08
   19.08000      3.3154144E-08
   19.14000      3.2294849E-08
   19.20000      3.1591288E-08
   19.26000      3.1033213E-08
   19.32000      3.0604873E-08
   19.38000      3.0292128E-08
   19.44000      3.0085744E-08
   19.50000      2.9980196E-08
   19.56000      2.9968984E-08
   19.62000      3.0038574E-08
   19.68000      3.0163630E-08
   19.74000      3.0305905E-08
   19.80000      3.0417894E-08
   19.86000      3.0450774E-08
   19.92000      3.0364429E-08
   19.98000      3.0136505E-08
   20.04000      2.9767417E-08
   20.10000      2.9279525E-08
   20.16000      2.8710586E-08
   20.22000      2.8103610E-08
   20.28000      2.7496410E-08
   20.34000      2.6914131E-08
   20.40000      2.6366779E-08
   20.46000      2.5851744E-08
   20.52000      2.5359407E-08
   20.58000      2.4878938E-08
   20.64000      2.4401670E-08
   20.70000      2.3920954E-08
   20.76000      2.3429292E-08
   20.82000      2.2915110E-08
   20.88000      2.2361865E-08
   20.94000      2.1751102E-08
   21.00000      2.1069114E-08
   21.06000      2.0314733E-08
   21.12000      1.9504611E-08
   21.18000      1.8672814E-08
   21.24000      1.7863508E-08
   21.30000      1.7118314E-08
   21.36000      1.6462373E-08
   21.42000      1.5894241E-08
   21.48000      1.5383630E-08
   21.54000      1.4878430E-08
   21.60000      1.4318902E-08
   21.66000      1.3654207E-08
   21.72000      1.2855431E-08
   21.78000      1.1920530E-08
   21.84000      1.0869693E-08
   21.90000      9.7332684E-09
   21.96000      8.5372136E-09
   22.02000      7.2917912E-09
   22.08000      5.9878609E-09
   22.14000      4.6018798E-09
   22.20000      3.1072549E-09
   22.26000      1.4871652E-09
   22.32000     -2.5645122E-10
   22.38000     -2.1013220E-09
   22.44000     -4.0110986E-09
   22.50000     -5.9466241E-09
   22.56000     -7.8774107E-09
   22.62000     -9.7886188E-09
   22.68000     -1.1680854E-08
   22.74000     -1.3563218E-08
   22.80000     -1.5442831E-08
   22.86000     -1.7315395E-08
   22.92000     -1.9160771E-08
   22.98000     -2.0945301E-08
   23.04000     -2.2629804E-08
   23.10000     -2.4179927E-08
   23.16000     -2.5574897E-08
   23.22000     -2.6811557E-08
   23.28000     -2.7902766E-08
   23.34000     -2.8871460E-08
   23.40000     -2.9743155E-08
   23.46000     -3.0539944E-08
   23.52000     -3.1277960E-08
   23.58000     -3.1968586E-08
   23.64000     -3.2622140E-08
   23.70000     -3.3251826E-08
   23.76000     -3.3875871E-08
   23.82000     -3.4516674E-08
   23.88000     -3.5197065E-08
   23.94000     -3.5934850E-08
   24.00000     -3.6737539E-08
   24.06000     -3.7598966E-08
   24.12000     -3.8498854E-08
   24.18000     -3.9405560E-08
   24.24000     -4.0281172E-08
   24.30000     -4.1087549E-08
   24.36000     -4.1791715E-08
   24.42000     -4.2369269E-08
   24.48000     -4.2805176E-08
   24.54000     -4.3092061E-08
   24.60000     -4.3226922E-08
   24.66000     -4.3207670E-08
   24.72000     -4.3030948E-08
   24.78000     -4.2692172E-08
   24.84000     -4.2187992E-08
   24.90000     -4.1520291E-08
   24.96000     -4.0700048E-08
   25.02000     -3.9749199E-08
   25.08000     -3.8699064E-08
   25.14000     -3.7585092E-08
   25.20000     -3.6439278E-08
   25.26000     -3.5282767E-08
   25.32000     -3.4121591E-08
   25.38000     -3.2947657E-08
   25.44000     -3.1745195E-08
   25.50000     -3.0500715E-08
   25.56000     -2.9212744E-08
   25.62000     -2.7897446E-08
   25.68000     -2.6587475E-08
   25.74000     -2.5324159E-08
   25.80000     -2.4145811E-08
   25.86000     -2.3076744E-08
   25.92000     -2.2121437E-08
   25.98000     -2.1266235E-08
   26.04000     -2.0487899E-08
   26.10000     -1.9765418E-08
   26.16000     -1.9090235E-08
   26.22000     -1.8470853E-08
   26.28000     -1.7930288E-08
   26.34000     -1.7498021E-08
   26.40000     -1.7200385E-08
   26.46000     -1.7053781E-08
   26.52000     -1.7063533E-08
   26.58000     -1.7228377E-08
   26.64000     -1.7547817E-08
   26.70000     -1.8028224E-08
   26.76000     -1.8684066E-08
   26.82000     -1.9533029E-08
   26.88000     -2.0586691E-08
   26.94000     -2.1840579E-08
   27.00000     -2.3267935E-08
   27.06000     -2.4820022E-08
   27.12000     -2.6433003E-08
   27.18000     -2.8038768E-08
   27.24000     -2.9575530E-08
   27.30000     -3.0994439E-08
   27.36000     -3.2260552E-08
   27.42000     -3.3349099E-08
   27.48000     -3.4240216E-08
   27.54000     -3.4915608E-08
   27.60000     -3.5359392E-08
   27.66000     -3.5562973E-08
   27.72000     -3.5531404E-08
   27.78000     -3.5287677E-08
   27.84000     -3.4871974E-08
   27.90000     -3.4335155E-08
   27.96000     -3.3728252E-08
   28.02000     -3.3091787E-08
   28.08000     -3.2448888E-08
   28.14000     -3.1804795E-08
   28.20000     -3.1152798E-08
   28.26000     -3.0483893E-08
   28.32000     -2.9796150E-08
   28.38000     -2.9099706E-08
   28.44000     -2.8415359E-08
   28.50000     -2.7767117E-08
   28.56000     -2.7171744E-08
   28.62000     -2.6629413E-08
   28.68000     -2.6119302E-08
   28.74000     -2.5602084E-08
   28.80000     -2.5028640E-08
   28.86000     -2.4352081E-08
   28.92000     -2.3538957E-08
   28.98000     -2.2576012E-08
   29.04000     -2.1470482E-08
   29.10000     -2.0244492E-08
   29.16000     -1.8926078E-08
   29.22000     -1.7540520E-08
   29.28000     -1.6105117E-08
   29.34000     -1.4629048E-08
   29.40000     -1.3117694E-08
   29.46000     -1.1579107E-08
   29.52000     -1.0029481E-08
   29.58000     -8.4950891E-09
   29.64000     -7.0096808E-09
   29.70000     -5.6082414E-09
   29.76000     -4.3194430E-09
   29.82000     -3.1595764E-09
   29.88000     -2.1300501E-09
   29.94000     -1.2190626E-09
   30.00000     -4.0644740E-10
   30.06000      3.3039785E-10
   30.12000      1.0117051E-09
   30.18000      1.6530671E-09
   30.24000      2.2657916E-09
   30.30000      2.8587508E-09
   30.36000      3.4400489E-09
   30.42000      4.0171448E-09
   30.48000      4.5950634E-09
   30.54000      5.1735145E-09
   30.60000      5.7445111E-09
   30.66000      6.2920367E-09
   30.72000      6.7945232E-09
   30.78000      7.2296764E-09
   30.84000      7.5801445E-09
   30.90000      7.8380920E-09
   30.96000      8.0071150E-09
   31.02000      8.1009581E-09
   31.08000      8.1395841E-09
   31.14000      8.1440632E-09
   31.20000      8.1319964E-09
   31.26000      8.1148643E-09
   31.32000      8.0979810E-09
   31.38000      8.0828908E-09
   31.44000      8.0713107E-09
   31.50000      8.0692537E-09
   31.56000      8.0898594E-09
   31.62000      8.1536502E-09
   31.68000      8.2855731E-09
   31.74000      8.5090974E-09
   31.80000      8.8386685E-09
   31.86000      9.2726111E-09
   31.92000      9.7888027E-09
   31.98000      1.0344848E-08
   32.04000      1.0883161E-08
   32.10000      1.1339892E-08
   32.16000      1.1655293E-08
   32.22000      1.1782848E-08
   32.28000      1.1694990E-08
   32.34000      1.1384597E-08
   32.40000      1.0862895E-08
   32.46000      1.0155276E-08
   32.52000      9.2968158E-09
   32.58000      8.3285618E-09
   32.64000      7.2949011E-09
   32.70000      6.2416095E-09
   32.76000      5.2139972E-09
   32.82000      4.2548756E-09
   32.88000      3.4025260E-09
   32.94000      2.6890754E-09
   33.00000      2.1395601E-09
   33.06000      1.7715071E-09
   33.12000      1.5944425E-09
   33.18000      1.6086722E-09
   33.24000      1.8030728E-09
   33.30000      2.1523605E-09
   33.36000      2.6149658E-09
   33.42000      3.1328575E-09
   33.48000      3.6342596E-09
   33.54000      4.0393000E-09
   33.60000      4.2676449E-09
   33.66000      4.2464583E-09
   33.72000      3.9169934E-09
   33.78000      3.2386203E-09
   33.84000      2.1899904E-09
   33.90000      7.6785761E-10
   33.96000     -1.0154316E-09
   34.02000     -3.1347258E-09
   34.08000     -5.5543818E-09
   34.14000     -8.2297857E-09
   34.20000     -1.1108136E-08
   34.26000     -1.4128795E-08
   34.32000     -1.7223662E-08
   34.38000     -2.0318158E-08
   34.44000     -2.3333468E-08
   34.50000     -2.6190532E-08
   34.56000     -2.8815936E-08
   34.62000     -3.1148982E-08
   34.68000     -3.3148403E-08
   34.74000     -3.4796546E-08
   34.80000     -3.6099010E-08
   34.86000     -3.7078717E-08
   34.92000     -3.7765336E-08
   34.98000     -3.8182872E-08
   35.04000     -3.8339451E-08
   35.10000     -3.8223288E-08
   35.16000     -3.7806760E-08
   35.22000     -3.7057944E-08
   35.28000     -3.5955754E-08
   35.34000     -3.4503387E-08
   35.40000     -3.2734889E-08
   35.46000     -3.0712183E-08
   35.52000     -2.8513258E-08
   35.58000     -2.6215753E-08
   35.64000     -2.3881853E-08
   35.70000     -2.1549972E-08
   35.76000     -1.9236042E-08
   35.82000     -1.6943490E-08
   35.88000     -1.4677727E-08
   35.94000     -1.2459212E-08
   36.00000     -1.0329897E-08
   36.06000     -8.3504439E-09
   36.12000     -6.5890529E-09
   36.18000     -5.1058282E-09
   36.24000     -3.9380175E-09
   36.30000     -3.0909577E-09
   36.36000     -2.5373721E-09
   36.42000     -2.2247473E-09
   36.48000     -2.0879736E-09
   36.54000     -2.0630058E-09
   36.60000     -2.0974116E-09
   36.66000     -2.1550879E-09
   36.72000     -2.2145337E-09
   36.78000     -2.2621962E-09
   36.84000     -2.2838913E-09
   36.90000     -2.2577942E-09
   36.96000     -2.1518656E-09
   37.02000     -1.9270563E-09
   37.08000     -1.5456152E-09
   37.14000     -9.8191311E-10
   37.20000     -2.3200462E-10
   37.26000      6.8185219E-10
   37.32000      1.7141116E-09
   37.38000      2.8062661E-09
   37.44000      3.9018109E-09
   37.50000      4.9610427E-09
   37.56000      5.9704615E-09
   37.62000      6.9430737E-09
   37.68000      7.9090503E-09
   37.74000      8.8998497E-09
   37.80000      9.9316342E-09
   37.86000      1.0994434E-08
   37.92000      1.2051592E-08
   37.98000      1.3050162E-08
   38.04000      1.3938648E-08
   38.10000      1.4685429E-08
   38.16000      1.5290768E-08
   38.22000      1.5787668E-08
   38.28000      1.6231118E-08
   38.34000      1.6679810E-08
   38.40000      1.7177163E-08
   38.46000      1.7738655E-08
   38.52000      1.8349674E-08
   38.58000      1.8973862E-08
   38.64000      1.9567839E-08
   38.70000      2.0096007E-08
   38.76000      2.0539696E-08
   38.82000      2.0897748E-08
   38.88000      2.1179504E-08
   38.94000      2.1394303E-08
   39.00000      2.1542718E-08
   39.06000      2.1613502E-08
   39.12000      2.1587221E-08
   39.18000      2.1444361E-08
   39.24000      2.1173712E-08
   39.30000      2.0776834E-08
   39.36000      2.0266480E-08
   39.42000      1.9659709E-08
   39.48000      1.8969063E-08
   39.54000      1.8196042E-08
   39.60000      1.7330088E-08
   39.66000      1.6353798E-08
   39.72000      1.5252196E-08
   39.78000      1.4022033E-08
   39.84000      1.2676975E-08
   39.90000      1.1246199E-08
   39.96000      9.7667483E-09
   40.02000      8.2725595E-09
   40.08000      6.7844481E-09
   40.14000      5.3049747E-09
   40.20000      3.8200678E-09
   40.26000      2.3066349E-09
   40.32000      7.4310458E-10
   40.38000     -8.8110869E-10
   40.44000     -2.5605758E-09
   40.50000     -4.2747050E-09
   40.56000     -5.9936247E-09
   40.62000     -7.6864595E-09
   40.68000     -9.3287991E-09
   40.74000     -1.0906800E-08
   40.80000     -1.2416906E-08
   40.86000     -1.3861848E-08
   40.92000     -1.5244780E-08
   40.98000     -1.6563702E-08
   41.04000     -1.7807931E-08
   41.10000     -1.8957428E-08
   41.16000     -1.9984947E-08
   41.22000     -2.0860305E-08
   41.28000     -2.1555774E-08
   41.34000     -2.2051530E-08
   41.40000     -2.2340108E-08
   41.46000     -2.2428857E-08
   41.52000     -2.2339540E-08
   41.58000     -2.2104782E-08
   41.64000     -2.1761755E-08
   41.70000     -2.1344524E-08
   41.76000     -2.0877163E-08
   41.82000     -2.0369907E-08
   41.88000     -1.9819907E-08
   41.94000     -1.9216600E-08
   42.00000     -1.8550050E-08
   42.06000     -1.7819175E-08
   42.12000     -1.7036593E-08
   42.18000     -1.6227805E-08
   42.24000     -1.5424556E-08
   42.30000     -1.4654564E-08
   42.36000     -1.3931507E-08
   42.42000     -1.3249424E-08
   42.48000     -1.2584214E-08
   42.54000     -1.1902273E-08
   42.60000     -1.1173430E-08
   42.66000     -1.0383411E-08
   42.72000     -9.5409085E-09
   42.78000     -8.6762029E-09
   42.84000     -7.8314537E-09
   42.90000     -7.0460358E-09
   42.96000     -6.3424102E-09
   43.02000     -5.7179670E-09
   43.08000     -5.1461373E-09
   43.14000     -4.5865534E-09
   43.20000     -4.0005537E-09
   43.26000     -3.3662686E-09
   43.32000     -2.6876863E-09
   43.38000     -1.9943858E-09
   43.44000     -1.3321509E-09
   43.50000     -7.4801343E-10
   43.56000     -2.7516150E-10
   43.62000      7.7056826E-11
   43.68000      3.2491282E-10
   43.74000      5.0381394E-10
   43.80000      6.5635386E-10
   43.86000      8.1928975E-10
   43.92000      1.0137546E-09
   43.98000      1.2414760E-09
   44.04000      1.4875047E-09
   44.10000      1.7278156E-09
   44.16000      1.9388098E-09
   44.22000      2.1054991E-09
   44.28000      2.2258948E-09
   44.34000      2.3104807E-09
   44.40000      2.3771509E-09
   44.46000      2.4432716E-09
   44.52000      2.5172704E-09
   44.58000      2.5922782E-09
   44.64000      2.6437856E-09
   44.70000      2.6322038E-09
   44.76000      2.5098372E-09
   44.82000      2.2304525E-09
   44.88000      1.7587782E-09
   44.94000      1.0771722E-09
   45.00000      1.8750039E-10
   45.06000     -8.9225072E-10
   45.12000     -2.1353679E-09
   45.18000     -3.5151935E-09
   45.24000     -5.0121662E-09
   45.30000     -6.6166117E-09
   45.36000     -8.3262961E-09
   45.42000     -1.0139699E-08
   45.48000     -1.2047580E-08
   45.54000     -1.4026161E-08
   45.60000     -1.6034697E-08
   45.66000     -1.8018721E-08
   45.72000     -1.9918156E-08
   45.78000     -2.1677678E-08
   45.84000     -2.3255769E-08
   45.90000     -2.4629287E-08
   45.96000     -2.5791769E-08
   46.02000     -2.6745914E-08
   46.08000     -2.7492614E-08
   46.14000     -2.8020164E-08
   46.20000     -2.8297150E-08
   46.26000     -2.8271137E-08
   46.32000     -2.7873051E-08
   46.38000     -2.7024978E-08
   46.44000     -2.5647548E-08
   46.50000     -2.3663125E-08
   46.56000     -2.0992260E-08
   46.62000     -1.7543227E-08
   46.68000     -1.3196878E-08
   46.74000     -7.7906286E-09
   46.80000     -1.1055413E-09
   46.86000      7.1409705E-09
   46.92000      1.7296680E-08
   46.98000      2.9772732E-08
   47.04000      4.5042462E-08
   47.10000      6.3645032E-08
   47.16000      8.6196330E-08
   47.22000      1.1340765E-07
   47.28000      1.4610967E-07
   47.34000      1.8527834E-07
   47.40000      2.3205925E-07
   47.46000      2.8778845E-07
   47.52000      3.5401055E-07
   47.58000      4.3249699E-07
   47.64000      5.2526769E-07
   47.70000      6.3462147E-07
   47.76000      7.6317605E-07
   47.82000      9.1391820E-07
   47.88000      1.0902625E-06
   47.94000      1.2961142E-06
   48.00000      1.5359349E-06
   48.06000      1.8148053E-06
   48.12000      2.1384869E-06
   48.18000      2.5134841E-06
   48.24000      2.9471062E-06
   48.30000      3.4475390E-06
   48.36000      4.0239242E-06
   48.42000      4.6864529E-06
   48.48000      5.4464690E-06
   48.54000      6.3165830E-06
   48.60000      7.3107876E-06
   48.66000      8.4445728E-06
   48.72000      9.7350367E-06
   48.78000      1.1200987E-05
   48.84000      1.2863038E-05
   48.90000      1.4743713E-05
   48.96000      1.6867536E-05
   49.02000      1.9261144E-05
   49.08000      2.1953394E-05
   49.14000      2.4975468E-05
   49.20000      2.8360975E-05
   49.26000      3.2146036E-05
   49.32000      3.6369322E-05
   49.38000      4.1072119E-05
   49.44000      4.6298315E-05
   49.50000      5.2094398E-05
   49.56000      5.8509402E-05
   49.62000      6.5594875E-05
   49.68000      7.3404815E-05
   49.74000      8.1995553E-05
   49.80000      9.1425645E-05
   49.86000      1.0175568E-04
   49.92000      1.1304809E-04
   49.98000      1.2536689E-04
   50.04000      1.3877734E-04
   50.10000      1.5334561E-04
   50.16000      1.6913844E-04
   50.22000      1.8622268E-04
   50.28000      2.0466474E-04
   50.34000      2.2453032E-04
   50.40000      2.4588360E-04
   50.46000      2.6878688E-04
   50.52000      2.9329982E-04
   50.58000      3.1947889E-04
   50.64000      3.4737671E-04
   50.70000      3.7704129E-04
   50.76000      4.0851542E-04
   50.82000      4.4183605E-04
   50.88000      4.7703332E-04
   50.94000      5.1413028E-04
   51.00000      5.5314193E-04
   51.06000      5.9407490E-04
   51.12000      6.3692668E-04
   51.18000      6.8168488E-04
   51.24000      7.2832749E-04
   51.30000      7.7682181E-04
   51.36000      8.2712440E-04
   51.42000      8.7918103E-04
   51.48000      9.3292643E-04
   51.54000      9.8828424E-04
   51.60000      1.0451672E-03
   51.66000      1.1034777E-03
   51.72000      1.1631075E-03
   51.78000      1.2239385E-03
   51.84000      1.2858438E-03
   51.90000      1.3486878E-03
   51.96000      1.4123273E-03
   52.02000      1.4766125E-03
   52.08000      1.5413881E-03
   52.14000      1.6064947E-03
   52.20000      1.6717693E-03
   52.26000      1.7370482E-03
   52.32000      1.8021666E-03
   52.38000      1.8669616E-03
   52.44000      1.9312724E-03
   52.50000      1.9949430E-03
   52.56000      2.0578227E-03
   52.62000      2.1197686E-03
   52.68000      2.1806457E-03
   52.74000      2.2403304E-03
   52.80000      2.2987092E-03
   52.86000      2.3556820E-03
   52.92000      2.4111613E-03
   52.98000      2.4650751E-03
   53.04000      2.5173656E-03
   53.10000      2.5679909E-03
   53.16000      2.6169252E-03
   53.22000      2.6641588E-03
   53.28000      2.7096984E-03
   53.34000      2.7535660E-03
   53.40000      2.7957992E-03
   53.46000      2.8364507E-03
   53.52000      2.8755865E-03
   53.58000      2.9132855E-03
   53.64000      2.9496369E-03
   53.70000      2.9847408E-03
   53.76000      3.0187047E-03
   53.82000      3.0516433E-03
   53.88000      3.0836759E-03
   53.94000      3.1149243E-03
   54.00000      3.1455115E-03
   54.06000      3.1755592E-03
   54.12000      3.2051855E-03
   54.18000      3.2345029E-03
   54.24000      3.2636162E-03
   54.30000      3.2926216E-03
   54.36000      3.3216041E-03
   54.42000      3.3506369E-03
   54.48000      3.3797792E-03
   54.54000      3.4090758E-03
   54.60000      3.4385556E-03
   54.66000      3.4682306E-03
   54.72000      3.4980958E-03
   54.78000      3.5281281E-03
   54.84000      3.5582872E-03
   54.90000      3.5885163E-03
   54.96000      3.6187409E-03
   55.02000      3.6488723E-03
   55.08000      3.6788066E-03
   55.14000      3.7084271E-03
   55.20000      3.7376047E-03
   55.26000      3.7662012E-03
   55.32000      3.7940694E-03
   55.38000      3.8210561E-03
   55.44000      3.8470041E-03
   55.50000      3.8717550E-03
   55.56000      3.8951500E-03