  -2.400000      0.0000000E+00
  -2.340000      0.0000000E+00
  -2.280000      0.0000000E+00
  -2.220000      0.0000000E+00
  -2.160000      0.0000000E+00
  -2.100000     -1.5345394E-20
  -2.040000     -1.5457824E-19
  -1.980000     -7.8607237E-19
  -1.920000     -2.6279851E-18
  -1.860000     -6.2482874E-18
  -1.800000     -1.0323762E-17
  -1.740000     -8.7247041E-18
  -1.680000      1.1596200E-17
  -1.620000      6.7650953E-17
  -1.560000      1.6780002E-16
  -1.500000      2.8921077E-16
  -1.440000      3.5481522E-16
  -1.380000      2.3028433E-16
  -1.320000     -2.3473914E-16
  -1.260000     -1.1102146E-15
  -1.200000     -2.2565072E-15
  -1.140000     -3.2275854E-15
  -1.080000     -3.2987681E-15
  -1.020000     -1.6926391E-15
 -0.9600000      2.0030957E-15
 -0.9000000      7.3563109E-15
 -0.8400000      1.2793900E-14
 -0.7800000      1.5759404E-14
 -0.7200000      1.3478784E-14
 -0.6600000      4.2290009E-15
 -0.6000000     -1.1310752E-14
 -0.5400000     -2.9264365E-14
 -0.4800000     -4.2931645E-14
 -0.4200000     -4.4595153E-14
 -0.3600000     -2.8444352E-14
 -0.3000000      6.3015063E-15
 -0.2400000      5.3326023E-14
 -0.1800000      9.9312966E-14
 -0.1200000      1.2666739E-13
 -5.9999999E-02  1.1837791E-13
  0.0000000E+00  6.3681787E-14
  5.9999999E-02 -3.7196683E-14
  0.1200000     -1.7070614E-13
  0.1800000     -3.1070047E-13
  0.2400000     -4.2196354E-13
  0.3000000     -4.6559544E-13
  0.3600000     -4.0528355E-13
  0.4200000     -2.1399275E-13
  0.4800000      1.1874457E-13
  0.5400000      5.7857750E-13
  0.6000000      1.1175133E-12
  0.6600000      1.6466124E-12
  0.7200000      2.0343434E-12
  0.7800000      2.1160853E-12
  0.8400000      1.7197047E-12
  0.9000000      7.0889637E-13
  0.9600000     -9.5984342E-13
   1.020000     -3.1779644E-12
   1.080000     -5.6410987E-12
   1.140000     -7.8415642E-12
   1.200000     -9.1151791E-12
   1.260000     -8.7509036E-12
   1.320000     -6.1562934E-12
   1.380000     -1.0533167E-12
   1.440000      6.3376921E-12
   1.500000      1.5177635E-11
   1.560000      2.4001363E-11
   1.620000      3.0857081E-11
   1.680000      3.3597809E-11
   1.740000      3.0295020E-11
   1.800000      1.9710024E-11
   1.860000      1.7336681E-12
   1.920000     -2.2303506E-11
   1.980000     -4.9537135E-11
   2.040000     -7.5746291E-11
   2.100000     -9.5812663E-11
   2.160000     -1.0442110E-10
   2.220000     -9.6913817E-11
   2.280000     -7.0175782E-11
   2.340000     -2.3414472E-11
   2.400000      4.1293375E-11
   2.460000      1.1878208E-10
   2.520000      2.0094640E-10
   2.580000      2.7724070E-10
   2.640000      3.3545086E-10
   2.700000      3.6262093E-10
   2.760000      3.4600164E-10
   2.820000      2.7390124E-10
   2.880000      1.3635651E-10
   2.940000     -7.4410707E-11
   3.000000     -3.6374145E-10
   3.060000     -7.3445233E-10
   3.120000     -1.1868603E-09
   3.180000     -1.7188677E-09
   3.240000     -2.3260627E-09
   3.300000     -3.0017901E-09
   3.360000     -3.7371559E-09
   3.420000     -4.5209299E-09
   3.480000     -5.3393472E-09
   3.540000     -6.1758536E-09
   3.600000     -7.0109127E-09
   3.660000     -7.8220461E-09
   3.720000     -8.5843102E-09
   3.780000     -9.2713428E-09
   3.840000     -9.8570263E-09
   3.900000     -1.0317590E-08
   3.960000     -1.0633880E-08
   4.020000     -1.0793325E-08
   4.080000     -1.0791263E-08
   4.140000     -1.0631276E-08
   4.200000     -1.0324555E-08
   4.260000     -9.8884314E-09
   4.320000     -9.3444852E-09
   4.380000     -8.7166052E-09
   4.440000     -8.0293576E-09
   4.500000     -7.3067588E-09
   4.560000     -6.5714003E-09
   4.620000     -5.8436860E-09
   4.680000     -5.1409397E-09
   4.740000     -4.4762594E-09
   4.800000     -3.8571839E-09
   4.860000     -3.2844516E-09
   4.920000     -2.7512468E-09
   4.980000     -2.2433411E-09
   5.040000     -1.7403808E-09
   5.100000     -1.2183499E-09
   5.160000     -6.5294953E-10
   5.220000     -2.3409732E-11
   5.280000      6.8391365E-10
   5.340000      1.4728326E-09
   5.400000      2.3360982E-09
   5.460000      3.2560170E-09
   5.520000      4.2069721E-09
   5.580000      5.1595213E-09
   5.640000      6.0853749E-09
   5.700000      6.9622779E-09
   5.760000      7.7777260E-09
   5.820000      8.5306118E-09
   5.880000      9.2303489E-09
   5.940000      9.8936166E-09
   6.000000      1.0539558E-08
   6.060000      1.1184695E-08
   6.120000      1.1838963E-08
   6.180000      1.2503950E-08
   6.240000      1.3173779E-08
   6.300000      1.3838259E-08
   6.360000      1.4487244E-08
   6.420000      1.5114802E-08
   6.480000      1.5721913E-08
   6.540000      1.6316893E-08
   6.600000      1.6913496E-08
   6.660000      1.7527256E-08
   6.720000      1.8171091E-08
   6.780000      1.8851264E-08
   6.840000      1.9564590E-08
   6.900000      2.0297447E-08
   6.960000      2.1026741E-08
   7.020000      2.1722681E-08
   7.080000      2.2353014E-08
   7.140000      2.2888107E-08
   7.200000      2.3306114E-08
   7.260000      2.3597265E-08
   7.320000      2.3766225E-08
   7.380000      2.3831642E-08
   7.440000      2.3822441E-08
   7.500000      2.3771136E-08
   7.560000      2.3705390E-08
   7.620000      2.3639688E-08
   7.680000      2.3569434E-08
   7.740000      2.3469484E-08
   7.800000      2.3298188E-08
   7.860000      2.3006676E-08
   7.920000      2.2551593E-08
   7.980000      2.1908313E-08
   8.040000      2.1081195E-08
   8.100000      2.0107914E-08
   8.160000      1.9056232E-08
   8.220000      1.8013468E-08
   8.280000      1.7070823E-08
   8.340000      1.6306142E-08
   8.400000      1.5769247E-08
   8.460000      1.5473278E-08
   8.520000      1.5394148E-08
   8.580000      1.5478141E-08
   8.640000      1.5655775E-08
   8.700000      1.5858598E-08
   8.760000      1.6035047E-08
   8.820000      1.6161771E-08
   8.880000      1.6247988E-08
   8.940000      1.6332072E-08
   9.000000      1.6471269E-08
   9.060000      1.6726984E-08
   9.120000      1.7149031E-08
   9.180000      1.7762497E-08
   9.240000      1.8560295E-08
   9.300000      1.9503164E-08
   9.360000      2.0527155E-08
   9.420000      2.1556716E-08
   9.480000      2.2520080E-08
   9.540000      2.3362967E-08
   9.600000      2.4057062E-08
   9.660000      2.4601141E-08
   9.720000      2.5014817E-08
   9.780000      2.5327072E-08
   9.840000      2.5563251E-08
   9.900000      2.5734662E-08
   9.960000      2.5834121E-08
   10.02000      2.5838785E-08
   10.08000      2.5719395E-08
   10.14000      2.5452756E-08
   10.20000      2.5033383E-08
   10.26000      2.4480235E-08
   10.32000      2.3836108E-08
   10.38000      2.3159505E-08
   10.44000      2.2511129E-08
   10.50000      2.1938950E-08
   10.56000      2.1466183E-08
   10.62000      2.1085777E-08
   10.68000      2.0762975E-08
   10.74000      2.0445279E-08
   10.80000      2.0076849E-08
   10.86000      1.9613287E-08
   10.92000      1.9032534E-08
   10.98000      1.8338891E-08
   11.04000      1.7559072E-08
   11.10000      1.6731576E-08
   11.16000      1.5892581E-08
   11.22000      1.5062678E-08
   11.28000      1.4238581E-08
   11.34000      1.3392595E-08
   11.40000      1.2480365E-08
   11.46000      1.1454904E-08
   11.52000      1.0282790E-08
   11.58000      8.9576124E-09
   11.64000      7.5062729E-09
   11.70000      5.9857794E-09
   11.76000      4.4709929E-09
   11.82000      3.0365661E-09
   11.88000      1.7381188E-09
   11.94000      5.9803701E-10
   12.00000     -4.0008857E-10
   12.06000     -1.3068497E-09
   12.12000     -2.1936111E-09
   12.18000     -3.1340530E-09
   12.24000     -4.1856323E-09
   12.30000     -5.3757025E-09
   12.36000     -6.6955526E-09
   12.42000     -8.1034184E-09
   12.48000     -9.5352153E-09
   12.54000     -1.0919947E-08
   12.60000     -1.2195806E-08
   12.66000     -1.3323125E-08
   12.72000     -1.4291302E-08
   12.78000     -1.5118482E-08
   12.84000     -1.5844527E-08
   12.90000     -1.6519454E-08
   12.96000     -1.7190370E-08
   13.02000     -1.7890185E-08
   13.08000     -1.8630686E-08
   13.14000     -1.9401277E-08
   13.20000     -2.0173200E-08
   13.26000     -2.0907724E-08
   13.32000     -2.1565848E-08
   13.38000     -2.2116973E-08
   13.44000     -2.2544448E-08
   13.50000     -2.2846907E-08
   13.56000     -2.3035501E-08
   13.62000     -2.3128237E-08
   13.68000     -2.3143267E-08
   13.74000     -2.3093133E-08
   13.80000     -2.2981586E-08
   13.86000     -2.2803707E-08
   13.92000     -2.2549049E-08
   13.98000     -2.2206669E-08
   14.04000     -2.1770237E-08
   14.10000     -2.1241584E-08
   14.16000     -2.0631436E-08
   14.22000     -1.9957177E-08
   14.28000     -1.9238486E-08
   14.34000     -1.8492495E-08
   14.40000     -1.7730406E-08
   14.46000     -1.6956992E-08
   14.52000     -1.6173370E-08
   14.58000     -1.5382101E-08
   14.64000     -1.4592659E-08
   14.70000     -1.3824867E-08
   14.76000     -1.3108432E-08
   14.82000     -1.2478019E-08
   14.88000     -1.1964938E-08
   14.94000     -1.1587947E-08
   15.00000     -1.1346249E-08
   15.06000     -1.1217380E-08
   15.12000     -1.1161176E-08
   15.18000     -1.1129178E-08
   15.24000     -1.1077022E-08
   15.30000     -1.0976325E-08
   15.36000     -1.0822601E-08
   15.42000     -1.0636786E-08
   15.48000     -1.0459721E-08
   15.54000     -1.0340910E-08
   15.60000     -1.0324438E-08
   15.66000     -1.0435821E-08
   15.72000     -1.0673372E-08
   15.78000     -1.1006547E-08
   15.84000     -1.1381958E-08
   15.90000     -1.1735646E-08
   15.96000     -1.2008443E-08
   16.02000     -1.2160323E-08
   16.08000     -1.2179775E-08
   16.14000     -1.2085612E-08
   16.20000     -1.1920698E-08
   16.26000     -1.1739452E-08
   16.32000     -1.1592675E-08
   16.38000     -1.1513983E-08
   16.44000     -1.1511513E-08
   16.50000     -1.1566918E-08
   16.56000     -1.1641546E-08
   16.62000     -1.1687729E-08
   16.68000     -1.1661888E-08
   16.74000     -1.1535877E-08
   16.80000     -1.1303695E-08
   16.86000     -1.0982081E-08
   16.92000     -1.0605088E-08
   16.98000     -1.0214301E-08
   17.04000     -9.8473985E-09
   17.10000     -9.5281587E-09
   17.16000     -9.2606296E-09
   17.22000     -9.0290539E-09
   17.28000     -8.8035303E-09
   17.34000     -8.5497804E-09
   17.40000     -8.2401117E-09
   17.46000     -7.8623374E-09
   17.52000     -7.4240214E-09
   17.58000     -6.9508883E-09
   17.64000     -6.4800845E-09
   17.70000     -6.0505032E-09
   17.76000     -5.6932055E-09
   17.82000     -5.4247353E-09
   17.88000     -5.2450218E-09
   17.94000     -5.1400191E-09
   18.00000     -5.0877547E-09
   18.06000     -5.0655524E-09
   18.12000     -5.0560489E-09
   18.18000     -5.0502322E-09
   18.24000     -5.0468416E-09
   18.30000     -5.0487223E-09
   18.36000     -5.0577404E-09
   18.42000     -5.0703468E-09
   18.48000     -5.0756932E-09
   18.54000     -5.0573727E-09
   18.60000     -4.9985678E-09
   18.66000     -4.8890691E-09
   18.72000     -4.7316830E-09
   18.78000     -4.5453494E-09
   18.84000     -4.3630974E-09
   18.90000     -4.2245105E-09
   18.96000     -4.1642978E-09
   19.02000     -4.2002113E-09
   19.08000     -4.3241881E-09
   19.14000     -4.5000470E-09
   19.20000     -4.6692183E-09
   19.26000     -4.7635411E-09
   19.32000     -4.7217772E-09
   19.38000     -4.5051003E-09
   19.44000     -4.1068451E-09
   19.50000     -3.5533791E-09
   19.56000     -2.8955514E-09
   19.62000     -2.1930111E-09
   19.68000     -1.4958765E-09
   19.74000     -8.2909474E-10
   19.80000     -1.8412610E-10
   19.86000      4.7948290E-10
   19.92000      1.2228887E-09
   19.98000      2.1101112E-09
   20.04000      3.1885101E-09
   20.10000      4.4730961E-09
   20.16000      5.9392571E-09
   20.22000      7.5262339E-09
   20.28000      9.1507637E-09
   20.34000      1.0727441E-08
   20.40000      1.2190415E-08
   20.46000      1.3510498E-08
   20.52000      1.4702931E-08
   20.58000      1.5823492E-08
   20.64000      1.6953827E-08
   20.70000      1.8179742E-08
   20.76000      1.9568148E-08
   20.82000      2.1148551E-08
   20.88000      2.2903786E-08
   20.94000      2.4772129E-08
   21.00000      2.6660029E-08
   21.06000      2.8462077E-08
   21.12000      3.0083157E-08
   21.18000      3.1457482E-08
   21.24000      3.2560056E-08
   21.30000      3.3408263E-08
   21.36000      3.4053468E-08
   21.42000      3.4565126E-08
   21.48000      3.5011418E-08
   21.54000      3.5441300E-08
   21.60000      3.5872322E-08
   21.66000      3.6287069E-08
   21.72000      3.6638845E-08
   21.78000      3.6864733E-08
   21.84000      3.6902364E-08
   21.90000      3.6705675E-08
   21.96000      3.6255333E-08
   22.02000      3.5561136E-08
   22.08000      3.4655915E-08
   22.14000      3.3583010E-08
   22.20000      3.2381223E-08
   22.26000      3.1071927E-08
   22.32000      2.9652181E-08
   22.38000      2.8095993E-08
   22.44000      2.6363212E-08
   22.50000      2.4413181E-08
   22.56000      2.2218705E-08
   22.62000      1.9775815E-08
   22.68000      1.7106144E-08
   22.74000      1.4251217E-08
   22.80000      1.1260532E-08
   22.86000      8.1774356E-09
   22.92000      5.0274647E-09
   22.98000      1.8129361E-09
   23.04000     -1.4844797E-09
   23.10000     -4.8941375E-09
   23.16000     -8.4428828E-09
   23.22000     -1.2141913E-08
   23.28000     -1.5978106E-08
   23.34000     -1.9912406E-08
   23.40000     -2.3885695E-08
   23.46000     -2.7830371E-08
   23.52000     -3.1684252E-08
   23.58000     -3.5402827E-08
   23.64000     -3.8966338E-08
   23.70000     -4.2379725E-08
   23.76000     -4.5665395E-08
   23.82000     -4.8850968E-08
   23.88000     -5.1955531E-08
   23.94000     -5.4978649E-08
   24.00000     -5.7895640E-08
   24.06000     -6.0660753E-08
   24.12000     -6.3217591E-08
   24.18000     -6.5513667E-08
   24.24000     -6.7514726E-08
   24.30000     -6.9214238E-08
   24.36000     -7.0635025E-08
   24.42000     -7.1822377E-08
   24.48000     -7.2830552E-08
   24.54000     -7.3706708E-08
   24.60000     -7.4476830E-08
   24.66000     -7.5137670E-08
   24.72000     -7.5656658E-08
   24.78000     -7.5979585E-08
   24.84000     -7.6043825E-08
   24.90000     -7.5793338E-08
   24.96000     -7.5191757E-08
   25.02000     -7.4230528E-08
   25.08000     -7.2930483E-08
   25.14000     -7.1336935E-08
   25.20000     -6.9510016E-08
   25.26000     -6.7512715E-08
   25.32000     -6.5399846E-08
   25.38000     -6.3210400E-08
   25.44000     -6.0964958E-08
   25.50000     -5.8668416E-08
   25.56000     -5.6316878E-08
   25.62000     -5.3906373E-08
   25.68000     -5.1440800E-08
   25.74000     -4.8936826E-08
   25.80000     -4.6424468E-08
   25.86000     -4.3943487E-08
   25.92000     -4.1536943E-08
   25.98000     -3.9244011E-08
   26.04000     -3.7094178E-08
   26.10000     -3.5104186E-08
   26.16000     -3.3278191E-08
   26.22000     -3.1610494E-08
   26.28000     -3.0089598E-08
   26.34000     -2.8702148E-08
   26.40000     -2.7435728E-08
   26.46000     -2.6280111E-08
   26.52000     -2.5227195E-08
   26.58000     -2.4270351E-08
   26.64000     -2.3403979E-08
   26.70000     -2.2623913E-08
   26.76000     -2.1928823E-08
   26.82000     -2.1322300E-08
   26.88000     -2.0814932E-08
   26.94000     -2.0425512E-08
   27.00000     -2.0180696E-08
   27.06000     -2.0112804E-08
   27.12000     -2.0256087E-08
   27.18000     -2.0642178E-08
   27.24000     -2.1295794E-08
   27.30000     -2.2231617E-08
   27.36000     -2.3452930E-08
   27.42000     -2.4951978E-08
   27.48000     -2.6711573E-08
   27.54000     -2.8707136E-08
   27.60000     -3.0908588E-08
   27.66000     -3.3281744E-08
   27.72000     -3.5789419E-08
   27.78000     -3.8392677E-08
   27.84000     -4.1052640E-08
   27.90000     -4.3733024E-08
   27.96000     -4.6402963E-08
   28.02000     -4.9039429E-08
   28.08000     -5.1628287E-08
   28.14000     -5.4163433E-08
   28.20000     -5.6643870E-08
   28.26000     -5.9069414E-08
   28.32000     -6.1436175E-08
   28.38000     -6.3733211E-08
   28.44000     -6.5941528E-08
   28.50000     -6.8035781E-08
   28.56000     -6.9988417E-08
   28.62000     -7.1774949E-08
   28.68000     -7.3378757E-08
   28.74000     -7.4793803E-08
   28.80000     -7.6024399E-08
   28.86000     -7.7081971E-08
   28.92000     -7.7979919E-08
   28.98000     -7.8728043E-08
   29.04000     -7.9328323E-08
   29.10000     -7.9773152E-08
   29.16000     -8.0046242E-08
   29.22000     -8.0125680E-08
   29.28000     -7.9987963E-08
   29.34000     -7.9611922E-08
   29.40000     -7.8981557E-08
   29.46000     -7.8087702E-08
   29.52000     -7.6928465E-08
   29.58000     -7.5508773E-08
   29.64000     -7.3839210E-08
   29.70000     -7.1934259E-08
   29.76000     -6.9810042E-08
   29.82000     -6.7481928E-08
   29.88000     -6.4962762E-08
   29.94000     -6.2262387E-08
   30.00000     -5.9389109E-08
   30.06000     -5.6352917E-08
   30.12000     -5.3169561E-08
   30.18000     -4.9863768E-08
   30.24000     -4.6470024E-08
   30.30000     -4.3029814E-08
   30.36000     -3.9585505E-08
   30.42000     -3.6172381E-08
   30.48000     -3.2811236E-08
   30.54000     -2.9504001E-08
   30.60000     -2.6234016E-08
   30.66000     -2.2971223E-08
   30.72000     -1.9680986E-08
   30.78000     -1.6334205E-08
   30.84000     -1.2916152E-08
   30.90000     -9.4319672E-09
   30.96000     -5.9077738E-09
   31.02000     -2.3875595E-09
   31.08000      1.0731602E-09
   31.14000      4.4153876E-09
   31.20000      7.5848066E-09
   31.26000      1.0538685E-08
   31.32000      1.3250435E-08
   31.38000      1.5711212E-08
   31.44000      1.7928368E-08
   31.50000      1.9921194E-08
   31.56000      2.1715014E-08
   31.62000      2.3335021E-08
   31.68000      2.4801446E-08
   31.74000      2.6127116E-08
   31.80000      2.7317832E-08
   31.86000      2.8374883E-08
   31.92000      2.9298500E-08
   31.98000      3.0090682E-08
   32.04000      3.0756418E-08
   32.10000      3.1302854E-08
   32.16000      3.1737127E-08
   32.22000      3.2063809E-08
   32.28000      3.2283229E-08
   32.34000      3.2391355E-08
   32.40000      3.2381365E-08
   32.46000      3.2246277E-08
   32.52000      3.1981745E-08
   32.58000      3.1588009E-08
   32.64000      3.1070282E-08
   32.70000      3.0437462E-08
   32.76000      2.9699390E-08
   32.82000      2.8863557E-08
   32.88000      2.7932304E-08
   32.94000      2.6901596E-08
   33.00000      2.5762132E-08
   33.06000      2.4502860E-08
   33.12000      2.3116192E-08
   33.18000      2.1603416E-08
   33.24000      1.9978492E-08
   33.30000      1.8268562E-08
   33.36000      1.6510441E-08
   33.42000      1.4743510E-08
   33.48000      1.3000778E-08
   33.54000      1.1300628E-08
   33.60000      9.6418225E-09
   33.66000      8.0035063E-09
   33.72000      6.3505130E-09
   33.78000      4.6426654E-09
   33.84000      2.8455844E-09
   33.90000      9.4001462E-10
   33.96000     -1.0728374E-09
   34.02000     -3.1712706E-09
   34.08000     -5.3181415E-09
   34.14000     -7.4693984E-09
   34.20000     -9.5836681E-09
   34.26000     -1.1630416E-08
   34.32000     -1.3594814E-08
   34.38000     -1.5478566E-08
   34.44000     -1.7296969E-08
   34.50000     -1.9073456E-08
   34.56000     -2.0833170E-08
   34.62000     -2.2597185E-08
   34.68000     -2.4378577E-08
   34.74000     -2.6181022E-08
   34.80000     -2.8000043E-08
   34.86000     -2.9826435E-08
   34.92000     -3.1650828E-08
   34.98000     -3.3468140E-08
   35.04000     -3.5280291E-08
   35.10000     -3.7096161E-08
   35.16000     -3.8928246E-08
   35.22000     -4.0786581E-08
   35.28000     -4.2671591E-08
   35.34000     -4.4567955E-08
   35.40000     -4.6441688E-08
   35.46000     -4.8241702E-08
   35.52000     -4.9905740E-08
   35.58000     -5.1369383E-08
   35.64000     -5.2575729E-08
   35.70000     -5.3483411E-08
   35.76000     -5.4071137E-08
   35.82000     -5.4338141E-08
   35.88000     -5.4300966E-08
   35.94000     -5.3987741E-08
   36.00000     -5.3431343E-08
   36.06000     -5.2662699E-08
   36.12000     -5.1705218E-08
   36.18000     -5.0571117E-08
   36.24000     -4.9260198E-08
   36.30000     -4.7761564E-08
   36.36000     -4.6058236E-08
   36.42000     -4.4133944E-08
   36.48000     -4.1980726E-08
   36.54000     -3.9605389E-08
   36.60000     -3.7033008E-08
   36.66000     -3.4306318E-08
   36.72000     -3.1481186E-08
   36.78000     -2.8619381E-08
   36.84000     -2.5780739E-08
   36.90000     -2.3016780E-08
   36.96000     -2.0367134E-08
   37.02000     -1.7859126E-08
   37.08000     -1.5509897E-08
   37.14000     -1.3329866E-08
   37.20000     -1.1326340E-08
   37.26000     -9.5063672E-09
   37.32000     -7.8783380E-09
   37.38000     -6.4521077E-09
   37.44000     -5.2376889E-09
   37.50000     -4.2426116E-09
   37.56000     -3.4684484E-09
   37.62000     -2.9073095E-09
   37.68000     -2.5395093E-09
   37.74000     -2.3336193E-09
   37.80000     -2.2496580E-09
   37.86000     -2.2452620E-09
   37.92000     -2.2835756E-09
   37.98000     -2.3407845E-09
   38.04000     -2.4110622E-09
   38.10000     -2.5073343E-09
   38.16000     -2.6575160E-09
   38.22000     -2.8972644E-09
   38.28000     -3.2612992E-09
   38.34000     -3.7756389E-09
   38.40000     -4.4526081E-09
   38.46000     -5.2894529E-09
   38.52000     -6.2702696E-09
   38.58000     -7.3701218E-09
   38.64000     -8.5598710E-09
   38.70000     -9.8104387E-09
   38.76000     -1.1095738E-08
   38.82000     -1.2394090E-08
   38.88000     -1.3688474E-08
   38.94000     -1.4966188E-08
   39.00000     -1.6218518E-08
   39.06000     -1.7440861E-08
   39.12000     -1.8633362E-08
   39.18000     -1.9801744E-08
   39.24000     -2.0957758E-08
   39.30000     -2.2118465E-08
   39.36000     -2.3303823E-08
   39.42000     -2.4532536E-08
   39.48000     -2.5816776E-08
   39.54000     -2.7157093E-08
   39.60000     -2.8539073E-08
   39.66000     -2.9933101E-08
   39.72000     -3.1297688E-08
   39.78000     -3.2585906E-08
   39.84000     -3.3753278E-08
   39.90000     -3.4765186E-08
   39.96000     -3.5601911E-08
   40.02000     -3.6260321E-08
   40.08000     -3.6752297E-08
   40.14000     -3.7100765E-08
   40.20000     -3.7334832E-08
   40.26000     -3.7485162E-08
   40.32000     -3.7580421E-08
   40.38000     -3.7644948E-08
   40.44000     -3.7697532E-08
   40.50000     -3.7751061E-08
   40.56000     -3.7812974E-08
   40.62000     -3.7886448E-08
   40.68000     -3.7972242E-08
   40.74000     -3.8070755E-08
   40.80000     -3.8183749E-08
   40.86000     -3.8315140E-08
   40.92000     -3.8470450E-08
   40.98000     -3.8655269E-08
   41.04000     -3.8873271E-08
   41.10000     -3.9124675E-08
   41.16000     -3.9405773E-08
   41.22000     -3.9709537E-08
   41.28000     -4.0026841E-08
   41.34000     -4.0347594E-08
   41.40000     -4.0661174E-08
   41.46000     -4.0956177E-08
   41.52000     -4.1220016E-08
   41.58000     -4.1439129E-08
   41.64000     -4.1600437E-08
   41.70000     -4.1693891E-08
   41.76000     -4.1715406E-08
   41.82000     -4.1668820E-08
   41.88000     -4.1565777E-08
   41.94000     -4.1422997E-08
   42.00000     -4.1257344E-08
   42.06000     -4.1080074E-08
   42.12000     -4.0891834E-08
   42.18000     -4.0679925E-08
   42.24000     -4.0418520E-08
   42.30000     -4.0071640E-08
   42.36000     -3.9598042E-08
   42.42000     -3.8956824E-08
   42.48000     -3.8112685E-08
   42.54000     -3.7040284E-08
   42.60000     -3.5727354E-08
   42.66000     -3.4176530E-08
   42.72000     -3.2405854E-08
   42.78000     -3.0447723E-08
   42.84000     -2.8346200E-08
   42.90000     -2.6152758E-08
   42.96000     -2.3920956E-08
   43.02000     -2.1700986E-08
   43.08000     -1.9535223E-08
   43.14000     -1.7455646E-08
   43.20000     -1.5483563E-08
   43.26000     -1.3631301E-08
   43.32000     -1.1905025E-08
   43.38000     -1.0307617E-08
   43.44000     -8.8407415E-09
   43.50000     -7.5056574E-09
   43.56000     -6.3028369E-09
   43.62000     -5.2308322E-09
   43.68000     -4.2849400E-09
   43.74000     -3.4562333E-09
   43.80000     -2.7314164E-09
   43.86000     -2.0938593E-09
   43.92000     -1.5260426E-09
   43.98000     -1.0133357E-09
   44.04000     -5.4859650E-10
   44.10000     -1.3653714E-10
   44.16000      2.0361572E-10
   44.22000      4.3861439E-10
   44.28000      5.2568971E-10
   44.34000      4.2077666E-10
   44.40000      8.8872548E-11
   44.46000     -4.8607152E-10
   44.52000     -1.2945850E-09
   44.58000     -2.3006064E-09
   44.64000     -3.4466217E-09
   44.70000     -4.6639665E-09
   44.76000     -5.8857719E-09
   44.82000     -7.0593069E-09
   44.88000     -8.1547000E-09
   44.94000     -9.1680370E-09
   45.00000     -1.0118351E-08
   45.06000     -1.1039497E-08
   45.12000     -1.1969054E-08
   45.18000     -1.2936964E-08
   45.24000     -1.3956555E-08
   45.30000     -1.5019918E-08
   45.36000     -1.6098614E-08
   45.42000     -1.7149333E-08
   45.48000     -1.8123037E-08
   45.54000     -1.8975179E-08
   45.60000     -1.9674355E-08
   45.66000     -2.0207237E-08
   45.72000     -2.0578733E-08
   45.78000     -2.0807716E-08
   45.84000     -2.0920066E-08
   45.90000     -2.0941526E-08
   45.96000     -2.0892703E-08
   46.02000     -2.0787674E-08
   46.08000     -2.0636223E-08
   46.14000     -2.0448342E-08
   46.20000     -2.0238906E-08
   46.26000     -2.0030496E-08
   46.32000     -1.9853324E-08
   46.38000     -1.9742375E-08
   46.44000     -1.9733212E-08
   46.50000     -1.9858268E-08
   46.56000     -2.0145249E-08
   46.62000     -2.0618348E-08
   46.68000     -2.1301847E-08
   46.74000     -2.2224846E-08
   46.80000     -2.3425541E-08
   46.86000     -2.4953840E-08
   46.92000     -2.6871890E-08
   46.98000     -2.9252975E-08
   47.04000     -3.2179866E-08
   47.10000     -3.5744009E-08
   47.16000     -4.0046704E-08
   47.22000     -4.5202942E-08
   47.28000     -5.1347889E-08
   47.34000     -5.8645284E-08
   47.40000     -6.7296455E-08
   47.46000     -7.7548307E-08
   47.52000     -8.9698744E-08
   47.58000     -1.0409854E-07
   47.64000     -1.2114972E-07
   47.70000     -1.4130208E-07
   47.76000     -1.6505039E-07
   47.82000     -1.9293556E-07
   47.88000     -2.2555237E-07
   47.94000     -2.6356506E-07
   48.00000     -3.0772924E-07
   48.06000     -3.5891733E-07
   48.12000     -4.1814312E-07
   48.18000     -4.8658148E-07
   48.24000     -5.6558162E-07
   48.30000     -6.5667422E-07
   48.36000     -7.6157556E-07
   48.42000     -8.8219321E-07
   48.48000     -1.0206360E-06
   48.54000     -1.1792303E-06
   48.60000     -1.3605434E-06
   48.66000     -1.5674084E-06
   48.72000     -1.8029513E-06
   48.78000     -2.0706161E-06
   48.84000     -2.3741857E-06
   48.90000     -2.7178019E-06
   48.96000     -3.1059849E-06
   49.02000     -3.5436526E-06
   49.08000     -4.0361415E-06
   49.14000     -4.5892307E-06
   49.20000     -5.2091596E-06
   49.26000     -5.9026506E-06
   49.32000     -6.6769198E-06
   49.38000     -7.5396879E-06
   49.44000     -8.4991807E-06
   49.50000     -9.5641253E-06
   49.56000     -1.0743746E-05
   49.62000     -1.2047750E-05
   49.68000     -1.3486318E-05
   49.74000     -1.5070089E-05
   49.80000     -1.6810145E-05
   49.86000     -1.8717990E-05
   49.92000     -2.0805528E-05
   49.98000     -2.3085024E-05
   50.04000     -2.5569057E-05
   50.10000     -2.8270459E-05
   50.16000     -3.1202238E-05
   50.22000     -3.4377506E-05
   50.28000     -3.7809350E-05
   50.34000     -4.1510772E-05
   50.40000     -4.5494584E-05
   50.46000     -4.9773298E-05
   50.52000     -5.4359072E-05
   50.58000     -5.9263610E-05
   50.64000     -6.4498054E-05
   50.70000     -7.0072914E-05
   50.76000     -7.5997879E-05
   50.82000     -8.2281760E-05
   50.88000     -8.8932262E-05
   50.94000     -9.5955926E-05
   51.00000     -1.0335795E-04
   51.06000     -1.1114209E-04
   51.12000     -1.1931059E-04
   51.18000     -1.2786407E-04
   51.24000     -1.3680149E-04
   51.30000     -1.4612010E-04
   51.36000     -1.5581533E-04
   51.42000     -1.6588079E-04
   51.48000     -1.7630827E-04
   51.54000     -1.8708766E-04
   51.60000     -1.9820700E-04
   51.66000     -2.0965247E-04
   51.72000     -2.2140847E-04
   51.78000     -2.3345761E-04
   51.84000     -2.4578086E-04
   51.90000     -2.5835764E-04
   51.96000     -2.7116601E-04
   52.02000     -2.8418278E-04
   52.08000     -2.9738373E-04
   52.14000     -3.1074381E-04
   52.20000     -3.2423722E-04
   52.26000     -3.3783779E-04
   52.32000     -3.5151909E-04
   52.38000     -3.6525473E-04
   52.44000     -3.7901843E-04
   52.50000     -3.9278463E-04
   52.56000     -4.0652839E-04
   52.62000     -4.2022567E-04
   52.68000     -4.3385380E-04
   52.74000     -4.4739142E-04
   52.80000     -4.6081893E-04
   52.86000     -4.7411845E-04
   52.92000     -4.8727420E-04
   52.98000     -5.0027249E-04
   53.04000     -5.1310187E-04
   53.10000     -5.2575319E-04
   53.16000     -5.3821981E-04
   53.22000     -5.5049756E-04
   53.28000     -5.6258478E-04
   53.34000     -5.7448226E-04
   53.40000     -5.8619300E-04
   53.46000     -5.9772236E-04
   53.52000     -6.0907775E-04
   53.58000     -6.2026840E-04
   53.64000     -6.3130521E-04
   53.70000     -6.4220070E-04
   53.76000     -6.5296848E-04
   53.82000     -6.6362327E-04
   53.88000     -6.7418063E-04
   53.94000     -6.8465632E-04
   54.00000     -6.9506624E-04
   54.06000     -7.0542621E-04
   54.12000     -7.1575114E-04
   54.18000     -7.2605530E-04
   54.24000     -7.3635165E-04
   54.30000     -7.4665155E-04
   54.36000     -7.5696484E-04
   54.42000     -7.6729927E-04
   54.48000     -7.7766052E-04
   54.54000     -7.8805169E-04
   54.60000     -7.9847348E-04
   54.66000     -8.0892380E-04
   54.72000     -8.1939768E-04
   54.78000     -8.2988763E-04
   54.84000     -8.4038317E-04
   54.90000     -8.5087109E-04
   54.96000     -8.6133572E-04
   55.02000     -8.7175856E-04
   55.08000     -8.8211888E-04
   55.14000     -8.9239399E-04
   55.20000     -9.0255914E-04
   55.26000     -9.1258821E-04
   55.32000     -9.2245371E-04
   55.38000     -9.3212741E-04
   55.44000     -9.4158028E-04
   55.50000     -9.5078320E-04
   55.56000     -9.5970707E-04