  -2.400000      0.0000000E+00
  -2.340000      0.0000000E+00
  -2.280000      0.0000000E+00
  -2.220000      0.0000000E+00
  -2.160000      0.0000000E+00
  -2.100000      7.2285036E-21
  -2.040000      7.0389929E-20
  -1.980000      3.3503343E-19
  -1.920000      9.9519650E-19
  -1.860000      1.8938470E-18
  -1.800000      1.7115094E-18
  -1.740000     -2.5835466E-18
  -1.680000     -1.4479681E-17
  -1.620000     -3.3528942E-17
  -1.560000     -4.8901002E-17
  -1.500000     -3.5982866E-17
  -1.440000      3.6407736E-17
  -1.380000      1.8382444E-16
  -1.320000      3.7489689E-16
  -1.260000      5.0965941E-16
  -1.200000      4.3210163E-16
  -1.140000     -8.2423833E-18
  -1.080000     -8.5651363E-16
  -1.020000     -1.9553114E-15
 -0.9600000     -2.9065601E-15
 -0.9000000     -3.1370956E-15
 -0.8400000     -2.0747263E-15
 -0.7800000      6.0507931E-16
 -0.7200000      4.7352318E-15
 -0.6600000      9.4980278E-15
 -0.6000000      1.3422633E-14
 -0.5400000      1.4592902E-14
 -0.4800000      1.1097280E-14
 -0.4200000      1.7089116E-15
 -0.3600000     -1.3305778E-14
 -0.3000000     -3.1487359E-14
 -0.2400000     -4.7958274E-14
 -0.1800000     -5.6058307E-14
 -0.1200000     -4.9042306E-14
 -5.9999999E-02 -2.2636854E-14
  0.0000000E+00  2.2254859E-14
  5.9999999E-02  7.7788694E-14
  0.1200000      1.2944666E-13
  0.1800000      1.5893078E-13
  0.2400000      1.4938303E-13
  0.3000000      9.1639187E-14
  0.3600000     -1.0469031E-14
  0.4200000     -1.3784168E-13
  0.4800000     -2.5833697E-13
  0.5400000     -3.3379180E-13
  0.6000000     -3.3067833E-13
  0.6600000     -2.3185032E-13
  0.7200000     -4.5868718E-14
  0.7800000      1.8977860E-13
  0.8400000      4.1428284E-13
  0.9000000      5.5839534E-13
  0.9600000      5.6573409E-13
   1.020000      4.1428888E-13
   1.080000      1.2995165E-13
   1.140000     -2.1508529E-13
   1.200000     -5.2162907E-13
   1.260000     -6.9593696E-13
   1.320000     -6.8394536E-13
   1.380000     -4.9293393E-13
   1.440000     -1.8968181E-13
   1.500000      1.2634726E-13
   1.560000      3.6437062E-13
   1.620000      4.7931857E-13
   1.680000      4.8573726E-13
   1.740000      4.3981821E-13
   1.800000      3.9701120E-13
   1.860000      3.6718106E-13
   1.920000      2.9391997E-13
   1.980000      7.5423127E-14
   2.040000     -3.7576845E-13
   2.100000     -1.0587318E-12
   2.160000     -1.8327972E-12
   2.220000     -2.4212002E-12
   2.280000     -2.4808883E-12
   2.340000     -1.7206966E-12
   2.400000     -2.6617429E-14
   2.460000      2.4535992E-12
   2.520000      5.3002286E-12
   2.580000      7.8903021E-12
   2.640000      9.5188310E-12
   2.700000      9.5266251E-12
   2.760000      7.3898058E-12
   2.820000      2.7468620E-12
   2.880000     -4.6295467E-12
   2.940000     -1.4880918E-11
   3.000000     -2.8083692E-11
   3.060000     -4.4204144E-11
   3.120000     -6.2977165E-11
   3.180000     -8.3736094E-11
   3.240000     -1.0525400E-10
   3.300000     -1.2567165E-10
   3.360000     -1.4257762E-10
   3.420000     -1.5326984E-10
   3.480000     -1.5517336E-10
   3.540000     -1.4633360E-10
   3.600000     -1.2586530E-10
   3.660000     -9.4234731E-11
   3.720000     -5.3292010E-11
   3.780000     -6.0453417E-12
   3.840000      4.3747343E-11
   3.900000      9.2034706E-11
   3.960000      1.3483645E-10
   4.020000      1.6843366E-10
   4.080000      1.8940076E-10
   4.140000      1.9458837E-10
   4.200000      1.8120580E-10
   4.260000      1.4710887E-10
   4.320000      9.1288234E-11
   4.380000      1.4423770E-11
   4.440000     -8.0708815E-11
   4.500000     -1.8917710E-10
   4.560000     -3.0426373E-10
   4.620000     -4.1820344E-10
   4.680000     -5.2309185E-10
   4.740000     -6.1174327E-10
   4.800000     -6.7834194E-10
   4.860000     -7.1885736E-10
   4.920000     -7.3129552E-10
   4.980000     -7.1587419E-10
   5.040000     -6.7513045E-10
   5.100000     -6.1385280E-10
   5.160000     -5.3865423E-10
   5.220000     -4.5705861E-10
   5.280000     -3.7614997E-10
   5.340000     -3.0107553E-10
   5.400000     -2.3386545E-10
   5.460000     -1.7303106E-10
   5.520000     -1.1418812E-10
   5.580000     -5.1595488E-11
   5.640000      1.9851426E-11
   5.700000      1.0281678E-10
   5.760000      1.9648071E-10
   5.820000      2.9653488E-10
   5.880000      3.9610931E-10
   5.940000      4.8722670E-10
   6.000000      5.6228749E-10
   6.060000      6.1520439E-10
   6.120000      6.4203015E-10
   6.180000      6.4112327E-10
   6.240000      6.1298561E-10
   6.300000      5.5989130E-10
   6.360000      4.8539162E-10
   6.420000      3.9379647E-10
   6.480000      2.8981062E-10
   6.540000      1.7855553E-10
   6.600000      6.6140551E-11
   6.660000     -3.9282331E-11
   6.720000     -1.2634965E-10
   6.780000     -1.7976598E-10
   6.840000     -1.8053699E-10
   6.900000     -1.0731105E-10
   6.960000      6.1491971E-11
   7.020000      3.4543618E-10
   7.080000      7.6045154E-10
   7.140000      1.3182482E-09
   7.200000      2.0267137E-09
   7.260000      2.8908167E-09
   7.320000      3.9134203E-09
   7.380000      5.0955764E-09
   7.440000      6.4361902E-09
   7.500000      7.9312441E-09
   7.560000      9.5728634E-09
   7.620000      1.1348476E-08
   7.680000      1.3240173E-08
   7.740000      1.5224405E-08
   7.800000      1.7272052E-08
   7.860000      1.9349057E-08
   7.920000      2.1417614E-08
   7.980000      2.3437840E-08
   8.040000      2.5369632E-08
   8.100000      2.7174369E-08
   8.160000      2.8816196E-08
   8.220000      3.0262822E-08
   8.280000      3.1485921E-08
   8.340000      3.2461337E-08
   8.400000      3.3169133E-08
   8.460000      3.3593508E-08
   8.520000      3.3722625E-08
   8.580000      3.3548471E-08
   8.640000      3.3067042E-08
   8.700000      3.2279125E-08
   8.760000      3.1191586E-08
   8.820000      2.9818807E-08
   8.880000      2.8183571E-08
   8.940000      2.6316686E-08
   9.000000      2.4255202E-08
   9.060000      2.2039618E-08
   9.120000      1.9710962E-08
   9.180000      1.7308674E-08
   9.240000      1.4869750E-08
   9.300000      1.2428880E-08
   9.360000      1.0018788E-08
   9.420000      7.6699020E-09
   9.480000      5.4088729E-09
   9.540000      3.2561249E-09
   9.600000      1.2231756E-09
   9.660000     -6.8943040E-10
   9.720000     -2.4930242E-09
   9.780000     -4.2104933E-09
   9.840000     -5.8750107E-09
   9.900000     -7.5281097E-09
   9.960000     -9.2171444E-09
   10.02000     -1.0991879E-08
   10.08000     -1.2899969E-08
   10.14000     -1.4981456E-08
   10.20000     -1.7262979E-08
   10.26000     -1.9752880E-08
   10.32000     -2.2438380E-08
   10.38000     -2.5285413E-08
   10.44000     -2.8240956E-08
   10.50000     -3.1236826E-08
   10.56000     -3.4193839E-08
   10.62000     -3.7025455E-08
   10.68000     -3.9640948E-08
   10.74000     -4.1948759E-08
   10.80000     -4.3861014E-08
   10.86000     -4.5299622E-08
   10.92000     -4.6203745E-08
   10.98000     -4.6537217E-08
   11.04000     -4.6294325E-08
   11.10000     -4.5502247E-08
   11.16000     -4.4219473E-08
   11.22000     -4.2530214E-08
   11.28000     -4.0535934E-08
   11.34000     -3.8345402E-08
   11.40000     -3.6064758E-08
   11.46000     -3.3788819E-08
   11.52000     -3.1594357E-08
   11.58000     -2.9535840E-08
   11.64000     -2.7643896E-08
   11.70000     -2.5926516E-08
   11.76000     -2.4372831E-08
   11.82000     -2.2958909E-08
   11.88000     -2.1654634E-08
   11.94000     -2.0430347E-08
   12.00000     -1.9261989E-08
   12.06000     -1.8133758E-08
   12.12000     -1.7038159E-08
   12.18000     -1.5974130E-08
   12.24000     -1.4944462E-08
   12.30000     -1.3953771E-08
   12.36000     -1.3007593E-08
   12.42000     -1.2112221E-08
   12.48000     -1.1274247E-08
   12.54000     -1.0498722E-08
   12.60000     -9.7856114E-09
   12.66000     -9.1253973E-09
   12.72000     -8.4955278E-09
   12.78000     -7.8596258E-09
   12.84000     -7.1704740E-09
   12.90000     -6.3764647E-09
   12.96000     -5.4299338E-09
   13.02000     -4.2951807E-09
   13.08000     -2.9542915E-09
   13.14000     -1.4097324E-09
   13.20000      3.1633032E-10
   13.26000      2.1853686E-09
   13.32000      4.1476467E-09
   13.38000      6.1483529E-09
   13.44000      8.1338918E-09
   13.50000      1.0057439E-08
   13.56000      1.1882788E-08
   13.62000      1.3585720E-08
   13.68000      1.5152690E-08
   13.74000      1.6577491E-08
   13.80000      1.7857284E-08
   13.86000      1.8989686E-08
   13.92000      1.9972310E-08
   13.98000      2.0805109E-08
   14.04000      2.1494769E-08
   14.10000      2.2059332E-08
   14.16000      2.2530834E-08
   14.22000      2.2954014E-08
   14.28000      2.3380217E-08
   14.34000      2.3857160E-08
   14.40000      2.4416755E-08
   14.46000      2.5064258E-08
   14.52000      2.5772213E-08
   14.58000      2.6481656E-08
   14.64000      2.7111266E-08
   14.70000      2.7572785E-08
   14.76000      2.7789271E-08
   14.82000      2.7711703E-08
   14.88000      2.7329820E-08
   14.94000      2.6674536E-08
   15.00000      2.5811412E-08
   15.06000      2.4826804E-08
   15.12000      2.3810212E-08
   15.18000      2.2837151E-08
   15.24000      2.1956817E-08
   15.30000      2.1187613E-08
   15.36000      2.0521396E-08
   15.42000      1.9934832E-08
   15.48000      1.9403922E-08
   15.54000      1.8916616E-08
   15.60000      1.8478888E-08
   15.66000      1.8111795E-08
   15.72000      1.7840229E-08
   15.78000      1.7677150E-08
   15.84000      1.7609082E-08
   15.90000      1.7588617E-08
   15.96000      1.7537744E-08
   16.02000      1.7362460E-08
   16.08000      1.6975548E-08
   16.14000      1.6321492E-08
   16.20000      1.5396306E-08
   16.26000      1.4255712E-08
   16.32000      1.3007909E-08
   16.38000      1.1791254E-08
   16.44000      1.0741655E-08
   16.50000      9.9581197E-09
   16.56000      9.4762722E-09
   16.62000      9.2581001E-09
   16.68000      9.2018810E-09
   16.74000      9.1701891E-09
   16.80000      9.0282457E-09
   16.86000      8.6814573E-09
   16.92000      8.1010620E-09
   16.98000      7.3305135E-09
   17.04000      6.4711223E-09
   17.10000      5.6517404E-09
   17.16000      4.9918669E-09
   17.22000      4.5691495E-09
   17.28000      4.4006101E-09
   17.34000      4.4426622E-09
   17.40000      4.6094177E-09
   17.46000      4.8034190E-09
   17.52000      4.9492836E-09
   17.58000      5.0198050E-09
   17.64000      5.0461981E-09
   17.70000      5.1089684E-09
   17.76000      5.3118852E-09
   17.82000      5.7469949E-09
   17.88000      6.4615957E-09
   17.94000      7.4376327E-09
   18.00000      8.5901508E-09
   18.06000      9.7855386E-09
   18.12000      1.0874293E-08
   18.18000      1.1728821E-08
   18.24000      1.2275482E-08
   18.30000      1.2511928E-08
   18.36000      1.2504937E-08
   18.42000      1.2369357E-08
   18.48000      1.2233857E-08
   18.54000      1.2202898E-08
   18.60000      1.2325585E-08
   18.66000      1.2580403E-08
   18.72000      1.2880554E-08
   18.78000      1.3098552E-08
   18.84000      1.3102889E-08
   18.90000      1.2795600E-08
   18.96000      1.2139184E-08
   19.02000      1.1164674E-08
   19.08000      9.9588018E-09
   19.14000      8.6349390E-09
   19.20000      7.2976061E-09
   19.26000      6.0120211E-09
   19.32000      4.7879940E-09
   19.38000      3.5824250E-09
   19.44000      2.3184399E-09
   19.50000      9.1396857E-10
   19.56000     -6.9008232E-10
   19.62000     -2.5112805E-09
   19.68000     -4.5223261E-09
   19.74000     -6.6631753E-09
   19.80000     -8.8636387E-09
   19.86000     -1.1067995E-08
   19.92000     -1.3252747E-08
   19.98000     -1.5431290E-08
   20.04000     -1.7644185E-08
   20.10000     -1.9938952E-08
   20.16000     -2.2347212E-08
   20.22000     -2.4867871E-08
   20.28000     -2.7462876E-08
   20.34000     -3.0067458E-08
   20.40000     -3.2611499E-08
   20.46000     -3.5044597E-08
   20.52000     -3.7355761E-08
   20.58000     -3.9580421E-08
   20.64000     -4.1791449E-08
   20.70000     -4.4076366E-08
   20.76000     -4.6507587E-08
   20.82000     -4.9115158E-08
   20.88000     -5.1870668E-08
   20.94000     -5.4687703E-08
   21.00000     -5.7438722E-08
   21.06000     -5.9982966E-08
   21.12000     -6.2196939E-08
   21.18000     -6.3998257E-08
   21.24000     -6.5356687E-08
   21.30000     -6.6290333E-08
   21.36000     -6.6849971E-08
   21.42000     -6.7097396E-08
   21.48000     -6.7084962E-08
   21.54000     -6.6841800E-08
   21.60000     -6.6369580E-08
   21.66000     -6.5647441E-08
   21.72000     -6.4643480E-08
   21.78000     -6.3328883E-08
   21.84000     -6.1691054E-08
   21.90000     -5.9742817E-08
   21.96000     -5.7526073E-08
   22.02000     -5.5109371E-08
   22.08000     -5.2579857E-08
   22.14000     -5.0030955E-08
   22.20000     -4.7547989E-08
   22.26000     -4.5194568E-08
   22.32000     -4.3002952E-08
   22.38000     -4.0971042E-08
   22.44000     -3.9067430E-08
   22.50000     -3.7243954E-08
   22.56000     -3.5452871E-08
   22.62000     -3.3664076E-08
   22.68000     -3.1877299E-08
   22.74000     -3.0125239E-08
   22.80000     -2.8466037E-08
   22.86000     -2.6966870E-08
   22.92000     -2.5683354E-08
   22.98000     -2.4641158E-08
   23.04000     -2.3826070E-08
   23.10000     -2.3186526E-08
   23.16000     -2.2648928E-08
   23.22000     -2.2141959E-08
   23.28000     -2.1622945E-08
   23.34000     -2.1097913E-08
   23.40000     -2.0628326E-08
   23.46000     -2.0321066E-08
   23.52000     -2.0303352E-08
   23.58000     -2.0689356E-08
   23.64000     -2.1548425E-08
   23.70000     -2.2885011E-08
   23.76000     -2.4637108E-08
   23.82000     -2.6694213E-08
   23.88000     -2.8929369E-08
   23.94000     -3.1235047E-08
   24.00000     -3.3551224E-08
   24.06000     -3.5876624E-08
   24.12000     -3.8259799E-08
   24.18000     -4.0773557E-08
   24.24000     -4.3481705E-08
   24.30000     -4.6409326E-08
   24.36000     -4.9526314E-08
   24.42000     -5.2749193E-08
   24.48000     -5.5960196E-08
   24.54000     -5.9037284E-08
   24.60000     -6.1885615E-08
   24.66000     -6.4460899E-08
   24.72000     -6.6777979E-08
   24.78000     -6.8902224E-08
   24.84000     -7.0926617E-08
   24.90000     -7.2941170E-08
   24.96000     -7.5003669E-08
   25.02000     -7.7119964E-08
   25.08000     -7.9239605E-08
   25.14000     -8.1267864E-08
   25.20000     -8.3090590E-08
   25.26000     -8.4604444E-08
   25.32000     -8.5743388E-08
   25.38000     -8.6493579E-08
   25.44000     -8.6892136E-08
   25.50000     -8.7010605E-08
   25.56000     -8.6928665E-08
   25.62000     -8.6706770E-08
   25.68000     -8.6367081E-08
   25.74000     -8.5888971E-08
   25.80000     -8.5220854E-08
   25.86000     -8.4304403E-08
   25.92000     -8.3102748E-08
   25.98000     -8.1622922E-08
   26.04000     -7.9924270E-08
   26.10000     -7.8109139E-08
   26.16000     -7.6298207E-08
   26.22000     -7.4597992E-08
   26.28000     -7.3070964E-08
   26.34000     -7.1718304E-08
   26.40000     -7.0481349E-08
   26.46000     -6.9261745E-08
   26.52000     -6.7954367E-08
   26.58000     -6.6482322E-08
   26.64000     -6.4822757E-08
   26.70000     -6.3014902E-08
   26.76000     -6.1147418E-08
   26.82000     -5.9329384E-08
   26.88000     -5.7654461E-08
   26.94000     -5.6170542E-08
   27.00000     -5.4864998E-08
   27.06000     -5.3670302E-08
   27.12000     -5.2487724E-08
   27.18000     -5.1220518E-08
   27.24000     -4.9805173E-08
   27.30000     -4.8230312E-08
   27.36000     -4.6537735E-08
   27.42000     -4.4806452E-08
   27.48000     -4.3126153E-08
   27.54000     -4.1569674E-08
   27.60000     -4.0173248E-08
   27.66000     -3.8929993E-08
   27.72000     -3.7796962E-08
   27.78000     -3.6711690E-08
   27.84000     -3.5611627E-08
   27.90000     -3.4449727E-08
   27.96000     -3.3201935E-08
   28.02000     -3.1865643E-08
   28.08000     -3.0451591E-08
   28.14000     -2.8973583E-08
   28.20000     -2.7440500E-08
   28.26000     -2.5853277E-08
   28.32000     -2.4206962E-08
   28.38000     -2.2495586E-08
   28.44000     -2.0716625E-08
   28.50000     -1.8872406E-08
   28.56000     -1.6967942E-08
   28.62000     -1.5006693E-08
   28.68000     -1.2987282E-08
   28.74000     -1.0903687E-08
   28.80000     -8.7497298E-09
   28.86000     -6.5261880E-09
   28.92000     -4.2470547E-09
   28.98000     -1.9413831E-09
   29.04000      3.5114139E-10
   29.10000      2.5898919E-09
   29.16000      4.7445665E-09
   29.22000      6.8032069E-09
   29.28000      8.7731449E-09
   29.34000      1.0673868E-08
   29.40000      1.2524215E-08
   29.46000      1.4328867E-08
   29.52000      1.6069619E-08
   29.58000      1.7705194E-08
   29.64000      1.9180138E-08
   29.70000      2.0439765E-08
   29.76000      2.1445940E-08
   29.82000      2.2188123E-08
   29.88000      2.2685880E-08
   29.94000      2.2982046E-08
   30.00000      2.3128923E-08
   30.06000      2.3171943E-08
   30.12000      2.3135916E-08
   30.18000      2.3017872E-08
   30.24000      2.2788404E-08
   30.30000      2.2400942E-08
   30.36000      2.1806160E-08
   30.42000      2.0967487E-08
   30.48000      1.9873372E-08
   30.54000      1.8542879E-08
   30.60000      1.7022792E-08
   30.66000      1.5376697E-08
   30.72000      1.3668754E-08
   30.78000      1.1946516E-08
   30.84000      1.0227881E-08
   30.90000      8.4963077E-09
   30.96000      6.7063022E-09
   31.02000      4.7980748E-09
   31.08000      2.7173135E-09
   31.14000      4.3417581E-10
   31.20000     -2.0444197E-09
   31.26000     -4.6731410E-09
   31.32000     -7.3778739E-09
   31.38000     -1.0073681E-08
   31.44000     -1.2685517E-08
   31.50000     -1.5165298E-08
   31.56000     -1.7500122E-08
   31.62000     -1.9709280E-08
   31.68000     -2.1831184E-08
   31.74000     -2.3904592E-08
   31.80000     -2.5950293E-08
   31.86000     -2.7959588E-08
   31.92000     -2.9893730E-08
   31.98000     -3.1695137E-08
   32.04000     -3.3307000E-08
   32.10000     -3.4694597E-08
   32.16000     -3.5860324E-08
   32.22000     -3.6846142E-08
   32.28000     -3.7721232E-08
   32.34000     -3.8558202E-08
   32.40000     -3.9405940E-08
   32.46000     -4.0269040E-08
   32.52000     -4.1101917E-08
   32.58000     -4.1820414E-08
   32.64000     -4.2327279E-08
   32.70000     -4.2542506E-08
   32.76000     -4.2427907E-08
   32.82000     -4.1997442E-08
   32.88000     -4.1310539E-08
   32.94000     -4.0451713E-08
   33.00000     -3.9504570E-08
   33.06000     -3.8529571E-08
   33.12000     -3.7552674E-08
   33.18000     -3.6567439E-08
   33.24000     -3.5548140E-08
   33.30000     -3.4467909E-08
   33.36000     -3.3314763E-08
   33.42000     -3.2099994E-08
   33.48000     -3.0856459E-08
   33.54000     -2.9628199E-08
   33.60000     -2.8455554E-08
   33.66000     -2.7361324E-08
   33.72000     -2.6342876E-08
   33.78000     -2.5372916E-08
   33.84000     -2.4408688E-08
   33.90000     -2.3406706E-08
   33.96000     -2.2338272E-08
   34.02000     -2.1201059E-08
   34.08000     -2.0023172E-08
   34.14000     -1.8858570E-08
   34.20000     -1.7775205E-08
   34.26000     -1.6839333E-08
   34.32000     -1.6100413E-08
   34.38000     -1.5580671E-08
   34.44000     -1.5271890E-08
   34.50000     -1.5139968E-08
   34.56000     -1.5135459E-08
   34.62000     -1.5206904E-08
   34.68000     -1.5313113E-08
   34.74000     -1.5431393E-08
   34.80000     -1.5560062E-08
   34.86000     -1.5715496E-08
   34.92000     -1.5925339E-08
   34.98000     -1.6220092E-08
   35.04000     -1.6625235E-08
   35.10000     -1.7155296E-08
   35.16000     -1.7810695E-08
   35.22000     -1.8577639E-08
   35.28000     -1.9431106E-08
   35.34000     -2.0340517E-08
   35.40000     -2.1277032E-08
   35.46000     -2.2220661E-08
   35.52000     -2.3164878E-08
   35.58000     -2.4116771E-08
   35.64000     -2.5092058E-08
   35.70000     -2.6106271E-08
   35.76000     -2.7164988E-08
   35.82000     -2.8256755E-08
   35.88000     -2.9351483E-08
   35.94000     -3.0405133E-08
   36.00000     -3.1369400E-08
   36.06000     -3.2203374E-08
   36.12000     -3.2883840E-08
   36.18000     -3.3411439E-08
   36.24000     -3.3811336E-08
   36.30000     -3.4128146E-08
   36.36000     -3.4416086E-08
   36.42000     -3.4726096E-08
   36.48000     -3.5092544E-08
   36.54000     -3.5522724E-08
   36.60000     -3.5992517E-08
   36.66000     -3.6450572E-08
   36.72000     -3.6831270E-08
   36.78000     -3.7073654E-08
   36.84000     -3.7140900E-08
   36.90000     -3.7033878E-08
   36.96000     -3.6793502E-08
   37.02000     -3.6490107E-08
   37.08000     -3.6202827E-08
   37.14000     -3.5995505E-08
   37.20000     -3.5897635E-08
   37.26000     -3.5897006E-08
   37.32000     -3.5947032E-08
   37.38000     -3.5986240E-08
   37.44000     -3.5963122E-08
   37.50000     -3.5857468E-08
   37.56000     -3.5690434E-08
   37.62000     -3.5519580E-08
   37.68000     -3.5420474E-08
   37.74000     -3.5461230E-08
   37.80000     -3.5679001E-08
   37.86000     -3.6066709E-08
   37.92000     -3.6574672E-08
   37.98000     -3.7126600E-08
   38.04000     -3.7644259E-08
   38.10000     -3.8072340E-08
   38.16000     -3.8395097E-08
   38.22000     -3.8639293E-08
   38.28000     -3.8862808E-08
   38.34000     -3.9132967E-08
   38.40000     -3.9501955E-08
   38.46000     -3.9987302E-08
   38.52000     -4.0563794E-08
   38.58000     -4.1169336E-08
   38.64000     -4.1722934E-08
   38.70000     -4.2149150E-08
   38.76000     -4.2401240E-08
   38.82000     -4.2475435E-08
   38.88000     -4.2411482E-08
   38.94000     -4.2278920E-08
   39.00000     -4.2153161E-08
   39.06000     -4.2089102E-08
   39.12000     -4.2100847E-08
   39.18000     -4.2154440E-08
   39.24000     -4.2176040E-08
   39.30000     -4.2072973E-08
   39.36000     -4.1760881E-08
   39.42000     -4.1188304E-08
   39.48000     -4.0351150E-08
   39.54000     -3.9292907E-08
   39.60000     -3.8091098E-08
   39.66000     -3.6834507E-08
   39.72000     -3.5598386E-08
   39.78000     -3.4425021E-08
   39.84000     -3.3315299E-08
   39.90000     -3.2233459E-08
   39.96000     -3.1123193E-08
   40.02000     -2.9929851E-08
   40.08000     -2.8621395E-08
   40.14000     -2.7201176E-08
   40.20000     -2.5708172E-08
   40.26000     -2.4204603E-08
   40.32000     -2.2755385E-08
   40.38000     -2.1406880E-08
   40.44000     -2.0172759E-08
   40.50000     -1.9032148E-08
   40.56000     -1.7940552E-08
   40.62000     -1.6849100E-08
   40.68000     -1.5724639E-08
   40.74000     -1.4562937E-08
   40.80000     -1.3390269E-08
   40.86000     -1.2253286E-08
   40.92000     -1.1201524E-08
   40.98000     -1.0269542E-08
   41.04000     -9.4653965E-09
   41.10000     -8.7693532E-09
   41.16000     -8.1426759E-09
   41.22000     -7.5426643E-09
   41.28000     -6.9381412E-09
   41.34000     -6.3199299E-09
   41.40000     -5.7030878E-09
   41.46000     -5.1208309E-09
   41.52000     -4.6128799E-09
   41.58000     -4.2125334E-09
   41.64000     -3.9367403E-09
   41.70000     -3.7820627E-09
   41.76000     -3.7273478E-09
   41.82000     -3.7418761E-09
   41.88000     -3.7962917E-09
   41.94000     -3.8729890E-09
   42.00000     -3.9728505E-09
   42.06000     -4.1161994E-09
   42.12000     -4.3373043E-09
   42.18000     -4.6735731E-09
   42.24000     -5.1522968E-09
   42.30000     -5.7789400E-09
   42.36000     -6.5310837E-09
   42.42000     -7.3608586E-09
   42.48000     -8.2062410E-09
   42.54000     -9.0086090E-09
   42.60000     -9.7314494E-09
   42.66000     -1.0374185E-08
   42.72000     -1.0976184E-08
   42.78000     -1.1608955E-08
   42.84000     -1.2358393E-08
   42.90000     -1.3302302E-08
   42.96000     -1.4490098E-08
   43.02000     -1.5931050E-08
   43.08000     -1.7594743E-08
   43.14000     -1.9423647E-08
   43.20000     -2.1353996E-08
   43.26000     -2.3338718E-08
   43.32000     -2.5365718E-08
   43.38000     -2.7466372E-08
   43.44000     -2.9712254E-08
   43.50000     -3.2201768E-08
   43.56000     -3.5041602E-08
   43.62000     -3.8329581E-08
   43.68000     -4.2144958E-08
   43.74000     -4.6549722E-08
   43.80000     -5.1600491E-08
   43.86000     -5.7366783E-08
   43.92000     -6.3949059E-08
   43.98000     -7.1490291E-08
   44.04000     -8.0177585E-08
   44.10000     -9.0234984E-08
   44.16000     -1.0191275E-07
   44.22000     -1.1548038E-07
   44.28000     -1.3122965E-07
   44.34000     -1.4948958E-07
   44.40000     -1.7065057E-07
   44.46000     -1.9519059E-07
   44.52000     -2.2369565E-07
   44.58000     -2.5686853E-07
   44.64000     -2.9552533E-07
   44.70000     -3.4058397E-07
   44.76000     -3.9305331E-07
   44.82000     -4.5403067E-07
   44.88000     -5.2471512E-07
   44.94000     -6.0643720E-07
   45.00000     -7.0070234E-07
   45.06000     -8.0923922E-07
   45.12000     -9.3404395E-07
   45.18000     -1.0774108E-06
   45.24000     -1.2419466E-06
   45.30000     -1.4305674E-06
   45.36000     -1.6464882E-06
   45.42000     -1.8932132E-06
   45.48000     -2.1745414E-06
   45.54000     -2.4945894E-06
   45.60000     -2.8578379E-06
   45.66000     -3.2691923E-06
   45.72000     -3.7340465E-06
   45.78000     -4.2583388E-06
   45.84000     -4.8485877E-06
   45.90000     -5.5119099E-06
   45.96000     -6.2560111E-06
   46.02000     -7.0891738E-06
   46.08000     -8.0202362E-06
   46.14000     -9.0585845E-06
   46.20000     -1.0214155E-05
   46.26000     -1.1497453E-05
   46.32000     -1.2919578E-05
   46.38000     -1.4492248E-05
   46.44000     -1.6227814E-05
   46.50000     -1.8139248E-05
   46.56000     -2.0240112E-05
   46.62000     -2.2544502E-05
   46.68000     -2.5066969E-05
   46.74000     -2.7822449E-05
   46.80000     -3.0826159E-05
   46.86000     -3.4093544E-05
   46.92000     -3.7640184E-05
   46.98000     -4.1481751E-05
   47.04000     -4.5633915E-05
   47.10000     -5.0112241E-05
   47.16000     -5.4932090E-05
   47.22000     -6.0108465E-05
   47.28000     -6.5655855E-05
   47.34000     -7.1588074E-05
   47.40000     -7.7918092E-05
   47.46000     -8.4657862E-05
   47.52000     -9.1818176E-05
   47.58000     -9.9408506E-05
   47.64000     -1.0743690E-04
   47.70000     -1.1590979E-04
   47.76000     -1.2483186E-04
   47.82000     -1.3420588E-04
   47.88000     -1.4403254E-04
   47.94000     -1.5431036E-04
   48.00000     -1.6503545E-04
   48.06000     -1.7620155E-04
   48.12000     -1.8779979E-04
   48.18000     -1.9981877E-04
   48.24000     -2.1224449E-04
   48.30000     -2.2506037E-04
   48.36000     -2.3824719E-04
   48.42000     -2.5178323E-04
   48.48000     -2.6564419E-04
   48.54000     -2.7980335E-04
   48.60000     -2.9423164E-04
   48.66000     -3.0889778E-04
   48.72000     -3.2376847E-04
   48.78000     -3.3880855E-04
   48.84000     -3.5398139E-04
   48.90000     -3.6924906E-04
   48.96000     -3.8457269E-04
   49.02000     -3.9991277E-04
   49.08000     -4.1522935E-04
   49.14000     -4.3048253E-04
   49.20000     -4.4563264E-04
   49.26000     -4.6064061E-04
   49.32000     -4.7546843E-04
   49.38000     -4.9007940E-04
   49.44000     -5.0443859E-04
   49.50000     -5.1851314E-04
   49.56000     -5.3227262E-04
   49.62000     -5.4568914E-04
   49.68000     -5.5873801E-04
   49.74000     -5.7139766E-04
   49.80000     -5.8365008E-04
   49.86000     -5.9548073E-04
   49.92000     -6.0687895E-04
   49.98000     -6.1783788E-04
   50.04000     -6.2835426E-04
   50.10000     -6.3842908E-04
   50.16000     -6.4806693E-04
   50.22000     -6.5727643E-04
   50.28000     -6.6606974E-04
   50.34000     -6.7446259E-04
   50.40000     -6.8247400E-04
   50.46000     -6.9012569E-04
   50.52000     -6.9744221E-04
   50.58000     -7.0445024E-04
   50.64000     -7.1117847E-04
   50.70000     -7.1765698E-04
   50.76000     -7.2391692E-04
   50.82000     -7.2998996E-04
   50.88000     -7.3590816E-04
   50.94000     -7.4170297E-04
   51.00000     -7.4740517E-04
   51.06000     -7.5304444E-04
   51.12000     -7.5864885E-04
   51.18000     -7.6424453E-04
   51.24000     -7.6985505E-04
   51.30000     -7.7550119E-04
   51.36000     -7.8120065E-04
   51.42000     -7.8696787E-04
   51.48000     -7.9281360E-04
   51.54000     -7.9874520E-04
   51.60000     -8.0476602E-04
   51.66000     -8.1087585E-04
   51.72000     -8.1707048E-04
   51.78000     -8.2334183E-04
   51.84000     -8.2967803E-04
   51.90000     -8.3606405E-04
   51.96000     -8.4248139E-04
   52.02000     -8.4890868E-04
   52.08000     -8.5532223E-04
   52.14000     -8.6169573E-04
   52.20000     -8.6800102E-04
   52.26000     -8.7420858E-04
   52.32000     -8.8028779E-04
   52.38000     -8.8620739E-04
   52.44000     -8.9193630E-04
   52.50000     -8.9744380E-04
   52.56000     -9.0269989E-04
   52.62000     -9.0767595E-04
   52.68000     -9.1234490E-04
   52.74000     -9.1668201E-04
   52.80000     -9.2066469E-04
   52.86000     -9.2427351E-04
   52.92000     -9.2749193E-04
   52.98000     -9.3030697E-04
   53.04000     -9.3270891E-04
   53.10000     -9.3469175E-04
   53.16000     -9.3625288E-04
   53.22000     -9.3739358E-04
   53.28000     -9.3811861E-04
   53.34000     -9.3843607E-04
   53.40000     -9.3835767E-04
   53.46000     -9.3789806E-04
   53.52000     -9.3707489E-04
   53.58000     -9.3590847E-04
   53.64000     -9.3442143E-04
   53.70000     -9.3263824E-04
   53.76000     -9.3058479E-04
   53.82000     -9.2828780E-04
   53.88000     -9.2577463E-04
   53.94000     -9.2307269E-04
   54.00000     -9.2020916E-04
   54.06000     -9.1721053E-04
   54.12000     -9.1410236E-04
   54.18000     -9.1090880E-04
   54.24000     -9.0765208E-04
   54.30000     -9.0435246E-04
   54.36000     -9.0102741E-04
   54.42000     -8.9769205E-04
   54.48000     -8.9435832E-04
   54.54000     -8.9103548E-04
   54.60000     -8.8772963E-04
   54.66000     -8.8444393E-04
   54.72000     -8.8117801E-04
   54.78000     -8.7792886E-04
   54.84000     -8.7469019E-04
   54.90000     -8.7145297E-04
   54.96000     -8.6820580E-04
   55.02000     -8.6493511E-04
   55.08000     -8.6162525E-04
   55.14000     -8.5825915E-04
   55.20000     -8.5481850E-04
   55.26000     -8.5128384E-04
   55.32000     -8.4763515E-04
   55.38000     -8.4385223E-04
   55.44000     -8.3991507E-04
   55.50000     -8.3580421E-04
   55.56000     -8.3150121E-04