  -2.400000      0.0000000E+00
  -2.340000      0.0000000E+00
  -2.280000      0.0000000E+00
  -2.220000      0.0000000E+00
  -2.160000      0.0000000E+00
  -2.100000      3.8866932E-19
  -2.040000      3.0951630E-18
  -1.980000      1.2440747E-17
  -1.920000      3.2270228E-17
  -1.860000      5.5715048E-17
  -1.800000      4.9978024E-17
  -1.740000     -4.8895592E-17
  -1.680000     -3.0640223E-16
  -1.620000     -7.1059950E-16
  -1.560000     -1.0716948E-15
  -1.500000     -9.8745248E-16
  -1.440000      1.3476834E-17
  -1.380000      2.1096937E-15
  -1.320000      4.7470992E-15
  -1.260000      6.4620563E-15
  -1.200000      5.3476201E-15
  -1.140000      2.5715679E-16
  -1.080000     -7.7449593E-15
  -1.020000     -1.4743674E-14
 -0.9600000     -1.5244126E-14
 -0.9000000     -5.5903662E-15
 -0.8400000      1.1841793E-14
 -0.7800000      2.6549043E-14
 -0.7200000      2.2895987E-14
 -0.6600000     -1.0929650E-14
 -0.6000000     -7.1117672E-14
 -0.5400000     -1.3056656E-13
 -0.4800000     -1.4318127E-13
 -0.4200000     -6.3750397E-14
 -0.3600000      1.2176031E-13
 -0.3000000      3.7007967E-13
 -0.2400000      5.7729781E-13
 -0.1800000      6.1071970E-13
 -0.1200000      3.7162680E-13
 -5.9999999E-02 -1.3593313E-13
  0.0000000E+00 -7.6836898E-13
  5.9999999E-02 -1.2707833E-12
  0.1200000     -1.3767428E-12
  0.1800000     -9.4686672E-13
  0.2400000     -8.0621829E-14
  0.3000000      8.6966708E-13
  0.3600000      1.4200749E-12
  0.4200000      1.1845785E-12
  0.4800000      1.1803938E-13
  0.5400000     -1.3560749E-12
  0.6000000     -2.4345443E-12
  0.6600000     -2.2518365E-12
  0.7200000     -3.2023266E-13
  0.7800000      3.1033641E-12
  0.8400000      6.9283060E-12
  0.9000000      9.5278984E-12
  0.9600000      9.3624102E-12
   1.020000      5.6928459E-12
   1.080000     -9.3687905E-13
   1.140000     -8.7150729E-12
   1.200000     -1.5143720E-11
   1.260000     -1.7994762E-11
   1.320000     -1.6245248E-11
   1.380000     -1.0556149E-11
   1.440000     -3.0273477E-12
   1.500000      3.7195798E-12
   1.560000      7.7469932E-12
   1.620000      8.7283228E-12
   1.680000      8.1041241E-12
   1.740000      8.3015678E-12
   1.800000      1.1301931E-11
   1.860000      1.7209068E-11
   1.920000      2.3568879E-11
   1.980000      2.5935412E-11
   2.040000      1.9650980E-11
   2.100000      2.2222447E-12
   2.160000     -2.4702776E-11
   2.220000     -5.4723514E-11
   2.280000     -7.7945365E-11
   2.340000     -8.3879390E-11
   2.400000     -6.5053074E-11
   2.460000     -2.0040613E-11
   2.520000      4.5219897E-11
   2.580000      1.1831681E-10
   2.640000      1.8309231E-10
   2.700000      2.2311576E-10
   2.760000      2.2455741E-10
   2.820000      1.7745734E-10
   2.880000      7.5185788E-11
   2.940000     -8.7198110E-11
   3.000000     -3.1438882E-10
   3.060000     -6.1080202E-10
   3.120000     -9.7847275E-10
   3.180000     -1.4133614E-09
   3.240000     -1.9015289E-09
   3.300000     -2.4170643E-09
   3.360000     -2.9232403E-09
   3.420000     -3.3772318E-09
   3.480000     -3.7372874E-09
   3.540000     -3.9701264E-09
   3.600000     -4.0560386E-09
   3.660000     -3.9899266E-09
   3.720000     -3.7780521E-09
   3.780000     -3.4319656E-09
   3.840000     -2.9622060E-09
   3.900000     -2.3744449E-09
   3.960000     -1.6696243E-09
   4.020000     -8.4786811E-10
   4.080000      8.5786329E-11
   4.140000      1.1166545E-09
   4.200000      2.2191187E-09
   4.260000      3.3597456E-09
   4.320000      4.5038240E-09
   4.380000      5.6227707E-09
   4.440000      6.6994383E-09
   4.500000      7.7291658E-09
   4.560000      8.7162455E-09
   4.620000      9.6673780E-09
   4.680000      1.0584929E-08
   4.740000      1.1462817E-08
   4.800000      1.2286641E-08
   4.860000      1.3037829E-08
   4.920000      1.3699847E-08
   4.980000      1.4263686E-08
   5.040000      1.4730205E-08
   5.100000      1.5108338E-08
   5.160000      1.5409908E-08
   5.220000      1.5643348E-08
   5.280000      1.5809109E-08
   5.340000      1.5898889E-08
   5.400000      1.5899348E-08
   5.460000      1.5799079E-08
   5.520000      1.5596246E-08
   5.580000      1.5303844E-08
   5.640000      1.4950276E-08
   5.700000      1.4574602E-08
   5.760000      1.4217758E-08
   5.820000      1.3912504E-08
   5.880000      1.3675465E-08
   5.940000      1.3503799E-08
   6.000000      1.3377522E-08
   6.060000      1.3266478E-08
   6.120000      1.3139463E-08
   6.180000      1.2972430E-08
   6.240000      1.2753264E-08
   6.300000      1.2482079E-08
   6.360000      1.2167658E-08
   6.420000      1.1822030E-08
   6.480000      1.1455588E-08
   6.540000      1.1074615E-08
   6.600000      1.0681773E-08
   6.660000      1.0278608E-08
   6.720000      9.8681339E-09
   6.780000      9.4554800E-09
   6.840000      9.0456469E-09
   6.900000      8.6390424E-09
   6.960000      8.2271150E-09
   7.020000      7.7909741E-09
   7.080000      7.3051143E-09
   7.140000      6.7461499E-09
   7.200000      6.1038690E-09
   7.260000      5.3900644E-09
   7.320000      4.6406790E-09
   7.380000      3.9090371E-09
   7.440000      3.2516074E-09
   7.500000      2.7112039E-09
   7.560000      2.3041109E-09
   7.620000      2.0163506E-09
   7.680000      1.8106049E-09
   7.740000      1.6408109E-09
   7.800000      1.4682370E-09
   7.860000      1.2724958E-09
   7.920000      1.0536081E-09
   7.980000      8.2554785E-10
   8.040000      6.0557209E-10
   8.100000      4.0513609E-10
   8.160000      2.2670529E-10
   8.220000      6.7174794E-11
   8.280000     -7.5140810E-11
   8.340000     -1.9494738E-10
   8.400000     -2.7997918E-10
   8.460000     -3.1758726E-10
   8.520000     -3.0512004E-10
   8.580000     -2.5886021E-10
   8.640000     -2.1644422E-10
   8.700000     -2.3043158E-10
   8.760000     -3.5471726E-10
   8.820000     -6.2887801E-10
   8.880000     -1.0667055E-09
   8.940000     -1.6535723E-09
   9.000000     -2.3536386E-09
   9.060000     -3.1238738E-09
   9.120000     -3.9292507E-09
   9.180000     -4.7533284E-09
   9.240000     -5.6007634E-09
   9.300000     -6.4918790E-09
   9.360000     -7.4526572E-09
   9.420000     -8.5048937E-09
   9.480000     -9.6603996E-09
   9.540000     -1.0920528E-08
   9.600000     -1.2279501E-08
   9.660000     -1.3728239E-08
   9.720000     -1.5255688E-08
   9.780000     -1.6846457E-08
   9.840000     -1.8475991E-08
   9.900000     -2.0106162E-08
   9.960000     -2.1684158E-08
   10.02000     -2.3146075E-08
   10.08000     -2.4424502E-08
   10.14000     -2.5457846E-08
   10.20000     -2.6198707E-08
   10.26000     -2.6619626E-08
   10.32000     -2.6715876E-08
   10.38000     -2.6506006E-08
   10.44000     -2.6031060E-08
   10.50000     -2.5352675E-08
   10.56000     -2.4549655E-08
   10.62000     -2.3712394E-08
   10.68000     -2.2935103E-08
   10.74000     -2.2306873E-08
   10.80000     -2.1903377E-08
   10.86000     -2.1780981E-08
   10.92000     -2.1974158E-08
   10.98000     -2.2495763E-08
   11.04000     -2.3338805E-08
   11.10000     -2.4478378E-08
   11.16000     -2.5873124E-08
   11.22000     -2.7466733E-08
   11.28000     -2.9190671E-08
   11.34000     -3.0968987E-08
   11.40000     -3.2724998E-08
   11.46000     -3.4388474E-08
   11.52000     -3.5901252E-08
   11.58000     -3.7219735E-08
   11.64000     -3.8314031E-08
   11.70000     -3.9164977E-08
   11.76000     -3.9761236E-08
   11.82000     -4.0098069E-08
   11.88000     -4.0178232E-08
   11.94000     -4.0013624E-08
   12.00000     -3.9625320E-08
   12.06000     -3.9040195E-08
   12.12000     -3.8283883E-08
   12.18000     -3.7372221E-08
   12.24000     -3.6304773E-08
   12.30000     -3.5064001E-08
   12.36000     -3.3621774E-08
   12.42000     -3.1951654E-08
   12.48000     -3.0042923E-08
   12.54000     -2.7910902E-08
   12.60000     -2.5599489E-08
   12.66000     -2.3174925E-08
   12.72000     -2.0713445E-08
   12.78000     -1.8287944E-08
   12.84000     -1.5958797E-08
   12.90000     -1.3771542E-08
   12.96000     -1.1760404E-08
   13.02000     -9.9536388E-09
   13.08000     -8.3759657E-09
   13.14000     -7.0453732E-09
   13.20000     -5.9654166E-09
   13.26000     -5.1175140E-09
   13.32000     -4.4588231E-09
   13.38000     -3.9291042E-09
   13.44000     -3.4655365E-09
   13.50000     -3.0199425E-09
   13.56000     -2.5708542E-09
   13.62000     -2.1245790E-09
   13.68000     -1.7043039E-09
   13.74000     -1.3319228E-09
   13.80000     -1.0108314E-09
   13.86000     -7.1753237E-10
   13.92000     -4.0567968E-10
   13.98000     -2.0308597E-11
   14.04000      4.8459520E-10
   14.10000      1.1330678E-09
   14.16000      1.9237409E-09
   14.22000      2.8360461E-09
   14.28000      3.8415680E-09
   14.34000      4.9143130E-09
   14.40000      6.0352905E-09
   14.46000      7.1905752E-09
   14.52000      8.3656913E-09
   14.58000      9.5407717E-09
   14.64000      1.0689869E-08
   14.70000      1.1784957E-08
   14.76000      1.2802359E-08
   14.82000      1.3728136E-08
   14.88000      1.4559775E-08
   14.94000      1.5303671E-08
   15.00000      1.5970054E-08
   15.06000      1.6567903E-08
   15.12000      1.7101970E-08
   15.18000      1.7572610E-08
   15.24000      1.7977861E-08
   15.30000      1.8316445E-08
   15.36000      1.8590493E-08
   15.42000      1.8807198E-08
   15.48000      1.8978954E-08
   15.54000      1.9121773E-08
   15.60000      1.9252029E-08
   15.66000      1.9382249E-08
   15.72000      1.9517415E-08
   15.78000      1.9653838E-08
   15.84000      1.9782146E-08
   15.90000      1.9894392E-08
   15.96000      1.9992983E-08
   16.02000      2.0097362E-08
   16.08000      2.0244354E-08
   16.14000      2.0480227E-08
   16.20000      2.0846093E-08
   16.26000      2.1361823E-08
   16.32000      2.2015190E-08
   16.38000      2.2761444E-08
   16.44000      2.3534540E-08
   16.50000      2.4266429E-08
   16.56000      2.4907202E-08
   16.62000      2.5438540E-08
   16.68000      2.5875650E-08
   16.74000      2.6257622E-08
   16.80000      2.6630826E-08
   16.86000      2.7032348E-08
   16.92000      2.7479750E-08
   16.98000      2.7970238E-08
   17.04000      2.8488033E-08
   17.10000      2.9015530E-08
   17.16000      2.9542809E-08
   17.22000      3.0071583E-08
   17.28000      3.0612494E-08
   17.34000      3.1177724E-08
   17.40000      3.1772466E-08
   17.46000      3.2388794E-08
   17.52000      3.3004017E-08
   17.58000      3.3583785E-08
   17.64000      3.4088760E-08
   17.70000      3.4482998E-08
   17.76000      3.4742172E-08
   17.82000      3.4860033E-08
   17.88000      3.4851428E-08
   17.94000      3.4750542E-08
   18.00000      3.4603541E-08
   18.06000      3.4456313E-08
   18.12000      3.4340015E-08
   18.18000      3.4258896E-08
   18.24000      3.4185231E-08
   18.30000      3.4064382E-08
   18.36000      3.3829643E-08
   18.42000      3.3422232E-08
   18.48000      3.2809506E-08
   18.54000      3.1994329E-08
   18.60000      3.1012142E-08
   18.66000      2.9916833E-08
   18.72000      2.8761388E-08
   18.78000      2.7581072E-08
   18.84000      2.6385646E-08
   18.90000      2.5163002E-08
   18.96000      2.3891763E-08
   19.02000      2.2556874E-08
   19.08000      2.1161549E-08
   19.14000      1.9731146E-08
   19.20000      1.8308222E-08
   19.26000      1.6941614E-08
   19.32000      1.5674193E-08
   19.38000      1.4533533E-08
   19.44000      1.3527747E-08
   19.50000      1.2646288E-08
   19.56000      1.1863923E-08
   19.62000      1.1145796E-08
   19.68000      1.0452280E-08
   19.74000      9.7433741E-09
   19.80000      8.9828918E-09
   19.86000      8.1423339E-09
   19.92000      7.2035355E-09
   19.98000      6.1587282E-09
   20.04000      5.0072115E-09
   20.10000      3.7493404E-09
   20.16000      2.3803439E-09
   20.22000      8.8731716E-10
   20.28000     -7.4818690E-10
   20.34000     -2.5421376E-09
   20.40000     -4.4978266E-09
   20.46000     -6.5986110E-09
   20.52000     -8.8080689E-09
   20.58000     -1.1078797E-08
   20.64000     -1.3366726E-08
   20.70000     -1.5644607E-08
   20.76000     -1.7908075E-08
   20.82000     -2.0170956E-08
   20.88000     -2.2451697E-08
   20.94000     -2.4757334E-08
   21.00000     -2.7072815E-08
   21.06000     -2.9361024E-08
   21.12000     -3.1573375E-08
   21.18000     -3.3665632E-08
   21.24000     -3.5611059E-08
   21.30000     -3.7404710E-08
   21.36000     -3.9057401E-08
   21.42000     -4.0583529E-08
   21.48000     -4.1989683E-08
   21.54000     -4.3270099E-08
   21.60000     -4.4410768E-08
   21.66000     -4.5398664E-08
   21.72000     -4.6229744E-08
   21.78000     -4.6909992E-08
   21.84000     -4.7448154E-08
   21.90000     -4.7843862E-08
   21.96000     -4.8078313E-08
   22.02000     -4.8114078E-08
   22.08000     -4.7906347E-08
   22.14000     -4.7422194E-08
   22.20000     -4.6659952E-08
   22.26000     -4.5660222E-08
   22.32000     -4.4503178E-08
   22.38000     -4.3292751E-08
   22.44000     -4.2133518E-08
   22.50000     -4.1108866E-08
   22.56000     -4.0267693E-08
   22.62000     -3.9622737E-08
   22.68000     -3.9158525E-08
   22.74000     -3.8843439E-08
   22.80000     -3.8639779E-08
   22.86000     -3.8508173E-08
   22.92000     -3.8406540E-08
   22.98000     -3.8287148E-08
   23.04000     -3.8096548E-08
   23.10000     -3.7781490E-08
   23.16000     -3.7300612E-08
   23.22000     -3.6638028E-08
   23.28000     -3.5813045E-08
   23.34000     -3.4881015E-08
   23.40000     -3.3923413E-08
   23.46000     -3.3029483E-08
   23.52000     -3.2275167E-08
   23.58000     -3.1706140E-08
   23.64000     -3.1330355E-08
   23.70000     -3.1121946E-08
   23.76000     -3.1034645E-08
   23.82000     -3.1019837E-08
   23.88000     -3.1043371E-08
   23.94000     -3.1096327E-08
   24.00000     -3.1196819E-08
   24.06000     -3.1382882E-08
   24.12000     -3.1698832E-08
   24.18000     -3.2179461E-08
   24.24000     -3.2837065E-08
   24.30000     -3.3655766E-08
   24.36000     -3.4595406E-08
   24.42000     -3.5603765E-08
   24.48000     -3.6632471E-08
   24.54000     -3.7649777E-08
   24.60000     -3.8643975E-08
   24.66000     -3.9615109E-08
   24.72000     -4.0558067E-08
   24.78000     -4.1445066E-08
   24.84000     -4.2217163E-08
   24.90000     -4.2791168E-08
   24.96000     -4.3081652E-08
   25.02000     -4.3030024E-08
   25.08000     -4.2628219E-08
   25.14000     -4.1925663E-08
   25.20000     -4.1014811E-08
   25.26000     -4.0000089E-08
   25.32000     -3.8962838E-08
   25.38000     -3.7936882E-08
   25.44000     -3.6905167E-08
   25.50000     -3.5818413E-08
   25.56000     -3.4627053E-08
   25.62000     -3.3312141E-08
   25.68000     -3.1901653E-08
   25.74000     -3.0465586E-08
   25.80000     -2.9092911E-08
   25.86000     -2.7861033E-08
   25.92000     -2.6811135E-08
   25.98000     -2.5939165E-08
   26.04000     -2.5204713E-08
   26.10000     -2.4552135E-08
   26.16000     -2.3933541E-08
   26.22000     -2.3323736E-08
   26.28000     -2.2721862E-08
   26.34000     -2.2141162E-08
   26.40000     -2.1593340E-08
   26.46000     -2.1075714E-08
   26.52000     -2.0567011E-08
   26.58000     -2.0033157E-08
   26.64000     -1.9439765E-08
   26.70000     -1.8765549E-08
   26.76000     -1.8011178E-08
   26.82000     -1.7200549E-08
   26.88000     -1.6374692E-08
   26.94000     -1.5581017E-08
   27.00000     -1.4861556E-08
   27.06000     -1.4243590E-08
   27.12000     -1.3734769E-08
   27.18000     -1.3323472E-08
   27.24000     -1.2983924E-08
   27.30000     -1.2684422E-08
   27.36000     -1.2396216E-08
   27.42000     -1.2100280E-08
   27.48000     -1.1789708E-08
   27.54000     -1.1467219E-08
   27.60000     -1.1139380E-08
   27.66000     -1.0811062E-08
   27.72000     -1.0483960E-08
   27.78000     -1.0161128E-08
   27.84000     -9.8561816E-09
   27.90000     -9.6024708E-09
   27.96000     -9.4561399E-09
   28.02000     -9.4887840E-09
   28.08000     -9.7698507E-09
   28.14000     -1.0344201E-08
   28.20000     -1.1213546E-08
   28.26000     -1.2330019E-08
   28.32000     -1.3605674E-08
   28.38000     -1.4935104E-08
   28.44000     -1.6222812E-08
   28.50000     -1.7405030E-08
   28.56000     -1.8458348E-08
   28.62000     -1.9393447E-08
   28.68000     -2.0238661E-08
   28.74000     -2.1021688E-08
   28.80000     -2.1757389E-08
   28.86000     -2.2445429E-08
   28.92000     -2.3076179E-08
   28.98000     -2.3639510E-08
   29.04000     -2.4130665E-08
   29.10000     -2.4550232E-08
   29.16000     -2.4899373E-08
   29.22000     -2.5174634E-08
   29.28000     -2.5366859E-08
   29.34000     -2.5466163E-08
   29.40000     -2.5470923E-08
   29.46000     -2.5395856E-08
   29.52000     -2.5273884E-08
   29.58000     -2.5149308E-08
   29.64000     -2.5064050E-08
   29.70000     -2.5042572E-08
   29.76000     -2.5082272E-08
   29.82000     -2.5154193E-08
   29.88000     -2.5214451E-08
   29.94000     -2.5221997E-08
   30.00000     -2.5155419E-08
   30.06000     -2.5021610E-08
   30.12000     -2.4852616E-08
   30.18000     -2.4691941E-08
   30.24000     -2.4576192E-08
   30.30000     -2.4519929E-08
   30.36000     -2.4510269E-08
   30.42000     -2.4513476E-08
   30.48000     -2.4490650E-08
   30.54000     -2.4415534E-08
   30.60000     -2.4286555E-08
   30.66000     -2.4127628E-08
   30.72000     -2.3977167E-08
   30.78000     -2.3869779E-08
   30.84000     -2.3818366E-08
   30.90000     -2.3804258E-08
   30.96000     -2.3779712E-08
   31.02000     -2.3682116E-08
   31.08000     -2.3454625E-08
   31.14000     -2.3065445E-08
   31.20000     -2.2518632E-08
   31.26000     -2.1852525E-08
   31.32000     -2.1126523E-08
   31.38000     -2.0401126E-08
   31.44000     -1.9718506E-08
   31.50000     -1.9090574E-08
   31.56000     -1.8498826E-08
   31.62000     -1.7905901E-08
   31.68000     -1.7274489E-08
   31.74000     -1.6586249E-08
   31.80000     -1.5853123E-08
   31.86000     -1.5116063E-08
   31.92000     -1.4430948E-08
   31.98000     -1.3846587E-08
   32.04000     -1.3383291E-08
   32.10000     -1.3020771E-08
   32.16000     -1.2700866E-08
   32.22000     -1.2344956E-08
   32.28000     -1.1880108E-08
   32.34000     -1.1264409E-08
   32.40000     -1.0502149E-08
   32.46000     -9.6432746E-09
   32.52000     -8.7675760E-09
   32.58000     -7.9596658E-09
   32.64000     -7.2839308E-09
   32.70000     -6.7682060E-09
   32.76000     -6.4011414E-09
   32.82000     -6.1429479E-09
   32.88000     -5.9443610E-09
   32.94000     -5.7661489E-09
   33.00000     -5.5920268E-09
   33.06000     -5.4309979E-09
   33.12000     -5.3094902E-09
   33.18000     -5.2574385E-09
   33.24000     -5.2942868E-09
   33.30000     -5.4202336E-09
   33.36000     -5.6154876E-09
   33.42000     -5.8470038E-09
   33.48000     -6.0795746E-09
   33.54000     -6.2870829E-09
   33.60000     -6.4603309E-09
   33.66000     -6.6094712E-09
   33.72000     -6.7609052E-09
   33.78000     -6.9498576E-09
   33.84000     -7.2105659E-09
   33.90000     -7.5662987E-09
   33.96000     -8.0214839E-09
   34.02000     -8.5581160E-09
   34.08000     -9.1379855E-09
   34.14000     -9.7108961E-09
   34.20000     -1.0227044E-08
   34.26000     -1.0649851E-08
   34.32000     -1.0964697E-08
   34.38000     -1.1180104E-08
   34.44000     -1.1320704E-08
   34.50000     -1.1414842E-08
   34.56000     -1.1482202E-08
   34.62000     -1.1527015E-08
   34.68000     -1.1539990E-08
   34.74000     -1.1507951E-08
   34.80000     -1.1426424E-08
   34.86000     -1.1308809E-08
   34.92000     -1.1187139E-08
   34.98000     -1.1103328E-08
   35.04000     -1.1094205E-08
   35.10000     -1.1176720E-08
   35.16000     -1.1339858E-08
   35.22000     -1.1547096E-08
   35.28000     -1.1748866E-08
   35.34000     -1.1900286E-08
   35.40000     -1.1977279E-08
   35.46000     -1.1984800E-08
   35.52000     -1.1954098E-08
   35.58000     -1.1930325E-08
   35.64000     -1.1955608E-08
   35.70000     -1.2054463E-08
   35.76000     -1.2227319E-08
   35.82000     -1.2454483E-08
   35.88000     -1.2708442E-08
   35.94000     -1.2968855E-08
   36.00000     -1.3233496E-08
   36.06000     -1.3520327E-08
   36.12000     -1.3859917E-08
   36.18000     -1.4281869E-08
   36.24000     -1.4801635E-08
   36.30000     -1.5413878E-08
   36.36000     -1.6095361E-08
   36.42000     -1.6815905E-08
   36.48000     -1.7552187E-08
   36.54000     -1.8297996E-08
   36.60000     -1.9066293E-08
   36.66000     -1.9882366E-08
   36.72000     -2.0771292E-08
   36.78000     -2.1745304E-08
   36.84000     -2.2796350E-08
   36.90000     -2.3896606E-08
   36.96000     -2.5006274E-08
   37.02000     -2.6085116E-08
   37.08000     -2.7103178E-08
   37.14000     -2.8046868E-08
   37.20000     -2.8918787E-08
   37.26000     -2.9732146E-08
   37.32000     -3.0502328E-08
   37.38000     -3.1238976E-08
   37.44000     -3.1941337E-08
   37.50000     -3.2598294E-08
   37.56000     -3.3192691E-08
   37.62000     -3.3708194E-08
   37.68000     -3.4135923E-08
   37.74000     -3.4478408E-08
   37.80000     -3.4749288E-08
   37.86000     -3.4968835E-08
   37.92000     -3.5156841E-08
   37.98000     -3.5325421E-08
   38.04000     -3.5474208E-08
   38.10000     -3.5589665E-08
   38.16000     -3.5648640E-08
   38.22000     -3.5625035E-08
   38.28000     -3.5497397E-08
   38.34000     -3.5255177E-08
   38.40000     -3.4901877E-08
   38.46000     -3.4454263E-08
   38.52000     -3.3938072E-08
   38.58000     -3.3381536E-08
   38.64000     -3.2808639E-08
   38.70000     -3.2233991E-08
   38.76000     -3.1660640E-08
   38.82000     -3.1081019E-08
   38.88000     -3.0480180E-08
   38.94000     -2.9839903E-08
   39.00000     -2.9142203E-08
   39.06000     -2.8371579E-08
   39.12000     -2.7516405E-08
   39.18000     -2.6570397E-08
   39.24000     -2.5534893E-08
   39.30000     -2.4421634E-08
   39.36000     -2.3254451E-08
   39.42000     -2.2067743E-08
   39.48000     -2.0900455E-08
   39.54000     -1.9786340E-08
   39.60000     -1.8743648E-08
   39.66000     -1.7768626E-08
   39.72000     -1.6836465E-08
   39.78000     -1.5910485E-08
   39.84000     -1.4956605E-08
   39.90000     -1.3957442E-08
   39.96000     -1.2919983E-08
   40.02000     -1.1873217E-08
   40.08000     -1.0856441E-08
   40.14000     -9.9030482E-09
   40.20000     -9.0267172E-09
   40.26000     -8.2160252E-09
   40.32000     -7.4399602E-09
   40.38000     -6.6621739E-09
   40.44000     -5.8581375E-09
   40.50000     -5.0280664E-09
   40.56000     -4.2000892E-09
   40.62000     -3.4219871E-09
   40.68000     -2.7443638E-09
   40.74000     -2.2016025E-09
   40.80000     -1.7980751E-09
   40.86000     -1.5052891E-09
   40.92000     -1.2715752E-09
   40.98000     -1.0410320E-09
   41.04000     -7.7461754E-10
   41.10000     -4.6513640E-10
   41.16000     -1.4005082E-10
   41.22000      1.4919906E-10
   41.28000      3.4719014E-10
   41.34000      4.1576290E-10
   41.40000      3.4790848E-10
   41.46000      1.6880715E-10
   41.52000     -7.5958198E-11
   41.58000     -3.3950573E-10
   41.64000     -5.9154248E-10
   41.70000     -8.2728302E-10
   41.76000     -1.0638800E-09
   41.82000     -1.3265945E-09
   41.88000     -1.6315992E-09
   41.94000     -1.9737783E-09
   42.00000     -2.3255247E-09
   42.06000     -2.6474130E-09
   42.12000     -2.9060747E-09
   42.18000     -3.0911353E-09
   42.24000     -3.2232450E-09
   42.30000     -3.3490246E-09
   42.36000     -3.5244700E-09
   42.42000     -3.7934162E-09
   42.48000     -4.1698738E-09
   42.54000     -4.6313562E-09
   42.60000     -5.1255422E-09
   42.66000     -5.5869331E-09
   42.72000     -5.9560992E-09
   42.78000     -6.1934187E-09
   42.84000     -6.2820202E-09
   42.90000     -6.2195249E-09
   42.96000     -6.0027801E-09
   43.02000     -5.6121450E-09
   43.08000     -5.0011626E-09
   43.14000     -4.0943688E-09
   43.20000     -2.7922176E-09
   43.26000     -9.7935837E-10
   43.32000      1.4681500E-09
   43.38000      4.6799036E-09
   43.44000      8.7935179E-09
   43.50000      1.3961385E-08
   43.56000      2.0359964E-08
   43.62000      2.8199837E-08
   43.68000      3.7735472E-08
   43.74000      4.9274433E-08
   43.80000      6.3186228E-08
   43.86000      7.9911288E-08
   43.92000      9.9970656E-08
   43.98000      1.2397709E-07
   44.04000      1.5264858E-07
   44.10000      1.8682481E-07
   44.16000      2.2748708E-07
   44.22000      2.7578136E-07
   44.28000      3.3304329E-07
   44.34000      4.0082443E-07
   44.40000      4.8091920E-07
   44.46000      5.7539239E-07
   44.52000      6.8660933E-07
   44.58000      8.1726972E-07
   44.64000      9.7044813E-07
   44.70000      1.1496406E-06
   44.76000      1.3588201E-06
   44.82000      1.6024961E-06
   44.88000      1.8857802E-06
   44.94000      2.2144548E-06
   45.00000      2.5950433E-06
   45.06000      3.0348826E-06
   45.12000      3.5422013E-06
   45.18000      4.1262019E-06
   45.24000      4.7971484E-06
   45.30000      5.5664623E-06
   45.36000      6.4468186E-06
   45.42000      7.4522477E-06
   45.48000      8.5982383E-06
   45.54000      9.9018398E-06
   45.60000      1.1381768E-05
   45.66000      1.3058515E-05
   45.72000      1.4954455E-05
   45.78000      1.7093951E-05
   45.84000      1.9503459E-05
   45.90000      2.2211609E-05
   45.96000      2.5249290E-05
   46.02000      2.8649702E-05
   46.08000      3.2448410E-05
   46.14000      3.6683388E-05
   46.20000      4.1395058E-05
   46.26000      4.6626290E-05
   46.32000      5.2422416E-05
   46.38000      5.8831196E-05
   46.44000      6.5902765E-05
   46.50000      7.3689502E-05
   46.56000      8.2245911E-05
   46.62000      9.1628455E-05
   46.68000      1.0189533E-04
   46.74000      1.1310623E-04
   46.80000      1.2532213E-04
   46.86000      1.3860491E-04
   46.92000      1.5301713E-04
   46.98000      1.6862153E-04
   47.04000      1.8548063E-04
   47.10000      2.0365627E-04
   47.16000      2.2320889E-04
   47.22000      2.4419720E-04
   47.28000      2.6667735E-04
   47.34000      2.9070253E-04
   47.40000      3.1632214E-04
   47.46000      3.4358128E-04
   47.52000      3.7252007E-04
   47.58000      4.0317283E-04
   47.64000      4.3556764E-04
   47.70000      4.6972532E-04
   47.76000      5.0565921E-04
   47.82000      5.4337410E-04
   47.88000      5.8286614E-04
   47.94000      6.2412169E-04
   48.00000      6.6711725E-04
   48.06000      7.1181892E-04
   48.12000      7.5818220E-04
   48.18000      8.0615142E-04
   48.24000      8.5565995E-04
   48.30000      9.0663001E-04
   48.36000      9.5897284E-04
   48.42000      1.0125886E-03
   48.48000      1.0673670E-03
   48.54000      1.1231875E-03
   48.60000      1.1799197E-03
   48.66000      1.2374244E-03
   48.72000      1.2955545E-03
   48.78000      1.3541552E-03
   48.84000      1.4130659E-03
   48.90000      1.4721208E-03
   48.96000      1.5311500E-03
   49.02000      1.5899818E-03
   49.08000      1.6484433E-03
   49.14000      1.7063621E-03
   49.20000      1.7635679E-03
   49.26000      1.8198937E-03
   49.32000      1.8751780E-03
   49.38000      1.9292657E-03
   49.44000      1.9820100E-03
   49.50000      2.0332744E-03
   49.56000      2.0829330E-03
   49.62000      2.1308721E-03
   49.68000      2.1769921E-03
   49.74000      2.2212083E-03
   49.80000      2.2634510E-03
   49.86000      2.3036678E-03
   49.92000      2.3418234E-03
   49.98000      2.3778998E-03
   50.04000      2.4118964E-03
   50.10000      2.4438296E-03
   50.16000      2.4737339E-03
   50.22000      2.5016605E-03
   50.28000      2.5276765E-03
   50.34000      2.5518651E-03
   50.40000      2.5743237E-03
   50.46000      2.5951634E-03
   50.52000      2.6145063E-03
   50.58000      2.6324848E-03
   50.64000      2.6492388E-03
   50.70000      2.6649162E-03
   50.76000      2.6796679E-03
   50.82000      2.6936489E-03
   50.88000      2.7070150E-03
   50.94000      2.7199201E-03
   51.00000      2.7325146E-03
   51.06000      2.7449434E-03
   51.12000      2.7573435E-03
   51.18000      2.7698437E-03
   51.24000      2.7825614E-03
   51.30000      2.7956024E-03
   51.36000      2.8090582E-03
   51.42000      2.8230052E-03
   51.48000      2.8375050E-03
   51.54000      2.8526019E-03
   51.60000      2.8683236E-03
   51.66000      2.8846811E-03
   51.72000      2.9016677E-03
   51.78000      2.9192592E-03
   51.84000      2.9374163E-03
   51.90000      2.9560830E-03
   51.96000      2.9751891E-03
   52.02000      2.9946510E-03
   52.08000      3.0143729E-03
   52.14000      3.0342487E-03
   52.20000      3.0541627E-03
   52.26000      3.0739922E-03
   52.32000      3.0936103E-03
   52.38000      3.1128856E-03
   52.44000      3.1316862E-03
   52.50000      3.1498815E-03
   52.56000      3.1673429E-03
   52.62000      3.1839472E-03
   52.68000      3.1995769E-03
   52.74000      3.2141234E-03
   52.80000      3.2274874E-03
   52.86000      3.2395811E-03
   52.92000      3.2503291E-03
   52.98000      3.2596695E-03
   53.04000      3.2675555E-03
   53.10000      3.2739544E-03
   53.16000      3.2788487E-03
   53.22000      3.2822362E-03
   53.28000      3.2841298E-03
   53.34000      3.2845573E-03
   53.40000      3.2835600E-03
   53.46000      3.2811931E-03
   53.52000      3.2775239E-03
   53.58000      3.2726310E-03
   53.64000      3.2666018E-03
   53.70000      3.2595331E-03
   53.76000      3.2515277E-03
   53.82000      3.2426927E-03
   53.88000      3.2331387E-03
   53.94000      3.2229768E-03
   54.00000      3.2123171E-03
   54.06000      3.2012684E-03
   54.12000      3.1899335E-03
   54.18000      3.1784105E-03
   54.24000      3.1667901E-03
   54.30000      3.1551537E-03
   54.36000      3.1435720E-03
   54.42000      3.1321039E-03
   54.48000      3.1207970E-03
   54.54000      3.1096847E-03
   54.60000      3.0987875E-03
   54.66000      3.0881122E-03
   54.72000      3.0776518E-03
   54.78000      3.0673856E-03
   54.84000      3.0572796E-03
   54.90000      3.0472877E-03
   54.96000      3.0373510E-03
   55.02000      3.0273995E-03
   55.08000      3.0173543E-03
   55.14000      3.0071263E-03
   55.20000      2.9966210E-03
   55.26000      2.9857373E-03
   55.32000      2.9743712E-03
   55.38000      2.9624160E-03
   55.44000      2.9497650E-03
   55.50000      2.9363120E-03
   55.56000      2.9219536E-03