  -2.400000      0.0000000E+00
  -2.340000      0.0000000E+00
  -2.280000      0.0000000E+00
  -2.220000      0.0000000E+00
  -2.160000      0.0000000E+00
  -2.100000      2.7194173E-19
  -2.040000      1.7892862E-18
  -1.980000      5.3793710E-18
  -1.920000      8.2011062E-18
  -1.860000      9.4508752E-20
  -1.800000     -3.2173686E-17
  -1.740000     -8.6189235E-17
  -1.680000     -1.1921183E-16
  -1.620000     -4.7737596E-17
  -1.560000      1.9408856E-16
  -1.500000      5.3974660E-16
  -1.440000      6.9580977E-16
  -1.380000      2.0328605E-16
  -1.320000     -1.2433878E-15
  -1.260000     -3.2884481E-15
  -1.200000     -4.5356713E-15
  -1.140000     -2.7696050E-15
  -1.080000      3.8987334E-15
  -1.020000      1.5168026E-14
 -0.9600000      2.6900064E-14
 -0.9000000      3.1101464E-14
 -0.8400000      1.8653182E-14
 -0.7800000     -1.5372003E-14
 -0.7200000     -6.5852238E-14
 -0.6600000     -1.1476569E-13
 -0.6000000     -1.3478908E-13
 -0.5400000     -1.0038635E-13
 -0.4800000     -3.2288536E-15
 -0.4200000      1.3532600E-13
 -0.3600000      2.6339402E-13
 -0.3000000      3.1479414E-13
 -0.2400000      2.3994110E-13
 -0.1800000      3.9490716E-14
 -0.1200000     -2.1735012E-13
 -5.9999999E-02 -4.0596885E-13
  0.0000000E+00 -3.9520020E-13
  5.9999999E-02 -1.1772111E-13
  0.1200000      3.6895874E-13
  0.1800000      8.6711508E-13
  0.2400000      1.0924619E-12
  0.3000000      7.9093009E-13
  0.3600000     -1.2225069E-13
  0.4200000     -1.4653889E-12
  0.4800000     -2.7956645E-12
  0.5400000     -3.5416281E-12
  0.6000000     -3.2298975E-12
  0.6600000     -1.7182254E-12
  0.7200000      6.7616914E-13
  0.7800000      3.2367722E-12
  0.8400000      5.1050605E-12
  0.9000000      5.6482826E-12
  0.9600000      4.7794412E-12
   1.020000      3.0633319E-12
   1.080000      1.5147035E-12
   1.140000      1.1264466E-12
   1.200000      2.3040909E-12
   1.260000      4.4625796E-12
   1.320000      6.0148770E-12
   1.380000      4.8450033E-12
   1.440000     -8.4287753E-13
   1.500000     -1.1590517E-11
   1.560000     -2.6039179E-11
   1.620000     -4.0876007E-11
   1.680000     -5.1477763E-11
   1.740000     -5.3097419E-11
   1.800000     -4.2227027E-11
   1.860000     -1.7696084E-11
   1.920000      1.8836689E-11
   1.980000      6.3108262E-11
   2.040000      1.0903624E-10
   2.100000      1.4972204E-10
   2.160000      1.7830906E-10
   2.220000      1.8848437E-10
   2.280000      1.7466811E-10
   2.340000      1.3217430E-10
   2.400000      5.7730001E-11
   2.460000     -4.9357889E-11
   2.520000     -1.8538043E-10
   2.580000     -3.4010367E-10
   2.640000     -4.9500165E-10
   2.700000     -6.2261463E-10
   2.760000     -6.8765271E-10
   2.820000     -6.5008610E-10
   2.880000     -4.6995002E-10
   2.940000     -1.1310829E-10
   3.000000      4.4310483E-10
   3.060000      1.2054894E-09
   3.120000      2.1627271E-09
   3.180000      3.2857006E-09
   3.240000      4.5302615E-09
   3.300000      5.8418088E-09
   3.360000      7.1607196E-09
   3.420000      8.4276470E-09
   3.480000      9.5879074E-09
   3.540000      1.0594631E-08
   3.600000      1.1410752E-08
   3.660000      1.2010273E-08
   3.720000      1.2379191E-08
   3.780000      1.2516330E-08
   3.840000      1.2433852E-08
   3.900000      1.2156924E-08
   3.960000      1.1721949E-08
   4.020000      1.1173015E-08
   4.080000      1.0556823E-08
   4.140000      9.9169437E-09
   4.200000      9.2886685E-09
   4.260000      8.6957268E-09
   4.320000      8.1495468E-09
   4.380000      7.6510034E-09
   4.440000      7.1937878E-09
   4.500000      6.7681265E-09
   4.560000      6.3637020E-09
   4.620000      5.9712226E-09
   4.680000      5.5828568E-09
   4.740000      5.1923306E-09
   4.800000      4.7955777E-09
   4.860000      4.3924135E-09
   4.920000      3.9889123E-09
   4.980000      3.5994767E-09
   5.040000      3.2472776E-09
   5.100000      2.9620959E-09
   5.160000      2.7754492E-09
   5.220000      2.7139702E-09
   5.280000      2.7928106E-09
   5.340000      3.0110805E-09
   5.400000      3.3508332E-09
   5.460000      3.7800656E-09
   5.520000      4.2589918E-09
   5.580000      4.7478985E-09
   5.640000      5.2144915E-09
   5.700000      5.6389382E-09
   5.760000      6.0156311E-09
   5.820000      6.3517298E-09
   5.880000      6.6634587E-09
   5.940000      6.9716277E-09
   6.000000      7.2977708E-09
   6.060000      7.6617219E-09
   6.120000      8.0806455E-09
   6.180000      8.5687795E-09
   6.240000      9.1368824E-09
   6.300000      9.7905488E-09
   6.360000      1.0527301E-08
   6.420000      1.1333246E-08
   6.480000      1.2180764E-08
   6.540000      1.3028750E-08
   6.600000      1.3826424E-08
   6.660000      1.4520591E-08
   6.720000      1.5065027E-08
   6.780000      1.5429666E-08
   6.840000      1.5607002E-08
   6.900000      1.5613542E-08
   6.960000      1.5485396E-08
   7.020000      1.5268689E-08
   7.080000      1.5007123E-08
   7.140000      1.4730062E-08
   7.200000      1.4444683E-08
   7.260000      1.4134638E-08
   7.320000      1.3765770E-08
   7.380000      1.3297091E-08
   7.440000      1.2693456E-08
   7.500000      1.1935772E-08
   7.560000      1.1025594E-08
   7.620000      9.9830864E-09
   7.680000      8.8398027E-09
   7.740000      7.6294446E-09
   7.800000      6.3800831E-09
   7.860000      5.1101789E-09
   7.920000      3.8288070E-09
   7.980000      2.5387756E-09
   8.040000      1.2405259E-09
   8.100000     -6.4916565E-11
   8.160000     -1.3745637E-09
   8.220000     -2.6831697E-09
   8.280000     -3.9830934E-09
   8.340000     -5.2637210E-09
   8.400000     -6.5106636E-09
   8.460000     -7.7056335E-09
   8.520000     -8.8279268E-09
   8.580000     -9.8578106E-09
   8.640000     -1.0781053E-08
   8.700000     -1.1593047E-08
   8.760000     -1.2300818E-08
   8.820000     -1.2921836E-08
   8.880000     -1.3479762E-08
   8.940000     -1.3998339E-08
   9.000000     -1.4495357E-08
   9.060000     -1.4978475E-08
   9.120000     -1.5443947E-08
   9.180000     -1.5878225E-08
   9.240000     -1.6261613E-08
   9.300000     -1.6572686E-08
   9.360000     -1.6792486E-08
   9.420000     -1.6907917E-08
   9.480000     -1.6914287E-08
   9.540000     -1.6817079E-08
   9.600000     -1.6632789E-08
   9.660000     -1.6388318E-08
   9.720000     -1.6118211E-08
   9.780000     -1.5859364E-08
   9.840000     -1.5643753E-08
   9.900000     -1.5490738E-08
   9.960000     -1.5401286E-08
   10.02000     -1.5356379E-08
   10.08000     -1.5320731E-08
   10.14000     -1.5251215E-08
   10.20000     -1.5107586E-08
   10.26000     -1.4862080E-08
   10.32000     -1.4504767E-08
   10.38000     -1.4043051E-08
   10.44000     -1.3495889E-08
   10.50000     -1.2885256E-08
   10.56000     -1.2228210E-08
   10.62000     -1.1532323E-08
   10.68000     -1.0795642E-08
   10.74000     -1.0010265E-08
   10.80000     -9.1673975E-09
   10.86000     -8.2615630E-09
   10.92000     -7.2925856E-09
   10.98000     -6.2653989E-09
   11.04000     -5.1887348E-09
   11.10000     -4.0738697E-09
   11.16000     -2.9338878E-09
   11.22000     -1.7830372E-09
   11.28000     -6.3535838E-10
   11.34000      4.9775073E-10
   11.40000      1.6103228E-09
   11.46000      2.7034097E-09
   11.52000      3.7840064E-09
   11.58000      4.8610085E-09
   11.64000      5.9395990E-09
   11.70000      7.0166473E-09
   11.76000      8.0795957E-09
   11.82000      9.1098062E-09
   11.88000      1.0089127E-08
   11.94000      1.1006817E-08
   12.00000      1.1863720E-08
   12.06000      1.2671936E-08
   12.12000      1.3450496E-08
   12.18000      1.4219333E-08
   12.24000      1.4994470E-08
   12.30000      1.5786345E-08
   12.36000      1.6601321E-08
   12.42000      1.7444663E-08
   12.48000      1.8322615E-08
   12.54000      1.9241888E-08
   12.60000      2.0206503E-08
   12.66000      2.1213786E-08
   12.72000      2.2251980E-08
   12.78000      2.3301579E-08
   12.84000      2.4340634E-08
   12.90000      2.5352216E-08
   12.96000      2.6330762E-08
   13.02000      2.7284178E-08
   13.08000      2.8230211E-08
   13.14000      2.9188271E-08
   13.20000      3.0170145E-08
   13.26000      3.1173716E-08
   13.32000      3.2182477E-08
   13.38000      3.3170988E-08
   13.44000      3.4113537E-08
   13.50000      3.4991988E-08
   13.56000      3.5799651E-08
   13.62000      3.6540136E-08
   13.68000      3.7223003E-08
   13.74000      3.7859092E-08
   13.80000      3.8457983E-08
   13.86000      3.9028041E-08
   13.92000      3.9577476E-08
   13.98000      4.0114205E-08
   14.04000      4.0643286E-08
   14.10000      4.1162799E-08
   14.16000      4.1660481E-08
   14.22000      4.2113822E-08
   14.28000      4.2494538E-08
   14.34000      4.2776204E-08
   14.40000      4.2941867E-08
   14.46000      4.2988379E-08
   14.52000      4.2925734E-08
   14.58000      4.2771894E-08
   14.64000      4.2545565E-08
   14.70000      4.2259913E-08
   14.76000      4.1919414E-08
   14.82000      4.1520341E-08
   14.88000      4.1053873E-08
   14.94000      4.0510159E-08
   15.00000      3.9881701E-08
   15.06000      3.9165332E-08
   15.12000      3.8362700E-08
   15.18000      3.7479751E-08
   15.24000      3.6525606E-08
   15.30000      3.5511238E-08
   15.36000      3.4447975E-08
   15.42000      3.3346044E-08
   15.48000      3.2213478E-08
   15.54000      3.1055755E-08
   15.60000      2.9876531E-08
   15.66000      2.8679322E-08
   15.72000      2.7469589E-08
   15.78000      2.6256167E-08
   15.84000      2.5051156E-08
   15.90000      2.3867875E-08
   15.96000      2.2717504E-08
   16.02000      2.1605819E-08
   16.08000      2.0531681E-08
   16.14000      1.9488384E-08
   16.20000      1.8467585E-08
   16.26000      1.7464364E-08
   16.32000      1.6481138E-08
   16.38000      1.5528645E-08
   16.44000      1.4623507E-08
   16.50000      1.3783462E-08
   16.56000      1.3022380E-08
   16.62000      1.2347076E-08
   16.68000      1.1756859E-08
   16.74000      1.1245326E-08
   16.80000      1.0802936E-08
   16.86000      1.0419017E-08
   16.92000      1.0082623E-08
   16.98000      9.7828545E-09
   17.04000      9.5096375E-09
   17.10000      9.2556123E-09
   17.16000      9.0186791E-09
   17.22000      8.8037488E-09
   17.28000      8.6221226E-09
   17.34000      8.4878140E-09
   17.40000      8.4117344E-09
   17.46000      8.3960439E-09
   17.52000      8.4312681E-09
   17.58000      8.4978300E-09
   17.64000      8.5716465E-09
   17.70000      8.6316003E-09
   17.76000      8.6657215E-09
   17.82000      8.6734335E-09
   17.88000      8.6629308E-09
   17.94000      8.6448440E-09
   18.00000      8.6248546E-09
   18.06000      8.5982821E-09
   18.12000      8.5486764E-09
   18.18000      8.4508285E-09
   18.24000      8.2769027E-09
   18.30000      8.0034681E-09
   18.36000      7.6171531E-09
   18.42000      7.1174293E-09
   18.48000      6.5161090E-09
   18.54000      5.8341518E-09
   18.60000      5.0968509E-09
   18.66000      4.3285739E-09
   18.72000      3.5480032E-09
   18.78000      2.7645741E-09
   18.84000      1.9766158E-09
   18.90000      1.1715702E-09
   18.96000      3.2844227E-10
   19.02000     -5.7780963E-10
   19.08000     -1.5708032E-09
   19.14000     -2.6675255E-09
   19.20000     -3.8748462E-09
   19.26000     -5.1887632E-09
   19.32000     -6.5965109E-09
   19.38000     -8.0807245E-09
   19.44000     -9.6242303E-09
   19.50000     -1.1214104E-08
   19.56000     -1.2844167E-08
   19.62000     -1.4515809E-08
   19.68000     -1.6237536E-08
   19.74000     -1.8023593E-08
   19.80000     -1.9891822E-08
   19.86000     -2.1860719E-08
   19.92000     -2.3945971E-08
   19.98000     -2.6157288E-08
   20.04000     -2.8496840E-08
   20.10000     -3.0960273E-08
   20.16000     -3.3540360E-08
   20.22000     -3.6231686E-08
   20.28000     -3.9033768E-08
   20.34000     -4.1950234E-08
   20.40000     -4.4983331E-08
   20.46000     -4.8125465E-08
   20.52000     -5.1351531E-08
   20.58000     -5.4615910E-08
   20.64000     -5.7856436E-08
   20.70000     -6.1004457E-08
   20.76000     -6.3997270E-08
   20.82000     -6.6788175E-08
   20.88000     -6.9350200E-08
   20.94000     -7.1672730E-08
   21.00000     -7.3753021E-08
   21.06000     -7.5586620E-08
   21.12000     -7.7160244E-08
   21.18000     -7.8449482E-08
   21.24000     -7.9420531E-08
   21.30000     -8.0034162E-08
   21.36000     -8.0249833E-08
   21.42000     -8.0028755E-08
   21.48000     -7.9336381E-08
   21.54000     -7.8145675E-08
   21.60000     -7.6441992E-08
   21.66000     -7.4229085E-08
   21.72000     -7.1534487E-08
   21.78000     -6.8411588E-08
   21.84000     -6.4936273E-08
   21.90000     -6.1198108E-08
   21.96000     -5.7287593E-08
   22.02000     -5.3283298E-08
   22.08000     -4.9242484E-08
   22.14000     -4.5198050E-08
   22.20000     -4.1162274E-08
   22.26000     -3.7135678E-08
   22.32000     -3.3117821E-08
   22.38000     -2.9116485E-08
   22.44000     -2.5152847E-08
   22.50000     -2.1261741E-08
   22.56000     -1.7487743E-08
   22.62000     -1.3878858E-08
   22.68000     -1.0479646E-08
   22.74000     -7.3253137E-09
   22.80000     -4.4376325E-09
   22.86000     -1.8231714E-09
   22.92000      5.2593918E-10
   22.98000      2.6286515E-09
   23.04000      4.5094226E-09
   23.10000      6.1914562E-09
   23.16000      7.6904714E-09
   23.22000      9.0109289E-09
   23.28000      1.0146075E-08
   23.34000      1.1081791E-08
   23.40000      1.1802687E-08
   23.46000      1.2297777E-08
   23.52000      1.2563179E-08
   23.58000      1.2600585E-08
   23.64000      1.2412277E-08
   23.70000      1.1995201E-08
   23.76000      1.1337237E-08
   23.82000      1.0417935E-08
   23.88000      9.2140766E-09
   23.94000      7.7082971E-09
   24.00000      5.8977041E-09
   24.06000      3.7994936E-09
   24.12000      1.4517904E-09
   24.18000     -1.0902363E-09
   24.24000     -3.7614813E-09
   24.30000     -6.4951071E-09
   24.36000     -9.2300487E-09
   24.42000     -1.1916800E-08
   24.48000     -1.4521230E-08
   24.54000     -1.7026339E-08
   24.60000     -1.9431754E-08
   24.66000     -2.1750417E-08
   24.72000     -2.4002176E-08
   24.78000     -2.6204772E-08
   24.84000     -2.8363996E-08
   24.90000     -3.0465802E-08
   24.96000     -3.2473356E-08
   25.02000     -3.4330867E-08
   25.08000     -3.5973951E-08
   25.14000     -3.7343810E-08
   25.20000     -3.8401051E-08
   25.26000     -3.9134793E-08
   25.32000     -3.9564476E-08
   25.38000     -3.9734225E-08
   25.44000     -3.9702250E-08
   25.50000     -3.9529198E-08
   25.56000     -3.9268922E-08
   25.62000     -3.8963879E-08
   25.68000     -3.8644902E-08
   25.74000     -3.8333560E-08
   25.80000     -3.8044586E-08
   25.86000     -3.7786513E-08
   25.92000     -3.7559889E-08
   25.98000     -3.7353928E-08
   26.04000     -3.7143504E-08
   26.10000     -3.6888316E-08
   26.16000     -3.6535578E-08
   26.22000     -3.6026396E-08
   26.28000     -3.5304929E-08
   26.34000     -3.4328412E-08
   26.40000     -3.3076098E-08
   26.46000     -3.1555125E-08
   26.52000     -2.9802230E-08
   26.58000     -2.7880944E-08
   26.64000     -2.5874812E-08
   26.70000     -2.3877782E-08
   26.76000     -2.1983190E-08
   26.82000     -2.0272944E-08
   26.88000     -1.8808340E-08
   26.94000     -1.7623735E-08
   27.00000     -1.6723913E-08
   27.06000     -1.6085270E-08
   27.12000     -1.5660397E-08
   27.18000     -1.5384940E-08
   27.24000     -1.5185407E-08
   27.30000     -1.4986766E-08
   27.36000     -1.4719137E-08
   27.42000     -1.4323477E-08
   27.48000     -1.3756298E-08
   27.54000     -1.2993335E-08
   27.60000     -1.2031580E-08
   27.66000     -1.0888793E-08
   27.72000     -9.5998223E-09
   27.78000     -8.2099270E-09
   27.84000     -6.7664043E-09
   27.90000     -5.3107563E-09
   27.96000     -3.8735588E-09
   28.02000     -2.4733144E-09
   28.08000     -1.1189543E-09
   28.14000      1.8576758E-10
   28.20000      1.4382940E-09
   28.26000      2.6354308E-09
   28.32000      3.7739363E-09
   28.38000      4.8523026E-09
   28.44000      5.8717240E-09
   28.50000      6.8346546E-09
   28.56000      7.7407494E-09
   28.62000      8.5816323E-09
   28.68000      9.3369250E-09
   28.74000      9.9738067E-09
   28.80000      1.0451054E-08
   28.86000      1.0726718E-08
   28.92000      1.0767160E-08
   28.98000      1.0554805E-08
   29.04000      1.0092699E-08
   29.10000      9.4053245E-09
   29.16000      8.5364187E-09
   29.22000      7.5450854E-09
   29.28000      6.5011672E-09
   29.34000      5.4801599E-09
   29.40000      4.5572559E-09
   29.46000      3.8001930E-09
   29.52000      3.2612615E-09
   29.58000      2.9698215E-09
   29.64000      2.9273357E-09
   29.70000      3.1067569E-09
   29.76000      3.4570424E-09
   29.82000      3.9120089E-09
   29.88000      4.4013095E-09
   29.94000      4.8606585E-09
   30.00000      5.2388121E-09
   30.06000      5.5000382E-09
   30.12000      5.6223994E-09
   30.18000      5.5934577E-09
   30.24000      5.4055649E-09
   30.30000      5.0525788E-09
   30.36000      4.5289195E-09
   30.42000      3.8308001E-09
   30.48000      2.9586753E-09
   30.54000      1.9196995E-09
   30.60000      7.2918649E-10
   30.66000     -5.8948674E-10
   30.72000     -2.0066573E-09
   30.78000     -3.4896424E-09
   30.84000     -5.0070295E-09
   30.90000     -6.5332060E-09
   30.96000     -8.0519822E-09
   31.02000     -9.5579988E-09
   31.08000     -1.1054926E-08
   31.14000     -1.2550403E-08
   31.20000     -1.4049011E-08
   31.26000     -1.5545663E-08
   31.32000     -1.7022069E-08
   31.38000     -1.8447954E-08
   31.44000     -1.9786834E-08
   31.50000     -2.1004286E-08
   31.56000     -2.2075641E-08
   31.62000     -2.2990546E-08
   31.68000     -2.3753483E-08
   31.74000     -2.4381290E-08
   31.80000     -2.4899737E-08
   31.86000     -2.5341009E-08
   31.92000     -2.5742438E-08
   31.98000     -2.6145495E-08
   32.04000     -2.6593353E-08
   32.10000     -2.7126186E-08
   32.16000     -2.7774897E-08
   32.22000     -2.8555416E-08
   32.28000     -2.9465939E-08
   32.34000     -3.0488291E-08
   32.40000     -3.1592709E-08
   32.46000     -3.2743792E-08
   32.52000     -3.3905049E-08
   32.58000     -3.5040653E-08
   32.64000     -3.6114663E-08
   32.70000     -3.7089478E-08
   32.76000     -3.7925446E-08
   32.82000     -3.8582634E-08
   32.88000     -3.9024442E-08
   32.94000     -3.9221778E-08
   33.00000     -3.9156518E-08
   33.06000     -3.8823703E-08
   33.12000     -3.8232606E-08
   33.18000     -3.7407165E-08
   33.24000     -3.6385643E-08
   33.30000     -3.5218829E-08
   33.36000     -3.3965854E-08
   33.42000     -3.2687431E-08
   33.48000     -3.1437629E-08
   33.54000     -3.0256523E-08
   33.60000     -2.9166326E-08
   33.66000     -2.8172582E-08
   33.72000     -2.7269968E-08
   33.78000     -2.6450511E-08
   33.84000     -2.5711035E-08
   33.90000     -2.5057247E-08
   33.96000     -2.4503473E-08
   34.02000     -2.4068811E-08
   34.08000     -2.3771667E-08
   34.14000     -2.3624610E-08
   34.20000     -2.3630818E-08
   34.26000     -2.3782276E-08
   34.32000     -2.4059382E-08
   34.38000     -2.4431598E-08
   34.44000     -2.4859208E-08
   34.50000     -2.5296631E-08
   34.56000     -2.5697480E-08
   34.62000     -2.6020967E-08
   34.68000     -2.6238247E-08
   34.74000     -2.6336886E-08
   34.80000     -2.6321898E-08
   34.86000     -2.6212829E-08
   34.92000     -2.6037881E-08
   34.98000     -2.5827163E-08
   35.04000     -2.5607479E-08
   35.10000     -2.5400183E-08
   35.16000     -2.5222214E-08
   35.22000     -2.5088815E-08
   35.28000     -2.5015812E-08
   35.34000     -2.5019688E-08
   35.40000     -2.5115057E-08
   35.46000     -2.5310714E-08
   35.52000     -2.5606330E-08
   35.58000     -2.5991559E-08
   35.64000     -2.6448127E-08
   35.70000     -2.6953778E-08
   35.76000     -2.7486218E-08
   35.82000     -2.8025307E-08
   35.88000     -2.8553115E-08
   35.94000     -2.9052924E-08
   36.00000     -2.9508877E-08
   36.06000     -2.9907515E-08
   36.12000     -3.0240937E-08
   36.18000     -3.0509810E-08
   36.24000     -3.0724131E-08
   36.30000     -3.0900370E-08
   36.36000     -3.1055709E-08
   36.42000     -3.1201655E-08
   36.48000     -3.1339905E-08
   36.54000     -3.1462299E-08
   36.60000     -3.1554606E-08
   36.66000     -3.1602116E-08
   36.72000     -3.1594215E-08
   36.78000     -3.1526042E-08
   36.84000     -3.1397157E-08
   36.90000     -3.1208874E-08
   36.96000     -3.0962482E-08
   37.02000     -3.0659820E-08
   37.08000     -3.0305912E-08
   37.14000     -2.9912016E-08
   37.20000     -2.9496841E-08
   37.26000     -2.9084809E-08
   37.32000     -2.8701837E-08
   37.38000     -2.8370648E-08
   37.44000     -2.8107936E-08
   37.50000     -2.7924747E-08
   37.56000     -2.7829532E-08
   37.62000     -2.7831710E-08
   37.68000     -2.7943150E-08
   37.74000     -2.8175927E-08
   37.80000     -2.8536924E-08
   37.86000     -2.9021656E-08
   37.92000     -2.9610604E-08
   37.98000     -3.0270357E-08
   38.04000     -3.0959779E-08
   38.10000     -3.1638987E-08
   38.16000     -3.2277740E-08
   38.22000     -3.2860129E-08
   38.28000     -3.3384321E-08
   38.34000     -3.3858296E-08
   38.40000     -3.4293823E-08
   38.46000     -3.4701181E-08
   38.52000     -3.5085854E-08
   38.58000     -3.5447115E-08
   38.64000     -3.5777855E-08
   38.70000     -3.6065096E-08
   38.76000     -3.6291677E-08
   38.82000     -3.6439971E-08
   38.88000     -3.6497887E-08
   38.94000     -3.6465913E-08
   39.00000     -3.6362248E-08
   39.06000     -3.6222719E-08
   39.12000     -3.6093581E-08
   39.18000     -3.6018307E-08
   39.24000     -3.6022506E-08
   39.30000     -3.6102847E-08
   39.36000     -3.6224701E-08
   39.42000     -3.6329983E-08
   39.48000     -3.6352571E-08
   39.54000     -3.6235722E-08
   39.60000     -3.5945259E-08
   39.66000     -3.5474759E-08
   39.72000     -3.4842287E-08
   39.78000     -3.4081552E-08
   39.84000     -3.3231686E-08
   39.90000     -3.2329140E-08
   39.96000     -3.1403086E-08
   40.02000     -3.0473753E-08
   40.08000     -2.9552224E-08
   40.14000     -2.8640795E-08
   40.20000     -2.7734163E-08
   40.26000     -2.6822416E-08
   40.32000     -2.5896348E-08
   40.38000     -2.4954232E-08
   40.44000     -2.4007498E-08
   40.50000     -2.3082325E-08
   40.56000     -2.2215339E-08
   40.62000     -2.1443975E-08
   40.68000     -2.0794912E-08
   40.74000     -2.0275090E-08
   40.80000     -1.9869226E-08
   40.86000     -1.9544913E-08
   40.92000     -1.9263251E-08
   40.98000     -1.8990558E-08
   41.04000     -1.8706650E-08
   41.10000     -1.8406988E-08
   41.16000     -1.8099023E-08
   41.22000     -1.7795488E-08
   41.28000     -1.7508187E-08
   41.34000     -1.7244780E-08
   41.40000     -1.7008917E-08
   41.46000     -1.6802263E-08
   41.52000     -1.6626316E-08
   41.58000     -1.6482780E-08
   41.64000     -1.6372733E-08
   41.70000     -1.6295957E-08
   41.76000     -1.6251798E-08
   41.82000     -1.6241721E-08
   41.88000     -1.6272260E-08
   41.94000     -1.6356331E-08
   42.00000     -1.6511391E-08
   42.06000     -1.6754596E-08
   42.12000     -1.7096951E-08
   42.18000     -1.7539261E-08
   42.24000     -1.8071999E-08
   42.30000     -1.8679289E-08
   42.36000     -1.9344988E-08
   42.42000     -2.0057744E-08
   42.48000     -2.0812472E-08
   42.54000     -2.1607594E-08
   42.60000     -2.2439830E-08
   42.66000     -2.3299638E-08
   42.72000     -2.4170227E-08
   42.78000     -2.5031111E-08
   42.84000     -2.5864825E-08
   42.90000     -2.6663599E-08
   42.96000     -2.7432892E-08
   43.02000     -2.8190149E-08
   43.08000     -2.8959663E-08
   43.14000     -2.9766348E-08
   43.20000     -3.0631561E-08
   43.26000     -3.1572966E-08
   43.32000     -3.2608046E-08
   43.38000     -3.3759093E-08
   43.44000     -3.5056807E-08
   43.50000     -3.6540641E-08
   43.56000     -3.8256047E-08
   43.62000     -4.0250558E-08
   43.68000     -4.2571255E-08
   43.74000     -4.5265374E-08
   43.80000     -4.8384116E-08
   43.86000     -5.1988067E-08
   43.92000     -5.6152267E-08
   43.98000     -6.0969604E-08
   44.04000     -6.6552637E-08
   44.10000     -7.3035082E-08
   44.16000     -8.0574374E-08
   44.22000     -8.9355765E-08
   44.28000     -9.9597500E-08
   44.34000     -1.1155567E-07
   44.40000     -1.2552802E-07
   44.46000     -1.4185679E-07
   44.52000     -1.6093216E-07
   44.58000     -1.8319811E-07
   44.64000     -2.0916106E-07
   44.70000     -2.3940115E-07
   44.76000     -2.7458336E-07
   44.82000     -3.1546654E-07
   44.88000     -3.6290888E-07
   44.94000     -4.1787087E-07
   45.00000     -4.8141862E-07
   45.06000     -5.5473112E-07
   45.12000     -6.3911330E-07
   45.18000     -7.3601626E-07
   45.24000     -8.4706215E-07
   45.30000     -9.7406939E-07
   45.36000     -1.1190767E-06
   45.42000     -1.2843639E-06
   45.48000     -1.4724661E-06
   45.54000     -1.6861868E-06
   45.60000     -1.9286063E-06
   45.66000     -2.2030897E-06
   45.72000     -2.5132963E-06
   45.78000     -2.8631855E-06
   45.84000     -3.2570283E-06
   45.90000     -3.6994195E-06
   45.96000     -4.1952931E-06
   46.02000     -4.7499398E-06
   46.08000     -5.3690269E-06
   46.14000     -6.0586085E-06
   46.20000     -6.8251356E-06
   46.26000     -7.6754495E-06
   46.32000     -8.6167747E-06
   46.38000     -9.6567055E-06
   46.44000     -1.0803188E-05
   46.50000     -1.2064504E-05
   46.56000     -1.3449241E-05
   46.62000     -1.4966276E-05
   46.68000     -1.6624730E-05
   46.74000     -1.8433939E-05
   46.80000     -2.0403408E-05
   46.86000     -2.2542761E-05
   46.92000     -2.4861687E-05
   46.98000     -2.7369868E-05
   47.04000     -3.0076917E-05
   47.10000     -3.2992295E-05
   47.16000     -3.6125228E-05
   47.22000     -3.9484599E-05
   47.28000     -4.3078864E-05
   47.34000     -4.6915946E-05
   47.40000     -5.1003117E-05
   47.46000     -5.5346929E-05
   47.52000     -5.9953101E-05
   47.58000     -6.4826425E-05
   47.64000     -6.9970658E-05
   47.70000     -7.5388423E-05
   47.76000     -8.1081096E-05
   47.82000     -8.7048742E-05
   47.88000     -9.3290029E-05
   47.94000     -9.9802142E-05
   48.00000     -1.0658067E-04
   48.06000     -1.1361959E-04
   48.12000     -1.2091119E-04
   48.18000     -1.2844610E-04
   48.24000     -1.3621317E-04
   48.30000     -1.4419958E-04
   48.36000     -1.5239086E-04
   48.42000     -1.6077078E-04
   48.48000     -1.6932169E-04
   48.54000     -1.7802435E-04
   48.60000     -1.8685819E-04
   48.66000     -1.9580136E-04
   48.72000     -2.0483085E-04
   48.78000     -2.1392271E-04
   48.84000     -2.2305215E-04
   48.90000     -2.3219371E-04
   48.96000     -2.4132163E-04
   49.02000     -2.5040991E-04
   49.08000     -2.5943256E-04
   49.14000     -2.6836392E-04
   49.20000     -2.7717871E-04
   49.26000     -2.8585232E-04
   49.32000     -2.9436129E-04
   49.38000     -3.0268336E-04
   49.44000     -3.1079771E-04
   49.50000     -3.1868528E-04
   49.56000     -3.2632891E-04
   49.62000     -3.3371351E-04
   49.68000     -3.4082631E-04
   49.74000     -3.4765690E-04
   49.80000     -3.5419749E-04
   49.86000     -3.6044291E-04
   49.92000     -3.6639083E-04
   49.98000     -3.7204166E-04
   50.04000     -3.7739865E-04
   50.10000     -3.8246770E-04
   50.16000     -3.8725740E-04
   50.22000     -3.9177903E-04
   50.28000     -3.9604623E-04
   50.34000     -4.0007502E-04
   50.40000     -4.0388349E-04
   50.46000     -4.0749164E-04
   50.52000     -4.1092120E-04
   50.58000     -4.1419521E-04
   50.64000     -4.1733793E-04
   50.70000     -4.2037433E-04
   50.76000     -4.2332994E-04
   50.82000     -4.2623031E-04
   50.88000     -4.2910082E-04
   50.94000     -4.3196633E-04
   51.00000     -4.3485069E-04
   51.06000     -4.3777662E-04
   51.12000     -4.4076526E-04
   51.18000     -4.4383609E-04
   51.24000     -4.4700658E-04
   51.30000     -4.5029202E-04
   51.36000     -4.5370520E-04
   51.42000     -4.5725610E-04
   51.48000     -4.6095194E-04
   51.54000     -4.6479685E-04
   51.60000     -4.6879213E-04
   51.66000     -4.7293623E-04
   51.72000     -4.7722465E-04
   51.78000     -4.8165015E-04
   51.84000     -4.8620260E-04
   51.90000     -4.9086940E-04
   51.96000     -4.9563532E-04
   52.02000     -5.0048297E-04
   52.08000     -5.0539302E-04
   52.14000     -5.1034451E-04
   52.20000     -5.1531516E-04
   52.26000     -5.2028149E-04
   52.32000     -5.2521942E-04
   52.38000     -5.3010427E-04
   52.44000     -5.3491141E-04
   52.50000     -5.3961633E-04
   52.56000     -5.4419535E-04
   52.62000     -5.4862566E-04
   52.68000     -5.5288611E-04
   52.74000     -5.5695698E-04
   52.80000     -5.6082045E-04
   52.86000     -5.6446058E-04
   52.92000     -5.6786375E-04
   52.98000     -5.7101855E-04
   53.04000     -5.7391613E-04
   53.10000     -5.7655014E-04
   53.16000     -5.7891686E-04
   53.22000     -5.8101537E-04
   53.28000     -5.8284705E-04
   53.34000     -5.8441609E-04
   53.40000     -5.8572885E-04
   53.46000     -5.8679428E-04
   53.52000     -5.8762310E-04
   53.58000     -5.8822794E-04
   53.64000     -5.8862276E-04
   53.70000     -5.8882299E-04
   53.76000     -5.8884470E-04
   53.82000     -5.8870477E-04
   53.88000     -5.8842037E-04
   53.94000     -5.8800844E-04
   54.00000     -5.8748585E-04
   54.06000     -5.8686861E-04
   54.12000     -5.8617210E-04
   54.18000     -5.8541034E-04
   54.24000     -5.8459613E-04
   54.30000     -5.8374048E-04
   54.36000     -5.8285246E-04
   54.42000     -5.8193918E-04
   54.48000     -5.8100536E-04
   54.54000     -5.8005354E-04
   54.60000     -5.7908375E-04
   54.66000     -5.7809381E-04
   54.72000     -5.7707913E-04
   54.78000     -5.7603314E-04
   54.84000     -5.7494704E-04
   54.90000     -5.7380996E-04
   54.96000     -5.7260925E-04
   55.02000     -5.7133049E-04
   55.08000     -5.6995777E-04
   55.14000     -5.6847418E-04
   55.20000     -5.6686212E-04
   55.26000     -5.6510326E-04
   55.32000     -5.6317920E-04
   55.38000     -5.6107150E-04
   55.44000     -5.5876200E-04
   55.50000     -5.5623322E-04
   55.56000     -5.5346888E-04