  -2.400000      0.0000000E+00
  -2.340000      0.0000000E+00
  -2.280000      0.0000000E+00
  -2.220000      0.0000000E+00
  -2.160000      0.0000000E+00
  -2.100000      0.0000000E+00
  -2.040000      0.0000000E+00
  -1.980000      2.9800598E-26
  -1.920000      2.8847435E-25
  -1.860000      1.0466791E-24
  -1.800000     -2.4581308E-25
  -1.740000     -2.1318941E-23
  -1.680000     -1.2259499E-22
  -1.620000     -4.3063500E-22
  -1.560000     -1.0704569E-21
  -1.500000     -1.8315560E-21
  -1.440000     -1.4054150E-21
  -1.380000      3.6294189E-21
  -1.320000      1.9057656E-20
  -1.260000      5.0367777E-20
  -1.200000      9.4616518E-20
  -1.140000      1.2630346E-19
  -1.080000      8.2855671E-20
  -1.020000     -1.3517201E-19
 -0.9600000     -6.2645681E-19
 -0.9000000     -1.3956975E-18
 -0.8400000     -2.2146460E-18
 -0.7800000     -2.5005095E-18
 -0.7200000     -1.3344381E-18
 -0.6600000      2.2365620E-18
 -0.6000000      8.5465839E-18
 -0.5400000      1.6442647E-17
 -0.4800000      2.2625286E-17
 -0.4200000      2.1844894E-17
 -0.3600000      8.5368778E-18
 -0.3000000     -2.0051690E-17
 -0.2400000     -6.0157008E-17
 -0.1800000     -9.9159275E-17
 -0.1200000     -1.1698125E-16
 -5.9999999E-02 -9.2736443E-17
  0.0000000E+00 -1.5761778E-17
  5.9999999E-02  1.0307122E-16
  0.1200000      2.2637093E-16
  0.1800000      2.9792219E-16
  0.2400000      2.6510559E-16
  0.3000000      1.1026636E-16
  0.3600000     -1.2303631E-16
  0.4200000     -3.2696750E-16
  0.4800000     -3.6287127E-16
  0.5400000     -1.2975236E-16
  0.6000000      3.5469034E-16
  0.6600000      9.0097169E-16
  0.7200000      1.1667608E-15
  0.7800000      7.7272005E-16
  0.8400000     -5.0152440E-16
  0.9000000     -2.5094791E-15
  0.9600000     -4.6241523E-15
   1.020000     -5.8234087E-15
   1.080000     -5.0213295E-15
   1.140000     -1.5842989E-15
   1.200000      4.1539106E-15
   1.260000      1.0645424E-14
   1.320000      1.5393501E-14
   1.380000      1.5808816E-14
   1.440000      1.0455593E-14
   1.500000      1.9004424E-16
   1.560000     -1.1463738E-14
   1.620000     -1.9223477E-14
   1.680000     -1.8288334E-14
   1.740000     -7.2374434E-15
   1.800000      9.7429668E-15
   1.860000      2.2844694E-14
   1.920000      1.9825899E-14
   1.980000     -7.9388985E-15
   2.040000     -5.8599779E-14
   2.100000     -1.1552850E-13
   2.160000     -1.4898163E-13
   2.220000     -1.2540166E-13
   2.280000     -2.2752496E-14
   2.340000      1.5338021E-13
   2.400000      3.6050346E-13
   2.460000      5.2366293E-13
   2.520000      5.5628787E-13
   2.580000      3.9327100E-13
   2.640000      2.5276002E-14
   2.700000     -4.8033962E-13
   2.760000     -9.8445275E-13
   2.820000     -1.3111764E-12
   2.880000     -1.3052466E-12
   2.940000     -8.9317025E-13
   3.000000     -1.2459486E-13
   3.060000      8.2535221E-13
   3.120000      1.6989978E-12
   3.180000      2.2332865E-12
   3.240000      2.2454768E-12
   3.300000      1.6961823E-12
   3.360000      7.0540931E-13
   3.420000     -4.8553484E-13
   3.480000     -1.5924413E-12
   3.540000     -2.3770998E-12
   3.600000     -2.7129232E-12
   3.660000     -2.6036619E-12
   3.720000     -2.1517775E-12
   3.780000     -1.4946490E-12
   3.840000     -7.4016525E-13
   3.900000      6.7811574E-14
   3.960000      9.3897774E-13
   4.020000      1.8888476E-12
   4.080000      2.8812016E-12
   4.140000      3.7950298E-12
   4.200000      4.4399636E-12
   4.260000      4.6203115E-12
   4.320000      4.2208832E-12
   4.380000      3.2707899E-12
   4.440000      1.9442885E-12
   4.500000      4.8214335E-13
   4.560000     -9.4507529E-13
   4.620000     -2.3744329E-12
   4.680000     -4.1145147E-12
   4.740000     -6.6748317E-12
   4.800000     -1.0543689E-11
   4.860000     -1.5859479E-11
   4.920000     -2.2078891E-11
   4.980000     -2.7777121E-11
   5.040000     -3.0703062E-11
   5.100000     -2.8153806E-11
   5.160000     -1.7640505E-11
   5.220000      2.2817102E-12
   5.280000      3.1221890E-11
   5.340000      6.6425261E-11
   5.400000      1.0269448E-10
   5.460000      1.3284826E-10
   5.520000      1.4867663E-10
   5.580000      1.4222803E-10
   5.640000      1.0718191E-10
   5.700000      4.0043354E-11
   5.760000     -5.9048953E-11
   5.820000     -1.8600721E-10
   5.880000     -3.3295577E-10
   5.940000     -4.8875742E-10
   6.000000     -6.3974842E-10
   6.060000     -7.7054391E-10
   6.120000     -8.6484381E-10
   6.180000     -9.0625568E-10
   6.240000     -8.7921542E-10
   6.300000     -7.7011025E-10
   6.360000     -5.6865979E-10
   6.420000     -2.6951971E-10
   6.480000      1.2604932E-10
   6.540000      6.0871197E-10
   6.600000      1.1601176E-09
   6.660000      1.7528120E-09
   6.720000      2.3512490E-09
   6.780000      2.9140126E-09
   6.840000      3.3971830E-09
   6.900000      3.7585894E-09
   6.960000      3.9625165E-09
   7.020000      3.9842889E-09
   7.080000      3.8140739E-09
   7.140000      3.4592382E-09
   7.200000      2.9446896E-09
   7.260000      2.3108591E-09
   7.320000      1.6093028E-09
   7.380000      8.9632013E-10
   7.440000      2.2541989E-10
   7.500000     -3.6018921E-10
   7.560000     -8.3374285E-10
   7.620000     -1.1884584E-09
   7.680000     -1.4376169E-09
   7.740000     -1.6109677E-09
   7.800000     -1.7479825E-09
   7.860000     -1.8891875E-09
   7.920000     -2.0672652E-09
   7.980000     -2.2997440E-09
   8.040000     -2.5847868E-09
   8.100000     -2.9009428E-09
   8.160000     -3.2108483E-09
   8.220000     -3.4679819E-09
   8.280000     -3.6249110E-09
   8.340000     -3.6411669E-09
   8.400000     -3.4890821E-09
   8.460000     -3.1565035E-09
   8.520000     -2.6461699E-09
   8.580000     -1.9723945E-09
   8.640000     -1.1563367E-09
   8.700000     -2.2136791E-10
   8.760000      8.1021428E-10
   8.820000      1.9184716E-09
   8.880000      3.0852210E-09
   8.940000      4.2923074E-09
   9.000000      5.5198606E-09
   9.060000      6.7455912E-09
   9.120000      7.9457516E-09
   9.180000      9.0977954E-09
   9.240000      1.0184152E-08
   9.300000      1.1196159E-08
   9.360000      1.2137030E-08
   9.420000      1.3022952E-08
   9.480000      1.3881755E-08
   9.540000      1.4749107E-08
   9.600000      1.5662682E-08
   9.660000      1.6655218E-08
   9.720000      1.7747647E-08
   9.780000      1.8943705E-08
   9.840000      2.0227242E-08
   9.900000      2.1563119E-08
   9.960000      2.2901956E-08
   10.02000      2.4188058E-08
   10.08000      2.5369092E-08
   10.14000      2.6405447E-08
   10.20000      2.7277009E-08
   10.26000      2.7985600E-08
   10.32000      2.8552272E-08
   10.38000      2.9010062E-08
   10.44000      2.9394080E-08
   10.50000      2.9731671E-08
   10.56000      3.0035590E-08
   10.62000      3.0302211E-08
   10.68000      3.0515476E-08
   10.74000      3.0655411E-08
   10.80000      3.0708510E-08
   10.86000      3.0676652E-08
   10.92000      3.0581411E-08
   10.98000      3.0461901E-08
   11.04000      3.0366472E-08
   11.10000      3.0340356E-08
   11.16000      3.0412995E-08
   11.22000      3.0588971E-08
   11.28000      3.0845662E-08
   11.34000      3.1138825E-08
   11.40000      3.1414913E-08
   11.46000      3.1626868E-08
   11.52000      3.1749018E-08
   11.58000      3.1786591E-08
   11.64000      3.1776963E-08
   11.70000      3.1781720E-08
   11.76000      3.1871352E-08
   11.82000      3.2106456E-08
   11.88000      3.2520362E-08
   11.94000      3.3108076E-08
   12.00000      3.3824747E-08
   12.06000      3.4594571E-08
   12.12000      3.5328068E-08
   12.18000      3.5943469E-08
   12.24000      3.6386414E-08
   12.30000      3.6642458E-08
   12.36000      3.6738712E-08
   12.42000      3.6733827E-08
   12.48000      3.6698896E-08
   12.54000      3.6694725E-08
   12.60000      3.6752073E-08
   12.66000      3.6860857E-08
   12.72000      3.6971745E-08
   12.78000      3.7009869E-08
   12.84000      3.6896648E-08
   12.90000      3.6573240E-08
   12.96000      3.6018513E-08
   13.02000      3.5256100E-08
   13.08000      3.4348364E-08
   13.14000      3.3379031E-08
   13.20000      3.2429462E-08
   13.26000      3.1555363E-08
   13.32000      3.0770174E-08
   13.38000      3.0039498E-08
   13.44000      2.9287410E-08
   13.50000      2.8412682E-08
   13.56000      2.7310318E-08
   13.62000      2.5893090E-08
   13.68000      2.4108344E-08
   13.74000      2.1946976E-08
   13.80000      1.9443663E-08
   13.86000      1.6669336E-08
   13.92000      1.3718306E-08
   13.98000      1.0693014E-08
   14.04000      7.6893256E-09
   14.10000      4.7846922E-09
   14.16000      2.0307380E-09
   14.22000     -5.4909699E-10
   14.28000     -2.9570510E-09
   14.34000     -5.2145954E-09
   14.40000     -7.3535520E-09
   14.46000     -9.4065893E-09
   14.52000     -1.1398943E-08
   14.58000     -1.3342889E-08
   14.64000     -1.5235862E-08
   14.70000     -1.7062320E-08
   14.76000     -1.8798584E-08
   14.82000     -2.0419265E-08
   14.88000     -2.1903492E-08
   14.94000     -2.3239403E-08
   15.00000     -2.4425754E-08
   15.06000     -2.5470493E-08
   15.12000     -2.6386903E-08
   15.18000     -2.7188758E-08
   15.24000     -2.7886067E-08
   15.30000     -2.8482848E-08
   15.36000     -2.8977684E-08
   15.42000     -2.9366779E-08
   15.48000     -2.9648533E-08
   15.54000     -2.9828065E-08
   15.60000     -2.9920027E-08
   15.66000     -2.9948673E-08
   15.72000     -2.9944850E-08
   15.78000     -2.9940541E-08
   15.84000     -2.9962404E-08
   15.90000     -3.0026069E-08
   15.96000     -3.0132863E-08
   16.02000     -3.0270066E-08
   16.08000     -3.0414764E-08
   16.14000     -3.0540402E-08
   16.20000     -3.0624154E-08
   16.26000     -3.0653013E-08
   16.32000     -3.0626776E-08
   16.38000     -3.0557057E-08
   16.44000     -3.0462825E-08
   16.50000     -3.0364166E-08
   16.56000     -3.0276510E-08
   16.62000     -3.0207424E-08
   16.68000     -3.0156937E-08
   16.74000     -3.0120979E-08
   16.80000     -3.0096231E-08
   16.86000     -3.0084095E-08
   16.92000     -3.0091982E-08
   16.98000     -3.0131133E-08
   17.04000     -3.0211798E-08
   17.10000     -3.0337556E-08
   17.16000     -3.0501131E-08
   17.22000     -3.0683385E-08
   17.28000     -3.0856214E-08
   17.34000     -3.0988666E-08
   17.40000     -3.1054711E-08
   17.46000     -3.1040592E-08
   17.52000     -3.0949849E-08
   17.58000     -3.0804795E-08
   17.64000     -3.0643928E-08
   17.70000     -3.0515736E-08
   17.76000     -3.0470044E-08
   17.82000     -3.0548669E-08
   17.88000     -3.0777350E-08
   17.94000     -3.1160880E-08
   18.00000     -3.1682635E-08
   18.06000     -3.2308847E-08
   18.12000     -3.2996645E-08
   18.18000     -3.3703937E-08
   18.24000     -3.4398628E-08
   18.30000     -3.5064840E-08
   18.36000     -3.5704602E-08
   18.42000     -3.6334704E-08
   18.48000     -3.6979621E-08
   18.54000     -3.7662442E-08
   18.60000     -3.8396017E-08
   18.66000     -3.9176584E-08
   18.72000     -3.9981341E-08
   18.78000     -4.0770594E-08
   18.84000     -4.1494033E-08
   18.90000     -4.2099725E-08
   18.96000     -4.2543743E-08
   19.02000     -4.2798089E-08
   19.08000     -4.2854943E-08
   19.14000     -4.2726128E-08
   19.20000     -4.2437904E-08
   19.26000     -4.2022389E-08
   19.32000     -4.1507910E-08
   19.38000     -4.0910702E-08
   19.44000     -4.0230088E-08
   19.50000     -3.9448349E-08
   19.56000     -3.8535280E-08
   19.62000     -3.7456413E-08
   19.68000     -3.6183092E-08
   19.74000     -3.4702182E-08
   19.80000     -3.3023234E-08
   19.86000     -3.1181283E-08
   19.92000     -2.9234176E-08
   19.98000     -2.7254426E-08
   20.04000     -2.5316746E-08
   20.10000     -2.3483723E-08
   20.16000     -2.1792925E-08
   20.22000     -2.0248867E-08
   20.28000     -1.8822478E-08
   20.34000     -1.7458913E-08
   20.40000     -1.6092326E-08
   20.46000     -1.4664117E-08
   20.52000     -1.3139817E-08
   20.58000     -1.1519856E-08
   20.64000     -9.8409956E-09
   20.70000     -8.1677278E-09
   20.76000     -6.5758821E-09
   20.82000     -5.1328604E-09
   20.88000     -3.8799488E-09
   20.94000     -2.8214475E-09
   21.00000     -1.9233581E-09
   21.06000     -1.1216406E-09
   21.12000     -3.3745395E-10
   21.18000      5.0490240E-10
   21.24000      1.4620376E-09
   21.30000      2.5613085E-09
   21.36000      3.7984269E-09
   21.42000      5.1426627E-09
   21.48000      6.5475501E-09
   21.54000      7.9638474E-09
   21.60000      9.3512504E-09
   21.66000      1.0686061E-08
   21.72000      1.1963371E-08
   21.78000      1.3193923E-08
   21.84000      1.4397218E-08
   21.90000      1.5593278E-08
   21.96000      1.6795502E-08
   22.02000      1.8006425E-08
   22.08000      1.9217030E-08
   22.14000      2.0409161E-08
   22.20000      2.1559757E-08
   22.26000      2.2645306E-08
   22.32000      2.3645319E-08
   22.38000      2.4544104E-08
   22.44000      2.5330973E-08
   22.50000      2.5999407E-08
   22.56000      2.6545994E-08
   22.62000      2.6969813E-08
   22.68000      2.7272598E-08
   22.74000      2.7459588E-08
   22.80000      2.7540615E-08
   22.86000      2.7530739E-08
   22.92000      2.7449770E-08
   22.98000      2.7320365E-08
   23.04000      2.7164768E-08
   23.10000      2.7000961E-08
   23.16000      2.6839214E-08
   23.22000      2.6680119E-08
   23.28000      2.6514714E-08
   23.34000      2.6326624E-08
   23.40000      2.6095421E-08
   23.46000      2.5799958E-08
   23.52000      2.5420597E-08
   23.58000      2.4939739E-08
   23.64000      2.4340892E-08
   23.70000      2.3607166E-08
   23.76000      2.2720295E-08
   23.82000      2.1661048E-08
   23.88000      2.0411267E-08
   23.94000      1.8957081E-08
   24.00000      1.7292336E-08
   24.06000      1.5421179E-08
   24.12000      1.3358945E-08
   24.18000      1.1130940E-08
   24.24000      8.7693106E-09
   24.30000      6.3086696E-09
   24.36000      3.7815298E-09
   24.42000      1.2147739E-09
   24.48000     -1.3718098E-09
   24.54000     -3.9643737E-09
   24.60000     -6.5515078E-09
   24.66000     -9.1195345E-09
   24.72000     -1.1648371E-08
   24.78000     -1.4109788E-08
   24.84000     -1.6469215E-08
   24.90000     -1.8691015E-08
   24.96000     -2.0745746E-08
   25.02000     -2.2617048E-08
   25.08000     -2.4305644E-08
   25.14000     -2.5828911E-08
   25.20000     -2.7215929E-08
   25.26000     -2.8499571E-08
   25.32000     -2.9708053E-08
   25.38000     -3.0858626E-08
   25.44000     -3.1955054E-08
   25.50000     -3.2989362E-08
   25.56000     -3.3946950E-08
   25.62000     -3.4813418E-08
   25.68000     -3.5581138E-08
   25.74000     -3.6254050E-08
   25.80000     -3.6849698E-08
   25.86000     -3.7398159E-08
   25.92000     -3.7938147E-08
   25.98000     -3.8510997E-08
   26.04000     -3.9153793E-08
   26.10000     -3.9893003E-08
   26.16000     -4.0740190E-08
   26.22000     -4.1690974E-08
   26.28000     -4.2727503E-08
   26.34000     -4.3823903E-08
   26.40000     -4.4952973E-08
   26.46000     -4.6092108E-08
   26.52000     -4.7226553E-08
   26.58000     -4.8349076E-08
   26.64000     -4.9456393E-08
   26.70000     -5.0543921E-08
   26.76000     -5.1601013E-08
   26.82000     -5.2608648E-08
   26.88000     -5.3540695E-08
   26.94000     -5.4368549E-08
   27.00000     -5.5067666E-08
   27.06000     -5.5624014E-08
   27.12000     -5.6038186E-08
   27.18000     -5.6325955E-08
   27.24000     -5.6514885E-08
   27.30000     -5.6637973E-08
   27.36000     -5.6725924E-08
   27.42000     -5.6800179E-08
   27.48000     -5.6868323E-08
   27.54000     -5.6922971E-08
   27.60000     -5.6944323E-08
   27.66000     -5.6905577E-08
   27.72000     -5.6779950E-08
   27.78000     -5.6547517E-08
   27.84000     -5.6200271E-08
   27.90000     -5.5744245E-08
   27.96000     -5.5198296E-08
   28.02000     -5.4590014E-08
   28.08000     -5.3950078E-08
   28.14000     -5.3306817E-08
   28.20000     -5.2682470E-08
   28.26000     -5.2092158E-08
   28.32000     -5.1545427E-08
   28.38000     -5.1049234E-08
   28.44000     -5.0610730E-08
   28.50000     -5.0238370E-08
   28.56000     -4.9940592E-08
   28.62000     -4.9722555E-08
   28.68000     -4.9582372E-08
   28.74000     -4.9508760E-08
   28.80000     -4.9481599E-08
   28.86000     -4.9475762E-08
   28.92000     -4.9467307E-08
   28.98000     -4.9439986E-08
   29.04000     -4.9389847E-08
   29.10000     -4.9326189E-08
   29.16000     -4.9268490E-08
   29.22000     -4.9240370E-08
   29.28000     -4.9262567E-08
   29.34000     -4.9347129E-08
   29.40000     -4.9494467E-08
   29.46000     -4.9693643E-08
   29.52000     -4.9925291E-08
   29.58000     -5.0165834E-08
   29.64000     -5.0391677E-08
   29.70000     -5.0582575E-08
   29.76000     -5.0723806E-08
   29.82000     -5.0807223E-08
   29.88000     -5.0831186E-08
   29.94000     -5.0799226E-08
   30.00000     -5.0717343E-08
   30.06000     -5.0590184E-08
   30.12000     -5.0417054E-08
   30.18000     -5.0189342E-08
   30.24000     -4.9890865E-08
   30.30000     -4.9501846E-08
   30.36000     -4.9005816E-08
   30.42000     -4.8397204E-08
   30.48000     -4.7686640E-08
   30.54000     -4.6901629E-08
   30.60000     -4.6081791E-08
   30.66000     -4.5270049E-08
   30.72000     -4.4502794E-08
   30.78000     -4.3802352E-08
   30.84000     -4.3174261E-08
   30.90000     -4.2609720E-08
   30.96000     -4.2091720E-08
   31.02000     -4.1602206E-08
   31.08000     -4.1127603E-08
   31.14000     -4.0661121E-08
   31.20000     -4.0201748E-08
   31.26000     -3.9751040E-08
   31.32000     -3.9309306E-08
   31.38000     -3.8872610E-08
   31.44000     -3.8431352E-08
   31.50000     -3.7970608E-08
   31.56000     -3.7471935E-08
   31.62000     -3.6916145E-08
   31.68000     -3.6286540E-08
   31.74000     -3.5571940E-08
   31.80000     -3.4768753E-08
   31.86000     -3.3881491E-08
   31.92000     -3.2921324E-08
   31.98000     -3.1902996E-08
   32.04000     -3.0840866E-08
   32.10000     -2.9745475E-08
   32.16000     -2.8621677E-08
   32.22000     -2.7468904E-08
   32.28000     -2.6283091E-08
   32.34000     -2.5059213E-08
   32.40000     -2.3793183E-08
   32.46000     -2.2482439E-08
   32.52000     -2.1125450E-08
   32.58000     -1.9721121E-08
   32.64000     -1.8269324E-08
   32.70000     -1.6773091E-08
   32.76000     -1.5241998E-08
   32.82000     -1.3695239E-08
   32.88000     -1.2162560E-08
   32.94000     -1.0681851E-08
   33.00000     -9.2934842E-09
   33.06000     -8.0329308E-09
   33.12000     -6.9239672E-09
   33.18000     -5.9746128E-09
   33.24000     -5.1768674E-09
   33.30000     -4.5098787E-09
   33.36000     -3.9451109E-09
   33.42000     -3.4517733E-09
   33.48000     -3.0012610E-09
   33.54000     -2.5702058E-09
   33.60000     -2.1424038E-09
   33.66000     -1.7100048E-09
   33.72000     -1.2739825E-09
   33.78000     -8.4345586E-10
   33.84000     -4.3333900E-10
   33.90000     -6.0273508E-11
   33.96000      2.6232849E-10
   34.02000      5.2857674E-10
   34.08000      7.4207002E-10
   34.14000      9.1460012E-10
   34.20000      1.0619432E-09
   34.26000      1.1983262E-09
   34.32000      1.3317277E-09
   34.38000      1.4617700E-09
   34.44000      1.5807662E-09
   34.50000      1.6770753E-09
   34.56000      1.7389906E-09
   34.62000      1.7573177E-09
   34.68000      1.7256210E-09
   34.74000      1.6383480E-09
   34.80000      1.4880851E-09
   34.86000      1.2635823E-09
   34.92000      9.4975683E-10
   34.98000      5.2992649E-10
   35.04000     -1.0502313E-11
   35.10000     -6.8029804E-10
   35.16000     -1.4800108E-09
   35.22000     -2.4017357E-09
   35.28000     -3.4310035E-09
   35.34000     -4.5500212E-09
   35.40000     -5.7411271E-09
   35.46000     -6.9893913E-09
   35.52000     -8.2837026E-09
   35.58000     -9.6162243E-09
   35.64000     -1.0980522E-08
   35.70000     -1.2369007E-08
   35.76000     -1.3770407E-08
   35.82000     -1.5168022E-08
   35.88000     -1.6539374E-08
   35.94000     -1.7857694E-08
   36.00000     -1.9095294E-08
   36.06000     -2.0228354E-08
   36.12000     -2.1242080E-08
   36.18000     -2.2134840E-08
   36.24000     -2.2919737E-08
   36.30000     -2.3622732E-08
   36.36000     -2.4277224E-08
   36.42000     -2.4916288E-08
   36.48000     -2.5564555E-08
   36.54000     -2.6232094E-08
   36.60000     -2.6912087E-08
   36.66000     -2.7582994E-08
   36.72000     -2.8214348E-08
   36.78000     -2.8774359E-08
   36.84000     -2.9236865E-08
   36.90000     -2.9585671E-08
   36.96000     -2.9815297E-08
   37.02000     -2.9928533E-08
   37.08000     -2.9932082E-08
   37.14000     -2.9832282E-08
   37.20000     -2.9632444E-08
   37.26000     -2.9332776E-08
   37.32000     -2.8932915E-08
   37.38000     -2.8436110E-08
   37.44000     -2.7853650E-08
   37.50000     -2.7207857E-08
   37.56000     -2.6532348E-08
   37.62000     -2.5868776E-08
   37.68000     -2.5260361E-08
   37.74000     -2.4743409E-08
   37.80000     -2.4338982E-08
   37.86000     -2.4047131E-08
   37.92000     -2.3845796E-08
   37.98000     -2.3695314E-08
   38.04000     -2.3547788E-08
   38.10000     -2.3359085E-08
   38.16000     -2.3100171E-08
   38.22000     -2.2764498E-08
   38.28000     -2.2369363E-08
   38.34000     -2.1950783E-08
   38.40000     -2.1553463E-08
   38.46000     -2.1218872E-08
   38.52000     -2.0974831E-08
   38.58000     -2.0829635E-08
   38.64000     -2.0772235E-08
   38.70000     -2.0778296E-08
   38.76000     -2.0820137E-08
   38.82000     -2.0877428E-08
   38.88000     -2.0945107E-08
   38.94000     -2.1035815E-08
   39.00000     -2.1175705E-08
   39.06000     -2.1394710E-08
   39.12000     -2.1714365E-08
   39.18000     -2.2137339E-08
   39.24000     -2.2642652E-08
   39.30000     -2.3188756E-08
   39.36000     -2.3724157E-08
   39.42000     -2.4202526E-08
   39.48000     -2.4597623E-08
   39.54000     -2.4913218E-08
   39.60000     -2.5184676E-08
   39.66000     -2.5471387E-08
   39.72000     -2.5841949E-08
   39.78000     -2.6356101E-08
   39.84000     -2.7048239E-08
   39.90000     -2.7916963E-08
   39.96000     -2.8923457E-08
   40.02000     -2.9999317E-08
   40.08000     -3.1062012E-08
   40.14000     -3.2034134E-08
   40.20000     -3.2861337E-08
   40.26000     -3.3524127E-08
   40.32000     -3.4040031E-08
   40.38000     -3.4455539E-08
   40.44000     -3.4830251E-08
   40.50000     -3.5218243E-08
   40.56000     -3.5652683E-08
   40.62000     -3.6138612E-08
   40.68000     -3.6656097E-08
   40.74000     -3.7172171E-08
   40.80000     -3.7657120E-08
   40.86000     -3.8098989E-08
   40.92000     -3.8511160E-08
   40.98000     -3.8930331E-08
   41.04000     -3.9405673E-08
   41.10000     -3.9982918E-08
   41.16000     -4.0688885E-08
   41.22000     -4.1521506E-08
   41.28000     -4.2448733E-08
   41.34000     -4.3416801E-08
   41.40000     -4.4365500E-08
   41.46000     -4.5245905E-08
   41.52000     -4.6035339E-08
   41.58000     -4.6744788E-08
   41.64000     -4.7416133E-08
   41.70000     -4.8109335E-08
   41.76000     -4.8882782E-08
   41.82000     -4.9772307E-08
   41.88000     -5.0775363E-08
   41.94000     -5.1845849E-08
   42.00000     -5.2902124E-08
   42.06000     -5.3846964E-08
   42.12000     -5.4593965E-08
   42.18000     -5.5092496E-08
   42.24000     -5.5343040E-08
   42.30000     -5.5397290E-08
   42.36000     -5.5342287E-08
   42.42000     -5.5273038E-08
   42.48000     -5.5262287E-08
   42.54000     -5.5337456E-08
   42.60000     -5.5472633E-08
   42.66000     -5.5598516E-08
   42.72000     -5.5627090E-08
   42.78000     -5.5482833E-08
   42.84000     -5.5129707E-08
   42.90000     -5.4584962E-08
   42.96000     -5.3914977E-08
   43.02000     -5.3214613E-08
   43.08000     -5.2576834E-08
   43.14000     -5.2062301E-08
   43.20000     -5.1678434E-08
   43.26000     -5.1374247E-08
   43.32000     -5.1052272E-08
   43.38000     -5.0593954E-08
   43.44000     -4.9891106E-08
   43.50000     -4.8874490E-08
   43.56000     -4.7531660E-08
   43.62000     -4.5909115E-08
   43.68000     -4.4098314E-08
   43.74000     -4.2209614E-08
   43.80000     -4.0341742E-08
   43.86000     -3.8555950E-08
   43.92000     -3.6862627E-08
   43.98000     -3.5224641E-08
   44.04000     -3.3576050E-08
   44.10000     -3.1850018E-08
   44.16000     -3.0006372E-08
   44.22000     -2.8049479E-08
   44.28000     -2.6030305E-08
   44.34000     -2.4032190E-08
   44.40000     -2.2145503E-08
   44.46000     -2.0440117E-08
   44.52000     -1.8945142E-08
   44.58000     -1.7642597E-08
   44.64000     -1.6476655E-08
   44.70000     -1.5374875E-08
   44.76000     -1.4273909E-08
   44.82000     -1.3141156E-08
   44.88000     -1.1985426E-08
   44.94000     -1.0853434E-08
   45.00000     -9.8134914E-09
   45.06000     -8.9316865E-09
   45.12000     -8.2480733E-09
   45.18000     -7.7603346E-09
   45.24000     -7.4201130E-09
   45.30000     -7.1433304E-09
   45.36000     -6.8315646E-09
   45.42000     -6.3980625E-09
   45.48000     -5.7905067E-09
   45.54000     -5.0035998E-09
   45.60000     -4.0777186E-09
   45.66000     -3.0842575E-09
   45.72000     -2.1024404E-09
   45.78000     -1.1949555E-09
   45.84000     -3.8998088E-10
   45.90000      3.2501890E-10
   45.96000      9.9613040E-10
   46.02000      1.6850512E-09
   46.08000      2.4462117E-09
   46.14000      3.3061731E-09
   46.20000      4.2516466E-09
   46.26000      5.2296567E-09
   46.32000      6.1595080E-09
   46.38000      6.9524746E-09
   46.44000      7.5327229E-09
   46.50000      7.8526625E-09
   46.56000      7.8977953E-09
   46.62000      7.6796356E-09
   46.68000      7.2191195E-09
   46.74000      6.5259207E-09
   46.80000      5.5801630E-09
   46.86000      4.3219099E-09
   46.92000      2.6510047E-09
   46.98000      4.3635404E-10
   47.04000     -2.4692135E-09
   47.10000     -6.2139534E-09
   47.16000     -1.0937332E-08
   47.22000     -1.6768764E-08
   47.28000     -2.3835883E-08
   47.34000     -3.2280465E-08
   47.40000     -4.2278138E-08
   47.46000     -5.4057022E-08
   47.52000     -6.7910968E-08
   47.58000     -8.4204721E-08
   47.64000     -1.0337094E-07
   47.70000     -1.2590171E-07
   47.76000     -1.5233887E-07
   47.82000     -1.8326874E-07
   47.88000     -2.1932532E-07
   47.94000     -2.6120469E-07
   48.00000     -3.0968965E-07
   48.06000     -3.6568133E-07
   48.12000     -4.3023246E-07
   48.18000     -5.0457686E-07
   48.24000     -5.9015036E-07
   48.30000     -6.8860169E-07
   48.36000     -8.0179586E-07
   48.42000     -9.3181274E-07
   48.48000     -1.0809487E-06
   48.54000     -1.2517253E-06
   48.60000     -1.4469100E-06
   48.66000     -1.6695458E-06
   48.72000     -1.9229888E-06
   48.78000     -2.2109464E-06
   48.84000     -2.5375107E-06
   48.90000     -2.9071853E-06
   48.96000     -3.3249028E-06
   49.02000     -3.7960369E-06
   49.08000     -4.3264185E-06
   49.14000     -4.9223486E-06
   49.20000     -5.5906194E-06
   49.26000     -6.3385401E-06
   49.32000     -7.1739591E-06
   49.38000     -8.1052840E-06
   49.44000     -9.1414959E-06
   49.50000     -1.0292148E-05
   49.56000     -1.1567355E-05
   49.62000     -1.2977781E-05
   49.68000     -1.4534606E-05
   49.74000     -1.6249502E-05
   49.80000     -1.8134606E-05
   49.86000     -2.0202491E-05
   49.92000     -2.2466140E-05
   49.98000     -2.4938920E-05
   50.04000     -2.7634540E-05
   50.10000     -3.0567011E-05
   50.16000     -3.3750584E-05
   50.22000     -3.7199654E-05
   50.28000     -4.0928680E-05
   50.34000     -4.4952056E-05
   50.40000     -4.9283979E-05
   50.46000     -5.3938340E-05
   50.52000     -5.8928574E-05
   50.58000     -6.4267559E-05
   50.64000     -6.9967493E-05
   50.70000     -7.6039774E-05
   50.76000     -8.2494873E-05
   50.82000     -8.9342218E-05
   50.88000     -9.6590025E-05
   50.94000     -1.0424518E-04
   51.00000     -1.1231306E-04
   51.06000     -1.2079742E-04
   51.12000     -1.2970030E-04
   51.18000     -1.3902187E-04
   51.24000     -1.4876031E-04
   51.30000     -1.5891177E-04
   51.36000     -1.6947031E-04
   51.42000     -1.8042774E-04
   51.48000     -1.9177371E-04
   51.54000     -2.0349563E-04
   51.60000     -2.1557872E-04
   51.66000     -2.2800597E-04
   51.72000     -2.4075819E-04
   51.78000     -2.5381413E-04
   51.84000     -2.6715043E-04
   51.90000     -2.8074195E-04
   51.96000     -2.9456164E-04
   52.02000     -3.0858105E-04
   52.08000     -3.2277024E-04
   52.14000     -3.3709826E-04
   52.20000     -3.5153297E-04
   52.26000     -3.6604176E-04
   52.32000     -3.8059146E-04
   52.38000     -3.9514873E-04
   52.44000     -4.0968039E-04
   52.50000     -4.2415364E-04
   52.56000     -4.3853646E-04
   52.62000     -4.5279780E-04
   52.68000     -4.6690795E-04
   52.74000     -4.8083873E-04
   52.80000     -4.9456378E-04
   52.86000     -5.0805858E-04
   52.92000     -5.2130100E-04
   52.98000     -5.3427147E-04
   53.04000     -5.4695288E-04
   53.10000     -5.5933109E-04
   53.16000     -5.7139492E-04
   53.22000     -5.8313622E-04
   53.28000     -5.9454975E-04
   53.34000     -6.0563348E-04
   53.40000     -6.1638828E-04
   53.46000     -6.2681787E-04
   53.52000     -6.3692877E-04
   53.58000     -6.4673024E-04
   53.64000     -6.5623398E-04
   53.70000     -6.6545367E-04
   53.76000     -6.7440514E-04
   53.82000     -6.8310596E-04
   53.88000     -6.9157488E-04
   53.94000     -6.9983205E-04
   54.00000     -7.0789794E-04
   54.06000     -7.1579369E-04
   54.12000     -7.2354026E-04
   54.18000     -7.3115824E-04
   54.24000     -7.3866762E-04
   54.30000     -7.4608723E-04
   54.36000     -7.5343467E-04
   54.42000     -7.6072558E-04
   54.48000     -7.6797378E-04
   54.54000     -7.7519065E-04
   54.60000     -7.8238547E-04
   54.66000     -7.8956486E-04
   54.72000     -7.9673261E-04
   54.78000     -8.0388982E-04
   54.84000     -8.1103487E-04
   54.90000     -8.1816298E-04
   54.96000     -8.2526676E-04
   55.02000     -8.3233608E-04
   55.08000     -8.3935814E-04
   55.14000     -8.4631797E-04
   55.20000     -8.5319852E-04
   55.26000     -8.5998070E-04
   55.32000     -8.6664426E-04
   55.38000     -8.7316742E-04
   55.44000     -8.7952754E-04
   55.50000     -8.8570168E-04
   55.56000     -8.9166674E-04