  -2.400000      0.0000000E+00
  -2.340000      0.0000000E+00
  -2.280000      0.0000000E+00
  -2.220000      0.0000000E+00
  -2.160000      0.0000000E+00
  -2.100000      0.0000000E+00
  -2.040000      0.0000000E+00
  -1.980000      2.2065492E-25
  -1.920000      1.7044563E-24
  -1.860000      4.7899129E-24
  -1.800000     -2.4372292E-24
  -1.740000     -7.0123487E-23
  -1.680000     -2.9670520E-22
  -1.620000     -7.2698281E-22
  -1.560000     -1.0248804E-21
  -1.500000     -2.7900819E-24
  -1.440000      4.4007786E-21
  -1.380000      1.3540175E-20
  -1.320000      2.3949939E-20
  -1.260000      2.1904008E-20
  -1.200000     -1.7892734E-20
  -1.140000     -1.1995954E-19
  -1.080000     -2.7420725E-19
  -1.020000     -3.8668742E-19
 -0.9600000     -2.4820376E-19
 -0.9000000      4.1768560E-19
 -0.8400000      1.7651561E-18
 -0.7800000      3.4947227E-18
 -0.7200000      4.5166646E-18
 -0.6600000      2.9139410E-18
 -0.6000000     -3.4116128E-18
 -0.5400000     -1.5197819E-17
 -0.4800000     -2.9699109E-17
 -0.4200000     -3.9077514E-17
 -0.3600000     -3.1046851E-17
 -0.3000000      6.6113734E-18
 -0.2400000      7.7481207E-17
 -0.1800000      1.6647474E-16
 -0.1200000      2.3401122E-16
 -5.9999999E-02  2.2161124E-16
  0.0000000E+00  7.3812628E-17
  5.9999999E-02 -2.2587793E-16
  0.1200000     -6.1788189E-16
  0.1800000     -9.5045482E-16
  0.2400000     -1.0079092E-15
  0.3000000     -5.9378275E-16
  0.3600000      3.4722009E-16
  0.4200000      1.6172728E-15
  0.4800000      2.7340815E-15
  0.5400000      3.0429311E-15
  0.6000000      1.9860458E-15
  0.6600000     -5.3965433E-16
  0.7200000     -3.8917636E-15
  0.7800000     -6.6562123E-15
  0.8400000     -7.0354256E-15
  0.9000000     -3.6449755E-15
  0.9600000      3.5158510E-15
   1.020000      1.2364424E-14
   1.080000      1.8818541E-14
   1.140000      1.7997478E-14
   1.200000      6.4326210E-15
   1.260000     -1.5406377E-14
   1.320000     -4.1446843E-14
   1.380000     -6.0463916E-14
   1.440000     -5.9356952E-14
   1.500000     -2.8817413E-14
   1.560000      3.0443655E-14
   1.620000      1.0377138E-13
   1.680000      1.6379859E-13
   1.740000      1.7823701E-13
   1.800000      1.2293954E-13
   1.860000     -4.0881461E-15
   1.920000     -1.7402457E-13
   1.980000     -3.2978999E-13
   2.040000     -4.0228199E-13
   2.100000     -3.3706439E-13
   2.160000     -1.2240392E-13
   2.220000      1.9373525E-13
   2.280000      5.0849109E-13
   2.340000      6.9431358E-13
   2.400000      6.4750429E-13
   2.460000      3.3790131E-13
   2.520000     -1.6208073E-13
   2.580000     -6.8651351E-13
   2.640000     -1.0272948E-12
   2.700000     -1.0139223E-12
   2.760000     -5.9241056E-13
   2.820000      1.3123553E-13
   2.880000      9.0835981E-13
   2.940000      1.4289818E-12
   3.000000      1.4427978E-12
   3.060000      8.7419048E-13
   3.120000     -1.1915656E-13
   3.180000     -1.1779037E-12
   3.240000     -1.8631093E-12
   3.300000     -1.8302111E-12
   3.360000     -9.8895783E-13
   3.420000      4.1981910E-13
   3.480000      1.8740979E-12
   3.540000      2.7438334E-12
   3.600000      2.5330070E-12
   3.660000      1.1017456E-12
   3.720000     -1.2224091E-12
   3.780000     -3.7008886E-12
   3.840000     -5.4050948E-12
   3.900000     -5.5349969E-12
   3.960000     -3.7250320E-12
   4.020000     -2.2268464E-13
   4.080000      4.1358822E-12
   4.140000      8.1586708E-12
   4.200000      1.0668032E-11
   4.260000      1.0882315E-11
   4.320000      8.6719312E-12
   4.380000      4.5918421E-12
   4.440000     -3.2978202E-13
   4.500000     -4.9768579E-12
   4.560000     -8.5647236E-12
   4.620000     -1.0930817E-11
   4.680000     -1.2570517E-11
   4.740000     -1.4379282E-11
   4.800000     -1.7172591E-11
   4.860000     -2.1150302E-11
   4.920000     -2.5515324E-11
   4.980000     -2.8426775E-11
   5.040000     -2.7368083E-11
   5.100000     -1.9870217E-11
   5.160000     -4.3958305E-12
   5.220000      1.8888537E-11
   5.280000      4.7714811E-11
   5.340000      7.7849421E-11
   5.400000      1.0375658E-10
   5.460000      1.1961114E-10
   5.520000      1.2037031E-10
   5.580000      1.0260610E-10
   5.640000      6.4908245E-11
   5.700000      7.8567222E-12
   5.760000     -6.6235455E-11
   5.820000     -1.5347845E-10
   5.880000     -2.4813407E-10
   5.940000     -3.4174710E-10
   6.000000     -4.2178219E-10
   6.060000     -4.7016352E-10
   6.120000     -4.6232310E-10
   6.180000     -3.6738632E-10
   6.240000     -1.4992567E-10
   6.300000      2.2667487E-10
   6.360000      7.9566592E-10
   6.420000      1.5820063E-09
   6.480000      2.5980704E-09
   6.540000      3.8408965E-09
   6.600000      5.2915268E-09
   6.660000      6.9164647E-09
   6.720000      8.6707805E-09
   6.780000      1.0502059E-08
   6.840000      1.2354356E-08
   6.900000      1.4171507E-08
   6.960000      1.5899575E-08
   7.020000      1.7488571E-08
   7.080000      1.8893822E-08
   7.140000      2.0077360E-08
   7.200000      2.1009500E-08
   7.260000      2.1670392E-08
   7.320000      2.2051154E-08
   7.380000      2.2154071E-08
   7.440000      2.1991523E-08
   7.500000      2.1583752E-08
   7.560000      2.0955868E-08
   7.620000      2.0134934E-08
   7.680000      1.9147919E-08
   7.740000      1.8021076E-08
   7.800000      1.6780863E-08
   7.860000      1.5455923E-08
   7.920000      1.4079290E-08
   7.980000      1.2689781E-08
   8.040000      1.1331744E-08
   8.100000      1.0052848E-08
   8.160000      8.9001633E-09
   8.220000      7.9154061E-09
   8.280000      7.1305064E-09
   8.340000      6.5646160E-09
   8.400000      6.2232748E-09
   8.460000      6.0998180E-09
   8.520000      6.1784693E-09
   8.580000      6.4381149E-09
   8.640000      6.8556933E-09
   8.700000      7.4083899E-09
   8.760000      8.0743954E-09
   8.820000      8.8325249E-09
   8.880000      9.6613908E-09
   8.940000      1.0538873E-08
   9.000000      1.1442340E-08
   9.060000      1.2349662E-08
   9.120000      1.3240597E-08
   9.180000      1.4097969E-08
   9.240000      1.4908158E-08
   9.300000      1.5660769E-08
   9.360000      1.6347789E-08
   9.420000      1.6962833E-08
   9.480000      1.7501065E-08
   9.540000      1.7960156E-08
   9.600000      1.8342076E-08
   9.660000      1.8655163E-08
   9.720000      1.8915511E-08
   9.780000      1.9146873E-08
   9.840000      1.9378621E-08
   9.900000      1.9641888E-08
   9.960000      1.9964611E-08
   10.02000      2.0366659E-08
   10.08000      2.0856257E-08
   10.14000      2.1428599E-08
   10.20000      2.2067036E-08
   10.26000      2.2746368E-08
   10.32000      2.3437309E-08
   10.38000      2.4110719E-08
   10.44000      2.4740521E-08
   10.50000      2.5304601E-08
   10.56000      2.5783827E-08
   10.62000      2.6160032E-08
   10.68000      2.6414183E-08
   10.74000      2.6525885E-08
   10.80000      2.6474879E-08
   10.86000      2.6244216E-08
   10.92000      2.5824198E-08
   10.98000      2.5215552E-08
   11.04000      2.4430523E-08
   11.10000      2.3491260E-08
   11.16000      2.2425747E-08
   11.22000      2.1262606E-08
   11.28000      2.0026556E-08
   11.34000      1.8736193E-08
   11.40000      1.7404991E-08
   11.46000      1.6045327E-08
   11.52000      1.4673995E-08
   11.58000      1.3317156E-08
   11.64000      1.2012505E-08
   11.70000      1.0807340E-08
   11.76000      9.7525445E-09
   11.82000      8.8939087E-09
   11.88000      8.2632932E-09
   11.94000      7.8723739E-09
   12.00000      7.7109767E-09
   12.06000      7.7506739E-09
   12.12000      7.9525675E-09
   12.18000      8.2768468E-09
   12.24000      8.6910878E-09
   12.30000      9.1746788E-09
   12.36000      9.7180450E-09
   12.42000      1.0317100E-08
   12.48000      1.0964994E-08
   12.54000      1.1644195E-08
   12.60000      1.2321838E-08
   12.66000      1.2950268E-08
   12.72000      1.3472939E-08
   12.78000      1.3834052E-08
   12.84000      1.3989040E-08
   12.90000      1.3912672E-08
   12.96000      1.3602296E-08
   13.02000      1.3075289E-08
   13.08000      1.2361594E-08
   13.14000      1.1493774E-08
   13.20000      1.0497684E-08
   13.26000      9.3865591E-09
   13.32000      8.1601774E-09
   13.38000      6.8090653E-09
   13.44000      5.3222675E-09
   13.50000      3.6961763E-09
   13.56000      1.9418112E-09
   13.62000      8.8570470E-11
   13.68000     -1.8163947E-09
   13.74000     -3.7127819E-09
   13.80000     -5.5343525E-09
   13.86000     -7.2169377E-09
   13.92000     -8.7054914E-09
   13.98000     -9.9589617E-09
   14.04000     -1.0952446E-08
   14.10000     -1.1676810E-08
   14.16000     -1.2136422E-08
   14.22000     -1.2345946E-08
   14.28000     -1.2327084E-08
   14.34000     -1.2105952E-08
   14.40000     -1.1711450E-08
   14.46000     -1.1174633E-08
   14.52000     -1.0528744E-08
   14.58000     -9.8094439E-09
   14.64000     -9.0547099E-09
   14.70000     -8.3040090E-09
   14.76000     -7.5965962E-09
   14.82000     -6.9691075E-09
   14.88000     -6.4528187E-09
   14.94000     -6.0711911E-09
   15.00000     -5.8382752E-09
   15.06000     -5.7584351E-09
   15.12000     -5.8275798E-09
   15.18000     -6.0357168E-09
   15.24000     -6.3703065E-09
   15.30000     -6.8196480E-09
   15.36000     -7.3754776E-09
   15.42000     -8.0341209E-09
   15.48000     -8.7959062E-09
   15.54000     -9.6630144E-09
   15.60000     -1.0636390E-08
   15.66000     -1.1712607E-08
   15.72000     -1.2881673E-08
   15.78000     -1.4126492E-08
   15.84000     -1.5424297E-08
   15.90000     -1.6749777E-08
   15.96000     -1.8079140E-08
   16.02000     -1.9393921E-08
   16.08000     -2.0683423E-08
   16.14000     -2.1944937E-08
   16.20000     -2.3181606E-08
   16.26000     -2.4398583E-08
   16.32000     -2.5598695E-08
   16.38000     -2.6779119E-08
   16.44000     -2.7930131E-08
   16.50000     -2.9036290E-08
   16.56000     -3.0079409E-08
   16.62000     -3.1042006E-08
   16.68000     -3.1909757E-08
   16.74000     -3.2671924E-08
   16.80000     -3.3319786E-08
   16.86000     -3.3843914E-08
   16.92000     -3.4231807E-08
   16.98000     -3.4467380E-08
   17.04000     -3.4533045E-08
   17.10000     -3.4414224E-08
   17.16000     -3.4104936E-08
   17.22000     -3.3612590E-08
   17.28000     -3.2960209E-08
   17.34000     -3.2184701E-08
   17.40000     -3.1331261E-08
   17.46000     -3.0444959E-08
   17.52000     -2.9561690E-08
   17.58000     -2.8700962E-08
   17.64000     -2.7862582E-08
   17.70000     -2.7028243E-08
   17.76000     -2.6167392E-08
   17.82000     -2.5245464E-08
   17.88000     -2.4231790E-08
   17.94000     -2.3104766E-08
   18.00000     -2.1852975E-08
   18.06000     -2.0472646E-08
   18.12000     -1.8963330E-08
   18.18000     -1.7324297E-08
   18.24000     -1.5553789E-08
   18.30000     -1.3651853E-08
   18.36000     -1.1625723E-08
   18.42000     -9.4954222E-09
   18.48000     -7.2969066E-09
   18.54000     -5.0809037E-09
   18.60000     -2.9072129E-09
   18.66000     -8.3598350E-10
   18.72000      1.0814000E-09
   18.78000      2.8091425E-09
   18.84000      4.3298347E-09
   18.90000      5.6430203E-09
   18.96000      6.7607662E-09
   19.02000      7.7022744E-09
   19.08000      8.4894882E-09
   19.14000      9.1448236E-09
   19.20000      9.6910888E-09
   19.26000      1.0152695E-08
   19.32000      1.0556906E-08
   19.38000      1.0934089E-08
   19.44000      1.1316446E-08
   19.50000      1.1735470E-08
   19.56000      1.2218738E-08
   19.62000      1.2786860E-08
   19.68000      1.3451215E-08
   19.74000      1.4212830E-08
   19.80000      1.5062479E-08
   19.86000      1.5981936E-08
   19.92000      1.6946133E-08
   19.98000      1.7925959E-08
   20.04000      1.8891203E-08
   20.10000      1.9813150E-08
   20.16000      2.0666356E-08
   20.22000      2.1429358E-08
   20.28000      2.2084413E-08
   20.34000      2.2616815E-08
   20.40000      2.3014350E-08
   20.46000      2.3267342E-08
   20.52000      2.3369301E-08
   20.58000      2.3317732E-08
   20.64000      2.3114513E-08
   20.70000      2.2765477E-08
   20.76000      2.2279240E-08
   20.82000      2.1665949E-08
   20.88000      2.0936600E-08
   20.94000      2.0103462E-08
   21.00000      1.9181376E-08
   21.06000      1.8189327E-08
   21.12000      1.7151423E-08
   21.18000      1.6096802E-08
   21.24000      1.5058511E-08
   21.30000      1.4071875E-08
   21.36000      1.3172844E-08
   21.42000      1.2396385E-08
   21.48000      1.1774549E-08
   21.54000      1.1333619E-08
   21.60000      1.1090270E-08
   21.66000      1.1047455E-08
   21.72000      1.1191593E-08
   21.78000      1.1492690E-08
   21.84000      1.1908336E-08
   21.90000      1.2390972E-08
   21.96000      1.2896489E-08
   22.02000      1.3391412E-08
   22.08000      1.3856328E-08
   22.14000      1.4284624E-08
   22.20000      1.4677300E-08
   22.26000      1.5035956E-08
   22.32000      1.5356516E-08
   22.38000      1.5625664E-08
   22.44000      1.5820818E-08
   22.50000      1.5913184E-08
   22.56000      1.5872613E-08
   22.62000      1.5672670E-08
   22.68000      1.5294555E-08
   22.74000      1.4729134E-08
   22.80000      1.3976904E-08
   22.86000      1.3046352E-08
   22.92000      1.1951540E-08
   22.98000      1.0709831E-08
   23.04000      9.3405124E-09
   23.10000      7.8645526E-09
   23.16000      6.3051999E-09
   23.22000      4.6886393E-09
   23.28000      3.0438863E-09
   23.34000      1.4014043E-09
   23.40000     -2.0943244E-10
   23.46000     -1.7633178E-09
   23.52000     -3.2414440E-09
   23.58000     -4.6325646E-09
   23.64000     -5.9323946E-09
   23.70000     -7.1416633E-09
   23.76000     -8.2635587E-09
   23.82000     -9.3013854E-09
   23.88000     -1.0257047E-08
   23.94000     -1.1130603E-08
   24.00000     -1.1920793E-08
   24.06000     -1.2626169E-08
   24.12000     -1.3246341E-08
   24.18000     -1.3782840E-08
   24.24000     -1.4239200E-08
   24.30000     -1.4620194E-08
   24.36000     -1.4930574E-08
   24.42000     -1.5174033E-08
   24.48000     -1.5353205E-08
   24.54000     -1.5471153E-08
   24.60000     -1.5534082E-08
   24.66000     -1.5554134E-08
   24.72000     -1.5550732E-08
   24.78000     -1.5549325E-08
   24.84000     -1.5577291E-08
   24.90000     -1.5658195E-08
   24.96000     -1.5806407E-08
   25.02000     -1.6024094E-08
   25.08000     -1.6301668E-08
   25.14000     -1.6621247E-08
   25.20000     -1.6961533E-08
   25.26000     -1.7302138E-08
   25.32000     -1.7626068E-08
   25.38000     -1.7920222E-08
   25.44000     -1.8174820E-08
   25.50000     -1.8382897E-08
   25.56000     -1.8540439E-08
   25.62000     -1.8646821E-08
   25.68000     -1.8704492E-08
   25.74000     -1.8717047E-08
   25.80000     -1.8685689E-08
   25.86000     -1.8605345E-08
   25.92000     -1.8462320E-08
   25.98000     -1.8235239E-08
   26.04000     -1.7899772E-08
   26.10000     -1.7435974E-08
   26.16000     -1.6835781E-08
   26.22000     -1.6107895E-08
   26.28000     -1.5278049E-08
   26.34000     -1.4384332E-08
   26.40000     -1.3469132E-08
   26.46000     -1.2570478E-08
   26.52000     -1.1715836E-08
   26.58000     -1.0920467E-08
   26.64000     -1.0190766E-08
   26.70000     -9.5310000E-09
   26.76000     -8.9504510E-09
   26.82000     -8.4676941E-09
   26.88000     -8.1096250E-09
   26.94000     -7.9049860E-09
   27.00000     -7.8744238E-09
   27.06000     -8.0208897E-09
   27.12000     -8.3245197E-09
   27.18000     -8.7447294E-09
   27.24000     -9.2296455E-09
   27.30000     -9.7300505E-09
   27.36000     -1.0213041E-08
   27.42000     -1.0670493E-08
   27.48000     -1.1119244E-08
   27.54000     -1.1593043E-08
   27.60000     -1.2129486E-08
   27.66000     -1.2757059E-08
   27.72000     -1.3487258E-08
   27.78000     -1.4314620E-08
   27.84000     -1.5224199E-08
   27.90000     -1.6202966E-08
   27.96000     -1.7249921E-08
   28.02000     -1.8380147E-08
   28.08000     -1.9620577E-08
   28.14000     -2.0998574E-08
   28.20000     -2.2527640E-08
   28.26000     -2.4196060E-08
   28.32000     -2.5963397E-08
   28.38000     -2.7766852E-08
   28.44000     -2.9535617E-08
   28.50000     -3.1207975E-08
   28.56000     -3.2744715E-08
   28.62000     -3.4133627E-08
   28.68000     -3.5383483E-08
   28.74000     -3.6510119E-08
   28.80000     -3.7520529E-08
   28.86000     -3.8401669E-08
   28.92000     -3.9119005E-08
   28.98000     -3.9625697E-08
   29.04000     -3.9879275E-08
   29.10000     -3.9859493E-08
   29.16000     -3.9580669E-08
   29.22000     -3.9093624E-08
   29.28000     -3.8476216E-08
   29.34000     -3.7815258E-08
   29.40000     -3.7185590E-08
   29.46000     -3.6632727E-08
   29.52000     -3.6164298E-08
   29.58000     -3.5752386E-08
   29.64000     -3.5345391E-08
   29.70000     -3.4885165E-08
   29.76000     -3.4323627E-08
   29.82000     -3.3633615E-08
   29.88000     -3.2810981E-08
   29.94000     -3.1868122E-08
   30.00000     -3.0822186E-08
   30.06000     -2.9683047E-08
   30.12000     -2.8445973E-08
   30.18000     -2.7091982E-08
   30.24000     -2.5595753E-08
   30.30000     -2.3938037E-08
   30.36000     -2.2117783E-08
   30.42000     -2.0159407E-08
   30.48000     -1.8112463E-08
   30.54000     -1.6043794E-08
   30.60000     -1.4024713E-08
   30.66000     -1.2117229E-08
   30.72000     -1.0363249E-08
   30.78000     -8.7794723E-09
   30.84000     -7.3588189E-09
   30.90000     -6.0774337E-09
   30.96000     -4.9049564E-09
   31.02000     -3.8151327E-09
   31.08000     -2.7938778E-09
   31.14000     -1.8426287E-09
   31.20000     -9.7607644E-10
   31.26000     -2.1503287E-10
   31.32000      4.2318202E-10
   31.38000      9.3338259E-10
   31.44000      1.3267819E-09
   31.50000      1.6288443E-09
   31.56000      1.8710617E-09
   31.62000      2.0795019E-09
   31.68000      2.2645497E-09
   31.74000      2.4160867E-09
   31.80000      2.5063762E-09
   31.86000      2.4998681E-09
   31.92000      2.3663072E-09
   31.98000      2.0921738E-09
   32.04000      1.6862106E-09
   32.10000      1.1772707E-09
   32.16000      6.0585026E-10
   32.22000      1.3074575E-11
   32.28000     -5.6839444E-10
   32.34000     -1.1182679E-09
   32.40000     -1.6265413E-09
   32.46000     -2.0871742E-09
   32.52000     -2.4909086E-09
   32.58000     -2.8206948E-09
   32.64000     -3.0518579E-09
   32.70000     -3.1570562E-09
   32.76000     -3.1141074E-09
   32.82000     -2.9136287E-09
   32.88000     -2.5634943E-09
   32.94000     -2.0882758E-09
   33.00000     -1.5236410E-09
   33.06000     -9.0751023E-10
   33.12000     -2.7096603E-10
   33.18000      3.6795772E-10
   33.24000      1.0055365E-09
   33.30000      1.6484757E-09
   33.36000      2.3067355E-09
   33.42000      2.9863005E-09
   33.48000      3.6851646E-09
   33.54000      4.3944328E-09
   33.60000      5.1040745E-09
   33.66000      5.8105778E-09
   33.72000      6.5225572E-09
   33.78000      7.2609638E-09
   33.84000      8.0528650E-09
   33.90000      8.9207131E-09
   33.96000      9.8714468E-09
   34.02000      1.0890304E-08
   34.08000      1.1942526E-08
   34.14000      1.2982837E-08
   34.20000      1.3969037E-08
   34.26000      1.4873974E-08
   34.32000      1.5690684E-08
   34.38000      1.6428356E-08
   34.44000      1.7101053E-08
   34.50000      1.7714587E-08
   34.56000      1.8258095E-08
   34.62000      1.8704901E-08
   34.68000      1.9022906E-08
   34.74000      1.9190141E-08
   34.80000      1.9208162E-08
   34.86000      1.9106610E-08
   34.92000      1.8935882E-08
   34.98000      1.8750480E-08
   35.04000      1.8590004E-08
   35.10000      1.8466361E-08
   35.16000      1.8363139E-08
   35.22000      1.8247905E-08
   35.28000      1.8092242E-08
   35.34000      1.7890786E-08
   35.40000      1.7670837E-08
   35.46000      1.7488178E-08
   35.52000      1.7410660E-08
   35.58000      1.7496280E-08
   35.64000      1.7774513E-08
   35.70000      1.8237895E-08
   35.76000      1.8846347E-08
   35.82000      1.9541339E-08
   35.88000      2.0263514E-08
   35.94000      2.0966723E-08
   36.00000      2.1623796E-08
   36.06000      2.2223404E-08
   36.12000      2.2760991E-08
   36.18000      2.3228784E-08
   36.24000      2.3609445E-08
   36.30000      2.3875756E-08
   36.36000      2.3995838E-08
   36.42000      2.3941245E-08
   36.48000      2.3694476E-08
   36.54000      2.3253216E-08
   36.60000      2.2630312E-08
   36.66000      2.1850164E-08
   36.72000      2.0943428E-08
   36.78000      1.9941945E-08
   36.84000      1.8875149E-08
   36.90000      1.7768183E-08
   36.96000      1.6641128E-08
   37.02000      1.5508553E-08
   37.08000      1.4378989E-08
   37.14000      1.3254494E-08
   37.20000      1.2130998E-08
   37.26000      1.1000006E-08
   37.32000      9.8517177E-09
   37.38000      8.6787848E-09
   37.44000      7.4793327E-09
   37.50000      6.2578609E-09
   37.56000      5.0232947E-09
   37.62000      3.7846326E-09
   37.68000      2.5457401E-09
   37.74000      1.3014291E-09
   37.80000      3.6700372E-11
   37.86000     -1.2700636E-09
   37.92000     -2.6406628E-09
   37.98000     -4.0894190E-09
   38.04000     -5.6168794E-09
   38.10000     -7.2070874E-09
   38.16000     -8.8293550E-09
   38.22000     -1.0443858E-08
   38.28000     -1.2009064E-08
   38.34000     -1.3488495E-08
   38.40000     -1.4854767E-08
   38.46000     -1.6090153E-08
   38.52000     -1.7184252E-08
   38.58000     -1.8130507E-08
   38.64000     -1.8923501E-08
   38.70000     -1.9558417E-08
   38.76000     -2.0032900E-08
   38.82000     -2.0350434E-08
   38.88000     -2.0523604E-08
   38.94000     -2.0575570E-08
   39.00000     -2.0538751E-08
   39.06000     -2.0450726E-08
   39.12000     -2.0348448E-08
   39.18000     -2.0262622E-08
   39.24000     -2.0214133E-08
   39.30000     -2.0213911E-08
   39.36000     -2.0266281E-08
   39.42000     -2.0374520E-08
   39.48000     -2.0546157E-08
   39.54000     -2.0795401E-08
   39.60000     -2.1141011E-08
   39.66000     -2.1599790E-08
   39.72000     -2.2178178E-08
   39.78000     -2.2865617E-08
   39.84000     -2.3633389E-08
   39.90000     -2.4440427E-08
   39.96000     -2.5244761E-08
   40.02000     -2.6016277E-08
   40.08000     -2.6745505E-08
   40.14000     -2.7444241E-08
   40.20000     -2.8137261E-08
   40.26000     -2.8848277E-08
   40.32000     -2.9586086E-08
   40.38000     -3.0337148E-08
   40.44000     -3.1068140E-08
   40.50000     -3.1737844E-08
   40.56000     -3.2313405E-08
   40.62000     -3.2783976E-08
   40.68000     -3.3165612E-08
   40.74000     -3.3494832E-08
   40.80000     -3.3813095E-08
   40.86000     -3.4148329E-08
   40.92000     -3.4501021E-08
   40.98000     -3.4840777E-08
   41.04000     -3.5115239E-08
   41.10000     -3.5268304E-08
   41.16000     -3.5261028E-08
   41.22000     -3.5087282E-08
   41.28000     -3.4778203E-08
   41.34000     -3.4393512E-08
   41.40000     -3.4002824E-08
   41.46000     -3.3663820E-08
   41.52000     -3.3405435E-08
   41.58000     -3.3222324E-08
   41.64000     -3.3082465E-08
   41.70000     -3.2944524E-08
   41.76000     -3.2777692E-08
   41.82000     -3.2575585E-08
   41.88000     -3.2358184E-08
   41.94000     -3.2160891E-08
   42.00000     -3.2015297E-08
   42.06000     -3.1930021E-08
   42.12000     -3.1880383E-08
   42.18000     -3.1812068E-08
   42.24000     -3.1658175E-08
   42.30000     -3.1363292E-08
   42.36000     -3.0905049E-08
   42.42000     -3.0304356E-08
   42.48000     -2.9620045E-08
   42.54000     -2.8929847E-08
   42.60000     -2.8304944E-08
   42.66000     -2.7787834E-08
   42.72000     -2.7381647E-08
   42.78000     -2.7054350E-08
   42.84000     -2.6755535E-08
   42.90000     -2.6438830E-08
   42.96000     -2.6081260E-08
   43.02000     -2.5692556E-08
   43.08000     -2.5311492E-08
   43.14000     -2.4991257E-08
   43.20000     -2.4779714E-08
   43.26000     -2.4701876E-08
   43.32000     -2.4750797E-08
   43.38000     -2.4889802E-08
   43.44000     -2.5064992E-08
   43.50000     -2.5223452E-08
   43.56000     -2.5330889E-08
   43.62000     -2.5382764E-08
   43.68000     -2.5405345E-08
   43.74000     -2.5446525E-08
   43.80000     -2.5559682E-08
   43.86000     -2.5786184E-08
   43.92000     -2.6142541E-08
   43.98000     -2.6616586E-08
   44.04000     -2.7173929E-08
   44.10000     -2.7772034E-08
   44.16000     -2.8376585E-08
   44.22000     -2.8973624E-08
   44.28000     -2.9572549E-08
   44.34000     -3.0198670E-08
   44.40000     -3.0878240E-08
   44.46000     -3.1622314E-08
   44.52000     -3.2416548E-08
   44.58000     -3.3221848E-08
   44.64000     -3.3986129E-08
   44.70000     -3.4662573E-08
   44.76000     -3.5226552E-08
   44.82000     -3.5683648E-08
   44.88000     -3.6064879E-08
   44.94000     -3.6410789E-08
   45.00000     -3.6751128E-08
   45.06000     -3.7088970E-08
   45.12000     -3.7396209E-08
   45.18000     -3.7622542E-08
   45.24000     -3.7714102E-08
   45.30000     -3.7633775E-08
   45.36000     -3.7374768E-08
   45.42000     -3.6961875E-08
   45.48000     -3.6440305E-08
   45.54000     -3.5856875E-08
   45.60000     -3.5240998E-08
   45.66000     -3.4592265E-08
   45.72000     -3.3878361E-08
   45.78000     -3.3042653E-08
   45.84000     -3.2017653E-08
   45.90000     -3.0739258E-08
   45.96000     -2.9157432E-08
   46.02000     -2.7241112E-08
   46.08000     -2.4977332E-08
   46.14000     -2.2365974E-08
   46.20000     -1.9412122E-08
   46.26000     -1.6117710E-08
   46.32000     -1.2473815E-08
   46.38000     -8.4544336E-09
   46.44000     -4.0123487E-09
   46.50000      9.2284574E-10
   46.56000      6.4451338E-09
   46.62000      1.2672220E-08
   46.68000      1.9747187E-08
   46.74000      2.7843269E-08
   46.80000      3.7172246E-08
   46.86000      4.7995691E-08
   46.92000      6.0636985E-08
   46.98000      7.5491684E-08
   47.04000      9.3034636E-08
   47.10000      1.1382397E-07
   47.16000      1.3850415E-07
   47.22000      1.6781158E-07
   47.28000      2.0258631E-07
   47.34000      2.4379204E-07
   47.40000      2.9254406E-07
   47.46000      3.5014239E-07
   47.52000      4.1810705E-07
   47.58000      4.9821176E-07
   47.64000      5.9251465E-07
   47.70000      7.0338797E-07
   47.76000      8.3354939E-07
   47.82000      9.8610019E-07
   47.88000      1.1645730E-06
   47.94000      1.3729896E-06
   48.00000      1.6159290E-06
   48.06000      1.8986003E-06
   48.12000      2.2269185E-06
   48.18000      2.6075786E-06
   48.24000      3.0481299E-06
   48.30000      3.5570472E-06
   48.36000      4.1438097E-06
   48.42000      4.8189850E-06
   48.48000      5.5943224E-06
   48.54000      6.4828614E-06
   48.60000      7.4990548E-06
   48.66000      8.6588943E-06
   48.72000      9.9800436E-06
   48.78000      1.1481966E-05
   48.84000      1.3186042E-05
   48.90000      1.5115681E-05
   48.96000      1.7296421E-05
   49.02000      1.9756024E-05
   49.08000      2.2524569E-05
   49.14000      2.5634548E-05
   49.20000      2.9120951E-05
   49.26000      3.3021377E-05
   49.32000      3.7376107E-05
   49.38000      4.2228166E-05
   49.44000      4.7623365E-05
   49.50000      5.3610289E-05
   49.56000      6.0240287E-05
   49.62000      6.7567424E-05
   49.68000      7.5648342E-05
   49.74000      8.4542240E-05
   49.80000      9.4310635E-05
   49.86000      1.0501727E-04
   49.92000      1.1672790E-04
   49.98000      1.2950998E-04
   50.04000      1.4343245E-04
   50.10000      1.5856529E-04
   50.16000      1.7497917E-04
   50.22000      1.9274496E-04
   50.28000      2.1193331E-04
   50.34000      2.3261402E-04
   50.40000      2.5485561E-04
   50.46000      2.7872465E-04
   50.52000      3.0428512E-04
   50.58000      3.3159781E-04
   50.64000      3.6071957E-04
   50.70000      3.9170269E-04
   50.76000      4.2459407E-04
   50.82000      4.5943452E-04
   50.88000      4.9625803E-04
   50.94000      5.3509115E-04
   51.00000      5.7595217E-04
   51.06000      6.1885052E-04
   51.12000      6.6378637E-04
   51.18000      7.1074977E-04
   51.24000      7.5972057E-04
   51.30000      8.1066752E-04
   51.36000      8.6354837E-04
   51.42000      9.1830932E-04
   51.48000      9.7488501E-04
   51.54000      1.0331984E-03
   51.60000      1.0931612E-03
   51.66000      1.1546732E-03
   51.72000      1.2176241E-03
   51.78000      1.2818925E-03
   51.84000      1.3473480E-03
   51.90000      1.4138502E-03
   51.96000      1.4812511E-03
   52.02000      1.5493949E-03
   52.08000      1.6181199E-03
   52.14000      1.6872593E-03
   52.20000      1.7566428E-03
   52.26000      1.8260973E-03
   52.32000      1.8954494E-03
   52.38000      1.9645258E-03
   52.44000      2.0331563E-03
   52.50000      2.1011739E-03
   52.56000      2.1684172E-03
   52.62000      2.2347311E-03
   52.68000      2.2999686E-03
   52.74000      2.3639933E-03
   52.80000      2.4266788E-03
   52.86000      2.4879109E-03
   52.92000      2.5475891E-03
   52.98000      2.6056273E-03
   53.04000      2.6619541E-03
   53.10000      2.7165138E-03
   53.16000      2.7692667E-03
   53.22000      2.8201889E-03
   53.28000      2.8692726E-03
   53.34000      2.9165260E-03
   53.40000      2.9619725E-03
   53.46000      3.0056504E-03
   53.52000      3.0476125E-03
   53.58000      3.0879241E-03
   53.64000      3.1266625E-03
   53.70000      3.1639151E-03
   53.76000      3.1997783E-03
   53.82000      3.2343555E-03
   53.88000      3.2677546E-03
   53.94000      3.3000880E-03
   54.00000      3.3314680E-03
   54.06000      3.3620077E-03
   54.12000      3.3918165E-03
   54.18000      3.4210009E-03
   54.24000      3.4496603E-03
   54.30000      3.4778870E-03
   54.36000      3.5057634E-03
   54.42000      3.5333603E-03
   54.48000      3.5607354E-03
   54.54000      3.5879333E-03
   54.60000      3.6149838E-03
   54.66000      3.6419015E-03
   54.72000      3.6686854E-03
   54.78000      3.6953192E-03
   54.84000      3.7217699E-03
   54.90000      3.7479897E-03
   54.96000      3.7739153E-03
   55.02000      3.7994692E-03
   55.08000      3.8245604E-03
   55.14000      3.8490857E-03
   55.20000      3.8729317E-03
   55.26000      3.8959766E-03
   55.32000      3.9180908E-03
   55.38000      3.9391425E-03
   55.44000      3.9589936E-03
   55.50000      3.9775074E-03
   55.56000      3.9945473E-03