  -2.400000      0.0000000E+00
  -2.340000      0.0000000E+00
  -2.280000      0.0000000E+00
  -2.220000      0.0000000E+00
  -2.160000      0.0000000E+00
  -2.100000      0.0000000E+00
  -2.040000      0.0000000E+00
  -1.980000      4.7127885E-26
  -1.920000      3.9308182E-25
  -1.860000      1.1845082E-24
  -1.800000     -8.0436828E-25
  -1.740000     -2.1663059E-23
  -1.680000     -1.0075167E-22
  -1.620000     -2.8156591E-22
  -1.560000     -5.0708014E-22
  -1.500000     -4.0710433E-22
  -1.440000      8.8064685E-22
  -1.380000      4.4500907E-21
  -1.320000      1.0421644E-20
  -1.260000      1.5799583E-20
  -1.200000      1.2740129E-20
  -1.140000     -9.9151095E-21
  -1.080000     -5.9105719E-20
  -1.020000     -1.2496905E-19
 -0.9600000     -1.7115653E-19
 -0.9000000     -1.4168600E-19
 -0.8400000      5.8523881E-21
 -0.7800000      2.5006704E-19
 -0.7200000      4.7658409E-19
 -0.6600000      5.2386909E-19
 -0.6000000      3.3019597E-19
 -0.5400000      1.2222416E-19
 -0.4800000      4.7499378E-19
 -0.4200000      2.0269972E-18
 -0.3600000      4.7604455E-18
 -0.3000000      7.0957770E-18
 -0.2400000      5.4791079E-18
 -0.1800000     -4.6423481E-18
 -0.1200000     -2.5923523E-17
 -5.9999999E-02 -5.4875814E-17
  0.0000000E+00 -7.8388578E-17
  5.9999999E-02 -7.4256070E-17
  0.1200000     -1.8527618E-17
  0.1800000      1.0018770E-16
  0.2400000      2.6386596E-16
  0.3000000      4.1454338E-16
  0.3600000      4.6051006E-16
  0.4200000      3.0561952E-16
  0.4800000     -1.0176146E-16
  0.5400000     -7.1644328E-16
  0.6000000     -1.3668089E-15
  0.6600000     -1.7740578E-15
  0.7200000     -1.6328209E-15
  0.7800000     -7.4017784E-16
  0.8400000      8.6863435E-16
  0.9000000      2.8384673E-15
  0.9600000      4.5238035E-15
   1.020000      5.1558248E-15
   1.080000      4.1200407E-15
   1.140000      1.2595762E-15
   1.200000     -2.9189225E-15
   1.260000     -7.2552675E-15
   1.320000     -1.0221840E-14
   1.380000     -1.0443132E-14
   1.440000     -7.2899975E-15
   1.500000     -1.3089601E-15
   1.560000      5.7502826E-15
   1.620000      1.1431973E-14
   1.680000      1.3509659E-14
   1.740000      1.1037415E-14
   1.800000      5.0394856E-15
   1.860000     -1.6056828E-15
   1.920000     -5.2598844E-15
   1.980000     -3.3190740E-15
   2.040000      4.0289186E-15
   2.100000      1.3037835E-14
   2.160000      1.7364121E-14
   2.220000      1.0803984E-14
   2.280000     -9.0893699E-15
   2.340000     -3.8176175E-14
   2.400000     -6.5481671E-14
   2.460000     -7.6524250E-14
   2.520000     -5.9630422E-14
   2.580000     -1.2878391E-14
   2.640000      5.1757125E-14
   2.700000      1.1008486E-13
   2.760000      1.3413764E-13
   2.820000      1.0512943E-13
   2.880000      2.5732503E-14
   2.940000     -7.4698928E-14
   3.000000     -1.4668274E-13
   3.060000     -1.3926582E-13
   3.120000     -2.5383121E-14
   3.180000      1.7615815E-13
   3.240000      3.9335798E-13
   3.300000      5.1605080E-13
   3.360000      4.3306697E-13
   3.420000      8.1629785E-14
   3.480000     -5.0861838E-13
   3.540000     -1.1966579E-12
   3.600000     -1.7503887E-12
   3.660000     -1.9080076E-12
   3.720000     -1.4667027E-12
   3.780000     -3.7161095E-13
   3.840000      1.2274714E-12
   3.900000      2.9783116E-12
   3.960000      4.3973657E-12
   4.020000      4.9967370E-12
   4.080000      4.4322410E-12
   4.140000      2.6259240E-12
   4.200000     -1.8016009E-13
   4.260000     -3.4625178E-12
   4.320000     -6.5406664E-12
   4.380000     -8.7506001E-12
   4.440000     -9.6113065E-12
   4.500000     -8.9289175E-12
   4.560000     -6.8047954E-12
   4.620000     -3.5499698E-12
   4.680000      4.5439629E-13
   4.740000      4.8872820E-12
   4.800000      9.5467193E-12
   4.860000      1.4302688E-11
   4.920000      1.8954680E-11
   4.980000      2.3050931E-11
   5.040000      2.5755101E-11
   5.100000      2.5843759E-11
   5.160000      2.1882451E-11
   5.220000      1.2569457E-11
   5.280000     -2.8247647E-12
   5.340000     -2.4035968E-11
   5.400000     -4.9521470E-11
   5.460000     -7.6398658E-11
   5.520000     -1.0063328E-10
   5.580000     -1.1744111E-10
   5.640000     -1.2182443E-10
   5.700000     -1.0916006E-10
   5.760000     -7.5788674E-11
   5.820000     -1.9608480E-11
   5.880000      5.9277250E-11
   5.940000      1.5779972E-10
   6.000000      2.6903371E-10
   6.060000      3.8124690E-10
   6.120000      4.7706800E-10
   6.180000      5.3303822E-10
   6.240000      5.1983456E-10
   6.300000      4.0338921E-10
   6.360000      1.4698502E-10
   6.420000     -2.8579253E-10
   6.480000     -9.2756081E-10
   6.540000     -1.8035524E-09
   6.600000     -2.9284255E-09
   6.660000     -4.3038835E-09
   6.720000     -5.9173622E-09
   6.780000     -7.7418312E-09
   6.840000     -9.7366071E-09
   6.900000     -1.1848964E-08
   6.960000     -1.4016299E-08
   7.020000     -1.6168771E-08
   7.080000     -1.8232322E-08
   7.140000     -2.0132175E-08
   7.200000     -2.1796877E-08
   7.260000     -2.3162823E-08
   7.320000     -2.4179041E-08
   7.380000     -2.4811838E-08
   7.440000     -2.5048616E-08
   7.500000     -2.4900221E-08
   7.560000     -2.4401201E-08
   7.620000     -2.3607633E-08
   7.680000     -2.2592525E-08
   7.740000     -2.1439229E-08
   7.800000     -2.0233603E-08
   7.860000     -1.9055943E-08
   7.920000     -1.7973699E-08
   7.980000     -1.7035898E-08
   8.040000     -1.6269926E-08
   8.100000     -1.5680945E-08
   8.160000     -1.5253907E-08
   8.220000     -1.4957692E-08
   8.280000     -1.4750731E-08
   8.340000     -1.4587257E-08
   8.400000     -1.4423362E-08
   8.460000     -1.4222175E-08
   8.520000     -1.3957621E-08
   8.580000     -1.3616626E-08
   8.640000     -1.3199745E-08
   8.700000     -1.2720493E-08
   8.760000     -1.2203675E-08
   8.820000     -1.1682993E-08
   8.880000     -1.1198150E-08
   8.940000     -1.0791514E-08
   9.000000     -1.0504429E-08
   9.060000     -1.0373244E-08
   9.120000     -1.0425296E-08
   9.180000     -1.0675246E-08
   9.240000     -1.1122326E-08
   9.300000     -1.1749108E-08
   9.360000     -1.2522332E-08
   9.420000     -1.3396066E-08
   9.480000     -1.4317088E-08
   9.540000     -1.5231855E-08
   9.600000     -1.6094026E-08
   9.660000     -1.6871175E-08
   9.720000     -1.7549249E-08
   9.780000     -1.8133688E-08
   9.840000     -1.8646640E-08
   9.900000     -1.9120590E-08
   9.960000     -1.9589608E-08
   10.02000     -2.0080114E-08
   10.08000     -2.0603343E-08
   10.14000     -2.1151553E-08
   10.20000     -2.1699060E-08
   10.26000     -2.2208122E-08
   10.32000     -2.2638314E-08
   10.38000     -2.2957028E-08
   10.44000     -2.3148250E-08
   10.50000     -2.3217142E-08
   10.56000     -2.3188967E-08
   10.62000     -2.3102443E-08
   10.68000     -2.2999192E-08
   10.74000     -2.2912095E-08
   10.80000     -2.2855787E-08
   10.86000     -2.2822018E-08
   10.92000     -2.2781286E-08
   10.98000     -2.2690319E-08
   11.04000     -2.2503416E-08
   11.10000     -2.2184361E-08
   11.16000     -2.1715525E-08
   11.22000     -2.1101599E-08
   11.28000     -2.0366990E-08
   11.34000     -1.9547956E-08
   11.40000     -1.8682105E-08
   11.46000     -1.7798737E-08
   11.52000     -1.6913187E-08
   11.58000     -1.6026904E-08
   11.64000     -1.5133111E-08
   11.70000     -1.4225988E-08
   11.76000     -1.3310107E-08
   11.82000     -1.2406615E-08
   11.88000     -1.1553698E-08
   11.94000     -1.0800533E-08
   12.00000     -1.0196070E-08
   12.06000     -9.7757011E-09
   12.12000     -9.5497947E-09
   12.18000     -9.4978319E-09
   12.24000     -9.5705186E-09
   12.30000     -9.7000319E-09
   12.36000     -9.8160990E-09
   12.42000     -9.8636486E-09
   12.48000     -9.8169597E-09
   12.54000     -9.6859072E-09
   12.60000     -9.5120374E-09
   12.66000     -9.3552375E-09
   12.72000     -9.2746495E-09
   12.78000     -9.3094457E-09
   12.84000     -9.4652144E-09
   12.90000     -9.7100576E-09
   12.96000     -9.9814850E-09
   13.02000     -1.0201821E-08
   13.08000     -1.0297276E-08
   13.14000     -1.0214886E-08
   13.20000     -9.9324247E-09
   13.26000     -9.4589350E-09
   13.32000     -8.8265883E-09
   13.38000     -8.0773015E-09
   13.44000     -7.2489765E-09
   13.50000     -6.3659331E-09
   13.56000     -5.4363687E-09
   13.62000     -4.4570303E-09
   13.68000     -3.4227479E-09
   13.74000     -2.3367828E-09
   13.80000     -1.2177026E-09
   13.86000     -9.9718143E-11
   13.92000      9.7429809E-10
   13.98000      1.9652893E-09
   14.04000      2.8520686E-09
   14.10000      3.6421748E-09
   14.16000      4.3754094E-09
   14.22000      5.1180082E-09
   14.28000      5.9482446E-09
   14.34000      6.9370318E-09
   14.40000      8.1289002E-09
   14.46000      9.5288906E-09
   14.52000      1.1099401E-08
   14.58000      1.2768147E-08
   14.64000      1.4445176E-08
   14.70000      1.6044160E-08
   14.76000      1.7502016E-08
   14.82000      1.8791463E-08
   14.88000      1.9923334E-08
   14.94000      2.0938481E-08
   15.00000      2.1892028E-08
   15.06000      2.2834692E-08
   15.12000      2.3796384E-08
   15.18000      2.4776330E-08
   15.24000      2.5742004E-08
   15.30000      2.6636636E-08
   15.36000      2.7393044E-08
   15.42000      2.7949936E-08
   15.48000      2.8266493E-08
   15.54000      2.8331559E-08
   15.60000      2.8165141E-08
   15.66000      2.7811900E-08
   15.72000      2.7328268E-08
   15.78000      2.6766454E-08
   15.84000      2.6159404E-08
   15.90000      2.5510571E-08
   15.96000      2.4791179E-08
   16.02000      2.3945715E-08
   16.08000      2.2904407E-08
   16.14000      2.1599643E-08
   16.20000      1.9982407E-08
   16.26000      1.8034845E-08
   16.32000      1.5776047E-08
   16.38000      1.3259822E-08
   16.44000      1.0565135E-08
   16.50000      7.7816571E-09
   16.56000      4.9940225E-09
   16.62000      2.2686701E-09
   16.68000     -3.5356140E-10
   16.74000     -2.8574794E-09
   16.80000     -5.2466795E-09
   16.86000     -7.5321784E-09
   16.92000     -9.7201909E-09
   16.98000     -1.1802894E-08
   17.04000     -1.3755026E-08
   17.10000     -1.5537360E-08
   17.16000     -1.7105972E-08
   17.22000     -1.8424542E-08
   17.28000     -1.9476104E-08
   17.34000     -2.0270830E-08
   17.40000     -2.0847624E-08
   17.46000     -2.1268873E-08
   17.52000     -2.1609479E-08
   17.58000     -2.1942656E-08
   17.64000     -2.2325809E-08
   17.70000     -2.2789818E-08
   17.76000     -2.3334321E-08
   17.82000     -2.3930228E-08
   17.88000     -2.4528946E-08
   17.94000     -2.5076162E-08
   18.00000     -2.5526928E-08
   18.06000     -2.5858458E-08
   18.12000     -2.6077787E-08
   18.18000     -2.6222697E-08
   18.24000     -2.6356060E-08
   18.30000     -2.6554998E-08
   18.36000     -2.6897357E-08
   18.42000     -2.7448086E-08
   18.48000     -2.8248074E-08
   18.54000     -2.9307266E-08
   18.60000     -3.0603207E-08
   18.66000     -3.2085079E-08
   18.72000     -3.3682255E-08
   18.78000     -3.5315374E-08
   18.84000     -3.6907181E-08
   18.90000     -3.8390546E-08
   18.96000     -3.9711828E-08
   19.02000     -4.0829423E-08
   19.08000     -4.1709018E-08
   19.14000     -4.2318288E-08
   19.20000     -4.2623856E-08
   19.26000     -4.2592387E-08
   19.32000     -4.2195872E-08
   19.38000     -4.1419423E-08
   19.44000     -4.0268919E-08
   19.50000     -3.8775905E-08
   19.56000     -3.6998070E-08
   19.62000     -3.5015283E-08
   19.68000     -3.2922081E-08
   19.74000     -3.0818441E-08
   19.80000     -2.8800319E-08
   19.86000     -2.6951264E-08
   19.92000     -2.5335829E-08
   19.98000     -2.3995263E-08
   20.04000     -2.2945898E-08
   20.10000     -2.2180501E-08
   20.16000     -2.1672593E-08
   20.22000     -2.1383125E-08
   20.28000     -2.1268411E-08
   20.34000     -2.1287754E-08
   20.40000     -2.1409194E-08
   20.46000     -2.1612312E-08
   20.52000     -2.1887642E-08
   20.58000     -2.2233115E-08
   20.64000     -2.2648576E-08
   20.70000     -2.3129811E-08
   20.76000     -2.3663608E-08
   20.82000     -2.4225175E-08
   20.88000     -2.4778773E-08
   20.94000     -2.5281674E-08
   21.00000     -2.5690769E-08
   21.06000     -2.5970371E-08
   21.12000     -2.6099322E-08
   21.18000     -2.6075531E-08
   21.24000     -2.5916766E-08
   21.30000     -2.5657396E-08
   21.36000     -2.5341999E-08
   21.42000     -2.5017393E-08
   21.48000     -2.4725086E-08
   21.54000     -2.4495710E-08
   21.60000     -2.4346425E-08
   21.66000     -2.4281409E-08
   21.72000     -2.4294796E-08
   21.78000     -2.4374982E-08
   21.84000     -2.4509058E-08
   21.90000     -2.4686214E-08
   21.96000     -2.4899361E-08
   22.02000     -2.5144683E-08
   22.08000     -2.5419396E-08
   22.14000     -2.5718521E-08
   22.20000     -2.6031758E-08
   22.26000     -2.6341631E-08
   22.32000     -2.6623725E-08
   22.38000     -2.6849293E-08
   22.44000     -2.6989762E-08
   22.50000     -2.7022031E-08
   22.56000     -2.6933218E-08
   22.62000     -2.6723445E-08
   22.68000     -2.6405916E-08
   22.74000     -2.6004198E-08
   22.80000     -2.5547488E-08
   22.86000     -2.5065148E-08
   22.92000     -2.4581972E-08
   22.98000     -2.4115211E-08
   23.04000     -2.3673827E-08
   23.10000     -2.3259627E-08
   23.16000     -2.2869523E-08
   23.22000     -2.2498073E-08
   23.28000     -2.2139689E-08
   23.34000     -2.1790333E-08
   23.40000     -2.1448733E-08
   23.46000     -2.1117261E-08
   23.52000     -2.0802371E-08
   23.58000     -2.0514330E-08
   23.64000     -2.0266059E-08
   23.70000     -2.0071067E-08
   23.76000     -1.9940966E-08
   23.82000     -1.9883293E-08
   23.88000     -1.9900366E-08
   23.94000     -1.9989526E-08
   24.00000     -2.0144594E-08
   24.06000     -2.0357767E-08
   24.12000     -2.0621162E-08
   24.18000     -2.0927235E-08
   24.24000     -2.1267878E-08
   24.30000     -2.1632472E-08
   24.36000     -2.2005691E-08
   24.42000     -2.2366050E-08
   24.48000     -2.2686145E-08
   24.54000     -2.2935275E-08
   24.60000     -2.3084358E-08
   24.66000     -2.3112232E-08
   24.72000     -2.3011538E-08
   24.78000     -2.2791902E-08
   24.84000     -2.2478508E-08
   24.90000     -2.2105466E-08
   24.96000     -2.1705270E-08
   25.02000     -2.1297582E-08
   25.08000     -2.0881407E-08
   25.14000     -2.0434152E-08
   25.20000     -1.9918875E-08
   25.26000     -1.9298010E-08
   25.32000     -1.8549313E-08
   25.38000     -1.7678550E-08
   25.44000     -1.6724281E-08
   25.50000     -1.5752695E-08
   25.56000     -1.4843704E-08
   25.62000     -1.4072422E-08
   25.68000     -1.3491687E-08
   25.74000     -1.3120830E-08
   25.80000     -1.2944014E-08
   25.86000     -1.2918530E-08
   25.92000     -1.2990574E-08
   25.98000     -1.3113894E-08
   26.04000     -1.3265956E-08
   26.10000     -1.3456961E-08
   26.16000     -1.3729085E-08
   26.22000     -1.4146075E-08
   26.28000     -1.4776042E-08
   26.34000     -1.5672304E-08
   26.40000     -1.6857658E-08
   26.46000     -1.8316436E-08
   26.52000     -1.9996516E-08
   26.58000     -2.1820524E-08
   26.64000     -2.3703052E-08
   26.70000     -2.5569122E-08
   26.76000     -2.7369122E-08
   26.82000     -2.9086651E-08
   26.88000     -3.0737745E-08
   26.94000     -3.2362351E-08
   27.00000     -3.4010746E-08
   27.06000     -3.5728544E-08
   27.12000     -3.7544119E-08
   27.18000     -3.9461188E-08
   27.24000     -4.1457838E-08
   27.30000     -4.3491642E-08
   27.36000     -4.5509097E-08
   27.42000     -4.7456766E-08
   27.48000     -4.9291426E-08
   27.54000     -5.0987108E-08
   27.60000     -5.2537761E-08
   27.66000     -5.3955389E-08
   27.72000     -5.5264415E-08
   27.78000     -5.6493771E-08
   27.84000     -5.7668458E-08
   27.90000     -5.8802495E-08
   27.96000     -5.9894816E-08
   28.02000     -6.0929011E-08
   28.08000     -6.1877266E-08
   28.14000     -6.2707315E-08
   28.20000     -6.3391035E-08
   28.26000     -6.3912317E-08
   28.32000     -6.4272307E-08
   28.38000     -6.4490408E-08
   28.44000     -6.4600762E-08
   28.50000     -6.4644958E-08
   28.56000     -6.4662565E-08
   28.62000     -6.4681785E-08
   28.68000     -6.4712232E-08
   28.74000     -6.4741691E-08
   28.80000     -6.4737719E-08
   28.86000     -6.4653868E-08
   28.92000     -6.4439490E-08
   28.98000     -6.4051001E-08
   29.04000     -6.3462025E-08
   29.10000     -6.2670040E-08
   29.16000     -6.1697541E-08
   29.22000     -6.0587233E-08
   29.28000     -5.9392146E-08
   29.34000     -5.8162826E-08
   29.40000     -5.6934979E-08
   29.46000     -5.5720658E-08
   29.52000     -5.4505669E-08
   29.58000     -5.3254091E-08
   29.64000     -5.1919169E-08
   29.70000     -5.0457725E-08
   29.76000     -4.8844257E-08
   29.82000     -4.7080647E-08
   29.88000     -4.5198401E-08
   29.94000     -4.3252466E-08
   30.00000     -4.1308276E-08
   30.06000     -3.9425746E-08
   30.12000     -3.7645190E-08
   30.18000     -3.5979507E-08
   30.24000     -3.4415017E-08
   30.30000     -3.2920383E-08
   30.36000     -3.1460416E-08
   30.42000     -3.0009915E-08
   30.48000     -2.8562804E-08
   30.54000     -2.7133614E-08
   30.60000     -2.5751039E-08
   30.66000     -2.4446038E-08
   30.72000     -2.3238854E-08
   30.78000     -2.2129482E-08
   30.84000     -2.1095140E-08
   30.90000     -2.0095847E-08
   30.96000     -1.9086642E-08
   31.02000     -1.8032697E-08
   31.08000     -1.6922522E-08
   31.14000     -1.5774761E-08
   31.20000     -1.4635956E-08
   31.26000     -1.3569392E-08
   31.32000     -1.2638068E-08
   31.38000     -1.1886952E-08
   31.44000     -1.1330175E-08
   31.50000     -1.0947487E-08
   31.56000     -1.0691331E-08
   31.62000     -1.0502442E-08
   31.68000     -1.0328876E-08
   31.74000     -1.0142153E-08
   31.80000     -9.9450270E-09
   31.86000     -9.7681898E-09
   31.92000     -9.6569668E-09
   31.98000     -9.6524930E-09
   32.04000     -9.7738466E-09
   32.10000     -1.0007401E-08
   32.16000     -1.0307306E-08
   32.22000     -1.0607301E-08
   32.28000     -1.0840183E-08
   32.34000     -1.0958574E-08
   32.40000     -1.0950018E-08
   32.46000     -1.0841262E-08
   32.52000     -1.0690067E-08
   32.58000     -1.0567091E-08
   32.64000     -1.0533665E-08
   32.70000     -1.0622505E-08
   32.76000     -1.0827288E-08
   32.82000     -1.1103935E-08
   32.88000     -1.1382562E-08
   32.94000     -1.1585890E-08
   33.00000     -1.1648328E-08
   33.06000     -1.1530457E-08
   33.12000     -1.1225702E-08
   33.18000     -1.0758577E-08
   33.24000     -1.0176316E-08
   33.30000     -9.5368815E-09
   33.36000     -8.8966461E-09
   33.42000     -8.3003204E-09
   33.48000     -7.7748039E-09
   33.54000     -7.3276594E-09
   33.60000     -6.9500814E-09
   33.66000     -6.6235568E-09
   33.72000     -6.3287033E-09
   33.78000     -6.0542082E-09
   33.84000     -5.8035403E-09
   33.90000     -5.5974252E-09
   33.96000     -5.4710689E-09
   34.02000     -5.4666214E-09
   34.08000     -5.6229328E-09
   34.14000     -5.9657190E-09
   34.20000     -6.5012902E-09
   34.26000     -7.2159798E-09
   34.32000     -8.0815337E-09
   34.38000     -9.0646832E-09
   34.44000     -1.0137692E-08
   34.50000     -1.1286322E-08
   34.56000     -1.2512659E-08
   34.62000     -1.3832091E-08
   34.68000     -1.5265776E-08
   34.74000     -1.6831436E-08
   34.80000     -1.8535610E-08
   34.86000     -2.0369759E-08
   34.92000     -2.2311022E-08
   34.98000     -2.4326882E-08
   35.04000     -2.6381846E-08
   35.10000     -2.8444072E-08
   35.16000     -3.0490291E-08
   35.22000     -3.2508222E-08
   35.28000     -3.4496498E-08
   35.34000     -3.6462591E-08
   35.40000     -3.8419397E-08
   35.46000     -4.0381220E-08
   35.52000     -4.2359794E-08
   35.58000     -4.4361038E-08
   35.64000     -4.6383100E-08
   35.70000     -4.8415899E-08
   35.76000     -5.0442047E-08
   35.82000     -5.2438626E-08
   35.88000     -5.4379033E-08
   35.94000     -5.6234565E-08
   36.00000     -5.7975701E-08
   36.06000     -5.9573750E-08
   36.12000     -6.1003419E-08
   36.18000     -6.2246535E-08
   36.24000     -6.3296099E-08
   36.30000     -6.4159217E-08
   36.36000     -6.4856934E-08
   36.42000     -6.5419954E-08
   36.48000     -6.5880592E-08
   36.54000     -6.6263141E-08
   36.60000     -6.6575751E-08
   36.66000     -6.6807225E-08
   36.72000     -6.6930227E-08
   36.78000     -6.6910438E-08
   36.84000     -6.6718599E-08
   36.90000     -6.6341244E-08
   36.96000     -6.5786097E-08
   37.02000     -6.5080144E-08
   37.08000     -6.4260938E-08
   37.14000     -6.3364290E-08
   37.20000     -6.2412738E-08
   37.26000     -6.1408848E-08
   37.32000     -6.0335594E-08
   37.38000     -5.9163622E-08
   37.44000     -5.7862852E-08
   37.50000     -5.6414752E-08
   37.56000     -5.4821498E-08
   37.62000     -5.3109474E-08
   37.68000     -5.1326211E-08
   37.74000     -4.9531764E-08
   37.80000     -4.7786802E-08
   37.86000     -4.6140574E-08
   37.92000     -4.4621856E-08
   37.98000     -4.3235339E-08
   38.04000     -4.1964551E-08
   38.10000     -4.0780758E-08
   38.16000     -3.9655461E-08
   38.22000     -3.8572793E-08
   38.28000     -3.7537966E-08
   38.34000     -3.6578786E-08
   38.40000     -3.5739429E-08
   38.46000     -3.5068283E-08
   38.52000     -3.4603740E-08
   38.58000     -3.4362785E-08
   38.64000     -3.4336313E-08
   38.70000     -3.4492793E-08
   38.76000     -3.4788904E-08
   38.82000     -3.5183245E-08
   38.88000     -3.5647989E-08
   38.94000     -3.6174381E-08
   39.00000     -3.6770164E-08
   39.06000     -3.7450249E-08
   39.12000     -3.8224560E-08
   39.18000     -3.9088050E-08
   39.24000     -4.0017131E-08
   39.30000     -4.0974232E-08
   39.36000     -4.1918973E-08
   39.42000     -4.2821899E-08
   39.48000     -4.3675477E-08
   39.54000     -4.4498012E-08
   39.60000     -4.5328584E-08
   39.66000     -4.6214531E-08
   39.72000     -4.7195392E-08
   39.78000     -4.8288751E-08
   39.84000     -4.9482569E-08
   39.90000     -5.0736418E-08
   39.96000     -5.1991211E-08
   40.02000     -5.3184440E-08
   40.08000     -5.4266376E-08
   40.14000     -5.5212890E-08
   40.20000     -5.6031503E-08
   40.26000     -5.6759490E-08
   40.32000     -5.7454638E-08
   40.38000     -5.8181257E-08
   40.44000     -5.8994711E-08
   40.50000     -5.9928240E-08
   40.56000     -6.0984981E-08
   40.62000     -6.2137012E-08
   40.68000     -6.3331385E-08
   40.74000     -6.4501549E-08
   40.80000     -6.5581183E-08
   40.86000     -6.6516989E-08
   40.92000     -6.7277433E-08
   40.98000     -6.7855822E-08
   41.04000     -6.8267717E-08
   41.10000     -6.8544281E-08
   41.16000     -6.8723857E-08
   41.22000     -6.8844138E-08
   41.28000     -6.8936359E-08
   41.34000     -6.9021937E-08
   41.40000     -6.9111202E-08
   41.46000     -6.9203331E-08
   41.52000     -6.9287047E-08
   41.58000     -6.9342065E-08
   41.64000     -6.9341567E-08
   41.70000     -6.9256068E-08
   41.76000     -6.9058494E-08
   41.82000     -6.8729733E-08
   41.88000     -6.8263205E-08
   41.94000     -6.7667223E-08
   42.00000     -6.6963942E-08
   42.06000     -6.6184860E-08
   42.12000     -6.5363601E-08
   42.18000     -6.4527576E-08
   42.24000     -6.3690599E-08
   42.30000     -6.2848251E-08
   42.36000     -6.1977573E-08
   42.42000     -6.1041298E-08
   42.48000     -5.9996154E-08
   42.54000     -5.8803238E-08
   42.60000     -5.7438001E-08
   42.66000     -5.5896965E-08
   42.72000     -5.4199159E-08
   42.78000     -5.2381392E-08
   42.84000     -5.0488403E-08
   42.90000     -4.8560423E-08
   42.96000     -4.6621835E-08
   43.02000     -4.4674408E-08
   43.08000     -4.2697490E-08
   43.14000     -4.0655525E-08
   43.20000     -3.8510979E-08
   43.26000     -3.6239040E-08
   43.32000     -3.3839605E-08
   43.38000     -3.1342754E-08
   43.44000     -2.8805701E-08
   43.50000     -2.6301684E-08
   43.56000     -2.3903921E-08
   43.62000     -2.1669239E-08
   43.68000     -1.9626443E-08
   43.74000     -1.7772903E-08
   43.80000     -1.6080453E-08
   43.86000     -1.4508689E-08
   43.92000     -1.3021445E-08
   43.98000     -1.1601315E-08
   44.04000     -1.0257836E-08
   44.10000     -9.0270360E-09
   44.16000     -7.9627833E-09
   44.22000     -7.1227411E-09
   44.28000     -6.5531278E-09
   44.34000     -6.2765619E-09
   44.40000     -6.2861867E-09
   44.46000     -6.5474759E-09
   44.52000     -7.0070532E-09
   44.58000     -7.6060722E-09
   44.64000     -8.2945180E-09
   44.70000     -9.0424628E-09
   44.76000     -9.8451025E-09
   44.82000     -1.0720049E-08
   44.88000     -1.1697700E-08
   44.94000     -1.2807753E-08
   45.00000     -1.4066285E-08
   45.06000     -1.5467798E-08
   45.12000     -1.6984995E-08
   45.18000     -1.8576381E-08
   45.24000     -2.0198968E-08
   45.30000     -2.1821561E-08
   45.36000     -2.3433886E-08
   45.42000     -2.5048227E-08
   45.48000     -2.6692987E-08
   45.54000     -2.8400221E-08
   45.60000     -3.0191252E-08
   45.66000     -3.2065103E-08
   45.72000     -3.3993619E-08
   45.78000     -3.5925012E-08
   45.84000     -3.7795175E-08
   45.90000     -3.9543625E-08
   45.96000     -4.1129432E-08
   46.02000     -4.2542521E-08
   46.08000     -4.3806725E-08
   46.14000     -4.4973618E-08
   46.20000     -4.6108756E-08
   46.26000     -4.7274369E-08
   46.32000     -4.8513662E-08
   46.38000     -4.9841347E-08
   46.44000     -5.1243109E-08
   46.50000     -5.2684030E-08
   46.56000     -5.4123451E-08
   46.62000     -5.5532187E-08
   46.68000     -5.6907691E-08
   46.74000     -5.8283742E-08
   46.80000     -5.9732947E-08
   46.86000     -6.1362393E-08
   46.92000     -6.3304363E-08
   46.98000     -6.5705407E-08
   47.04000     -6.8717149E-08
   47.10000     -7.2491801E-08
   47.16000     -7.7184211E-08
   47.22000     -8.2960312E-08
   47.28000     -9.0010253E-08
   47.34000     -9.8562964E-08
   47.40000     -1.0889883E-07
   47.46000     -1.2135784E-07
   47.52000     -1.3634228E-07
   47.58000     -1.5431537E-07
   47.64000     -1.7579860E-07
   47.70000     -2.0137126E-07
   47.76000     -2.3167517E-07
   47.82000     -2.6742615E-07
   47.88000     -3.0943113E-07
   47.94000     -3.5861004E-07
   48.00000     -4.1601862E-07
   48.06000     -4.8287001E-07
   48.12000     -5.6055342E-07
   48.18000     -6.5064921E-07
   48.24000     -7.5494114E-07
   48.30000     -8.7542810E-07
   48.36000     -1.0143373E-06
   48.42000     -1.1741415E-06
   48.48000     -1.3575805E-06
   48.54000     -1.5676885E-06
   48.60000     -1.8078241E-06
   48.66000     -2.0817024E-06
   48.72000     -2.3934267E-06
   48.78000     -2.7475185E-06
   48.84000     -3.1489442E-06
   48.90000     -3.6031445E-06
   48.96000     -4.1160579E-06
   49.02000     -4.6941514E-06
   49.08000     -5.3444460E-06
   49.14000     -6.0745451E-06
   49.20000     -6.8926533E-06
   49.26000     -7.8075991E-06
   49.32000     -8.8288407E-06
   49.38000     -9.9664776E-06
   49.44000     -1.1231242E-05
   49.50000     -1.2634503E-05
   49.56000     -1.4188253E-05
   49.62000     -1.5905101E-05
   49.68000     -1.7798262E-05
   49.74000     -1.9881538E-05
   49.80000     -2.2169292E-05
   49.86000     -2.4676418E-05
   49.92000     -2.7418297E-05
   49.98000     -3.0410723E-05
   50.04000     -3.3669836E-05
   50.10000     -3.7212008E-05
   50.16000     -4.1053780E-05
   50.22000     -4.5211695E-05
   50.28000     -4.9702256E-05
   50.34000     -5.4541757E-05
   50.40000     -5.9746180E-05
   50.46000     -6.5331078E-05
   50.52000     -7.1311413E-05
   50.58000     -7.7701407E-05
   50.64000     -8.4514402E-05
   50.70000     -9.1762660E-05
   50.76000     -9.9457167E-05
   50.82000     -1.0760751E-04
   50.88000     -1.1622164E-04
   50.94000     -1.2530574E-04
   51.00000     -1.3486402E-04
   51.06000     -1.4489860E-04
   51.12000     -1.5540930E-04
   51.18000     -1.6639360E-04
   51.24000     -1.7784654E-04
   51.30000     -1.8976053E-04
   51.36000     -2.0212537E-04
   51.42000     -2.1492815E-04
   51.48000     -2.2815313E-04
   51.54000     -2.4178183E-04
   51.60000     -2.5579290E-04
   51.66000     -2.7016227E-04
   51.72000     -2.8486326E-04
   51.78000     -2.9986654E-04
   51.84000     -3.1514041E-04
   51.90000     -3.3065095E-04
   51.96000     -3.4636215E-04
   52.02000     -3.6223614E-04
   52.08000     -3.7823350E-04
   52.14000     -3.9431339E-04
   52.20000     -4.1043403E-04
   52.26000     -4.2655302E-04
   52.32000     -4.4262753E-04
   52.38000     -4.5861476E-04
   52.44000     -4.7447227E-04
   52.50000     -4.9015827E-04
   52.56000     -5.0563214E-04
   52.62000     -5.2085478E-04
   52.68000     -5.3578877E-04
   52.74000     -5.5039913E-04
   52.80000     -5.6465331E-04
   52.86000     -5.7852163E-04
   52.92000     -5.9197750E-04
   52.98000     -6.0499774E-04
   53.04000     -6.1756291E-04
   53.10000     -6.2965712E-04
   53.16000     -6.4126850E-04
   53.22000     -6.5238937E-04
   53.28000     -6.6301605E-04
   53.34000     -6.7314884E-04
   53.40000     -6.8279210E-04
   53.46000     -6.9195399E-04
   53.52000     -7.0064643E-04
   53.58000     -7.0888485E-04
   53.64000     -7.1668811E-04
   53.70000     -7.2407798E-04
   53.76000     -7.3107891E-04
   53.82000     -7.3771755E-04
   53.88000     -7.4402266E-04
   53.94000     -7.5002422E-04
   54.00000     -7.5575331E-04
   54.06000     -7.6124142E-04
   54.12000     -7.6652021E-04
   54.18000     -7.7162101E-04
   54.24000     -7.7657407E-04
   54.30000     -7.8140845E-04
   54.36000     -7.8615156E-04
   54.42000     -7.9082843E-04
   54.48000     -7.9546170E-04
   54.54000     -8.0007093E-04
   54.60000     -8.0467283E-04
   54.66000     -8.0928026E-04
   54.72000     -8.1390270E-04
   54.78000     -8.1854564E-04
   54.84000     -8.2321110E-04
   54.90000     -8.2789699E-04
   54.96000     -8.3259755E-04
   55.02000     -8.3730335E-04
   55.08000     -8.4200146E-04
   55.14000     -8.4667554E-04
   55.20000     -8.5130619E-04
   55.26000     -8.5587124E-04
   55.32000     -8.6034607E-04
   55.38000     -8.6470420E-04
   55.44000     -8.6891744E-04
   55.50000     -8.7295676E-04
   55.56000     -8.7679247E-04