  -2.400000      0.0000000E+00
  -2.340000      0.0000000E+00
  -2.280000      0.0000000E+00
  -2.220000      0.0000000E+00
  -2.160000      0.0000000E+00
  -2.100000      0.0000000E+00
  -2.040000      0.0000000E+00
  -1.980000      0.0000000E+00
  -1.920000      0.0000000E+00
  -1.860000      0.0000000E+00
  -1.800000      0.0000000E+00
  -1.740000      0.0000000E+00
  -1.680000      0.0000000E+00
  -1.620000      1.6800816E-35
  -1.560000      8.0772149E-35
  -1.500000     -1.7881218E-33
  -1.440000     -2.9892965E-32
  -1.380000     -2.3769460E-31
  -1.320000     -1.2469618E-30
  -1.260000     -4.6444267E-30
  -1.200000     -1.1891915E-29
  -1.140000     -1.5216032E-29
  -1.080000      3.0786339E-29
  -1.020000      2.5361373E-28
 -0.9600000      8.4348115E-28
 -0.9000000      1.7295598E-27
 -0.8400000      1.6195628E-27
 -0.7800000     -3.4308096E-27
 -0.7200000     -1.9935504E-26
 -0.6600000     -5.0517629E-26
 -0.6000000     -7.5727146E-26
 -0.5400000     -2.8402157E-26
 -0.4800000      2.0899151E-25
 -0.4200000      7.2131765E-25
 -0.3600000      1.3362871E-24
 -0.3000000      1.3213412E-24
 -0.2400000     -6.7704653E-25
 -0.1800000     -5.8787563E-24
 -0.1200000     -1.3383145E-23
 -5.9999999E-02 -1.7574541E-23
  0.0000000E+00 -7.4419024E-24
  5.9999999E-02  2.8202405E-23
  0.1200000      8.7229178E-23
  0.1800000      1.3708042E-22
  0.2400000      1.0971172E-22
  0.3000000     -6.9144113E-23
  0.3600000     -4.0569420E-22
  0.4200000     -7.4663158E-22
  0.4800000     -7.5132016E-22
  0.5400000     -3.2025885E-23
  0.6000000      1.4985836E-21
  0.6600000      3.2122788E-21
  0.7200000      3.6412305E-21
  0.7800000      1.0719932E-21
  0.8400000     -5.0198562E-21
  0.9000000     -1.2296143E-20
  0.9600000     -1.5053160E-20
   1.020000     -6.4637598E-21
   1.080000      1.6073791E-20
   1.140000      4.4736050E-20
   1.200000      5.9208632E-20
   1.260000      3.4124212E-20
   1.320000     -4.2818736E-20
   1.380000     -1.4943391E-19
   1.440000     -2.2031327E-19
   1.500000     -1.6793377E-19
   1.560000      6.1920505E-20
   1.620000      4.2139664E-19
   1.680000      7.2507535E-19
   1.740000      6.9907701E-19
   1.800000      1.3254210E-19
   1.860000     -9.1986610E-19
   1.920000     -2.0075990E-18
   1.980000     -2.3691725E-18
   2.040000     -1.2981505E-18
   2.100000      1.3155318E-18
   2.160000      4.5632796E-18
   2.220000      6.5843039E-18
   2.280000      5.3375976E-18
   2.340000     -9.1648562E-20
   2.400000     -8.2852387E-18
   2.460000     -1.5265957E-17
   2.520000     -1.5888189E-17
   2.580000     -6.6819881E-18
   2.640000      1.1071468E-17
   2.700000      2.9971437E-17
   2.760000      3.8513715E-17
   2.820000      2.6679536E-17
   2.880000     -6.9725295E-18
   2.940000     -5.0650036E-17
   3.000000     -8.1141759E-17
   3.060000     -7.3676951E-17
   3.120000     -1.6917228E-17
   3.180000      7.4281918E-17
   3.240000      1.5728551E-16
   3.300000      1.7679779E-16
   3.360000      9.3992176E-17
   3.420000     -8.2795002E-17
   3.480000     -2.8407579E-16
   3.540000     -3.9700593E-16
   3.600000     -3.1642999E-16
   3.660000     -1.1058189E-17
   3.720000      4.2919099E-16
   3.780000      7.9985771E-16
   3.840000      8.5844423E-16
   3.900000      4.5102884E-16
   3.960000     -3.6700365E-16
   4.020000     -1.2879801E-15
   4.080000     -1.8379836E-15
   4.140000     -1.5862011E-15
   4.200000     -3.9962607E-16
   4.260000      1.3856770E-15
   4.320000      2.9993727E-15
   4.380000      3.5231694E-15
   4.440000      2.3477945E-15
   4.500000     -3.9974246E-16
   4.560000     -3.7031959E-15
   4.620000     -5.9452599E-15
   4.680000     -5.6109627E-15
   4.740000     -2.1448172E-15
   4.800000      3.4615979E-15
   4.860000      8.7530682E-15
   4.920000      1.0718878E-14
   4.980000      7.2744333E-15
   5.040000     -1.3224250E-15
   5.100000     -1.1912435E-14
   5.160000     -1.9290760E-14
   5.220000     -1.8426556E-14
   5.280000     -7.2360373E-15
   5.340000      1.1437257E-14
   5.400000      2.9933660E-14
   5.460000      3.8504929E-14
   5.520000      2.9904461E-14
   5.580000      3.8693219E-15
   5.640000     -3.0941009E-14
   5.700000     -5.9235819E-14
   5.760000     -6.5436182E-14
   5.820000     -4.1658036E-14
   5.880000      6.5340003E-15
   5.940000      6.0160224E-14
   6.000000      9.3882686E-14
   6.060000      8.7812922E-14
   6.120000      3.8774133E-14
   6.180000     -3.5056413E-14
   6.240000     -9.9845330E-14
   6.300000     -1.2104272E-13
   6.360000     -8.1331175E-14
   6.420000      7.3714829E-15
   6.480000      1.0522477E-13
   6.540000      1.6067676E-13
   6.600000      1.3556943E-13
   6.660000      2.7490356E-14
   6.720000     -1.2268886E-13
   6.780000     -2.4433073E-13
   6.840000     -2.6794425E-13
   6.900000     -1.6041008E-13
   6.960000      5.2579323E-14
   7.020000      2.8982743E-13
   7.080000      4.4546737E-13
   7.140000      4.3568559E-13
   7.200000      2.4053928E-13
   7.260000     -7.9794881E-14
   7.320000     -4.0468163E-13
   7.380000     -6.0251917E-13
   7.440000     -5.8899191E-13
   7.500000     -3.6697853E-13
   7.560000     -2.7726998E-14
   7.620000      2.8977740E-13
   7.680000      4.6401739E-13
   7.740000      4.4995125E-13
   7.800000      3.0163152E-13
   7.860000      1.4396763E-13
   7.920000      1.0367899E-13
   7.980000      2.3145445E-13
   8.040000      4.5557812E-13
   8.100000      5.9628452E-13
   8.160000      4.4326600E-13
   8.220000     -1.3245228E-13
   8.280000     -1.0819662E-12
   8.340000     -2.1465533E-12
   8.400000     -2.9161127E-12
   8.460000     -2.9661323E-12
   8.520000     -2.0257240E-12
   8.580000     -1.1173716E-13
   8.640000      2.4269475E-12
   8.700000      4.9782786E-12
   8.760000      6.8297763E-12
   8.820000      7.3709615E-12
   8.880000      6.2680555E-12
   8.940000      3.5563338E-12
   9.000000     -3.7224585E-13
   9.060000     -4.8709843E-12
   9.120000     -9.1868527E-12
   9.180000     -1.2603741E-11
   9.240000     -1.4540873E-11
   9.300000     -1.4592475E-11
   9.360000     -1.2522797E-11
   9.420000     -8.2495807E-12
   9.480000     -1.8514717E-12
   9.540000      6.3804600E-12
   9.600000      1.5854554E-11
   9.660000      2.5590514E-11
   9.720000      3.4186765E-11
   9.780000      3.9896333E-11
   9.840000      4.0838718E-11
   9.900000      3.5332317E-11
   9.960000      2.2287231E-11
   10.02000      1.5690939E-12
   10.08000     -2.5754792E-11
   10.14000     -5.7343894E-11
   10.20000     -8.9692684E-11
   10.26000     -1.1837459E-10
   10.32000     -1.3835290E-10
   10.38000     -1.4430217E-10
   10.44000     -1.3092635E-10
   10.50000     -9.3310401E-11
   10.56000     -2.7368829E-11
   10.62000      6.9567144E-11
   10.68000      1.9805324E-10
   10.74000      3.5585437E-10
   10.80000      5.3749233E-10
   10.86000      7.3423811E-10
   10.92000      9.3468944E-10
   10.98000      1.1259160E-09
   11.04000      1.2949685E-09
   11.10000      1.4304072E-09
   11.16000      1.5234759E-09
   11.22000      1.5686427E-09
   11.28000      1.5634302E-09
   11.34000      1.5076707E-09
   11.40000      1.4024805E-09
   11.46000      1.2492694E-09
   11.52000      1.0490185E-09
   11.58000      8.0190071E-10
   11.64000      5.0718751E-10
   11.70000      1.6334101E-10
   11.76000     -2.3175901E-10
   11.82000     -6.8039097E-10
   11.88000     -1.1842244E-09
   11.94000     -1.7430725E-09
   12.00000     -2.3531632E-09
   12.06000     -3.0051377E-09
   12.12000     -3.6822123E-09
   12.18000     -4.3590691E-09
   12.24000     -5.0020157E-09
   12.30000     -5.5707696E-09
   12.36000     -6.0218848E-09
   12.42000     -6.3134467E-09
   12.48000     -6.4103056E-09
   12.54000     -6.2888801E-09
   12.60000     -5.9405365E-09
   12.66000     -5.3727902E-09
   12.72000     -4.6079918E-09
   12.78000     -3.6797918E-09
   12.84000     -2.6282092E-09
   12.90000     -1.4945301E-09
   12.96000     -3.1727332E-10
   13.02000      8.6985608E-10
   13.08000      2.0377366E-09
   13.14000      3.1597225E-09
   13.20000      4.2086112E-09
   13.26000      5.1538813E-09
   13.32000      5.9602407E-09
   13.38000      6.5881469E-09
   13.44000      6.9963835E-09
   13.50000      7.1463333E-09
   13.56000      7.0072139E-09
   13.62000      6.5614150E-09
   13.68000      5.8090257E-09
   13.74000      4.7707474E-09
   13.80000      3.4885244E-09
   13.86000      2.0235222E-09
   13.92000      4.5143070E-10
   13.98000     -1.1444377E-09
   14.04000     -2.6813538E-09
   14.10000     -4.0854240E-09
   14.16000     -5.2985381E-09
   14.22000     -6.2828343E-09
   14.28000     -7.0219612E-09
   14.34000     -7.5190281E-09
   14.40000     -7.7918072E-09
   14.46000     -7.8663334E-09
   14.52000     -7.7703932E-09
   14.58000     -7.5284001E-09
   14.64000     -7.1588495E-09
   14.70000     -6.6748242E-09
   14.76000     -6.0872329E-09
   14.82000     -5.4096154E-09
   14.88000     -4.6629389E-09
   14.94000     -3.8787662E-09
   15.00000     -3.0997231E-09
   15.06000     -2.3770028E-09
   15.12000     -1.7654911E-09
   15.18000     -1.3176578E-09
   15.24000     -1.0774902E-09
   15.30000     -1.0754816E-09
   15.36000     -1.3252294E-09
   15.42000     -1.8218081E-09
   15.48000     -2.5418980E-09
   15.54000     -3.4456593E-09
   15.60000     -4.4804058E-09
   15.66000     -5.5860361E-09
   15.72000     -6.7018551E-09
   15.78000     -7.7739069E-09
   15.84000     -8.7614929E-09
   15.90000     -9.6413260E-09
   15.96000     -1.0408105E-08
   16.02000     -1.1071040E-08
   16.08000     -1.1647009E-08
   16.14000     -1.2152140E-08
   16.20000     -1.2594438E-08
   16.26000     -1.2970118E-08
   16.32000     -1.3265481E-08
   16.38000     -1.3464523E-08
   16.44000     -1.3560296E-08
   16.50000     -1.3566225E-08
   16.56000     -1.3522709E-08
   16.62000     -1.3495085E-08
   16.68000     -1.3561477E-08
   16.74000     -1.3792470E-08
   16.80000     -1.4227898E-08
   16.86000     -1.4857942E-08
   16.92000     -1.5615244E-08
   16.98000     -1.6381906E-08
   17.04000     -1.7010741E-08
   17.10000     -1.7355756E-08
   17.16000     -1.7303819E-08
   17.22000     -1.6799227E-08
   17.28000     -1.5855045E-08
   17.34000     -1.4549122E-08
   17.40000     -1.3006977E-08
   17.46000     -1.1376957E-08
   17.52000     -9.8043023E-09
   17.58000     -8.4100202E-09
   17.64000     -7.2781603E-09
   17.70000     -6.4521939E-09
   17.76000     -5.9387331E-09
   17.82000     -5.7153495E-09
   17.88000     -5.7390572E-09
   17.94000     -5.9530119E-09
   18.00000     -6.2905769E-09
   18.06000     -6.6775367E-09
   18.12000     -7.0342607E-09
   18.18000     -7.2797293E-09
   18.24000     -7.3384654E-09
   18.30000     -7.1500281E-09
   18.36000     -6.6792816E-09
   18.42000     -5.9248109E-09
   18.48000     -4.9228932E-09
   18.54000     -3.7453596E-09
   18.60000     -2.4911206E-09
   18.66000     -1.2726946E-09
   18.72000     -2.0017391E-10
   18.78000      6.3439654E-10
   18.84000      1.1694478E-09
   18.90000      1.3810633E-09
   18.96000      1.2838910E-09
   19.02000      9.2595326E-10
   19.08000      3.7859843E-10
   19.14000     -2.7634561E-10
   19.20000     -9.5972552E-10
   19.26000     -1.6060897E-09
   19.32000     -2.1706765E-09
   19.38000     -2.6313609E-09
   19.44000     -2.9856491E-09
   19.50000     -3.2438616E-09
   19.56000     -3.4204197E-09
   19.62000     -3.5254442E-09
   19.68000     -3.5586780E-09
   19.74000     -3.5070304E-09
   19.80000     -3.3460956E-09
   19.86000     -3.0450060E-09
   19.92000     -2.5733169E-09
   19.98000     -1.9083504E-09
   20.04000     -1.0416711E-09
   20.10000      1.6160078E-11
   20.16000      1.2328960E-09
   20.22000      2.5540672E-09
   20.28000      3.9047325E-09
   20.34000      5.1938938E-09
   20.40000      6.3220629E-09
   20.46000      7.1921971E-09
   20.52000      7.7233908E-09
   20.58000      7.8655056E-09
   20.64000      7.6117148E-09
   20.70000      7.0053634E-09
   20.76000      6.1380296E-09
   20.82000      5.1374522E-09
   20.88000      4.1466786E-09
   20.94000      3.2986278E-09
   21.00000      2.6922005E-09
   21.06000      2.3762203E-09
   21.12000      2.3456104E-09
   21.18000      2.5506945E-09
   21.24000      2.9166358E-09
   21.30000      3.3670533E-09
   21.36000      3.8449652E-09
   21.42000      4.3255466E-09
   21.48000      4.8182325E-09
   21.54000      5.3591531E-09
   21.60000      5.9975851E-09
   21.66000      6.7811885E-09
   21.72000      7.7442062E-09
   21.78000      8.9010328E-09
   21.84000      1.0245354E-08
   21.90000      1.1753261E-08
   21.96000      1.3387758E-08
   22.02000      1.5102330E-08
   22.08000      1.6842392E-08
   22.14000      1.8545309E-08
   22.20000      2.0141325E-08
   22.26000      2.1558353E-08
   22.32000      2.2732699E-08
   22.38000      2.3624938E-08
   22.44000      2.4237028E-08
   22.50000      2.4624077E-08
   22.56000      2.4894236E-08
   22.62000      2.5193225E-08
   22.68000      2.5675343E-08
   22.74000      2.6468422E-08
   22.80000      2.7643511E-08
   22.86000      2.9199297E-08
   22.92000      3.1066619E-08
   22.98000      3.3131396E-08
   23.04000      3.5268069E-08
   23.10000      3.7372242E-08
   23.16000      3.9382250E-08
   23.22000      4.1283766E-08
   23.28000      4.3097700E-08
   23.34000      4.4857046E-08
   23.40000      4.6581317E-08
   23.46000      4.8257469E-08
   23.52000      4.9833325E-08
   23.58000      5.1225623E-08
   23.64000      5.2339946E-08
   23.70000      5.3095960E-08
   23.76000      5.3449494E-08
   23.82000      5.3403621E-08
   23.88000      5.3004360E-08
   23.94000      5.2322015E-08
   24.00000      5.1424625E-08
   24.06000      5.0353407E-08
   24.12000      4.9109865E-08
   24.18000      4.7659817E-08
   24.24000      4.5952977E-08
   24.30000      4.3950187E-08
   24.36000      4.1647148E-08
   24.42000      3.9084718E-08
   24.48000      3.6341500E-08
   24.54000      3.3511647E-08
   24.60000      3.0676826E-08
   24.66000      2.7883546E-08
   24.72000      2.5134486E-08
   24.78000      2.2396883E-08
   24.84000      1.9624409E-08
   24.90000      1.6784162E-08
   24.96000      1.3879015E-08
   25.02000      1.0957786E-08
   25.08000      8.1102094E-09
   25.14000      5.4489790E-09
   25.20000      3.0850982E-09
   25.26000      1.1044875E-09
   25.32000     -4.4709422E-10
   25.38000     -1.5668478E-09
   25.44000     -2.2856073E-09
   25.50000     -2.6504456E-09
   25.56000     -2.7056737E-09
   25.62000     -2.4788460E-09
   25.68000     -1.9762811E-09
   25.74000     -1.1890060E-09
   25.80000     -1.0630427E-10
   25.86000      1.2684580E-09
   25.92000      2.9054894E-09
   25.98000      4.7438649E-09
   26.04000      6.6958004E-09
   26.10000      8.6584278E-09
   26.16000      1.0529707E-08
   26.22000      1.2224539E-08
   26.28000      1.3687666E-08
   26.34000      1.4901010E-08
   26.40000      1.5884236E-08
   26.46000      1.6688382E-08
   26.52000      1.7383472E-08
   26.58000      1.8042156E-08
   26.64000      1.8722568E-08
   26.70000      1.9454216E-08
   26.76000      2.0230587E-08
   26.82000      2.1010850E-08
   26.88000      2.1730861E-08
   26.94000      2.2321100E-08
   27.00000      2.2726908E-08
   27.06000      2.2925327E-08
   27.12000      2.2933229E-08
   27.18000      2.2803583E-08
   27.24000      2.2610134E-08
   27.30000      2.2424514E-08
   27.36000      2.2292848E-08
   27.42000      2.2219686E-08
   27.48000      2.2165226E-08
   27.54000      2.2057471E-08
   27.60000      2.1815527E-08
   27.66000      2.1376097E-08
   27.72000      2.0713749E-08
   27.78000      1.9847883E-08
   27.84000      1.8834404E-08
   27.90000      1.7745842E-08
   27.96000      1.6647752E-08
   28.02000      1.5579927E-08
   28.08000      1.4548279E-08
   28.14000      1.3528644E-08
   28.20000      1.2479216E-08
   28.26000      1.1355817E-08
   28.32000      1.0124321E-08
   28.38000      8.7668255E-09
   28.44000      7.2812507E-09
   28.50000      5.6765450E-09
   28.56000      3.9667167E-09
   28.62000      2.1664803E-09
   28.68000      2.8987696E-10
   28.74000     -1.6483579E-09
   28.80000     -3.6300487E-09
   28.86000     -5.6312164E-09
   28.92000     -7.6215034E-09
   28.98000     -9.5659178E-09
   29.04000     -1.1428438E-08
   29.10000     -1.3176114E-08
   29.16000     -1.4782052E-08
   29.22000     -1.6225943E-08
   29.28000     -1.7491887E-08
   29.34000     -1.8564537E-08
   29.40000     -1.9425796E-08
   29.46000     -2.0054417E-08
   29.52000     -2.0429948E-08
   29.58000     -2.0540458E-08
   29.64000     -2.0391280E-08
   29.70000     -2.0010662E-08
   29.76000     -1.9448807E-08
   29.82000     -1.8769034E-08
   29.88000     -1.8033221E-08
   29.94000     -1.7286530E-08
   30.00000     -1.6547300E-08
   30.06000     -1.5806314E-08
   30.12000     -1.5035875E-08
   30.18000     -1.4205191E-08
   30.24000     -1.3295846E-08
   30.30000     -1.2311192E-08
   30.36000     -1.1276108E-08
   30.42000     -1.0227520E-08
   30.48000     -9.1997450E-09
   30.54000     -8.2106464E-09
   30.60000     -7.2540955E-09
   30.66000     -6.3017485E-09
   30.72000     -5.3136406E-09
   30.78000     -4.2538337E-09
   30.84000     -3.1054366E-09
   30.90000     -1.8793924E-09
   30.96000     -6.1350941E-10
   31.02000      6.3828975E-10
   31.08000      1.8228368E-09
   31.14000      2.9045411E-09
   31.20000      3.8758108E-09
   31.26000      4.7570459E-09
   31.32000      5.5861924E-09
   31.38000      6.4018790E-09
   31.44000      7.2265132E-09
   31.50000      8.0553981E-09
   31.56000      8.8552792E-09
   31.62000      9.5719903E-09
   31.68000      1.0143823E-08
   31.74000      1.0515887E-08
   31.80000      1.0651386E-08
   31.86000      1.0537562E-08
   31.92000      1.0185980E-08
   31.98000      9.6282013E-09
   32.04000      8.9083176E-09
   32.10000      8.0738651E-09
   32.16000      7.1665069E-09
   32.22000      6.2139711E-09
   32.28000      5.2248383E-09
   32.34000      4.1876138E-09
   32.40000      3.0749325E-09
   32.46000      1.8526666E-09
   32.52000      4.9238225E-10
   32.58000     -1.0155422E-09
   32.64000     -2.6515412E-09
   32.70000     -4.3625086E-09
   32.76000     -6.0657483E-09
   32.82000     -7.6615452E-09
   32.88000     -9.0522567E-09
   32.94000     -1.0163494E-08
   33.00000     -1.0961633E-08
   33.06000     -1.1462267E-08
   33.12000     -1.1726400E-08
   33.18000     -1.1844798E-08
   33.24000     -1.1914627E-08
   33.30000     -1.2015188E-08
   33.36000     -1.2189955E-08
   33.42000     -1.2440082E-08
   33.48000     -1.2730792E-08
   33.54000     -1.3007774E-08
   33.60000     -1.3217635E-08
   33.66000     -1.3325492E-08
   33.72000     -1.3324301E-08
   33.78000     -1.3233778E-08
   33.84000     -1.3090506E-08
   33.90000     -1.2933653E-08
   33.96000     -1.2791711E-08
   34.02000     -1.2674730E-08
   34.08000     -1.2574109E-08
   34.14000     -1.2469310E-08
   34.20000     -1.2338632E-08
   34.26000     -1.2170113E-08
   34.32000     -1.1968866E-08
   34.38000     -1.1758315E-08
   34.44000     -1.1574683E-08
   34.50000     -1.1456082E-08
   34.56000     -1.1429284E-08
   34.62000     -1.1498233E-08
   34.68000     -1.1638118E-08
   34.74000     -1.1797347E-08
   34.80000     -1.1907368E-08
   34.86000     -1.1897675E-08
   34.92000     -1.1711689E-08
   34.98000     -1.1318908E-08
   35.04000     -1.0720203E-08
   35.10000     -9.9455439E-09
   35.16000     -9.0458396E-09
   35.22000     -8.0820151E-09
   35.28000     -7.1145569E-09
   35.34000     -6.1956742E-09
   35.40000     -5.3646763E-09
   35.46000     -4.6459241E-09
   35.52000     -4.0482440E-09
   35.58000     -3.5649941E-09
   35.64000     -3.1747602E-09
   35.70000     -2.8433598E-09
   35.76000     -2.5280451E-09
   35.82000     -2.1843014E-09
   35.88000     -1.7745799E-09
   35.94000     -1.2771292E-09
   36.00000     -6.9233530E-10
   36.06000     -4.4103471E-11
   36.12000      6.2500466E-10
   36.18000      1.2642907E-09
   36.24000      1.8285631E-09
   36.30000      2.2911186E-09
   36.36000      2.6522540E-09
   36.42000      2.9406837E-09
   36.48000      3.2072514E-09
   36.54000      3.5124232E-09
   36.60000      3.9106123E-09
   36.66000      4.4350217E-09
   36.72000      5.0864410E-09
   36.78000      5.8284044E-09
   36.84000      6.5897439E-09
   36.90000      7.2741089E-09
   36.96000      7.7747311E-09
   37.02000      7.9918587E-09
   37.08000      7.8498790E-09
   37.14000      7.3112854E-09
   37.20000      6.3851031E-09
   37.26000      5.1280251E-09
   37.32000      3.6374002E-09
   37.38000      2.0363136E-09
   37.44000      4.5248105E-10
   37.50000     -1.0055796E-09
   37.56000     -2.2701636E-09
   37.62000     -3.3283232E-09
   37.68000     -4.2239088E-09
   37.74000     -5.0463416E-09
   37.80000     -5.9086127E-09
   37.86000     -6.9204025E-09
   37.92000     -8.1636937E-09
   37.98000     -9.6771142E-09
   38.04000     -1.1451964E-08
   38.10000     -1.3438854E-08
   38.16000     -1.5560811E-08
   38.22000     -1.7727789E-08
   38.28000     -1.9848779E-08
   38.34000     -2.1840078E-08
   38.40000     -2.3630511E-08
   38.46000     -2.5165297E-08
   38.52000     -2.6409795E-08
   38.58000     -2.7353018E-08
   38.64000     -2.8009646E-08
   38.70000     -2.8418958E-08
   38.76000     -2.8639677E-08
   38.82000     -2.8741196E-08
   38.88000     -2.8792757E-08
   38.94000     -2.8853023E-08
   39.00000     -2.8962353E-08
   39.06000     -2.9139452E-08
   39.12000     -2.9382802E-08
   39.18000     -2.9676148E-08
   39.24000     -2.9996148E-08
   39.30000     -3.0319907E-08
   39.36000     -3.0630300E-08
   39.42000     -3.0917892E-08
   39.48000     -3.1179624E-08
   39.54000     -3.1415627E-08
   39.60000     -3.1626197E-08
   39.66000     -3.1810515E-08
   39.72000     -3.1967808E-08
   39.78000     -3.2100022E-08
   39.84000     -3.2214082E-08
   39.90000     -3.2321626E-08
   39.96000     -3.2435040E-08
   40.02000     -3.2560443E-08
   40.08000     -3.2690195E-08
   40.14000     -3.2798624E-08
   40.20000     -3.2844387E-08
   40.26000     -3.2780765E-08
   40.32000     -3.2571897E-08
   40.38000     -3.2209741E-08
   40.44000     -3.1724902E-08
   40.50000     -3.1185614E-08
   40.56000     -3.0683015E-08
   40.62000     -3.0306264E-08
   40.68000     -3.0115785E-08
   40.74000     -3.0124369E-08
   40.80000     -3.0293570E-08
   40.86000     -3.0546950E-08
   40.92000     -3.0795160E-08
   40.98000     -3.0963250E-08
   41.04000     -3.1010146E-08
   41.10000     -3.0934196E-08
   41.16000     -3.0764767E-08
   41.22000     -3.0545692E-08
   41.28000     -3.0318599E-08
   41.34000     -3.0112894E-08
   41.40000     -2.9944651E-08
   41.46000     -2.9822086E-08
   41.52000     -2.9752586E-08
   41.58000     -2.9746477E-08
   41.64000     -2.9815645E-08
   41.70000     -2.9968469E-08
   41.76000     -3.0204475E-08
   41.82000     -3.0512169E-08
   41.88000     -3.0871153E-08
   41.94000     -3.1257372E-08
   42.00000     -3.1648678E-08
   42.06000     -3.2028321E-08
   42.12000     -3.2385330E-08
   42.18000     -3.2712737E-08
   42.24000     -3.3005399E-08
   42.30000     -3.3259067E-08
   42.36000     -3.3471160E-08
   42.42000     -3.3642678E-08
   42.48000     -3.3780154E-08
   42.54000     -3.3896701E-08
   42.60000     -3.4011642E-08
   42.66000     -3.4148648E-08
   42.72000     -3.4332288E-08
   42.78000     -3.4582992E-08
   42.84000     -3.4910876E-08
   42.90000     -3.5309540E-08
   42.96000     -3.5751949E-08
   43.02000     -3.6190748E-08
   43.08000     -3.6564813E-08
   43.14000     -3.6811880E-08
   43.20000     -3.6885069E-08
   43.26000     -3.6768714E-08
   43.32000     -3.6488210E-08
   43.38000     -3.6109210E-08
   43.44000     -3.5724472E-08
   43.50000     -3.5430382E-08
   43.56000     -3.5299717E-08
   43.62000     -3.5359324E-08
   43.68000     -3.5581145E-08
   43.74000     -3.5890739E-08
   43.80000     -3.6191121E-08
   43.86000     -3.6393807E-08
   43.92000     -3.6445964E-08
   43.98000     -3.6344463E-08
   44.04000     -3.6133116E-08
   44.10000     -3.5886206E-08
   44.16000     -3.5685641E-08
   44.22000     -3.5599616E-08
   44.28000     -3.5667771E-08
   44.34000     -3.5894040E-08
   44.40000     -3.6246195E-08
   44.46000     -3.6661309E-08
   44.52000     -3.7057301E-08
   44.58000     -3.7350592E-08
   44.64000     -3.7477569E-08
   44.70000     -3.7414001E-08
   44.76000     -3.7184577E-08
   44.82000     -3.6856836E-08
   44.88000     -3.6519442E-08
   44.94000     -3.6251770E-08
   45.00000     -3.6096292E-08
   45.06000     -3.6044362E-08
   45.12000     -3.6040721E-08
   45.18000     -3.6004305E-08
   45.24000     -3.5856928E-08
   45.30000     -3.5549395E-08
   45.36000     -3.5076461E-08
   45.42000     -3.4476624E-08
   45.48000     -3.3817713E-08
   45.54000     -3.3173414E-08
   45.60000     -3.2598308E-08
   45.66000     -3.2109359E-08
   45.72000     -3.1679992E-08
   45.78000     -3.1248799E-08
   45.84000     -3.0739635E-08
   45.90000     -3.0085751E-08
   45.96000     -2.9248881E-08
   46.02000     -2.8226575E-08
   46.08000     -2.7045882E-08
   46.14000     -2.5746537E-08
   46.20000     -2.4359789E-08
   46.26000     -2.2888957E-08
   46.32000     -2.1295904E-08
   46.38000     -1.9495406E-08
   46.44000     -1.7357904E-08
   46.50000     -1.4720111E-08
   46.56000     -1.1401108E-08
   46.62000     -7.2189628E-09
   46.68000     -2.0009772E-09
   46.74000      4.4189061E-09
   46.80000      1.2217510E-08
   46.86000      2.1610179E-08
   46.92000      3.2879225E-08
   46.98000      4.6393211E-08
   47.04000      6.2612742E-08
   47.10000      8.2086480E-08
   47.16000      1.0544743E-07
   47.22000      1.3341956E-07
   47.28000      1.6683911E-07
   47.34000      2.0668737E-07
   47.40000      2.5412641E-07
   47.46000      3.1053037E-07
   47.52000      3.7750883E-07
   47.58000      4.5692607E-07
   47.64000      5.5092147E-07
   47.70000      6.6193678E-07
   47.76000      7.9275350E-07
   47.82000      9.4654115E-07
   47.88000      1.1269175E-06
   47.94000      1.3380220E-06
   48.00000      1.5845984E-06
   48.06000      1.8720826E-06
   48.12000      2.2066849E-06
   48.18000      2.5954623E-06
   48.24000      3.0463793E-06
   48.30000      3.5683688E-06
   48.36000      4.1714088E-06
   48.42000      4.8666261E-06
   48.48000      5.6664280E-06
   48.54000      6.5846525E-06
   48.60000      7.6367151E-06
   48.66000      8.8397419E-06
   48.72000      1.0212687E-05
   48.78000      1.1776442E-05
   48.84000      1.3553948E-05
   48.90000      1.5570313E-05
   48.96000      1.7852950E-05
   49.02000      2.0431686E-05
   49.08000      2.3338902E-05
   49.14000      2.6609647E-05
   49.20000      3.0281759E-05
   49.26000      3.4395995E-05
   49.32000      3.8996139E-05
   49.38000      4.4129076E-05
   49.44000      4.9844824E-05
   49.50000      5.6196521E-05
   49.56000      6.3240353E-05
   49.62000      7.1035516E-05
   49.68000      7.9644087E-05
   49.74000      8.9130990E-05
   49.80000      9.9563855E-05
   49.86000      1.1101281E-04
   49.92000      1.2355027E-04
   49.98000      1.3725065E-04
   50.04000      1.5219000E-04
   50.10000      1.6844571E-04
   50.16000      1.8609600E-04
   50.22000      2.0521962E-04
   50.28000      2.2589510E-04
   50.34000      2.4820020E-04
   50.40000      2.7221127E-04
   50.46000      2.9800247E-04
   50.52000      3.2564515E-04
   50.58000      3.5520713E-04
   50.64000      3.8675193E-04
   50.70000      4.2033792E-04
   50.76000      4.5601756E-04
   50.82000      4.9383641E-04
   50.88000      5.3383241E-04
   50.94000      5.7603494E-04
   51.00000      6.2046439E-04
   51.06000      6.6713081E-04
   51.12000      7.1603386E-04
   51.18000      7.6716155E-04
   51.24000      8.2049024E-04
   51.30000      8.7598350E-04
   51.36000      9.3359197E-04
   51.42000      9.9325320E-04
   51.48000      1.0548908E-03
   51.54000      1.1184154E-03
   51.60000      1.1837237E-03
   51.66000      1.2506993E-03
   51.72000      1.3192130E-03
   51.78000      1.3891228E-03
   51.84000      1.4602753E-03
   51.90000      1.5325057E-03
   51.96000      1.6056395E-03
   52.02000      1.6794932E-03
   52.08000      1.7538754E-03
   52.14000      1.8285884E-03
   52.20000      1.9034296E-03
   52.26000      1.9781929E-03
   52.32000      2.0526708E-03
   52.38000      2.1266553E-03
   52.44000      2.1999404E-03
   52.50000      2.2723239E-03
   52.56000      2.3436097E-03
   52.62000      2.4136091E-03
   52.68000      2.4821418E-03
   52.74000      2.5490397E-03
   52.80000      2.6141459E-03
   52.86000      2.6773182E-03
   52.92000      2.7384297E-03
   52.98000      2.7973705E-03
   53.04000      2.8540497E-03
   53.10000      2.9083944E-03
   53.16000      2.9603518E-03
   53.22000      3.0098890E-03
   53.28000      3.0569928E-03
   53.34000      3.1016709E-03
   53.40000      3.1439506E-03
   53.46000      3.1838794E-03
   53.52000      3.2215242E-03
   53.58000      3.2569694E-03
   53.64000      3.2903161E-03
   53.70000      3.3216816E-03
   53.76000      3.3511964E-03
   53.82000      3.3790031E-03
   53.88000      3.4052546E-03
   53.94000      3.4301118E-03
   54.00000      3.4537420E-03
   54.06000      3.4763163E-03
   54.12000      3.4980073E-03
   54.18000      3.5189861E-03
   54.24000      3.5394202E-03
   54.30000      3.5594718E-03
   54.36000      3.5792957E-03
   54.42000      3.5990372E-03
   54.48000      3.6188301E-03
   54.54000      3.6387942E-03
   54.60000      3.6590348E-03
   54.66000      3.6796401E-03
   54.72000      3.7006801E-03
   54.78000      3.7222065E-03
   54.84000      3.7442516E-03
   54.90000      3.7668284E-03
   54.96000      3.7899297E-03
   55.02000      3.8135285E-03
   55.08000      3.8375780E-03
   55.14000      3.8620129E-03
   55.20000      3.8867490E-03
   55.26000      3.9116866E-03
   55.32000      3.9367084E-03
   55.38000      3.9616851E-03
   55.44000      3.9864737E-03
   55.50000      4.0109227E-03
   55.56000      4.0348703E-03