  -2.400000      0.0000000E+00
  -2.340000      0.0000000E+00
  -2.280000      0.0000000E+00
  -2.220000      0.0000000E+00
  -2.160000      0.0000000E+00
  -2.100000      0.0000000E+00
  -2.040000      0.0000000E+00
  -1.980000      0.0000000E+00
  -1.920000      0.0000000E+00
  -1.860000      0.0000000E+00
  -1.800000      0.0000000E+00
  -1.740000      0.0000000E+00
  -1.680000      0.0000000E+00
  -1.620000     -5.0949874E-35
  -1.560000     -5.6912647E-34
  -1.500000     -1.7562468E-33
  -1.440000      9.2699786E-33
  -1.380000      1.1465802E-31
  -1.320000      5.3944658E-31
  -1.260000      1.3053710E-30
  -1.200000      1.3030373E-31
  -1.140000     -1.2507963E-29
  -1.080000     -5.5323638E-29
  -1.020000     -1.3025229E-28
 -0.9600000     -1.2678001E-28
 -0.9000000      3.3430646E-28
 -0.8400000      1.8892570E-27
 -0.7800000      4.6652933E-27
 -0.7200000      6.1593863E-27
 -0.6600000     -1.4606334E-27
 -0.6000000     -3.0360668E-26
 -0.5400000     -8.4438155E-26
 -0.4800000     -1.3036337E-25
 -0.4200000     -6.6917961E-26
 -0.3600000      2.5742915E-25
 -0.3000000      9.0655304E-25
 -0.2400000      1.5792634E-24
 -0.1800000      1.3553612E-24
 -0.1200000     -1.1158978E-24
 -5.9999999E-02 -6.4934971E-24
  0.0000000E+00 -1.2708193E-23
  5.9999999E-02 -1.3311397E-23
  0.1200000      1.0428798E-24
  0.1800000      3.5294495E-23
  0.2400000      7.7730087E-23
  0.3000000      9.0925944E-23
  0.3600000      2.0807112E-23
  0.4200000     -1.6361223E-22
  0.4800000     -4.0696721E-22
  0.5400000     -5.2262800E-22
  0.6000000     -2.3579267E-22
  0.6600000      6.3266296E-22
  0.7200000      1.8792199E-21
  0.7800000      2.7092126E-21
  0.8400000      1.8911152E-21
  0.9000000     -1.5223654E-21
  0.9600000     -7.0541882E-21
   1.020000     -1.1915621E-20
   1.080000     -1.1390350E-20
   1.140000     -1.2104191E-21
   1.200000      1.8539323E-20
   1.260000      4.0132677E-20
   1.320000      4.8726638E-20
   1.380000      2.8945961E-20
   1.440000     -2.3740160E-20
   1.500000     -9.2892583E-20
   1.560000     -1.4104598E-19
   1.620000     -1.2569236E-19
   1.680000     -2.7744077E-20
   1.740000      1.2327783E-19
   1.800000      2.4921763E-19
   1.860000      2.6163053E-19
   1.920000      1.2695531E-19
   1.980000     -8.2146900E-20
   2.040000     -2.0113213E-19
   2.100000     -7.8654194E-20
   2.160000      2.6677050E-19
   2.220000      5.4682248E-19
   2.280000      2.8698667E-19
   2.340000     -8.5715841E-19
   2.400000     -2.6681546E-18
   2.460000     -4.1073976E-18
   2.520000     -3.5568783E-18
   2.580000      3.0540092E-19
   2.640000      7.2745249E-18
   2.700000      1.4739301E-17
   2.760000      1.7997351E-17
   2.820000      1.2203827E-17
   2.880000     -4.5216174E-18
   2.940000     -2.8322760E-17
   3.000000     -4.9126799E-17
   3.060000     -5.3776871E-17
   3.120000     -3.2346908E-17
   3.180000      1.4928979E-17
   3.240000      7.3968661E-17
   3.300000      1.1959928E-16
   3.360000      1.2518678E-16
   3.420000      7.5766005E-17
   3.480000     -2.1499564E-17
   3.540000     -1.3561578E-16
   3.600000     -2.2139711E-16
   3.660000     -2.3750883E-16
   3.720000     -1.6524676E-16
   3.780000     -1.9183485E-17
   3.840000      1.5588041E-16
   3.900000      3.0088691E-16
   3.960000      3.6453749E-16
   4.020000      3.2181482E-16
   4.080000      1.8152735E-16
   4.140000     -1.9114366E-17
   4.200000     -2.2898945E-16
   4.260000     -3.9934782E-16
   4.320000     -4.9502352E-16
   4.380000     -4.9724794E-16
   4.440000     -3.9946664E-16
   4.500000     -2.0151365E-16
   4.560000      9.0954881E-17
   4.620000      4.5695299E-16
   4.680000      8.4206716E-16
   4.740000      1.1425024E-15
   4.800000      1.2097313E-15
   4.860000      8.9317856E-16
   4.920000      1.2254697E-16
   4.980000     -9.9769904E-16
   5.040000     -2.1379370E-15
   5.100000     -2.7992510E-15
   5.160000     -2.5021082E-15
   5.220000     -1.0594493E-15
   5.280000      1.1955895E-15
   5.340000      3.3905336E-15
   5.400000      4.4056648E-15
   5.460000      3.4248507E-15
   5.520000      5.0732377E-16
   5.580000     -3.1619088E-15
   5.640000     -5.6102490E-15
   5.700000     -5.0005822E-15
   5.760000     -7.7461465E-16
   5.820000      5.6009156E-15
   5.880000      1.0855794E-14
   5.940000      1.1269229E-14
   6.000000      4.6955445E-15
   6.060000     -7.7169530E-15
   6.120000     -2.1177079E-14
   6.180000     -2.8823349E-14
   6.240000     -2.4821372E-14
   6.300000     -7.6541006E-15
   6.360000      1.8112992E-14
   6.420000      4.2820141E-14
   6.480000      5.5431774E-14
   6.540000      4.8514137E-14
   6.600000      2.2126273E-14
   6.660000     -1.5457818E-14
   6.720000     -5.0866107E-14
   6.780000     -7.1325101E-14
   6.840000     -7.0227068E-14
   6.900000     -4.9738544E-14
   6.960000     -1.9032024E-14
   7.020000      1.0968104E-14
   7.080000      3.3433864E-14
   7.140000      4.8656439E-14
   7.200000      6.2226334E-14
   7.260000      7.9105193E-14
   7.320000      9.7003311E-14
   7.380000      1.0352553E-13
   7.440000      8.0111028E-14
   7.500000      1.2289786E-14
   7.560000     -9.8164613E-14
   7.620000     -2.2585867E-13
   7.680000     -3.2486774E-13
   7.740000     -3.4368778E-13
   7.800000     -2.4752753E-13
   7.860000     -3.8677032E-14
   7.920000      2.3522753E-13
   7.980000      4.9121379E-13
   8.040000      6.3776594E-13
   8.100000      6.0890437E-13
   8.160000      3.9165332E-13
   8.220000      3.4783422E-14
   8.280000     -3.6561517E-13
   8.340000     -6.9800172E-13
   8.400000     -8.7127744E-13
   8.460000     -8.4010934E-13
   8.520000     -6.1117761E-13
   8.580000     -2.3194147E-13
   8.640000      2.2806307E-13
   8.700000      6.9160086E-13
   8.760000      1.0780095E-12
   8.820000      1.3016293E-12
   8.880000      1.2759520E-12
   8.940000      9.3385195E-13
   9.000000      2.6373459E-13
   9.060000     -6.5298179E-13
   9.120000     -1.6268058E-12
   9.180000     -2.3876736E-12
   9.240000     -2.6578384E-12
   9.300000     -2.2493962E-12
   9.360000     -1.1483141E-12
   9.420000      4.5360203E-13
   9.480000      2.1982776E-12
   9.540000      3.6614678E-12
   9.600000      4.4754023E-12
   9.660000      4.4266080E-12
   9.720000      3.4947394E-12
   9.780000      1.8271194E-12
   9.840000     -3.2727342E-13
   9.900000     -2.6866495E-12
   9.960000     -4.9778645E-12
   10.02000     -6.9431912E-12
   10.08000     -8.3287257E-12
   10.14000     -8.8805083E-12
   10.20000     -8.3653657E-12
   10.26000     -6.6125425E-12
   10.32000     -3.5548825E-12
   10.38000      7.5268649E-13
   10.44000      6.1422720E-12
   10.50000      1.2350857E-11
   10.56000      1.9015487E-11
   10.62000      2.5626321E-11
   10.68000      3.1450995E-11
   10.74000      3.5479248E-11
   10.80000      3.6449961E-11
   10.86000      3.2998330E-11
   10.92000      2.3906188E-11
   10.98000      8.3793640E-12
   11.04000     -1.3752628E-11
   11.10000     -4.1998061E-11
   11.16000     -7.5344626E-11
   11.22000     -1.1252495E-10
   11.28000     -1.5230238E-10
   11.34000     -1.9367927E-10
   11.40000     -2.3598032E-10
   11.46000     -2.7882610E-10
   11.52000     -3.2204964E-10
   11.58000     -3.6560269E-10
   11.64000     -4.0946338E-10
   11.70000     -4.5352658E-10
   11.76000     -4.9746296E-10
   11.82000     -5.4057425E-10
   11.88000     -5.8171790E-10
   11.94000     -6.1938449E-10
   12.00000     -6.5196032E-10
   12.06000     -6.7811823E-10
   12.12000     -6.9719902E-10
   12.18000     -7.0943651E-10
   12.24000     -7.1594491E-10
   12.30000     -7.1850487E-10
   12.36000     -7.1926959E-10
   12.42000     -7.2051648E-10
   12.48000     -7.2448686E-10
   12.54000     -7.3324657E-10
   12.60000     -7.4844325E-10
   12.66000     -7.7088541E-10
   12.72000     -8.0000195E-10
   12.78000     -8.3337259E-10
   12.84000     -8.6655694E-10
   12.90000     -8.9336594E-10
   12.96000     -9.0654989E-10
   13.02000     -8.9874486E-10
   13.08000     -8.6349322E-10
   13.14000     -7.9624890E-10
   13.20000     -6.9538764E-10
   13.26000     -5.6326260E-10
   13.32000     -4.0720505E-10
   13.38000     -2.4014080E-10
   13.44000     -8.0340026E-11
   13.50000      5.0106603E-11
   13.56000      1.2813182E-10
   13.62000      1.3339234E-10
   13.68000      5.1943314E-11
   13.74000     -1.2109433E-10
   13.80000     -3.8056175E-10
   13.86000     -7.1210920E-10
   13.92000     -1.0944262E-09
   13.98000     -1.5021017E-09
   14.04000     -1.9084048E-09
   14.10000     -2.2875819E-09
   14.16000     -2.6166203E-09
   14.22000     -2.8766431E-09
   14.28000     -3.0540899E-09
   14.34000     -3.1416687E-09
   14.40000     -3.1389198E-09
   14.46000     -3.0521743E-09
   14.52000     -2.8937885E-09
   14.58000     -2.6807068E-09
   14.64000     -2.4325262E-09
   14.70000     -2.1693161E-09
   14.76000     -1.9094455E-09
   14.82000     -1.6676807E-09
   14.88000     -1.4538301E-09
   14.94000     -1.2722016E-09
   15.00000     -1.1220476E-09
   15.06000     -9.9897057E-10
   15.12000     -8.9700364E-10
   15.18000     -8.1087864E-10
   15.24000     -7.3795658E-10
   15.30000     -6.7943856E-10
   15.36000     -6.4072969E-10
   15.42000     -6.3106204E-10
   15.48000     -6.6258543E-10
   15.54000     -7.4910733E-10
   15.60000     -9.0457331E-10
   15.66000     -1.1413440E-09
   15.72000     -1.4683793E-09
   15.78000     -1.8895594E-09
   15.84000     -2.4024442E-09
   15.90000     -2.9977221E-09
   15.96000     -3.6594314E-09
   16.02000     -4.3658233E-09
   16.08000     -5.0906075E-09
   16.14000     -5.8043401E-09
   16.20000     -6.4758376E-09
   16.26000     -7.0736683E-09
   16.32000     -7.5678557E-09
   16.38000     -7.9318765E-09
   16.44000     -8.1449132E-09
   16.50000     -8.1941964E-09
   16.56000     -8.0771771E-09
   16.62000     -7.8032549E-09
   16.68000     -7.3947812E-09
   16.74000     -6.8870785E-09
   16.80000     -6.3272019E-09
   16.86000     -5.7712533E-09
   16.92000     -5.2802505E-09
   16.98000     -4.9148565E-09
   17.04000     -4.7296442E-09
   17.10000     -4.7678101E-09
   17.16000     -5.0572551E-09
   17.22000     -5.6086438E-09
   17.28000     -6.4155277E-09
   17.34000     -7.4560127E-09
   17.40000     -8.6950944E-09
   17.46000     -1.0086735E-08
   17.52000     -1.1575192E-08
   17.58000     -1.3095788E-08
   17.64000     -1.4576028E-08
   17.70000     -1.5938323E-08
   17.76000     -1.7105345E-08
   17.82000     -1.8008159E-08
   17.88000     -1.8595999E-08
   17.94000     -1.8845432E-08
   18.00000     -1.8766036E-08
   18.06000     -1.8400238E-08
   18.12000     -1.7816276E-08
   18.18000     -1.7095271E-08
   18.24000     -1.6315200E-08
   18.30000     -1.5535647E-08
   18.36000     -1.4787131E-08
   18.42000     -1.4067504E-08
   18.48000     -1.3346122E-08
   18.54000     -1.2574259E-08
   18.60000     -1.1698869E-08
   18.66000     -1.0676088E-08
   18.72000     -9.4812682E-09
   18.78000     -8.1135321E-09
   18.84000     -6.5944770E-09
   18.90000     -4.9622191E-09
   18.96000     -3.2630603E-09
   19.02000     -1.5433240E-09
   19.08000      1.5668364E-10
   19.14000      1.8057806E-09
   19.20000      3.3824767E-09
   19.26000      4.8741464E-09
   19.32000      6.2759442E-09
   19.38000      7.5899571E-09
   19.44000      8.8242453E-09
   19.50000      9.9909911E-09
   19.56000      1.1103173E-08
   19.62000      1.2170054E-08
   19.68000      1.3192698E-08
   19.74000      1.4161144E-08
   19.80000      1.5054495E-08
   19.86000      1.5844067E-08
   19.92000      1.6498523E-08
   19.98000      1.6989221E-08
   20.04000      1.7294189E-08
   20.10000      1.7400177E-08
   20.16000      1.7303178E-08
   20.22000      1.7008592E-08
   20.28000      1.6531910E-08
   20.34000      1.5899912E-08
   20.40000      1.5151478E-08
   20.46000      1.4336582E-08
   20.52000      1.3512466E-08
   20.58000      1.2737059E-08
   20.64000      1.2060924E-08
   20.70000      1.1519823E-08
   20.76000      1.1130034E-08
   20.82000      1.0887780E-08
   20.88000      1.0773019E-08
   20.94000      1.0756602E-08
   21.00000      1.0808975E-08
   21.06000      1.0908205E-08
   21.12000      1.1045232E-08
   21.18000      1.1224937E-08
   21.24000      1.1462634E-08
   21.30000      1.1776985E-08
   21.36000      1.2181430E-08
   21.42000      1.2676982E-08
   21.48000      1.3248883E-08
   21.54000      1.3868411E-08
   21.60000      1.4499282E-08
   21.66000      1.5106277E-08
   21.72000      1.5662884E-08
   21.78000      1.6155033E-08
   21.84000      1.6579627E-08
   21.90000      1.6938628E-08
   21.96000      1.7231223E-08
   22.02000      1.7447361E-08
   22.08000      1.7565259E-08
   22.14000      1.7553912E-08
   22.20000      1.7379588E-08
   22.26000      1.7013756E-08
   22.32000      1.6439413E-08
   22.38000      1.5653411E-08
   22.44000      1.4664066E-08
   22.50000      1.3485298E-08
   22.56000      1.2130030E-08
   22.62000      1.0605981E-08
   22.68000      8.9160697E-09
   22.74000      7.0636399E-09
   22.80000      5.0604925E-09
   22.86000      2.9341332E-09
   22.92000      7.3058304E-10
   22.98000     -1.4894119E-09
   23.04000     -3.6604009E-09
   23.10000     -5.7255622E-09
   23.16000     -7.6489748E-09
   23.22000     -9.4226404E-09
   23.28000     -1.1065770E-08
   23.34000     -1.2616431E-08
   23.40000     -1.4117999E-08
   23.46000     -1.5604344E-08
   23.52000     -1.7087899E-08
   23.58000     -1.8553777E-08
   23.64000     -1.9961458E-08
   23.70000     -2.1253520E-08
   23.76000     -2.2369198E-08
   23.82000     -2.3259334E-08
   23.88000     -2.3898915E-08
   23.94000     -2.4294192E-08
   24.00000     -2.4482759E-08
   24.06000     -2.4527010E-08
   24.12000     -2.4503121E-08
   24.18000     -2.4488617E-08
   24.24000     -2.4551506E-08
   24.30000     -2.4742940E-08
   24.36000     -2.5094019E-08
   24.42000     -2.5616089E-08
   24.48000     -2.6303383E-08
   24.54000     -2.7136821E-08
   24.60000     -2.8088122E-08
   24.66000     -2.9123859E-08
   24.72000     -3.0209087E-08
   24.78000     -3.1310250E-08
   24.84000     -3.2396901E-08
   24.90000     -3.3441886E-08
   24.96000     -3.4420101E-08
   25.02000     -3.5306336E-08
   25.08000     -3.6073377E-08
   25.14000     -3.6691606E-08
   25.20000     -3.7131013E-08
   25.26000     -3.7365709E-08
   25.32000     -3.7379930E-08
   25.38000     -3.7173574E-08
   25.44000     -3.6765002E-08
   25.50000     -3.6189441E-08
   25.56000     -3.5492725E-08
   25.62000     -3.4721889E-08
   25.68000     -3.3915487E-08
   25.74000     -3.3096985E-08
   25.80000     -3.2273540E-08
   25.86000     -3.1440656E-08
   25.92000     -3.0590922E-08
   25.98000     -2.9723484E-08
   26.04000     -2.8850597E-08
   26.10000     -2.7998665E-08
   26.16000     -2.7203271E-08
   26.22000     -2.6499830E-08
   26.28000     -2.5913176E-08
   26.34000     -2.5449804E-08
   26.40000     -2.5095655E-08
   26.46000     -2.4820604E-08
   26.52000     -2.4588481E-08
   26.58000     -2.4369596E-08
   26.64000     -2.4151586E-08
   26.70000     -2.3944773E-08
   26.76000     -2.3779764E-08
   26.82000     -2.3697657E-08
   26.88000     -2.3735753E-08
   26.94000     -2.3913413E-08
   27.00000     -2.4222839E-08
   27.06000     -2.4627932E-08
   27.12000     -2.5071705E-08
   27.18000     -2.5489886E-08
   27.24000     -2.5826347E-08
   27.30000     -2.6045686E-08
   27.36000     -2.6139473E-08
   27.42000     -2.6124919E-08
   27.48000     -2.6037203E-08
   27.54000     -2.5918418E-08
   27.60000     -2.5806878E-08
   27.66000     -2.5729889E-08
   27.72000     -2.5701825E-08
   27.78000     -2.5727401E-08
   27.84000     -2.5808458E-08
   27.90000     -2.5951431E-08
   27.96000     -2.6172520E-08
   28.02000     -2.6498327E-08
   28.08000     -2.6961290E-08
   28.14000     -2.7591049E-08
   28.20000     -2.8404461E-08
   28.26000     -2.9397768E-08
   28.32000     -3.0543994E-08
   28.38000     -3.1797107E-08
   28.44000     -3.3102257E-08
   28.50000     -3.4409158E-08
   28.56000     -3.5684291E-08
   28.62000     -3.6917644E-08
   28.68000     -3.8121282E-08
   28.74000     -3.9319829E-08
   28.80000     -4.0535792E-08
   28.86000     -4.1774925E-08
   28.92000     -4.3017014E-08
   28.98000     -4.4215987E-08
   29.04000     -4.5309932E-08
   29.10000     -4.6238029E-08
   29.16000     -4.6958696E-08
   29.22000     -4.7462510E-08
   29.28000     -4.7775096E-08
   29.34000     -4.7948735E-08
   29.40000     -4.8045404E-08
   29.46000     -4.8117027E-08
   29.52000     -4.8189804E-08
   29.58000     -4.8257924E-08
   29.64000     -4.8288705E-08
   29.70000     -4.8237222E-08
   29.76000     -4.8065164E-08
   29.82000     -4.7757464E-08
   29.88000     -4.7330797E-08
   29.94000     -4.6830998E-08
   30.00000     -4.6319943E-08
   30.06000     -4.5856083E-08
   30.12000     -4.5475147E-08
   30.18000     -4.5177696E-08
   30.24000     -4.4928480E-08
   30.30000     -4.4668553E-08
   30.36000     -4.4336719E-08
   30.42000     -4.3893078E-08
   30.48000     -4.3335948E-08
   30.54000     -4.2705267E-08
   30.60000     -4.2070113E-08
   30.66000     -4.1504034E-08
   30.72000     -4.1057014E-08
   30.78000     -4.0734989E-08
   30.84000     -4.0495717E-08
   30.90000     -4.0264055E-08
   30.96000     -3.9962384E-08
   31.02000     -3.9545753E-08
   31.08000     -3.9028727E-08
   31.14000     -3.8493180E-08
   31.20000     -3.8072464E-08
   31.26000     -3.7915651E-08
   31.32000     -3.8142765E-08
   31.38000     -3.8805613E-08
   31.44000     -3.9867590E-08
   31.50000     -4.1209965E-08
   31.56000     -4.2663498E-08
   31.62000     -4.4055923E-08
   31.68000     -4.5260336E-08
   31.74000     -4.6229172E-08
   31.80000     -4.7002843E-08
   31.86000     -4.7690516E-08
   31.92000     -4.8429232E-08
   31.98000     -4.9334748E-08
   32.04000     -5.0459906E-08
   32.10000     -5.1773942E-08
   32.16000     -5.3169341E-08
   32.22000     -5.4493849E-08
   32.28000     -5.5597148E-08
   32.34000     -5.6376631E-08
   32.40000     -5.6807199E-08
   32.46000     -5.6945055E-08
   32.52000     -5.6904575E-08
   32.58000     -5.6816528E-08
   32.64000     -5.6782444E-08
   32.70000     -5.6841259E-08
   32.76000     -5.6960026E-08
   32.82000     -5.7051707E-08
   32.88000     -5.7013636E-08
   32.94000     -5.6772866E-08
   33.00000     -5.6322207E-08
   33.06000     -5.5734088E-08
   33.12000     -5.5146618E-08
   33.18000     -5.4725756E-08
   33.24000     -5.4615217E-08
   33.30000     -5.4890354E-08
   33.36000     -5.5530997E-08
   33.42000     -5.6422824E-08
   33.48000     -5.7387673E-08
   33.54000     -5.8233873E-08
   33.60000     -5.8811075E-08
   33.66000     -5.9052280E-08
   33.72000     -5.8989905E-08
   33.78000     -5.8741083E-08
   33.84000     -5.8467386E-08
   33.90000     -5.8322154E-08
   33.96000     -5.8402204E-08
   34.02000     -5.8718626E-08
   34.08000     -5.9195049E-08
   34.14000     -5.9692958E-08
   34.20000     -6.0055719E-08
   34.26000     -6.0157390E-08
   34.32000     -5.9941335E-08
   34.38000     -5.9436697E-08
   34.44000     -5.8747553E-08
   34.50000     -5.8017807E-08
   34.56000     -5.7382852E-08
   34.62000     -5.6923444E-08
   34.68000     -5.6637077E-08
   34.74000     -5.6436651E-08
   34.80000     -5.6177150E-08
   34.86000     -5.5701676E-08
   34.92000     -5.4891469E-08
   34.98000     -5.3703509E-08
   35.04000     -5.2183665E-08
   35.10000     -5.0451845E-08
   35.16000     -4.8664763E-08
   35.22000     -4.6968889E-08
   35.28000     -4.5458428E-08
   35.34000     -4.4150973E-08
   35.40000     -4.2987217E-08
   35.46000     -4.1854005E-08
   35.52000     -4.0622805E-08
   35.58000     -3.9191946E-08
   35.64000     -3.7519975E-08
   35.70000     -3.5640745E-08
   35.76000     -3.3656221E-08
   35.82000     -3.1709781E-08
   35.88000     -2.9948410E-08
   35.94000     -2.8485154E-08
   36.00000     -2.7372810E-08
   36.06000     -2.6596078E-08
   36.12000     -2.6083589E-08
   36.18000     -2.5735325E-08
   36.24000     -2.5456622E-08
   36.30000     -2.5188374E-08
   36.36000     -2.4924534E-08
   36.42000     -2.4712056E-08
   36.48000     -2.4633639E-08
   36.54000     -2.4778693E-08
   36.60000     -2.5211397E-08
   36.66000     -2.5945559E-08
   36.72000     -2.6933966E-08
   36.78000     -2.8075672E-08
   36.84000     -2.9239134E-08
   36.90000     -3.0294334E-08
   36.96000     -3.1144232E-08
   37.02000     -3.1746200E-08
   37.08000     -3.2117317E-08
   37.14000     -3.2322635E-08
   37.20000     -3.2450707E-08
   37.26000     -3.2584328E-08
   37.32000     -3.2775333E-08
   37.38000     -3.3030247E-08
   37.44000     -3.3309966E-08
   37.50000     -3.3542282E-08
   37.56000     -3.3643037E-08
   37.62000     -3.3539997E-08
   37.68000     -3.3193416E-08
   37.74000     -3.2608401E-08
   37.80000     -3.1835974E-08
   37.86000     -3.0961981E-08
   37.92000     -3.0085921E-08
   37.98000     -2.9294586E-08
   38.04000     -2.8637634E-08
   38.10000     -2.8112543E-08
   38.16000     -2.7664314E-08
   38.22000     -2.7200862E-08
   38.28000     -2.6619995E-08
   38.34000     -2.5839773E-08
   38.40000     -2.4822912E-08
   38.46000     -2.3587896E-08
   38.52000     -2.2203890E-08
   38.58000     -2.0771536E-08
   38.64000     -1.9395793E-08
   38.70000     -1.8158813E-08
   38.76000     -1.7100483E-08
   38.82000     -1.6211924E-08
   38.88000     -1.5443582E-08
   38.94000     -1.4725357E-08
   39.00000     -1.3992425E-08
   39.06000     -1.3208436E-08
   39.12000     -1.2378255E-08
   39.18000     -1.1546040E-08
   39.24000     -1.0779700E-08
   39.30000     -1.0147840E-08
   39.36000     -9.6978878E-09
   39.42000     -9.4430384E-09
   39.48000     -9.3616812E-09
   39.54000     -9.4078825E-09
   39.60000     -9.5278763E-09
   39.66000     -9.6763424E-09
   39.72000     -9.8277164E-09
   39.78000     -9.9803659E-09
   39.84000     -1.0153915E-08
   39.90000     -1.0381561E-08
   39.96000     -1.0699829E-08
   40.02000     -1.1138461E-08
   40.08000     -1.1712969E-08
   40.14000     -1.2421762E-08
   40.20000     -1.3248362E-08
   40.26000     -1.4167525E-08
   40.32000     -1.5152633E-08
   40.38000     -1.6181668E-08
   40.44000     -1.7240261E-08
   40.50000     -1.8322256E-08
   40.56000     -1.9429345E-08
   40.62000     -2.0570960E-08
   40.68000     -2.1764086E-08
   40.74000     -2.3031051E-08
   40.80000     -2.4393534E-08
   40.86000     -2.5862953E-08
   40.92000     -2.7430419E-08
   40.98000     -2.9061312E-08
   41.04000     -3.0698761E-08
   41.10000     -3.2276986E-08
   41.16000     -3.3740800E-08
   41.22000     -3.5064335E-08
   41.28000     -3.6261650E-08
   41.34000     -3.7384698E-08
   41.40000     -3.8508531E-08
   41.46000     -3.9708166E-08
   41.52000     -4.1034017E-08
   41.58000     -4.2493369E-08
   41.64000     -4.4043588E-08
   41.70000     -4.5599851E-08
   41.76000     -4.7056389E-08
   41.82000     -4.8316160E-08
   41.88000     -4.9320782E-08
   41.94000     -5.0071186E-08
   42.00000     -5.0631385E-08
   42.06000     -5.1112451E-08
   42.12000     -5.1640725E-08
   42.18000     -5.2319994E-08
   42.24000     -5.3200242E-08
   42.30000     -5.4263406E-08
   42.36000     -5.5430647E-08
   42.42000     -5.6588156E-08
   42.48000     -5.7622209E-08
   42.54000     -5.8452041E-08
   42.60000     -5.9050535E-08
   42.66000     -5.9447657E-08
   42.72000     -5.9717095E-08
   42.78000     -5.9951326E-08
   42.84000     -6.0232914E-08
   42.90000     -6.0610148E-08
   42.96000     -6.1083526E-08
   43.02000     -6.1606372E-08
   43.08000     -6.2099232E-08
   43.14000     -6.2473681E-08
   43.20000     -6.2658771E-08
   43.26000     -6.2622107E-08
   43.32000     -6.2379208E-08
   43.38000     -6.1987940E-08
   43.44000     -6.1529761E-08
   43.50000     -6.1083469E-08
   43.56000     -6.0699790E-08
   43.62000     -6.0385013E-08
   43.68000     -6.0099040E-08
   43.74000     -5.9768631E-08
   43.80000     -5.9311912E-08
   43.86000     -5.8666348E-08
   43.92000     -5.7811576E-08
   43.98000     -5.6779708E-08
   44.04000     -5.5649693E-08
   44.10000     -5.4527074E-08
   44.16000     -5.3514821E-08
   44.22000     -5.2683600E-08
   44.28000     -5.2050286E-08
   44.34000     -5.1571476E-08
   44.40000     -5.1154640E-08
   44.46000     -5.0684580E-08
   44.52000     -5.0057981E-08
   44.58000     -4.9215799E-08
   44.64000     -4.8163429E-08
   44.70000     -4.6971763E-08
   44.76000     -4.5758302E-08
   44.82000     -4.4653920E-08
   44.88000     -4.3765684E-08
   44.94000     -4.3147182E-08
   45.00000     -4.2785320E-08
   45.06000     -4.2606931E-08
   45.12000     -4.2502599E-08
   45.18000     -4.2360025E-08
   45.24000     -4.2097053E-08
   45.30000     -4.1684821E-08
   45.36000     -4.1154578E-08
   45.42000     -4.0586325E-08
   45.48000     -4.0082796E-08
   45.54000     -3.9736907E-08
   45.60000     -3.9603243E-08
   45.66000     -3.9682803E-08
   45.72000     -3.9926022E-08
   45.78000     -4.0252484E-08
   45.84000     -4.0579920E-08
   45.90000     -4.0852257E-08
   45.96000     -4.1057479E-08
   46.02000     -4.1230319E-08
   46.08000     -4.1440025E-08
   46.14000     -4.1768015E-08
   46.20000     -4.2282416E-08
   46.26000     -4.3017000E-08
   46.32000     -4.3960522E-08
   46.38000     -4.5060254E-08
   46.44000     -4.6239620E-08
   46.50000     -4.7425825E-08
   46.56000     -4.8579338E-08
   46.62000     -4.9715602E-08
   46.68000     -5.0911265E-08
   46.74000     -5.2292311E-08
   46.80000     -5.4008300E-08
   46.86000     -5.6201785E-08
   46.92000     -5.8983503E-08
   46.98000     -6.2421059E-08
   47.04000     -6.6543990E-08
   47.10000     -7.1363097E-08
   47.16000     -7.6898502E-08
   47.22000     -8.3210118E-08
   47.28000     -9.0423839E-08
   47.34000     -9.8748330E-08
   47.40000     -1.0847878E-07
   47.46000     -1.1998723E-07
   47.52000     -1.3370317E-07
   47.58000     -1.5009149E-07
   47.64000     -1.6963733E-07
   47.70000     -1.9284424E-07
   47.76000     -2.2024862E-07
   47.82000     -2.5244682E-07
   47.88000     -2.9012801E-07
   47.94000     -3.3410586E-07
   48.00000     -3.8534341E-07
   48.06000     -4.4497045E-07
   48.12000     -5.1429527E-07
   48.18000     -5.9481295E-07
   48.24000     -6.8821271E-07
   48.30000     -7.9638738E-07
   48.36000     -9.2144410E-07
   48.42000     -1.0657199E-06
   48.48000     -1.2318023E-06
   48.54000     -1.4225576E-06
   48.60000     -1.6411626E-06
   48.66000     -1.8911411E-06
   48.72000     -2.1763997E-06
   48.78000     -2.5012603E-06
   48.84000     -2.8704881E-06
   48.90000     -3.2893129E-06
   48.96000     -3.7634479E-06
   49.02000     -4.2991051E-06
   49.08000     -4.9030118E-06
   49.14000     -5.5824275E-06
   49.20000     -6.3451694E-06
   49.26000     -7.1996396E-06
   49.32000     -8.1548578E-06
   49.38000     -9.2204864E-06
   49.44000     -1.0406854E-05
   49.50000     -1.1724956E-05
   49.56000     -1.3186441E-05
   49.62000     -1.4803584E-05
   49.68000     -1.6589249E-05
   49.74000     -1.8556831E-05
   49.80000     -2.0720219E-05
   49.86000     -2.3093753E-05
   49.92000     -2.5692183E-05
   49.98000     -2.8530645E-05
   50.04000     -3.1624608E-05
   50.10000     -3.4989829E-05
   50.16000     -3.8642254E-05
   50.22000     -4.2597912E-05
   50.28000     -4.6872781E-05
   50.34000     -5.1482628E-05
   50.40000     -5.6442866E-05
   50.46000     -6.1768398E-05
   50.52000     -6.7473433E-05
   50.58000     -7.3571369E-05
   50.64000     -8.0074584E-05
   50.70000     -8.6994376E-05
   50.76000     -9.4340750E-05
   50.82000     -1.0212228E-04
   50.88000     -1.1034594E-04
   50.94000     -1.1901690E-04
   51.00000     -1.2813836E-04
   51.06000     -1.3771134E-04
   51.12000     -1.4773452E-04
   51.18000     -1.5820409E-04
   51.24000     -1.6911358E-04
   51.30000     -1.8045388E-04
   51.36000     -1.9221316E-04
   51.42000     -2.0437677E-04
   51.48000     -2.1692729E-04
   51.54000     -2.2984440E-04
   51.60000     -2.4310498E-04
   51.66000     -2.5668310E-04
   51.72000     -2.7055002E-04
   51.78000     -2.8467446E-04
   51.84000     -2.9902256E-04
   51.90000     -3.1355806E-04
   51.96000     -3.2824258E-04
   52.02000     -3.4303564E-04
   52.08000     -3.5789536E-04
   52.14000     -3.7277860E-04
   52.20000     -3.8764122E-04
   52.26000     -4.0243848E-04
   52.32000     -4.1712524E-04
   52.38000     -4.3165643E-04
   52.44000     -4.4598733E-04
   52.50000     -4.6007408E-04
   52.56000     -4.7387404E-04
   52.62000     -4.8734626E-04
   52.68000     -5.0045172E-04
   52.74000     -5.1315379E-04
   52.80000     -5.2541855E-04
   52.86000     -5.3721521E-04
   52.92000     -5.4851652E-04
   52.98000     -5.5929902E-04
   53.04000     -5.6954328E-04
   53.10000     -5.7923381E-04
   53.16000     -5.8835960E-04
   53.22000     -5.9691368E-04
   53.28000     -6.0489395E-04
   53.34000     -6.1230251E-04
   53.40000     -6.1914639E-04
   53.46000     -6.2543666E-04
   53.52000     -6.3118862E-04
   53.58000     -6.3642155E-04
   53.64000     -6.4115849E-04
   53.70000     -6.4542628E-04
   53.76000     -6.4925518E-04
   53.82000     -6.5267860E-04
   53.88000     -6.5573241E-04
   53.94000     -6.5845414E-04
   54.00000     -6.6088286E-04
   54.06000     -6.6305842E-04
   54.12000     -6.6502125E-04
   54.18000     -6.6681183E-04
   54.24000     -6.6847046E-04
   54.30000     -6.7003665E-04
   54.36000     -6.7154865E-04
   54.42000     -6.7304290E-04
   54.48000     -6.7455368E-04
   54.54000     -6.7611260E-04
   54.60000     -6.7774823E-04
   54.66000     -6.7948579E-04
   54.72000     -6.8134657E-04
   54.78000     -6.8334810E-04
   54.84000     -6.8550382E-04
   54.90000     -6.8782287E-04
   54.96000     -6.9031061E-04
   55.02000     -6.9296831E-04
   55.08000     -6.9579313E-04
   55.14000     -6.9877814E-04
   55.20000     -7.0191250E-04
   55.26000     -7.0518150E-04
   55.32000     -7.0856704E-04
   55.38000     -7.1204768E-04
   55.44000     -7.1559945E-04
   55.50000     -7.1919552E-04
   55.56000     -7.2280725E-04