  -2.400000      0.0000000E+00
  -2.340000      0.0000000E+00
  -2.280000      0.0000000E+00
  -2.220000      0.0000000E+00
  -2.160000      0.0000000E+00
  -2.100000      0.0000000E+00
  -2.040000      0.0000000E+00
  -1.980000      0.0000000E+00
  -1.920000      1.6962894E-27
  -1.860000      2.6478021E-26
  -1.800000      2.1370230E-25
  -1.740000      1.1672232E-24
  -1.680000      4.7651340E-24
  -1.620000      1.5189228E-23
  -1.560000      3.8235059E-23
  -1.500000      7.3983831E-23
  -1.440000      9.6295102E-23
  -1.380000      1.8852872E-23
  -1.320000     -3.3136379E-22
  -1.260000     -1.1794674E-21
  -1.200000     -2.6340674E-21
  -1.140000     -4.3520351E-21
  -1.080000     -5.1362274E-21
  -1.020000     -2.7530483E-21
 -0.9600000      5.6414554E-21
 -0.9000000      2.2245507E-20
 -0.8400000      4.6787465E-20
 -0.7800000      7.4912158E-20
 -0.7200000      9.7519256E-20
 -0.6600000      1.0077346E-19
 -0.6000000      6.5000298E-20
 -0.5400000     -3.9400073E-20
 -0.4800000     -2.5700274E-19
 -0.4200000     -6.4282036E-19
 -0.3600000     -1.2288704E-18
 -0.3000000     -1.9442777E-18
 -0.2400000     -2.4962628E-18
 -0.1800000     -2.2711085E-18
 -0.1200000     -3.7396034E-19
 -5.9999999E-02  4.0524782E-18
  0.0000000E+00  1.1166941E-17
  5.9999999E-02  1.9569598E-17
  0.1200000      2.5677018E-17
  0.1800000      2.3987363E-17
  0.2400000      8.8168007E-18
  0.3000000     -2.2461990E-17
  0.3600000     -6.5639204E-17
  0.4200000     -1.0735574E-16
  0.4800000     -1.2669264E-16
  0.5400000     -1.0218179E-16
  0.6000000     -2.3265896E-17
  0.6600000      9.8152841E-17
  0.7200000      2.2302237E-16
  0.7800000      2.9388761E-16
  0.8400000      2.5890110E-16
  0.9000000      1.0443569E-16
  0.9600000     -1.1917902E-16
   1.020000     -2.9802200E-16
   1.080000     -2.9402525E-16
   1.140000     -1.9139763E-17
   1.200000      4.8328894E-16
   1.260000      9.9510066E-16
   1.320000      1.1620105E-15
   1.380000      6.3107761E-16
   1.440000     -7.4580563E-16
   1.500000     -2.7271812E-15
   1.560000     -4.6266125E-15
   1.620000     -5.4714047E-15
   1.680000     -4.3771253E-15
   1.740000     -1.0232827E-15
   1.800000      3.9821712E-15
   1.860000      9.0805879E-15
   1.920000      1.2214794E-14
   1.980000      1.1683056E-14
   2.040000      7.0843989E-15
   2.100000     -1.1055157E-16
   2.160000     -6.7911515E-15
   2.220000     -9.3918708E-15
   2.280000     -5.7304032E-15
   2.340000      3.2518239E-15
   2.400000      1.2811889E-14
   2.460000      1.5545159E-14
   2.520000      4.4273425E-15
   2.580000     -2.3099857E-14
   2.640000     -6.1691978E-14
   2.700000     -9.7280968E-14
   2.760000     -1.1023907E-13
   2.820000     -8.2440680E-14
   2.880000     -6.2591915E-15
   2.940000      1.0799758E-13
   3.000000      2.3008201E-13
   3.060000      3.1581113E-13
   3.120000      3.2085378E-13
   3.180000      2.1861720E-13
   3.240000      1.5828498E-14
   3.300000     -2.4121493E-13
   3.360000     -4.7452591E-13
   3.420000     -5.9651969E-13
   3.480000     -5.4067856E-13
   3.540000     -2.9063094E-13
   3.600000      1.0376198E-13
   3.660000      5.3165361E-13
   3.720000      8.4934593E-13
   3.780000      9.2452500E-13
   3.840000      6.8301766E-13
   3.900000      1.4204160E-13
   3.960000     -5.8280106E-13
   4.020000     -1.3013067E-12
   4.080000     -1.7973687E-12
   4.140000     -1.8880392E-12
   4.200000     -1.4748089E-12
   4.260000     -5.7199601E-13
   4.320000      6.9431868E-13
   4.380000      2.1127891E-12
   4.440000      3.4265843E-12
   4.500000      4.3722218E-12
   4.560000      4.7081813E-12
   4.620000      4.2337184E-12
   4.680000      2.8077536E-12
   4.740000      3.8141059E-13
   4.800000     -2.9478752E-12
   4.860000     -6.8673166E-12
   4.920000     -1.0789887E-11
   4.980000     -1.3844760E-11
   5.040000     -1.4957592E-11
   5.100000     -1.3044720E-11
   5.160000     -7.3121864E-12
   5.220000      2.3913636E-12
   5.280000      1.5256662E-11
   5.340000      2.9338955E-11
   5.400000      4.1625536E-11
   5.460000      4.8404652E-11
   5.520000      4.5929201E-11
   5.580000      3.1293270E-11
   5.640000      3.3715942E-12
   5.700000     -3.6369612E-11
   5.760000     -8.3387491E-11
   5.820000     -1.3006622E-10
   5.880000     -1.6630668E-10
   5.940000     -1.8071412E-10
   6.000000     -1.6230546E-10
   6.060000     -1.0257463E-10
   6.120000      2.3132310E-12
   6.180000      1.4947697E-10
   6.240000      3.2772754E-10
   6.300000      5.1672916E-10
   6.360000      6.8717310E-10
   6.420000      8.0213736E-10
   6.480000      8.1967155E-10
   6.540000      6.9647421E-10
   6.600000      3.9233949E-10
   6.660000     -1.2511457E-10
   6.720000     -8.7603430E-10
   6.780000     -1.8648456E-09
   6.840000     -3.0782144E-09
   6.900000     -4.4847819E-09
   6.960000     -6.0367573E-09
   7.020000     -7.6731812E-09
   7.080000     -9.3244585E-09
   7.140000     -1.0917613E-08
   7.200000     -1.2381661E-08
   7.260000     -1.3652588E-08
   7.320000     -1.4677488E-08
   7.380000     -1.5417640E-08
   7.440000     -1.5850427E-08
   7.500000     -1.5970141E-08
   7.560000     -1.5787810E-08
   7.620000     -1.5330118E-08
   7.680000     -1.4637553E-08
   7.740000     -1.3761744E-08
   7.800000     -1.2761954E-08
   7.860000     -1.1700738E-08
   7.920000     -1.0638796E-08
   7.980000     -9.6293213E-09
   8.040000     -8.7123864E-09
   8.100000     -7.9100957E-09
   8.160000     -7.2234494E-09
   8.220000     -6.6317685E-09
   8.280000     -6.0952861E-09
   8.340000     -5.5609917E-09
   8.400000     -4.9712021E-09
   8.460000     -4.2736614E-09
   8.520000     -3.4315113E-09
   8.580000     -2.4312774E-09
   8.640000     -1.2872396E-09
   8.700000     -4.1144175E-11
   8.760000      1.2429072E-09
   8.820000      2.4876072E-09
   8.880000      3.6140213E-09
   8.940000      4.5534954E-09
   9.000000      5.2577418E-09
   9.060000      5.7053762E-09
   9.120000      5.9039347E-09
   9.180000      5.8873564E-09
   9.240000      5.7098046E-09
   9.300000      5.4373293E-09
   9.360000      5.1391083E-09
   9.420000      4.8798166E-09
   9.480000      4.7141286E-09
   9.540000      4.6836397E-09
   9.600000      4.8158331E-09
   9.660000      5.1242970E-09
   9.720000      5.6093543E-09
   9.780000      6.2585532E-09
   9.840000      7.0470567E-09
   9.900000      7.9384703E-09
   9.960000      8.8869818E-09
   10.02000      9.8415756E-09
   10.08000      1.0752520E-08
   10.14000      1.1579501E-08
   10.20000      1.2299854E-08
   10.26000      1.2914767E-08
   10.32000      1.3451329E-08
   10.38000      1.3958930E-08
   10.44000      1.4499866E-08
   10.50000      1.5135525E-08
   10.56000      1.5910988E-08
   10.62000      1.6841733E-08
   10.68000      1.7906041E-08
   10.74000      1.9045533E-08
   10.80000      2.0174486E-08
   10.86000      2.1196170E-08
   10.92000      2.2022547E-08
   10.98000      2.2592495E-08
   11.04000      2.2883855E-08
   11.10000      2.2916041E-08
   11.16000      2.2742354E-08
   11.22000      2.2433959E-08
   11.28000      2.2059789E-08
   11.34000      2.1667955E-08
   11.40000      2.1273793E-08
   11.46000      2.0858010E-08
   11.52000      2.0375404E-08
   11.58000      1.9771621E-08
   11.64000      1.9002961E-08
   11.70000      1.8053241E-08
   11.76000      1.6942483E-08
   11.82000      1.5724577E-08
   11.88000      1.4474255E-08
   11.94000      1.3267068E-08
   12.00000      1.2158250E-08
   12.06000      1.1166852E-08
   12.12000      1.0270195E-08
   12.18000      9.4106651E-09
   12.24000      8.5132461E-09
   12.30000      7.5088833E-09
   12.36000      6.3568586E-09
   12.42000      5.0594626E-09
   12.48000      3.6643388E-09
   12.54000      2.2533995E-09
   12.60000      9.2118002E-10
   12.66000     -2.5130592E-10
   12.72000     -1.2196414E-09
   12.78000     -1.9891206E-09
   12.84000     -2.6137341E-09
   12.90000     -3.1808725E-09
   12.96000     -3.7857686E-09
   13.02000     -4.5028261E-09
   13.08000     -5.3620970E-09
   13.14000     -6.3379222E-09
   13.20000     -7.3533868E-09
   13.26000     -8.2997325E-09
   13.32000     -9.0654702E-09
   13.38000     -9.5669881E-09
   13.44000     -9.7718500E-09
   13.50000     -9.7079695E-09
   13.56000     -9.4559045E-09
   13.62000     -9.1264383E-09
   13.68000     -8.8299448E-09
   13.74000     -8.6464826E-09
   13.80000     -8.6052951E-09
   13.86000     -8.6795904E-09
   13.92000     -8.7978700E-09
   13.98000     -8.8681711E-09
   14.04000     -8.8077892E-09
   14.10000     -8.5695753E-09
   14.16000     -8.1570848E-09
   14.22000     -7.6243678E-09
   14.28000     -7.0608395E-09
   14.34000     -6.5661285E-09
   14.40000     -6.2225798E-09
   14.46000     -6.0735696E-09
   14.52000     -6.1137726E-09
   14.58000     -6.2937744E-09
   14.64000     -6.5371042E-09
   14.70000     -6.7642003E-09
   14.76000     -6.9160202E-09
   14.82000     -6.9704500E-09
   14.88000     -6.9470611E-09
   14.94000     -6.8993806E-09
   15.00000     -6.8974777E-09
   15.06000     -7.0063555E-09
   15.12000     -7.2665189E-09
   15.18000     -7.6821287E-09
   15.24000     -8.2196294E-09
   15.30000     -8.8165102E-09
   15.36000     -9.3969739E-09
   15.42000     -9.8894590E-09
   15.48000     -1.0240821E-08
   15.54000     -1.0423393E-08
   15.60000     -1.0433595E-08
   15.66000     -1.0283505E-08
   15.72000     -9.9888755E-09
   15.78000     -9.5579997E-09
   15.84000     -8.9852374E-09
   15.90000     -8.2513081E-09
   15.96000     -7.3301711E-09
   16.02000     -6.2001670E-09
   16.08000     -4.8558104E-09
   16.14000     -3.3164405E-09
   16.20000     -1.6288987E-09
   16.26000      1.3688241E-10
   16.32000      1.8985646E-09
   16.38000      3.5759347E-09
   16.44000      5.1059783E-09
   16.50000      6.4551893E-09
   16.56000      7.6265962E-09
   16.62000      8.6602627E-09
   16.68000      9.6274233E-09
   16.74000      1.0619632E-08
   16.80000      1.1735035E-08
   16.86000      1.3064143E-08
   16.92000      1.4677209E-08
   16.98000      1.6614768E-08
   17.04000      1.8882147E-08
   17.10000      2.1448059E-08
   17.16000      2.4246885E-08
   17.22000      2.7183939E-08
   17.28000      3.0142939E-08
   17.34000      3.2995061E-08
   17.40000      3.5609137E-08
   17.46000      3.7862588E-08
   17.52000      3.9652637E-08
   17.58000      4.0907064E-08
   17.64000      4.1593122E-08
   17.70000      4.1723197E-08
   17.76000      4.1355435E-08
   17.82000      4.0588223E-08
   17.88000      3.9548304E-08
   17.94000      3.8373685E-08
   18.00000      3.7193740E-08
   18.06000      3.6110027E-08
   18.12000      3.5181440E-08
   18.18000      3.4416693E-08
   18.24000      3.3775805E-08
   18.30000      3.3180285E-08
   18.36000      3.2530043E-08
   18.42000      3.1723456E-08
   18.48000      3.0676542E-08
   18.54000      2.9337453E-08
   18.60000      2.7693565E-08
   18.66000      2.5770344E-08
   18.72000      2.3622983E-08
   18.78000      2.1323467E-08
   18.84000      1.8946741E-08
   18.90000      1.6559474E-08
   18.96000      1.4214049E-08
   19.02000      1.1948472E-08
   19.08000      9.7910489E-09
   19.14000      7.7670066E-09
   19.20000      5.9036505E-09
   19.26000      4.2311763E-09
   19.32000      2.7778420E-09
   19.38000      1.5604359E-09
   19.44000      5.7301175E-10
   19.50000     -2.2193920E-10
   19.56000     -8.9584556E-10
   19.62000     -1.5474472E-09
   19.68000     -2.2872797E-09
   19.74000     -3.2161243E-09
   19.80000     -4.4025015E-09
   19.86000     -5.8651453E-09
   19.92000     -7.5655535E-09
   19.98000     -9.4133306E-09
   20.04000     -1.1283767E-08
   20.10000     -1.3043797E-08
   20.16000     -1.4580230E-08
   20.22000     -1.5823401E-08
   20.28000     -1.6760600E-08
   20.34000     -1.7436232E-08
   20.40000     -1.7939058E-08
   20.46000     -1.8380089E-08
   20.52000     -1.8866855E-08
   20.58000     -1.9480407E-08
   20.64000     -2.0260417E-08
   20.70000     -2.1201368E-08
   20.76000     -2.2259970E-08
   20.82000     -2.3371051E-08
   20.88000     -2.4467244E-08
   20.94000     -2.5497098E-08
   21.00000     -2.6437007E-08
   21.06000     -2.7294179E-08
   21.12000     -2.8100496E-08
   21.18000     -2.8899567E-08
   21.24000     -2.9731135E-08
   21.30000     -3.0617624E-08
   21.36000     -3.1556890E-08
   21.42000     -3.2523381E-08
   21.48000     -3.3477342E-08
   21.54000     -3.4379394E-08
   21.60000     -3.5205968E-08
   21.66000     -3.5960955E-08
   21.72000     -3.6679715E-08
   21.78000     -3.7423888E-08
   21.84000     -3.8268034E-08
   21.90000     -3.9281499E-08
   21.96000     -4.0510407E-08
   22.02000     -4.1964707E-08
   22.08000     -4.3613973E-08
   22.14000     -4.5393371E-08
   22.20000     -4.7218428E-08
   22.26000     -4.9004857E-08
   22.32000     -5.0688268E-08
   22.38000     -5.2238533E-08
   22.44000     -5.3664881E-08
   22.50000     -5.5010307E-08
   22.56000     -5.6336798E-08
   22.62000     -5.7705385E-08
   22.68000     -5.9156591E-08
   22.74000     -6.0696763E-08
   22.80000     -6.2294014E-08
   22.86000     -6.3884727E-08
   22.92000     -6.5388626E-08
   22.98000     -6.6727580E-08
   23.04000     -6.7842713E-08
   23.10000     -6.8704729E-08
   23.16000     -6.9314744E-08
   23.22000     -6.9696078E-08
   23.28000     -6.9880159E-08
   23.34000     -6.9891520E-08
   23.40000     -6.9737041E-08
   23.46000     -6.9402859E-08
   23.52000     -6.8859997E-08
   23.58000     -6.8076439E-08
   23.64000     -6.7031479E-08
   23.70000     -6.5727335E-08
   23.76000     -6.4193827E-08
   23.82000     -6.2484283E-08
   23.88000     -6.0663609E-08
   23.94000     -5.8792047E-08
   24.00000     -5.6909652E-08
   24.06000     -5.5026248E-08
   24.12000     -5.3120150E-08
   24.18000     -5.1146340E-08
   24.24000     -4.9051835E-08
   24.30000     -4.6794057E-08
   24.36000     -4.4356909E-08
   24.42000     -4.1760078E-08
   24.48000     -3.9058772E-08
   24.54000     -3.6333997E-08
   24.60000     -3.3675914E-08
   24.66000     -3.1164873E-08
   24.72000     -2.8855169E-08
   24.78000     -2.6765850E-08
   24.84000     -2.4880780E-08
   24.90000     -2.3157526E-08
   24.96000     -2.1542197E-08
   25.02000     -1.9985782E-08
   25.08000     -1.8457300E-08
   25.14000     -1.6950326E-08
   25.20000     -1.5481561E-08
   25.26000     -1.4082658E-08
   25.32000     -1.2788476E-08
   25.38000     -1.1625819E-08
   25.44000     -1.0606340E-08
   25.50000     -9.7256869E-09
   25.56000     -8.9688177E-09
   25.62000     -8.3193124E-09
   25.68000     -7.7692359E-09
   25.74000     -7.3259248E-09
   25.80000     -7.0130932E-09
   25.86000     -6.8655490E-09
   25.92000     -6.9189063E-09
   25.98000     -7.1974111E-09
   26.04000     -7.7037168E-09
   26.10000     -8.4139797E-09
   26.16000     -9.2800772E-09
   26.22000     -1.0238571E-08
   26.28000     -1.1223988E-08
   26.34000     -1.2182636E-08
   26.40000     -1.3083009E-08
   26.46000     -1.3919920E-08
   26.52000     -1.4711405E-08
   26.58000     -1.5489624E-08
   26.64000     -1.6288713E-08
   26.70000     -1.7133218E-08
   26.76000     -1.8030343E-08
   26.82000     -1.8967812E-08
   26.88000     -1.9917215E-08
   26.94000     -2.0841064E-08
   27.00000     -2.1700753E-08
   27.06000     -2.2462777E-08
   27.12000     -2.3101505E-08
   27.18000     -2.3598483E-08
   27.24000     -2.3939680E-08
   27.30000     -2.4112895E-08
   27.36000     -2.4107406E-08
   27.42000     -2.3916721E-08
   27.48000     -2.3543762E-08
   27.54000     -2.3006285E-08
   27.60000     -2.2339872E-08
   27.66000     -2.1596259E-08
   27.72000     -2.0836476E-08
   27.78000     -2.0120135E-08
   27.84000     -1.9493966E-08
   27.90000     -1.8983327E-08
   27.96000     -1.8589658E-08
   28.02000     -1.8295086E-08
   28.08000     -1.8072910E-08
   28.14000     -1.7900623E-08
   28.20000     -1.7770979E-08
   28.26000     -1.7696999E-08
   28.32000     -1.7708606E-08
   28.38000     -1.7841307E-08
   28.44000     -1.8120110E-08
   28.50000     -1.8543870E-08
   28.56000     -1.9075562E-08
   28.62000     -1.9642549E-08
   28.68000     -2.0147921E-08
   28.74000     -2.0490363E-08
   28.80000     -2.0587091E-08
   28.86000     -2.0392941E-08
   28.92000     -1.9909759E-08
   28.98000     -1.9183018E-08
   29.04000     -1.8286732E-08
   29.10000     -1.7301364E-08
   29.16000     -1.6291587E-08
   29.22000     -1.5290535E-08
   29.28000     -1.4294883E-08
   29.34000     -1.3271356E-08
   29.40000     -1.2171788E-08
   29.46000     -1.0951441E-08
   29.52000     -9.5848867E-09
   29.58000     -8.0752178E-09
   29.64000     -6.4548478E-09
   29.70000     -4.7789266E-09
   29.76000     -3.1142837E-09
   29.82000     -1.5275199E-09
   29.88000     -7.5280601E-11
   29.94000      1.2015873E-09
   30.00000      2.2798703E-09
   30.06000      3.1528458E-09
   30.12000      3.8276928E-09
   30.18000      4.3227675E-09
   30.24000      4.6653565E-09
   30.30000      4.8897237E-09
   30.36000      5.0347175E-09
   30.42000      5.1401230E-09
   30.48000      5.2414508E-09
   30.54000      5.3636708E-09
   30.60000      5.5153180E-09
   30.66000      5.6849343E-09
   30.72000      5.8417040E-09
   30.78000      5.9412346E-09
   30.84000      5.9359504E-09
   30.90000      5.7878946E-09
   30.96000      5.4805440E-09
   31.02000      5.0260165E-09
   31.08000      4.4650448E-09
   31.14000      3.8591623E-09
   31.20000      3.2770258E-09
   31.26000      2.7788958E-09
   31.32000      2.4041802E-09
   31.38000      2.1661908E-09
   31.44000      2.0560247E-09
   31.50000      2.0544204E-09
   31.56000      2.1476019E-09
   31.62000      2.3415081E-09
   31.68000      2.6690130E-09
   31.74000      3.1867995E-09
   31.80000      3.9617971E-09
   31.86000      5.0505093E-09
   31.92000      6.4770593E-09
   31.98000      8.2165403E-09
   32.04000      1.0189081E-08
   32.10000      1.2267228E-08
   32.16000      1.4295672E-08
   32.22000      1.6118967E-08
   32.28000      1.7610645E-08
   32.34000      1.8696637E-08
   32.40000      1.9367191E-08
   32.46000      1.9674387E-08
   32.52000      1.9715850E-08
   32.58000      1.9608851E-08
   32.64000      1.9461314E-08
   32.70000      1.9347059E-08
   32.76000      1.9291344E-08
   32.82000      1.9270018E-08
   32.88000      1.9221797E-08
   32.94000      1.9069661E-08
   33.00000      1.8744991E-08
   33.06000      1.8207539E-08
   33.12000      1.7455760E-08
   33.18000      1.6525075E-08
   33.24000      1.5475218E-08
   33.30000      1.4370980E-08
   33.36000      1.3262318E-08
   33.42000      1.2169741E-08
   33.48000      1.1078930E-08
   33.54000      9.9456186E-09
   33.60000      8.7085681E-09
   33.66000      7.3062081E-09
   33.72000      5.6917191E-09
   33.78000      3.8422310E-09
   33.84000      1.7600775E-09
   33.90000     -5.3316890E-10
   33.96000     -3.0068035E-09
   34.02000     -5.6309988E-09
   34.08000     -8.3829095E-09
   34.14000     -1.1246844E-08
   34.20000     -1.4208892E-08
   34.26000     -1.7248604E-08
   34.32000     -2.0331468E-08
   34.38000     -2.3405640E-08
   34.44000     -2.6404910E-08
   34.50000     -2.9257551E-08
   34.56000     -3.1898701E-08
   34.62000     -3.4282483E-08
   34.68000     -3.6390109E-08
   34.74000     -3.8231253E-08
   34.80000     -3.9838159E-08
   34.86000     -4.1254079E-08
   34.92000     -4.2519673E-08
   34.98000     -4.3661611E-08
   35.04000     -4.4687237E-08
   35.10000     -4.5587143E-08
   35.16000     -4.6344987E-08
   35.22000     -4.6951278E-08
   35.28000     -4.7416179E-08
   35.34000     -4.7776378E-08
   35.40000     -4.8092950E-08
   35.46000     -4.8439993E-08
   35.52000     -4.8887294E-08
   35.58000     -4.9482612E-08
   35.64000     -5.0239617E-08
   35.70000     -5.1135878E-08
   35.76000     -5.2122115E-08
   35.82000     -5.3140081E-08
   35.88000     -5.4143612E-08
   35.94000     -5.5116200E-08
   36.00000     -5.6079635E-08
   36.06000     -5.7091132E-08
   36.12000     -5.8229894E-08
   36.18000     -5.9577296E-08
   36.24000     -6.1196673E-08
   36.30000     -6.3118321E-08
   36.36000     -6.5333644E-08
   36.42000     -6.7799377E-08
   36.48000     -7.0449943E-08
   36.54000     -7.3213606E-08
   36.60000     -7.6027725E-08
   36.66000     -7.8848892E-08
   36.72000     -8.1655728E-08
   36.78000     -8.4444636E-08
   36.84000     -8.7220599E-08
   36.90000     -8.9986742E-08
   36.96000     -9.2736009E-08
   37.02000     -9.5447454E-08
   37.08000     -9.8087853E-08
   37.14000     -1.0061753E-07
   37.20000     -1.0299761E-07
   37.26000     -1.0519592E-07
   37.32000     -1.0718885E-07
   37.38000     -1.0895838E-07
   37.44000     -1.1048529E-07
   37.50000     -1.1174109E-07
   37.56000     -1.1268274E-07
   37.62000     -1.1325298E-07
   37.68000     -1.1338828E-07
   37.74000     -1.1303332E-07
   37.80000     -1.1215845E-07
   37.86000     -1.1077508E-07
   37.92000     -1.0894367E-07
   37.98000     -1.0677077E-07
   38.04000     -1.0439489E-07
   38.10000     -1.0196414E-07
   38.16000     -9.9611405E-08
   38.22000     -9.7433798E-08
   38.28000     -9.5481710E-08
   38.34000     -9.3760043E-08
   38.40000     -9.2240519E-08
   38.46000     -9.0880697E-08
   38.52000     -8.9643649E-08
   38.58000     -8.8512465E-08
   38.64000     -8.7495408E-08
   38.70000     -8.6620844E-08
   38.76000     -8.5923929E-08
   38.82000     -8.5429448E-08
   38.88000     -8.5136271E-08
   38.94000     -8.5008004E-08
   39.00000     -8.4972918E-08
   39.06000     -8.4933234E-08
   39.12000     -8.4781519E-08
   39.18000     -8.4419845E-08
   39.24000     -8.3776754E-08
   39.30000     -8.2817962E-08
   39.36000     -8.1548414E-08
   39.42000     -8.0005940E-08
   39.48000     -7.8249272E-08
   39.54000     -7.6344435E-08
   39.60000     -7.4353693E-08
   39.66000     -7.2330089E-08
   39.72000     -7.0318237E-08
   39.78000     -6.8359846E-08
   39.84000     -6.6500441E-08
   39.90000     -6.4793632E-08
   39.96000     -6.3299836E-08
   40.02000     -6.2078925E-08
   40.08000     -6.1178262E-08
   40.14000     -6.0619946E-08
   40.20000     -6.0391564E-08
   40.26000     -6.0443988E-08
   40.32000     -6.0697801E-08
   40.38000     -6.1056795E-08
   40.44000     -6.1425006E-08
   40.50000     -6.1722162E-08
   40.56000     -6.1893097E-08
   40.62000     -6.1908736E-08
   40.68000     -6.1759089E-08
   40.74000     -6.1441398E-08
   40.80000     -6.0948395E-08
   40.86000     -6.0261200E-08
   40.92000     -5.9349560E-08
   40.98000     -5.8179559E-08
   41.04000     -5.6725760E-08
   41.10000     -5.4983332E-08
   41.16000     -5.2975476E-08
   41.22000     -5.0753290E-08
   41.28000     -4.8387612E-08
   41.34000     -4.5955392E-08
   41.40000     -4.3524697E-08
   41.46000     -4.1143135E-08
   41.52000     -3.8833154E-08
   41.58000     -3.6595498E-08
   41.64000     -3.4419340E-08
   41.70000     -3.2295571E-08
   41.76000     -3.0228485E-08
   41.82000     -2.8241679E-08
   41.88000     -2.6375762E-08
   41.94000     -2.4678249E-08
   42.00000     -2.3188646E-08
   42.06000     -2.1923761E-08
   42.12000     -2.0868377E-08
   42.18000     -1.9975054E-08
   42.24000     -1.9173871E-08
   42.30000     -1.8389702E-08
   42.36000     -1.7561927E-08
   42.42000     -1.6660502E-08
   42.48000     -1.5693336E-08
   42.54000     -1.4702540E-08
   42.60000     -1.3750553E-08
   42.66000     -1.2900336E-08
   42.72000     -1.2195474E-08
   42.78000     -1.1646113E-08
   42.84000     -1.1224844E-08
   42.90000     -1.0873769E-08
   42.96000     -1.0520833E-08
   43.02000     -1.0100920E-08
   43.08000     -9.5759320E-09
   43.14000     -8.9482910E-09
   43.20000     -8.2641298E-09
   43.26000     -7.6051476E-09
   43.32000     -7.0712134E-09
   43.38000     -6.7582859E-09
   43.44000     -6.7374319E-09
   43.50000     -7.0403456E-09
   43.56000     -7.6548483E-09
   43.62000     -8.5310621E-09
   43.68000     -9.5960511E-09
   43.74000     -1.0772646E-08
   43.80000     -1.1997362E-08
   43.86000     -1.3232923E-08
   43.92000     -1.4472670E-08
   43.98000     -1.5736386E-08
   44.04000     -1.7059321E-08
   44.10000     -1.8477825E-08
   44.16000     -2.0015769E-08
   44.22000     -2.1675525E-08
   44.28000     -2.3436039E-08
   44.34000     -2.5258517E-08
   44.40000     -2.7098119E-08
   44.46000     -2.8918357E-08
   44.52000     -3.0704189E-08
   44.58000     -3.2470371E-08
   44.64000     -3.4263184E-08
   44.70000     -3.6155853E-08
   44.76000     -3.8239950E-08
   44.82000     -4.0615923E-08
   44.88000     -4.3385970E-08
   44.94000     -4.6651095E-08
   45.00000     -5.0512700E-08
   45.06000     -5.5077461E-08
   45.12000     -6.0463663E-08
   45.18000     -6.6806969E-08
   45.24000     -7.4264761E-08
   45.30000     -8.3018719E-08
   45.36000     -9.3276839E-08
   45.42000     -1.0527604E-07
   45.48000     -1.1928670E-07
   45.54000     -1.3561967E-07
   45.60000     -1.5463574E-07
   45.66000     -1.7675637E-07
   45.72000     -2.0247469E-07
   45.78000     -2.3236549E-07
   45.84000     -2.6709387E-07
   45.90000     -3.0742325E-07
   45.96000     -3.5422366E-07
   46.02000     -4.0848261E-07
   46.08000     -4.7131925E-07
   46.14000     -5.4400277E-07
   46.20000     -6.2797506E-07
   46.26000     -7.2487558E-07
   46.32000     -8.3656744E-07
   46.38000     -9.6516249E-07
   46.44000     -1.1130433E-06
   46.50000     -1.2828823E-06
   46.56000     -1.4776583E-06
   46.62000     -1.7006710E-06
   46.68000     -1.9555575E-06
   46.74000     -2.2463137E-06
   46.80000     -2.5773179E-06
   46.86000     -2.9533671E-06
   46.92000     -3.3797157E-06
   46.98000     -3.8621188E-06
   47.04000     -4.4068747E-06
   47.10000     -5.0208614E-06
   47.16000     -5.7115631E-06
   47.22000     -6.4870869E-06
   47.28000     -7.3561696E-06
   47.34000     -8.3281811E-06
   47.40000     -9.4131228E-06
   47.46000     -1.0621634E-05
   47.52000     -1.1964998E-05
   47.58000     -1.3455154E-05
   47.64000     -1.5104711E-05
   47.70000     -1.6926942E-05
   47.76000     -1.8935787E-05
   47.82000     -2.1145826E-05
   47.88000     -2.3572238E-05
   47.94000     -2.6230748E-05
   48.00000     -2.9137553E-05
   48.06000     -3.2309254E-05
   48.12000     -3.5762761E-05
   48.18000     -3.9515191E-05
   48.24000     -4.3583772E-05
   48.30000     -4.7985752E-05
   48.36000     -5.2738262E-05
   48.42000     -5.7858229E-05
   48.48000     -6.3362233E-05
   48.54000     -6.9266353E-05
   48.60000     -7.5586053E-05
   48.66000     -8.2335944E-05
   48.72000     -8.9529633E-05
   48.78000     -9.7179538E-05
   48.84000     -1.0529665E-04
   48.90000     -1.1389037E-04
   48.96000     -1.2296830E-04
   49.02000     -1.3253611E-04
   49.08000     -1.4259730E-04
   49.14000     -1.5315313E-04
   49.20000     -1.6420241E-04
   49.26000     -1.7574141E-04
   49.32000     -1.8776378E-04
   49.38000     -2.0026033E-04
   49.44000     -2.1321907E-04
   49.50000     -2.2662511E-04
   49.56000     -2.4046047E-04
   49.62000     -2.5470436E-04
   49.68000     -2.6933281E-04
   49.74000     -2.8431905E-04
   49.80000     -2.9963336E-04
   49.86000     -3.1524335E-04
   49.92000     -3.3111399E-04
   49.98000     -3.4720785E-04
   50.04000     -3.6348548E-04
   50.10000     -3.7990534E-04
   50.16000     -3.9642444E-04
   50.22000     -4.1299831E-04
   50.28000     -4.2958165E-04
   50.34000     -4.4612843E-04
   50.40000     -4.6259238E-04
   50.46000     -4.7892737E-04
   50.52000     -4.9508782E-04
   50.58000     -5.1102909E-04
   50.64000     -5.2670797E-04
   50.70000     -5.4208282E-04
   50.76000     -5.5711425E-04
   50.82000     -5.7176547E-04
   50.88000     -5.8600272E-04
   50.94000     -5.9979554E-04
   51.00000     -6.1311689E-04
   51.06000     -6.2594377E-04
   51.12000     -6.3825725E-04
   51.18000     -6.5004261E-04
   51.24000     -6.6128955E-04
   51.30000     -6.7199260E-04
   51.36000     -6.8215077E-04
   51.42000     -6.9176755E-04
   51.48000     -7.0085115E-04
   51.54000     -7.0941402E-04
   51.60000     -7.1747298E-04
   51.66000     -7.2504883E-04
   51.72000     -7.3216611E-04
   51.78000     -7.3885260E-04
   51.84000     -7.4513914E-04
   51.90000     -7.5105921E-04
   51.96000     -7.5664843E-04
   52.02000     -7.6194387E-04
   52.08000     -7.6698360E-04
   52.14000     -7.7180652E-04
   52.20000     -7.7645143E-04
   52.26000     -7.8095670E-04
   52.32000     -7.8535953E-04
   52.38000     -7.8969577E-04
   52.44000     -7.9399900E-04
   52.50000     -7.9830049E-04
   52.56000     -8.0262829E-04
   52.62000     -8.0700713E-04
   52.68000     -8.1145810E-04
   52.74000     -8.1599824E-04
   52.80000     -8.2064013E-04
   52.86000     -8.2539202E-04
   52.92000     -8.3025737E-04
   52.98000     -8.3523506E-04
   53.04000     -8.4031932E-04
   53.10000     -8.4549980E-04
   53.16000     -8.5076189E-04
   53.22000     -8.5608690E-04
   53.28000     -8.6145202E-04
   53.34000     -8.6683111E-04
   53.40000     -8.7219477E-04
   53.46000     -8.7751099E-04
   53.52000     -8.8274537E-04
   53.58000     -8.8786182E-04
   53.64000     -8.9282298E-04
   53.70000     -8.9759071E-04
   53.76000     -9.0212695E-04
   53.82000     -9.0639386E-04
   53.88000     -9.1035472E-04
   53.94000     -9.1397419E-04
   54.00000     -9.1721915E-04
   54.06000     -9.2005904E-04
   54.12000     -9.2246634E-04
   54.18000     -9.2441664E-04
   54.24000     -9.2588941E-04
   54.30000     -9.2686806E-04
   54.36000     -9.2734006E-04
   54.42000     -9.2729740E-04
   54.48000     -9.2673651E-04
   54.54000     -9.2565845E-04
   54.60000     -9.2406862E-04
   54.66000     -9.2197704E-04
   54.72000     -9.1939780E-04
   54.78000     -9.1634924E-04
   54.84000     -9.1285328E-04
   54.90000     -9.0893521E-04
   54.96000     -9.0462342E-04
   55.02000     -8.9994865E-04
   55.08000     -8.9494378E-04
   55.14000     -8.8964333E-04
   55.20000     -8.8408293E-04
   55.26000     -8.7829883E-04
   55.32000     -8.7232766E-04
   55.38000     -8.6620549E-04
   55.44000     -8.5996784E-04
   55.50000     -8.5364858E-04
   55.56000     -8.4727997E-04