  -2.400000      0.0000000E+00
  -2.340000      0.0000000E+00
  -2.280000      0.0000000E+00
  -2.220000      0.0000000E+00
  -2.160000      0.0000000E+00
  -2.100000      0.0000000E+00
  -2.040000      0.0000000E+00
  -1.980000      0.0000000E+00
  -1.920000     -4.3165413E-27
  -1.860000     -3.2928016E-26
  -1.800000     -4.3658835E-26
  -1.740000      6.7405822E-25
  -1.680000      5.4392094E-24
  -1.620000      2.3308524E-23
  -1.560000      6.8682465E-23
  -1.500000      1.4431944E-22
  -1.440000      1.9060900E-22
  -1.380000      3.7241792E-24
  -1.320000     -8.1113874E-22
  -1.260000     -2.6902886E-21
  -1.200000     -5.5628510E-21
  -1.140000     -7.8660441E-21
  -1.080000     -5.5864455E-21
  -1.020000      7.4894435E-21
 -0.9600000      3.6720457E-20
 -0.9000000      7.9932582E-20
 -0.8400000      1.1892253E-19
 -0.7800000      1.1490848E-19
 -0.7200000      1.6557831E-20
 -0.6600000     -2.1289366E-19
 -0.6000000     -5.5296879E-19
 -0.5400000     -8.8757772E-19
 -0.4800000     -1.0044903E-18
 -0.4200000     -6.6306695E-19
 -0.3600000      2.7026162E-19
 -0.3000000      1.6733187E-18
 -0.2400000      3.1094325E-18
 -0.1800000      3.9590940E-18
 -0.1200000      3.7528833E-18
 -5.9999999E-02  2.5529395E-18
  0.0000000E+00  1.0796412E-18
  5.9999999E-02  2.8320679E-19
  0.1200000      3.3045909E-19
  0.1800000     -5.1397012E-19
  0.2400000     -6.1359728E-18
  0.3000000     -2.0914362E-17
  0.3600000     -4.5878166E-17
  0.4200000     -7.3969998E-17
  0.4800000     -8.7453293E-17
  0.5400000     -6.1215025E-17
  0.6000000      2.5847808E-17
  0.6600000      1.7339424E-16
  0.7200000      3.4380149E-16
  0.7800000      4.5952268E-16
  0.8400000      4.2384531E-16
  0.9000000      1.6629942E-16
  0.9600000     -3.0098710E-16
   1.020000     -8.4430047E-16
   1.080000     -1.2198666E-15
   1.140000     -1.1559778E-15
   1.200000     -4.9385605E-16
   1.260000      6.6541638E-16
   1.320000      1.8900841E-15
   1.380000      2.5008383E-15
   1.440000      1.8345184E-15
   1.500000     -3.7439566E-16
   1.560000     -3.6511499E-15
   1.620000     -6.6815522E-15
   1.680000     -7.6176959E-15
   1.740000     -4.8023609E-15
   1.800000      2.2884378E-15
   1.860000      1.2278751E-14
   1.920000      2.1759955E-14
   1.980000      2.6104188E-14
   2.040000      2.1179586E-14
   2.100000      5.4616811E-15
   2.160000     -1.8335434E-14
   2.220000     -4.3050460E-14
   2.280000     -5.8858998E-14
   2.340000     -5.6851503E-14
   2.400000     -3.3289266E-14
   2.460000      7.2440824E-15
   2.520000      5.1595037E-14
   2.580000      8.1662684E-14
   2.640000      8.1320618E-14
   2.700000      4.4360332E-14
   2.760000     -1.9939005E-14
   2.820000     -8.6843808E-14
   2.880000     -1.2331680E-13
   2.940000     -1.0092955E-13
   3.000000     -1.0196567E-14
   3.060000      1.2975523E-13
   3.120000      2.7167174E-13
   3.180000      3.5308453E-13
   3.240000      3.1894921E-13
   3.300000      1.4643142E-13
   3.360000     -1.3830555E-13
   3.420000     -4.6009344E-13
   3.480000     -7.1482897E-13
   3.540000     -8.0492714E-13
   3.600000     -6.7800648E-13
   3.660000     -3.5309998E-13
   3.720000      7.8680071E-14
   3.780000      4.8330811E-13
   3.840000      7.3490514E-13
   3.900000      7.6983466E-13
   3.960000      6.2036894E-13
   4.020000      4.0932790E-13
   4.080000      3.0104445E-13
   4.140000      4.2261889E-13
   4.200000      7.8545503E-13
   4.260000      1.2430856E-12
   4.320000      1.5128684E-12
   4.380000      1.2672258E-12
   4.440000      2.7156703E-13
   4.500000     -1.4783482E-12
   4.560000     -3.6763145E-12
   4.620000     -5.7278514E-12
   4.680000     -6.8881775E-12
   4.740000     -6.4878415E-12
   4.800000     -4.1807070E-12
   4.860000     -1.3097420E-13
   4.920000      4.9340605E-12
   4.980000      9.8417680E-12
   5.040000      1.3245620E-11
   5.100000      1.3982031E-11
   5.160000      1.1412641E-11
   5.220000      5.6519390E-12
   5.280000     -2.3875201E-12
   5.340000     -1.1146007E-11
   5.400000     -1.8720228E-11
   5.460000     -2.3236430E-11
   5.520000     -2.3200785E-11
   5.580000     -1.7758905E-11
   5.640000     -6.8419545E-12
   5.700000      8.7764440E-12
   5.760000      2.7462747E-11
   5.820000      4.6705563E-11
   5.880000      6.3101864E-11
   5.940000      7.2413887E-11
   6.000000      6.9813641E-11
   6.060000      5.0440749E-11
   6.120000      1.0349234E-11
   6.180000     -5.2187660E-11
   6.240000     -1.3518056E-10
   6.300000     -2.3152270E-10
   6.360000     -3.2803321E-10
   6.420000     -4.0526577E-10
   6.480000     -4.3828211E-10
   6.540000     -3.9840070E-10
   6.600000     -2.5572794E-10
   6.660000      1.7884725E-11
   6.720000      4.4588913E-10
   6.780000      1.0444988E-09
   6.840000      1.8208450E-09
   6.900000      2.7719513E-09
   6.960000      3.8844954E-09
   7.020000      5.1352158E-09
   7.080000      6.4918111E-09
   7.140000      7.9142017E-09
   7.200000      9.3561363E-09
   7.260000      1.0767164E-08
   7.320000      1.2095057E-08
   7.380000      1.3288660E-08
   7.440000      1.4301055E-08
   7.500000      1.5092775E-08
   7.560000      1.5634649E-08
   7.620000      1.5909853E-08
   7.680000      1.5914782E-08
   7.740000      1.5658554E-08
   7.800000      1.5161211E-08
   7.860000      1.4450954E-08
   7.920000      1.3560884E-08
   7.980000      1.2525876E-08
   8.040000      1.1380064E-08
   8.100000      1.0155240E-08
   8.160000      8.8802405E-09
   8.220000      7.5810904E-09
   8.280000      6.2815340E-09
   8.340000      5.0035665E-09
   8.400000      3.7676302E-09
   8.460000      2.5923705E-09
   8.520000      1.4940472E-09
   8.580000      4.8586091E-10
   8.640000     -4.2249085E-10
   8.700000     -1.2248048E-09
   8.760000     -1.9178674E-09
   8.820000     -2.5006330E-09
   8.880000     -2.9734213E-09
   8.940000     -3.3375043E-09
   9.000000     -3.5953240E-09
   9.060000     -3.7513419E-09
   9.120000     -3.8132435E-09
   9.180000     -3.7930121E-09
   9.240000     -3.7073482E-09
   9.300000     -3.5770502E-09
   9.360000     -3.4252916E-09
   9.420000     -3.2750864E-09
   9.480000     -3.1465399E-09
   9.540000     -3.0546019E-09
   9.600000     -3.0079315E-09
   9.660000     -3.0091680E-09
   9.720000     -3.0564895E-09
   9.780000     -3.1459511E-09
   9.840000     -3.2738869E-09
   9.900000     -3.4386929E-09
   9.960000     -3.6415613E-09
   10.02000     -3.8861483E-09
   10.08000     -4.1775223E-09
   10.14000     -4.5209632E-09
   10.20000     -4.9211191E-09
   10.26000     -5.3817817E-09
   10.32000     -5.9061014E-09
   10.38000     -6.4967760E-09
   10.44000     -7.1556001E-09
   10.50000     -7.8819999E-09
   10.56000     -8.6706153E-09
   10.62000     -9.5085753E-09
   10.68000     -1.0373482E-08
   10.74000     -1.1233208E-08
   10.80000     -1.2048190E-08
   10.86000     -1.2776181E-08
   10.92000     -1.3378560E-08
   10.98000     -1.3826607E-08
   11.04000     -1.4105949E-08
   11.10000     -1.4217788E-08
   11.16000     -1.4176352E-08
   11.22000     -1.4003205E-08
   11.28000     -1.3720011E-08
   11.34000     -1.3341886E-08
   11.40000     -1.2873336E-08
   11.46000     -1.2307999E-08
   11.52000     -1.1632186E-08
   11.58000     -1.0831082E-08
   11.64000     -9.8956159E-09
   11.70000     -8.8278336E-09
   11.76000     -7.6431901E-09
   11.82000     -6.3691878E-09
   11.88000     -5.0410383E-09
   11.94000     -3.6959436E-09
   12.00000     -2.3680093E-09
   12.06000     -1.0854182E-09
   12.12000      1.2941782E-10
   12.18000      1.2572244E-09
   12.24000      2.2782822E-09
   12.30000      3.1699090E-09
   12.36000      3.9067429E-09
   12.42000      4.4645652E-09
   12.48000      4.8270445E-09
   12.54000      4.9934594E-09
   12.60000      4.9847402E-09
   12.66000      4.8452842E-09
   12.72000      4.6390567E-09
   12.78000      4.4401371E-09
   12.84000      4.3196624E-09
   12.90000      4.3323993E-09
   12.96000      4.5065400E-09
   13.02000      4.8395679E-09
   13.08000      5.3013589E-09
   13.14000      5.8436287E-09
   13.20000      6.4129777E-09
   13.26000      6.9637855E-09
   13.32000      7.4673565E-09
   13.38000      7.9149336E-09
   13.44000      8.3141076E-09
   13.50000      8.6801855E-09
   13.56000      9.0254746E-09
   13.62000      9.3499430E-09
   13.68000      9.6361079E-09
   13.74000      9.8495496E-09
   13.80000      9.9446318E-09
   13.86000      9.8734931E-09
   13.92000      9.5954276E-09
   13.98000      9.0839176E-09
   14.04000      8.3294580E-09
   14.10000      7.3378641E-09
   14.16000      6.1252128E-09
   14.22000      4.7116790E-09
   14.28000      3.1167597E-09
   14.34000      1.3577511E-09
   14.40000     -5.4795235E-10
   14.46000     -2.5777211E-09
   14.52000     -4.6979167E-09
   14.58000     -6.8601671E-09
   14.64000     -9.0019059E-09
   14.70000     -1.1052044E-08
   14.76000     -1.2940921E-08
   14.82000     -1.4612030E-08
   14.88000     -1.6032136E-08
   14.94000     -1.7196559E-08
   15.00000     -1.8127603E-08
   15.06000     -1.8866086E-08
   15.12000     -1.9457987E-08
   15.18000     -1.9939755E-08
   15.24000     -2.0326313E-08
   15.30000     -2.0604977E-08
   15.36000     -2.0736788E-08
   15.42000     -2.0664471E-08
   15.48000     -2.0324405E-08
   15.54000     -1.9658945E-08
   15.60000     -1.8625721E-08
   15.66000     -1.7201991E-08
   15.72000     -1.5384026E-08
   15.78000     -1.3183438E-08
   15.84000     -1.0623204E-08
   15.90000     -7.7359879E-09
   15.96000     -4.5659472E-09
   16.02000     -1.1732793E-09
   16.08000      2.3609368E-09
   16.14000      5.9328711E-09
   16.20000      9.4197983E-09
   16.26000      1.2690764E-08
   16.32000      1.5622842E-08
   16.38000      1.8119692E-08
   16.44000      2.0127940E-08
   16.50000      2.1647129E-08
   16.56000      2.2730514E-08
   16.62000      2.3476339E-08
   16.68000      2.4011703E-08
   16.74000      2.4472893E-08
   16.80000      2.4986726E-08
   16.86000      2.5656639E-08
   16.92000      2.6555700E-08
   16.98000      2.7726450E-08
   17.04000      2.9185639E-08
   17.10000      3.0930796E-08
   17.16000      3.2945643E-08
   17.22000      3.5202230E-08
   17.28000      3.7659547E-08
   17.34000      4.0259792E-08
   17.40000      4.2924903E-08
   17.46000      4.5555996E-08
   17.52000      4.8037716E-08
   17.58000      5.0247916E-08
   17.64000      5.2071311E-08
   17.70000      5.3414258E-08
   17.76000      5.4217121E-08
   17.82000      5.4461122E-08
   17.88000      5.4167828E-08
   17.94000      5.3391410E-08
   18.00000      5.2205596E-08
   18.06000      5.0688623E-08
   18.12000      4.8909978E-08
   18.18000      4.6921841E-08
   18.24000      4.4756955E-08
   18.30000      4.2432642E-08
   18.36000      3.9959080E-08
   18.42000      3.7348926E-08
   18.48000      3.4625341E-08
   18.54000      3.1826168E-08
   18.60000      2.9003418E-08
   18.66000      2.6218725E-08
   18.72000      2.3536431E-08
   18.78000      2.1016463E-08
   18.84000      1.8708729E-08
   18.90000      1.6649924E-08
   18.96000      1.4862569E-08
   19.02000      1.3355352E-08
   19.08000      1.2123637E-08
   19.14000      1.1149454E-08
   19.20000      1.0401019E-08
   19.26000      9.8326502E-09
   19.32000      9.3862766E-09
   19.38000      8.9955492E-09
   19.44000      8.5926999E-09
   19.50000      8.1172749E-09
   19.56000      7.5248359E-09
   19.62000      6.7933987E-09
   19.68000      5.9256831E-09
   19.74000      4.9463149E-09
   19.80000      3.8945451E-09
   19.86000      2.8143790E-09
   19.92000      1.7448212E-09
   19.98000      7.1288592E-10
   20.04000     -2.6883482E-10
   20.10000     -1.1997112E-09
   20.16000     -2.0849549E-09
   20.22000     -2.9282197E-09
   20.28000     -3.7256571E-09
   20.34000     -4.4635717E-09
   20.40000     -5.1204769E-09
   20.46000     -5.6727365E-09
   20.52000     -6.1016507E-09
   20.58000     -6.3993268E-09
   20.64000     -6.5711521E-09
   20.70000     -6.6339814E-09
   20.76000     -6.6107781E-09
   20.82000     -6.5237722E-09
   20.88000     -6.3886816E-09
   20.94000     -6.2120824E-09
   21.00000     -5.9927148E-09
   21.06000     -5.7260281E-09
   21.12000     -5.4100977E-09
   21.18000     -5.0506586E-09
   21.24000     -4.6634714E-09
   21.30000     -4.2733230E-09
   21.36000     -3.9101549E-09
   21.42000     -3.6037591E-09
   21.48000     -3.3787657E-09
   21.54000     -3.2513767E-09
   21.60000     -3.2285692E-09
   21.66000     -3.3096790E-09
   21.72000     -3.4895904E-09
   21.78000     -3.7624273E-09
   21.84000     -4.1246437E-09
   21.90000     -4.5767665E-09
   21.96000     -5.1235114E-09
   22.02000     -5.7725207E-09
   22.08000     -6.5322991E-09
   22.14000     -7.4100619E-09
   22.20000     -8.4100105E-09
   22.26000     -9.5322514E-09
   22.32000     -1.0772193E-08
   22.38000     -1.2120125E-08
   22.44000     -1.3560739E-08
   22.50000     -1.5072716E-08
   22.56000     -1.6628830E-08
   22.62000     -1.8197161E-08
   22.68000     -1.9743785E-08
   22.74000     -2.1236641E-08
   22.80000     -2.2649706E-08
   22.86000     -2.3966090E-08
   22.92000     -2.5178899E-08
   22.98000     -2.6289376E-08
   23.04000     -2.7302947E-08
   23.10000     -2.8224640E-08
   23.16000     -2.9055679E-08
   23.22000     -2.9792542E-08
   23.28000     -3.0428748E-08
   23.34000     -3.0958354E-08
   23.40000     -3.1379489E-08
   23.46000     -3.1696217E-08
   23.52000     -3.1917910E-08
   23.58000     -3.2056441E-08
   23.64000     -3.2122500E-08
   23.70000     -3.2122720E-08
   23.76000     -3.2058793E-08
   23.82000     -3.1928806E-08
   23.88000     -3.1729947E-08
   23.94000     -3.1461095E-08
   24.00000     -3.1124078E-08
   24.06000     -3.0722898E-08
   24.12000     -3.0261564E-08
   24.18000     -2.9741642E-08
   24.24000     -2.9161139E-08
   24.30000     -2.8515569E-08
   24.36000     -2.7801255E-08
   24.42000     -2.7019727E-08
   24.48000     -2.6181445E-08
   24.54000     -2.5307131E-08
   24.60000     -2.4425713E-08
   24.66000     -2.3569113E-08
   24.72000     -2.2765352E-08
   24.78000     -2.2032244E-08
   24.84000     -2.1373866E-08
   24.90000     -2.0781306E-08
   24.96000     -2.0237698E-08
   25.02000     -1.9726134E-08
   25.08000     -1.9237984E-08
   25.14000     -1.8778895E-08
   25.20000     -1.8370365E-08
   25.26000     -1.8046199E-08
   25.32000     -1.7844702E-08
   25.38000     -1.7798918E-08
   25.44000     -1.7927892E-08
   25.50000     -1.8231615E-08
   25.56000     -1.8691269E-08
   25.62000     -1.9274667E-08
   25.68000     -1.9945082E-08
   25.74000     -2.0670573E-08
   25.80000     -2.1430706E-08
   25.86000     -2.2218453E-08
   25.92000     -2.3036803E-08
   25.98000     -2.3891573E-08
   26.04000     -2.4783319E-08
   26.10000     -2.5701718E-08
   26.16000     -2.6624758E-08
   26.22000     -2.7523305E-08
   26.28000     -2.8369310E-08
   26.34000     -2.9144523E-08
   26.40000     -2.9846216E-08
   26.46000     -3.0487652E-08
   26.52000     -3.1093055E-08
   26.58000     -3.1689193E-08
   26.64000     -3.2296690E-08
   26.70000     -3.2924543E-08
   26.76000     -3.3569531E-08
   26.82000     -3.4220438E-08
   26.88000     -3.4864939E-08
   26.94000     -3.5496232E-08
   27.00000     -3.6116816E-08
   27.06000     -3.6738193E-08
   27.12000     -3.7377148E-08
   27.18000     -3.8050505E-08
   27.24000     -3.8770729E-08
   27.30000     -3.9544005E-08
   27.36000     -4.0371219E-08
   27.42000     -4.1250672E-08
   27.48000     -4.2180670E-08
   27.54000     -4.3160160E-08
   27.60000     -4.4186585E-08
   27.66000     -4.5251554E-08
   27.72000     -4.6336364E-08
   27.78000     -4.7409632E-08
   27.84000     -4.8429069E-08
   27.90000     -4.9347623E-08
   27.96000     -5.0122647E-08
   28.02000     -5.0725188E-08
   28.08000     -5.1146170E-08
   28.14000     -5.1397254E-08
   28.20000     -5.1506028E-08
   28.26000     -5.1507264E-08
   28.32000     -5.1433577E-08
   28.38000     -5.1308746E-08
   28.44000     -5.1145836E-08
   28.50000     -5.0950153E-08
   28.56000     -5.0724854E-08
   28.62000     -5.0476096E-08
   28.68000     -5.0214904E-08
   28.74000     -4.9954469E-08
   28.80000     -4.9703907E-08
   28.86000     -4.9461178E-08
   28.92000     -4.9208573E-08
   28.98000     -4.8913332E-08
   29.04000     -4.8533931E-08
   29.10000     -4.8030447E-08
   29.16000     -4.7375668E-08
   29.22000     -4.6563269E-08
   29.28000     -4.5610442E-08
   29.34000     -4.4554291E-08
   29.40000     -4.3443674E-08
   29.46000     -4.2329514E-08
   29.52000     -4.1257042E-08
   29.58000     -4.0262329E-08
   29.64000     -3.9373429E-08
   29.70000     -3.8614584E-08
   29.76000     -3.8010505E-08
   29.82000     -3.7587700E-08
   29.88000     -3.7371187E-08
   29.94000     -3.7376878E-08
   30.00000     -3.7602184E-08
   30.06000     -3.8018459E-08
   30.12000     -3.8568910E-08
   30.18000     -3.9173795E-08
   30.24000     -3.9742247E-08
   30.30000     -4.0187462E-08
   30.36000     -4.0440533E-08
   30.42000     -4.0458222E-08
   30.48000     -4.0222062E-08
   30.54000     -3.9729240E-08
   30.60000     -3.8978826E-08
   30.66000     -3.7958952E-08
   30.72000     -3.6640568E-08
   30.78000     -3.4980939E-08
   30.84000     -3.2936700E-08
   30.90000     -3.0482152E-08
   30.96000     -2.7626310E-08
   31.02000     -2.4422064E-08
   31.08000     -2.0963336E-08
   31.14000     -1.7370226E-08
   31.20000     -1.3766476E-08
   31.26000     -1.0256295E-08
   31.32000     -6.9077761E-09
   31.38000     -3.7477776E-09
   31.44000     -7.6900591E-10
   31.50000      2.0541551E-09
   31.56000      4.7472519E-09
   31.62000      7.3213204E-09
   31.68000      9.7668824E-09
   31.74000      1.2057368E-08
   31.80000      1.4159443E-08
   31.86000      1.6045401E-08
   31.92000      1.7702570E-08
   31.98000      1.9136253E-08
   32.04000      2.0365517E-08
   32.10000      2.1413880E-08
   32.16000      2.2298705E-08
   32.22000      2.3023352E-08
   32.28000      2.3574851E-08
   32.34000      2.3927740E-08
   32.40000      2.4052502E-08
   32.46000      2.3925516E-08
   32.52000      2.3537099E-08
   32.58000      2.2895172E-08
   32.64000      2.2023654E-08
   32.70000      2.0956735E-08
   32.76000      1.9731491E-08
   32.82000      1.8381813E-08
   32.88000      1.6935941E-08
   32.94000      1.5418301E-08
   33.00000      1.3854600E-08
   33.06000      1.2277578E-08
   33.12000      1.0730625E-08
   33.18000      9.2670929E-09
   33.24000      7.9449727E-09
   33.30000      6.8185724E-09
   33.36000      5.9301302E-09
   33.42000      5.3045128E-09
   33.48000      4.9489191E-09
   33.54000      4.8575042E-09
   33.60000      5.0187889E-09
   33.66000      5.4226184E-09
   33.72000      6.0636918E-09
   33.78000      6.9402804E-09
   33.84000      8.0489109E-09
   33.90000      9.3776134E-09
   33.96000      1.0900992E-08
   34.02000      1.2579614E-08
   34.08000      1.4364353E-08
   34.14000      1.6204295E-08
   34.20000      1.8055271E-08
   34.26000      1.9885958E-08
   34.32000      2.1679451E-08
   34.38000      2.3430083E-08
   34.44000      2.5137116E-08
   34.50000      2.6798084E-08
   34.56000      2.8404569E-08
   34.62000      2.9942147E-08
   34.68000      3.1394521E-08
   34.74000      3.2750133E-08
   34.80000      3.4008554E-08
   34.86000      3.5183810E-08
   34.92000      3.6302893E-08
   34.98000      3.7399392E-08
   35.04000      3.8504009E-08
   35.10000      3.9634855E-08
   35.16000      4.0790823E-08
   35.22000      4.1950173E-08
   35.28000      4.3074831E-08
   35.34000      4.4118931E-08
   35.40000      4.5038647E-08
   35.46000      4.5800174E-08
   35.52000      4.6383491E-08
   35.58000      4.6781196E-08
   35.64000      4.6993687E-08
   35.70000      4.7022976E-08
   35.76000      4.6867815E-08
   35.82000      4.6521922E-08
   35.88000      4.5975682E-08
   35.94000      4.5220180E-08
   36.00000      4.4251752E-08
   36.06000      4.3075033E-08
   36.12000      4.1703437E-08
   36.18000      4.0156991E-08
   36.24000      3.8458460E-08
   36.30000      3.6629164E-08
   36.36000      3.4685694E-08
   36.42000      3.2638273E-08
   36.48000      3.0490636E-08
   36.54000      2.8241089E-08
   36.60000      2.5884100E-08
   36.66000      2.3411962E-08
   36.72000      2.0816417E-08
   36.78000      1.8090185E-08
   36.84000      1.5228347E-08
   36.90000      1.2229447E-08
   36.96000      9.0960537E-09
   37.02000      5.8346217E-09
   37.08000      2.4548228E-09
   37.14000     -1.0312027E-09
   37.20000     -4.6090674E-09
   37.26000     -8.2614555E-09
   37.32000     -1.1966680E-08
   37.38000     -1.5697220E-08
   37.44000     -1.9419330E-08
   37.50000     -2.3094625E-08
   37.56000     -2.6683772E-08
   37.62000     -3.0151504E-08
   37.68000     -3.3471288E-08
   37.74000     -3.6627942E-08
   37.80000     -3.9617024E-08
   37.86000     -4.2441222E-08
   37.92000     -4.5105001E-08
   37.98000     -4.7609742E-08
   38.04000     -4.9951243E-08
   38.10000     -5.2120686E-08
   38.16000     -5.4108519E-08
   38.22000     -5.5909744E-08
   38.28000     -5.7528460E-08
   38.34000     -5.8979875E-08
   38.40000     -6.0289096E-08
   38.46000     -6.1487121E-08
   38.52000     -6.2605530E-08
   38.58000     -6.3671457E-08
   38.64000     -6.4704224E-08
   38.70000     -6.5714381E-08
   38.76000     -6.6704885E-08
   38.82000     -6.7673938E-08
   38.88000     -6.8618618E-08
   38.94000     -6.9538409E-08
   39.00000     -7.0438091E-08
   39.06000     -7.1329325E-08
   39.12000     -7.2230478E-08
   39.18000     -7.3164429E-08
   39.24000     -7.4154350E-08
   39.30000     -7.5217947E-08
   39.36000     -7.6361282E-08
   39.42000     -7.7573581E-08
   39.48000     -7.8824783E-08
   39.54000     -8.0066705E-08
   39.60000     -8.1238134E-08
   39.66000     -8.2272962E-08
   39.72000     -8.3109441E-08
   39.78000     -8.3698332E-08
   39.84000     -8.4008015E-08
   39.90000     -8.4025608E-08
   39.96000     -8.3754401E-08
   40.02000     -8.3209059E-08
   40.08000     -8.2410608E-08
   40.14000     -8.1382751E-08
   40.20000     -8.0150649E-08
   40.26000     -7.8741522E-08
   40.32000     -7.7186037E-08
   40.38000     -7.5518798E-08
   40.44000     -7.3776881E-08
   40.50000     -7.1996084E-08
   40.56000     -7.0206085E-08
   40.62000     -6.8425898E-08
   40.68000     -6.6661499E-08
   40.74000     -6.4906530E-08
   40.80000     -6.3146139E-08
   40.86000     -6.1362684E-08
   40.92000     -5.9541556E-08
   40.98000     -5.7675216E-08
   41.04000     -5.5764406E-08
   41.10000     -5.3816414E-08
   41.16000     -5.1841383E-08
   41.22000     -4.9848232E-08
   41.28000     -4.7841663E-08
   41.34000     -4.5821185E-08
   41.40000     -4.3782141E-08
   41.46000     -4.1718099E-08
   41.52000     -3.9623476E-08
   41.58000     -3.7495568E-08
   41.64000     -3.5335464E-08
   41.70000     -3.3148002E-08
   41.76000     -3.0941045E-08
   41.82000     -2.8724589E-08
   41.88000     -2.6509809E-08
   41.94000     -2.4308131E-08
   42.00000     -2.2130214E-08
   42.06000     -1.9984993E-08
   42.12000     -1.7879037E-08
   42.18000     -1.5816694E-08
   42.24000     -1.3801214E-08
   42.30000     -1.1836685E-08
   42.36000     -9.9301198E-09
   42.42000     -8.0927034E-09
   42.48000     -6.3393633E-09
   42.54000     -4.6863802E-09
   42.60000     -3.1475784E-09
   42.66000     -1.7303587E-09
   42.72000     -4.3315720E-10
   42.78000      7.5440365E-10
   42.84000      1.8483020E-09
   42.90000      2.8646281E-09
   42.96000      3.8136068E-09
   43.02000      4.6953263E-09
   43.08000      5.4989875E-09
   43.14000      6.2063759E-09
   43.20000      6.7987811E-09
   43.26000      7.2652724E-09
   43.32000      7.6095974E-09
   43.38000      7.8532736E-09
   43.44000      8.0335729E-09
   43.50000      8.1967997E-09
   43.56000      8.3887777E-09
   43.62000      8.6454381E-09
   43.68000      8.9863752E-09
   43.74000      9.4132764E-09
   43.80000      9.9136379E-09
   43.86000      1.0468476E-08
   43.92000      1.1061604E-08
   43.98000      1.1687576E-08
   44.04000      1.2356018E-08
   44.10000      1.3091246E-08
   44.16000      1.3927802E-08
   44.22000      1.4903984E-08
   44.28000      1.6056296E-08
   44.34000      1.7417635E-08
   44.40000      1.9020881E-08
   44.46000      2.0907709E-08
   44.52000      2.3140581E-08
   44.58000      2.5814474E-08
   44.64000      2.9064763E-08
   44.70000      3.3068876E-08
   44.76000      3.8041637E-08
   44.82000      4.4226759E-08
   44.88000      5.1888847E-08
   44.94000      6.1310800E-08
   45.00000      7.2800127E-08
   45.06000      8.6704993E-08
   45.12000      1.0343753E-07
   45.18000      1.2349993E-07
   45.24000      1.4750749E-07
   45.30000      1.7620556E-07
   45.36000      2.1047916E-07
   45.42000      2.5135861E-07
   45.48000      3.0002684E-07
   45.54000      3.5783370E-07
   45.60000      4.2632263E-07
   45.66000      5.0726908E-07
   45.72000      6.0272856E-07
   45.78000      7.1508850E-07
   45.84000      8.4711849E-07
   45.90000      1.0020151E-06
   45.96000      1.1834424E-06
   46.02000      1.3955688E-06
   46.08000      1.6431115E-06
   46.14000      1.9313873E-06
   46.20000      2.2663819E-06
   46.26000      2.6548305E-06
   46.32000      3.1043139E-06
   46.38000      3.6233610E-06
   46.44000      4.2215524E-06
   46.50000      4.9096211E-06
   46.56000      5.6995509E-06
   46.62000      6.6046714E-06
   46.68000      7.6397528E-06
   46.74000      8.8211082E-06
   46.80000      1.0166704E-05
   46.86000      1.1696278E-05
   46.92000      1.3431467E-05
   46.98000      1.5395937E-05
   47.04000      1.7615519E-05
   47.10000      2.0118314E-05
   47.16000      2.2934799E-05
   47.22000      2.6097927E-05
   47.28000      2.9643188E-05
   47.34000      3.3608692E-05
   47.40000      3.8035188E-05
   47.46000      4.2966152E-05
   47.52000      4.8447790E-05
   47.58000      5.4529068E-05
   47.64000      6.1261708E-05
   47.70000      6.8700137E-05
   47.76000      7.6901408E-05
   47.82000      8.5925058E-05
   47.88000      9.5832940E-05
   47.94000      1.0668903E-04
   48.00000      1.1855914E-04
   48.06000      1.3151066E-04
   48.12000      1.4561224E-04
   48.18000      1.6093340E-04
   48.24000      1.7754425E-04
   48.30000      1.9551491E-04
   48.36000      2.1491500E-04
   48.42000      2.3581312E-04
   48.48000      2.5827624E-04
   48.54000      2.8236897E-04
   48.60000      3.0815302E-04
   48.66000      3.3568632E-04
   48.72000      3.6502234E-04
   48.78000      3.9620954E-04
   48.84000      4.2929041E-04
   48.90000      4.6430086E-04
   48.96000      5.0126942E-04
   49.02000      5.4021645E-04
   49.08000      5.8115367E-04
   49.14000      6.2408292E-04
   49.20000      6.6899596E-04
   49.26000      7.1587373E-04
   49.32000      7.6468586E-04
   49.38000      8.1539043E-04
   49.44000      8.6793333E-04
   49.50000      9.2224823E-04
   49.56000      9.7825634E-04
   49.62000      1.0358667E-03
   49.68000      1.0949760E-03
   49.74000      1.1554688E-03
   49.80000      1.2172180E-03
   49.86000      1.2800858E-03
   49.92000      1.3439230E-03
   49.98000      1.4085714E-03
   50.04000      1.4738637E-03
   50.10000      1.5396252E-03
   50.16000      1.6056750E-03
   50.22000      1.6718265E-03
   50.28000      1.7378904E-03
   50.34000      1.8036746E-03
   50.40000      1.8689866E-03
   50.46000      1.9336352E-03
   50.52000      1.9974313E-03
   50.58000      2.0601912E-03
   50.64000      2.1217375E-03
   50.70000      2.1819004E-03
   50.76000      2.2405197E-03
   50.82000      2.2974473E-03
   50.88000      2.3525476E-03
   50.94000      2.4056991E-03
   51.00000      2.4567954E-03
   51.06000      2.5057478E-03
   51.12000      2.5524846E-03
   51.18000      2.5969525E-03
   51.24000      2.6391179E-03
   51.30000      2.6789652E-03
   51.36000      2.7164996E-03
   51.42000      2.7517444E-03
   51.48000      2.7847423E-03
   51.54000      2.8155546E-03
   51.60000      2.8442608E-03
   51.66000      2.8709557E-03
   51.72000      2.8957506E-03
   51.78000      2.9187705E-03
   51.84000      2.9401525E-03
   51.90000      2.9600447E-03
   51.96000      2.9786034E-03
   52.02000      2.9959909E-03
   52.08000      3.0123747E-03
   52.14000      3.0279250E-03
   52.20000      3.0428118E-03
   52.26000      3.0572023E-03
   52.32000      3.0712602E-03
   52.38000      3.0851427E-03
   52.44000      3.0989992E-03
   52.50000      3.1129683E-03
   52.56000      3.1271770E-03
   52.62000      3.1417380E-03
   52.68000      3.1567500E-03
   52.74000      3.1722945E-03
   52.80000      3.1884373E-03
   52.86000      3.2052253E-03
   52.92000      3.2226890E-03
   52.98000      3.2408400E-03
   53.04000      3.2596721E-03
   53.10000      3.2791621E-03
   53.16000      3.2992684E-03
   53.22000      3.3199338E-03
   53.28000      3.3410862E-03
   53.34000      3.3626396E-03
   53.40000      3.3844949E-03
   53.46000      3.4065440E-03
   53.52000      3.4286687E-03
   53.58000      3.4507455E-03
   53.64000      3.4726446E-03
   53.70000      3.4942341E-03
   53.76000      3.5153807E-03
   53.82000      3.5359522E-03
   53.88000      3.5558208E-03
   53.94000      3.5748624E-03
   54.00000      3.5929612E-03
   54.06000      3.6100091E-03
   54.12000      3.6259084E-03
   54.18000      3.6405728E-03
   54.24000      3.6539286E-03
   54.30000      3.6659150E-03
   54.36000      3.6764860E-03
   54.42000      3.6856101E-03
   54.48000      3.6932698E-03
   54.54000      3.6994629E-03
   54.60000      3.7042010E-03
   54.66000      3.7075102E-03
   54.72000      3.7094296E-03
   54.78000      3.7100103E-03
   54.84000      3.7093142E-03
   54.90000      3.7074140E-03
   54.96000      3.7043896E-03
   55.02000      3.7003276E-03
   55.08000      3.6953203E-03
   55.14000      3.6894633E-03
   55.20000      3.6828530E-03
   55.26000      3.6755865E-03
   55.32000      3.6677583E-03
   55.38000      3.6594595E-03
   55.44000      3.6507761E-03
   55.50000      3.6417872E-03
   55.56000      3.6325639E-03