  -2.400000      0.0000000E+00
  -2.340000      0.0000000E+00
  -2.280000      0.0000000E+00
  -2.220000      0.0000000E+00
  -2.160000      0.0000000E+00
  -2.100000      0.0000000E+00
  -2.040000      0.0000000E+00
  -1.980000      0.0000000E+00
  -1.920000     -3.8455190E-27
  -1.860000     -4.0132821E-26
  -1.800000     -1.8733530E-25
  -1.740000     -4.1850708E-25
  -1.680000      2.5272406E-25
  -1.620000      5.8066892E-24
  -1.560000      2.5146120E-23
  -1.500000      6.8021816E-23
  -1.440000      1.2400791E-22
  -1.380000      1.1747176E-22
  -1.320000     -1.4169641E-22
  -1.260000     -9.3831604E-22
  -1.200000     -2.4406661E-21
  -1.140000     -4.2094583E-21
  -1.080000     -4.5499490E-21
  -1.020000     -2.2802599E-22
 -0.9600000      1.2544328E-20
 -0.9000000      3.5024630E-20
 -0.8400000      6.0965247E-20
 -0.7800000      7.2057183E-20
 -0.7200000      3.8437151E-20
 -0.6600000     -7.0410525E-20
 -0.6000000     -2.6221163E-19
 -0.5400000     -4.9175215E-19
 -0.4800000     -6.4037940E-19
 -0.4200000     -5.2852504E-19
 -0.3600000      1.9831502E-20
 -0.3000000      1.0628553E-18
 -0.2400000      2.4130321E-18
 -0.1800000      3.5649851E-18
 -0.1200000      3.7573472E-18
 -5.9999999E-02  2.2139913E-18
  0.0000000E+00 -1.4668676E-18
  5.9999999E-02 -6.9026940E-18
  0.1200000     -1.2690340E-17
  0.1800000     -1.6529970E-17
  0.2400000     -1.5791763E-17
  0.3000000     -8.4354448E-18
  0.3600000      5.9774205E-18
  0.4200000      2.5524754E-17
  0.4800000      4.5722342E-17
  0.5400000      6.0033811E-17
  0.6000000      6.1073458E-17
  0.6600000      4.2371258E-17
  0.7200000      5.3696455E-19
  0.7800000     -6.2374414E-17
  0.8400000     -1.3666955E-16
  0.9000000     -2.0376184E-16
  0.9600000     -2.3710641E-16
   1.020000     -2.0679055E-16
   1.080000     -8.8696903E-17
   1.140000      1.2248610E-16
   1.200000      3.9970842E-16
   1.260000      6.7540290E-16
   1.320000      8.4593509E-16
   1.380000      7.9418556E-16
   1.440000      4.3033387E-16
   1.500000     -2.5764908E-16
   1.560000     -1.1613269E-15
   1.620000     -2.0397203E-15
   1.680000     -2.5575791E-15
   1.740000     -2.3798655E-15
   1.800000     -1.3052337E-15
   1.860000      6.0380320E-16
   1.920000      2.9519215E-15
   1.980000      5.0553522E-15
   2.040000      6.1187127E-15
   2.100000      5.5093407E-15
   2.160000      3.0384997E-15
   2.220000     -8.7059545E-16
   2.280000     -5.2276099E-15
   2.340000     -8.7575821E-15
   2.400000     -1.0339941E-14
   2.460000     -9.4329782E-15
   2.520000     -6.2901484E-15
   2.580000     -1.8467429E-15
   2.640000      2.6962321E-15
   2.700000      6.4049976E-15
   2.760000      8.9919256E-15
   2.820000      1.0819399E-14
   2.880000      1.2487354E-14
   2.940000      1.4194722E-14
   3.000000      1.5227833E-14
   3.060000      1.3923650E-14
   3.120000      8.2619932E-15
   3.180000     -3.0628980E-15
   3.240000     -1.9512741E-14
   3.300000     -3.8045010E-14
   3.360000     -5.3335008E-14
   3.420000     -5.9003326E-14
   3.480000     -4.9620644E-14
   3.540000     -2.2965848E-14
   3.600000      1.8157922E-14
   3.660000      6.5267087E-14
   3.720000      1.0527654E-13
   3.780000      1.2354217E-13
   3.840000      1.0850943E-13
   3.900000      5.6845540E-14
   3.960000     -2.2771752E-14
   4.020000     -1.0927239E-13
   4.080000     -1.7364937E-13
   4.140000     -1.8806267E-13
   4.200000     -1.3720271E-13
   4.260000     -2.7660577E-14
   4.320000      1.0938277E-13
   4.380000      2.2514335E-13
   4.440000      2.6928893E-13
   4.500000      2.1021333E-13
   4.560000      5.1718883E-14
   4.620000     -1.6169821E-13
   4.680000     -3.5523033E-13
   4.740000     -4.4806604E-13
   4.800000     -3.8377236E-13
   4.860000     -1.5542302E-13
   4.920000      1.8490087E-13
   4.980000      5.3727145E-13
   5.040000      7.8305748E-13
   5.100000      8.2244693E-13
   5.160000      6.0751935E-13
   5.220000      1.5984918E-13
   5.280000     -4.3239818E-13
   5.340000     -1.0354554E-12
   5.400000     -1.5009254E-12
   5.460000     -1.6970466E-12
   5.520000     -1.5332776E-12
   5.580000     -9.7628427E-13
   5.640000     -5.9626742E-14
   5.700000      1.1098878E-12
   5.760000      2.3497380E-12
   5.820000      3.4092191E-12
   5.880000      3.9967023E-12
   5.940000      3.8340268E-12
   6.000000      2.7357762E-12
   6.060000      6.9676388E-13
   6.120000     -2.0418456E-12
   6.180000     -4.9812259E-12
   6.240000     -7.4317254E-12
   6.300000     -8.6577854E-12
   6.360000     -8.0714107E-12
   6.420000     -5.4207615E-12
   6.480000     -9.1315497E-13
   6.540000      4.7735639E-12
   6.600000      1.0604259E-11
   6.660000      1.5398084E-11
   6.720000      1.8081626E-11
   6.780000      1.7917509E-11
   6.840000      1.4657392E-11
   6.900000      8.6001649E-12
   6.960000      5.7027527E-13
   7.020000     -8.1479745E-12
   7.080000     -1.5885397E-11
   7.140000     -2.0657365E-11
   7.200000     -2.0241373E-11
   7.260000     -1.2296469E-11
   7.320000      5.4416458E-12
   7.380000      3.4879419E-11
   7.440000      7.7224033E-11
   7.500000      1.3264390E-10
   7.560000      2.0001331E-10
   7.620000      2.7681873E-10
   7.680000      3.5927422E-10
   7.740000      4.4265119E-10
   7.800000      5.2178206E-10
   7.860000      5.9166405E-10
   7.920000      6.4807210E-10
   7.980000      6.8809142E-10
   8.040000      7.1049189E-10
   8.100000      7.1589085E-10
   8.160000      7.0667810E-10
   8.220000      6.8670680E-10
   8.280000      6.6078854E-10
   8.340000      6.3406042E-10
   8.400000      6.1131816E-10
   8.460000      5.9642080E-10
   8.520000      5.9186650E-10
   8.580000      5.9861371E-10
   8.640000      6.1617450E-10
   8.700000      6.4295502E-10
   8.760000      6.7676348E-10
   8.820000      7.1537076E-10
   8.880000      7.5700124E-10
   8.940000      8.0065304E-10
   9.000000      8.4619867E-10
   9.060000      8.9427632E-10
   9.120000      9.4603969E-10
   9.180000      1.0028611E-09
   9.240000      1.0660787E-09
   9.300000      1.1368438E-09
   9.360000      1.2160772E-09
   9.420000      1.3044977E-09
   9.480000      1.4026738E-09
   9.540000      1.5110543E-09
   9.600000      1.6299682E-09
   9.660000      1.7596103E-09
   9.720000      1.9000481E-09
   9.780000      2.0512743E-09
   9.840000      2.2133055E-09
   9.900000      2.3862954E-09
   9.960000      2.5706153E-09
   10.02000      2.7668514E-09
   10.08000      2.9756988E-09
   10.14000      3.1977487E-09
   10.20000      3.4332042E-09
   10.26000      3.6815753E-09
   10.32000      3.9414161E-09
   10.38000      4.2101718E-09
   10.44000      4.4841961E-09
   10.50000      4.7589910E-09
   10.56000      5.0296602E-09
   10.62000      5.2915414E-09
   10.68000      5.5408766E-09
   10.74000      5.7753793E-09
   10.80000      5.9945160E-09
   10.86000      6.1994165E-09
   10.92000      6.3924026E-09
   10.98000      6.5762715E-09
   11.04000      6.7535155E-09
   11.10000      6.9256911E-09
   11.16000      7.0930715E-09
   11.22000      7.2546031E-09
   11.28000      7.4081083E-09
   11.34000      7.5506055E-09
   11.40000      7.6786630E-09
   11.46000      7.7887776E-09
   11.52000      7.8778113E-09
   11.58000      7.9435365E-09
   11.64000      7.9852844E-09
   11.70000      8.0045650E-09
   11.76000      8.0054416E-09
   11.82000      7.9944424E-09
   11.88000      7.9798390E-09
   11.94000      7.9703488E-09
   12.00000      7.9734912E-09
   12.06000      7.9939850E-09
   12.12000      8.0326501E-09
   12.18000      8.0861327E-09
   12.24000      8.1476390E-09
   12.30000      8.2085547E-09
   12.36000      8.2606224E-09
   12.42000      8.2981533E-09
   12.48000      8.3197378E-09
   12.54000      8.3289695E-09
   12.60000      8.3339167E-09
   12.66000      8.3454008E-09
   12.72000      8.3744229E-09
   12.78000      8.4293870E-09
   12.84000      8.5138172E-09
   12.90000      8.6252241E-09
   12.96000      8.7553964E-09
   13.02000      8.8920125E-09
   13.08000      9.0210337E-09
   13.14000      9.1290939E-09
   13.20000      9.2051495E-09
   13.26000      9.2409298E-09
   13.32000      9.2301935E-09
   13.38000      9.1672616E-09
   13.44000      9.0455341E-09
   13.50000      8.8566958E-09
   13.56000      8.5910354E-09
   13.62000      8.2388132E-09
   13.68000      7.7922540E-09
   13.74000      7.2474124E-09
   13.80000      6.6052248E-09
   13.86000      5.8713110E-09
   13.92000      5.0544773E-09
   13.98000      4.1643102E-09
   14.04000      3.2085083E-09
   14.10000      2.1906683E-09
   14.16000      1.1090988E-09
   14.22000     -4.3085462E-11
   14.28000     -1.2766802E-09
   14.34000     -2.6042846E-09
   14.40000     -4.0378718E-09
   14.46000     -5.5864815E-09
   14.52000     -7.2543074E-09
   14.58000     -9.0392147E-09
   14.64000     -1.0931555E-08
   14.70000     -1.2913111E-08
   14.76000     -1.4956083E-08
   14.82000     -1.7022254E-08
   14.88000     -1.9062634E-08
   14.94000     -2.1018087E-08
   15.00000     -2.2821299E-08
   15.06000     -2.4400403E-08
   15.12000     -2.5684184E-08
   15.18000     -2.6608483E-08
   15.24000     -2.7123127E-08
   15.30000     -2.7198437E-08
   15.36000     -2.6830284E-08
   15.42000     -2.6042814E-08
   15.48000     -2.4888136E-08
   15.54000     -2.3442759E-08
   15.60000     -2.1801053E-08
   15.66000     -2.0066540E-08
   15.72000     -1.8342195E-08
   15.78000     -1.6721085E-08
   15.84000     -1.5278582E-08
   15.90000     -1.4067060E-08
   15.96000     -1.3113480E-08
   16.02000     -1.2419793E-08
   16.08000     -1.1965759E-08
   16.14000     -1.1713455E-08
   16.20000     -1.1612748E-08
   16.26000     -1.1606985E-08
   16.32000     -1.1638271E-08
   16.38000     -1.1651888E-08
   16.44000     -1.1599529E-08
   16.50000     -1.1441253E-08
   16.56000     -1.1146190E-08
   16.62000     -1.0692158E-08
   16.68000     -1.0064451E-08
   16.74000     -9.2540624E-09
   16.80000     -8.2556957E-09
   16.86000     -7.0659443E-09
   16.92000     -5.6820926E-09
   16.98000     -4.1019916E-09
   17.04000     -2.3253273E-09
   17.10000     -3.5633382E-10
   17.16000      1.7924379E-09
   17.22000      4.0961359E-09
   17.28000      6.5145529E-09
   17.34000      8.9911882E-09
   17.40000      1.1455281E-08
   17.46000      1.3827034E-08
   17.52000      1.6025488E-08
   17.58000      1.7977790E-08
   17.64000      1.9628130E-08
   17.70000      2.0944643E-08
   17.76000      2.1922823E-08
   17.82000      2.2584773E-08
   17.88000      2.2974422E-08
   17.94000      2.3149664E-08
   18.00000      2.3173042E-08
   18.06000      2.3102791E-08
   18.12000      2.2985919E-08
   18.18000      2.2854392E-08
   18.24000      2.2724642E-08
   18.30000      2.2599778E-08
   18.36000      2.2473262E-08
   18.42000      2.2332669E-08
   18.48000      2.2162480E-08
   18.54000      2.1945427E-08
   18.60000      2.1662757E-08
   18.66000      2.1294118E-08
   18.72000      2.0818002E-08
   18.78000      2.0213246E-08
   18.84000      1.9461586E-08
   18.90000      1.8550647E-08
   18.96000      1.7476438E-08
   19.02000      1.6244478E-08
   19.08000      1.4869057E-08
   19.14000      1.3370790E-08
   19.20000      1.1773097E-08
   19.26000      1.0098685E-08
   19.32000      8.3670448E-09
   19.38000      6.5937260E-09
   19.44000      4.7915663E-09
   19.50000      2.9734601E-09
   19.56000      1.1557213E-09
   19.62000     -6.3915429E-10
   19.68000     -2.3814519E-09
   19.74000     -4.0356185E-09
   19.80000     -5.5640839E-09
   19.86000     -6.9327966E-09
   19.92000     -8.1171825E-09
   19.98000     -9.1069836E-09
   20.04000     -9.9086304E-09
   20.10000     -1.0544411E-08
   20.16000     -1.1048508E-08
   20.22000     -1.1460805E-08
   20.28000     -1.1819937E-08
   20.34000     -1.2157207E-08
   20.40000     -1.2492743E-08
   20.46000     -1.2834626E-08
   20.52000     -1.3180891E-08
   20.58000     -1.3523596E-08
   20.64000     -1.3853636E-08
   20.70000     -1.4164889E-08
   20.76000     -1.4456652E-08
   20.82000     -1.4733889E-08
   20.88000     -1.5005595E-08
   20.94000     -1.5282128E-08
   21.00000     -1.5572587E-08
   21.06000     -1.5883193E-08
   21.12000     -1.6217070E-08
   21.18000     -1.6575218E-08
   21.24000     -1.6958071E-08
   21.30000     -1.7366784E-08
   21.36000     -1.7803689E-08
   21.42000     -1.8271768E-08
   21.48000     -1.8773553E-08
   21.54000     -1.9310143E-08
   21.60000     -1.9880982E-08
   21.66000     -2.0484801E-08
   21.72000     -2.1121524E-08
   21.78000     -2.1794520E-08
   21.84000     -2.2512335E-08
   21.90000     -2.3289081E-08
   21.96000     -2.4143024E-08
   22.02000     -2.5093543E-08
   22.08000     -2.6157061E-08
   22.14000     -2.7343059E-08
   22.20000     -2.8651247E-08
   22.26000     -3.0070719E-08
   22.32000     -3.1581440E-08
   22.38000     -3.3157587E-08
   22.44000     -3.4771990E-08
   22.50000     -3.6400348E-08
   22.56000     -3.8024229E-08
   22.62000     -3.9632127E-08
   22.68000     -4.1218541E-08
   22.74000     -4.2781590E-08
   22.80000     -4.4320000E-08
   22.86000     -4.5830511E-08
   22.92000     -4.7306202E-08
   22.98000     -4.8736108E-08
   23.04000     -5.0105793E-08
   23.10000     -5.1398331E-08
   23.16000     -5.2595151E-08
   23.22000     -5.3676313E-08
   23.28000     -5.4620209E-08
   23.34000     -5.5403021E-08
   23.40000     -5.5998598E-08
   23.46000     -5.6379328E-08
   23.52000     -5.6518374E-08
   23.58000     -5.6393162E-08
   23.64000     -5.5989535E-08
   23.70000     -5.5305517E-08
   23.76000     -5.4353627E-08
   23.82000     -5.3160974E-08
   23.88000     -5.1766779E-08
   23.94000     -5.0217768E-08
   24.00000     -4.8562377E-08
   24.06000     -4.6845049E-08
   24.12000     -4.5101689E-08
   24.18000     -4.3357208E-08
   24.24000     -4.1625182E-08
   24.30000     -3.9909366E-08
   24.36000     -3.8206231E-08
   24.42000     -3.6507767E-08
   24.48000     -3.4803733E-08
   24.54000     -3.3083225E-08
   24.60000     -3.1335539E-08
   24.66000     -2.9550860E-08
   24.72000     -2.7721253E-08
   24.78000     -2.5842349E-08
   24.84000     -2.3915645E-08
   24.90000     -2.1950859E-08
   24.96000     -1.9967397E-08
   25.02000     -1.7993903E-08
   25.08000     -1.6065227E-08
   25.14000     -1.4216909E-08
   25.20000     -1.2478170E-08
   25.26000     -1.0865222E-08
   25.32000     -9.3769374E-09
   25.38000     -7.9945863E-09
   25.44000     -6.6863297E-09
   25.50000     -5.4157763E-09
   25.56000     -4.1526422E-09
   25.62000     -2.8827163E-09
   25.68000     -1.6143241E-09
   25.74000     -3.7927650E-10
   25.80000      7.7225804E-10
   25.86000      1.7818514E-09
   25.92000      2.5953297E-09
   25.98000      3.1743721E-09
   26.04000      3.5039946E-09
   26.10000      3.5937966E-09
   26.16000      3.4725791E-09
   26.22000      3.1778973E-09
   26.28000      2.7436899E-09
   26.34000      2.1898177E-09
   26.40000      1.5168882E-09
   26.46000      7.0818029E-10
   26.52000     -2.6172695E-10
   26.58000     -1.4142263E-09
   26.64000     -2.7539124E-09
   26.70000     -4.2600368E-09
   26.76000     -5.8852838E-09
   26.82000     -7.5627495E-09
   26.88000     -9.2194545E-09
   26.94000     -1.0792617E-08
   27.00000     -1.2244005E-08
   27.06000     -1.3568183E-08
   27.12000     -1.4792310E-08
   27.18000     -1.5967645E-08
   27.24000     -1.7155378E-08
   27.30000     -1.8410924E-08
   27.36000     -1.9771131E-08
   27.42000     -2.1247654E-08
   27.48000     -2.2827768E-08
   27.54000     -2.4481452E-08
   27.60000     -2.6171785E-08
   27.66000     -2.7864903E-08
   27.72000     -2.9536233E-08
   27.78000     -3.1171339E-08
   27.84000     -3.2761747E-08
   27.90000     -3.4297994E-08
   27.96000     -3.5763158E-08
   28.02000     -3.7129833E-08
   28.08000     -3.8362323E-08
   28.14000     -3.9423707E-08
   28.20000     -4.0285556E-08
   28.26000     -4.0936907E-08
   28.32000     -4.1389036E-08
   28.38000     -4.1673914E-08
   28.44000     -4.1836248E-08
   28.50000     -4.1921297E-08
   28.56000     -4.1962142E-08
   28.62000     -4.1970608E-08
   28.68000     -4.1934936E-08
   28.74000     -4.1825228E-08
   28.80000     -4.1605258E-08
   28.86000     -4.1247066E-08
   28.92000     -4.0743839E-08
   28.98000     -4.0116998E-08
   29.04000     -3.9415102E-08
   29.10000     -3.8704723E-08
   29.16000     -3.8055838E-08
   29.22000     -3.7526057E-08
   29.28000     -3.7148133E-08
   29.34000     -3.6924551E-08
   29.40000     -3.6830528E-08
   29.46000     -3.6824606E-08
   29.52000     -3.6863597E-08
   29.58000     -3.6917562E-08
   29.64000     -3.6980563E-08
   29.70000     -3.7074059E-08
   29.76000     -3.7242138E-08
   29.82000     -3.7539849E-08
   29.88000     -3.8017841E-08
   29.94000     -3.8707483E-08
   30.00000     -3.9610203E-08
   30.06000     -4.0693873E-08
   30.12000     -4.1896932E-08
   30.18000     -4.3139174E-08
   30.24000     -4.4336566E-08
   30.30000     -4.5416492E-08
   30.36000     -4.6330037E-08
   30.42000     -4.7058556E-08
   30.48000     -4.7613440E-08
   30.54000     -4.8029310E-08
   30.60000     -4.8352764E-08
   30.66000     -4.8629474E-08
   30.72000     -4.8893096E-08
   30.78000     -4.9158636E-08
   30.84000     -4.9421956E-08
   30.90000     -4.9665083E-08
   30.96000     -4.9865587E-08
   31.02000     -5.0006879E-08
   31.08000     -5.0086051E-08
   31.14000     -5.0116757E-08
   31.20000     -5.0126054E-08
   31.26000     -5.0146198E-08
   31.32000     -5.0204051E-08
   31.38000     -5.0311481E-08
   31.44000     -5.0460017E-08
   31.50000     -5.0621406E-08
   31.56000     -5.0753968E-08
   31.62000     -5.0812606E-08
   31.68000     -5.0759141E-08
   31.74000     -5.0569525E-08
   31.80000     -5.0235581E-08
   31.86000     -4.9760668E-08
   31.92000     -4.9150945E-08
   31.98000     -4.8405326E-08
   32.04000     -4.7508031E-08
   32.10000     -4.6426852E-08
   32.16000     -4.5118561E-08
   32.22000     -4.3540567E-08
   32.28000     -4.1665597E-08
   32.34000     -3.9495131E-08
   32.40000     -3.7066936E-08
   32.46000     -3.4453898E-08
   32.52000     -3.1753512E-08
   32.58000     -2.9070295E-08
   32.64000     -2.6495687E-08
   32.70000     -2.4090811E-08
   32.76000     -2.1877023E-08
   32.82000     -1.9836998E-08
   32.88000     -1.7926135E-08
   32.94000     -1.6091095E-08
   33.00000     -1.4290156E-08
   33.06000     -1.2509459E-08
   33.12000     -1.0770325E-08
   33.18000     -9.1254009E-09
   33.24000     -7.6445978E-09
   33.30000     -6.3948424E-09
   33.36000     -5.4194498E-09
   33.42000     -4.7231374E-09
   33.48000     -4.2670973E-09
   33.54000     -3.9756358E-09
   33.60000     -3.7526005E-09
   33.66000     -3.5029939E-09
   33.72000     -3.1537515E-09
   33.78000     -2.6679341E-09
   33.84000     -2.0485407E-09
   33.90000     -1.3311450E-09
   33.96000     -5.6779575E-10
   34.02000      1.9288898E-10
   34.08000      9.2342245E-10
   34.14000      1.6276374E-09
   34.20000      2.3403253E-09
   34.26000      3.1165088E-09
   34.32000      4.0137156E-09
   34.38000      5.0727968E-09
   34.44000      6.3032886E-09
   34.50000      7.6778486E-09
   34.56000      9.1373638E-09
   34.62000      1.0604908E-08
   34.68000      1.2003895E-08
   34.74000      1.3274598E-08
   34.80000      1.4383963E-08
   34.86000      1.5326087E-08
   34.92000      1.6113983E-08
   34.98000      1.6766112E-08
   35.04000      1.7292722E-08
   35.10000      1.7686746E-08
   35.16000      1.7922256E-08
   35.22000      1.7960611E-08
   35.28000      1.7761989E-08
   35.34000      1.7298127E-08
   35.40000      1.6561989E-08
   35.46000      1.5571144E-08
   35.52000      1.4363788E-08
   35.58000      1.2988671E-08
   35.64000      1.1492116E-08
   35.70000      9.9061204E-09
   35.76000      8.2411331E-09
   35.82000      6.4855992E-09
   35.88000      4.6122826E-09
   35.94000      2.5892943E-09
   36.00000      3.9245124E-10
   36.06000     -1.9847002E-09
   36.12000     -4.5259583E-09
   36.18000     -7.1937598E-09
   36.24000     -9.9359330E-09
   36.30000     -1.2695723E-08
   36.36000     -1.5422245E-08
   36.42000     -1.8078826E-08
   36.48000     -2.0647633E-08
   36.54000     -2.3130157E-08
   36.60000     -2.5544136E-08
   36.66000     -2.7918070E-08
   36.72000     -3.0284586E-08
   36.78000     -3.2673775E-08
   36.84000     -3.5107409E-08
   36.90000     -3.7594631E-08
   36.96000     -4.0129819E-08
   37.02000     -4.2692943E-08
   37.08000     -4.5252605E-08
   37.14000     -4.7771497E-08
   37.20000     -5.0213306E-08
   37.26000     -5.2549684E-08
   37.32000     -5.4765692E-08
   37.38000     -5.6862177E-08
   37.44000     -5.8854258E-08
   37.50000     -6.0766070E-08
   37.56000     -6.2622817E-08
   37.62000     -6.4442190E-08
   37.68000     -6.6227358E-08
   37.74000     -6.7963512E-08
   37.80000     -6.9619119E-08
   37.86000     -7.1151604E-08
   37.92000     -7.2516094E-08
   37.98000     -7.3674926E-08
   38.04000     -7.4605289E-08
   38.10000     -7.5302964E-08
   38.16000     -7.5781386E-08
   38.22000     -7.6066300E-08
   38.28000     -7.6187796E-08
   38.34000     -7.6172142E-08
   38.40000     -7.6035832E-08
   38.46000     -7.5783589E-08
   38.52000     -7.5410810E-08
   38.58000     -7.4909728E-08
   38.64000     -7.4277168E-08
   38.70000     -7.3521207E-08
   38.76000     -7.2664342E-08
   38.82000     -7.1741525E-08
   38.88000     -7.0793071E-08
   38.94000     -6.9854288E-08
   39.00000     -6.8944786E-08
   39.06000     -6.8061055E-08
   39.12000     -6.7175264E-08
   39.18000     -6.6241164E-08
   39.24000     -6.5206187E-08
   39.30000     -6.4026224E-08
   39.36000     -6.2678851E-08
   39.42000     -6.1170780E-08
   39.48000     -5.9537143E-08
   39.54000     -5.7832601E-08
   39.60000     -5.6117052E-08
   39.66000     -5.4440225E-08
   39.72000     -5.2829868E-08
   39.78000     -5.1287216E-08
   39.84000     -4.9790739E-08
   39.90000     -4.8306912E-08
   39.96000     -4.6804299E-08
   40.02000     -4.5266354E-08
   40.08000     -4.3698961E-08
   40.14000     -4.2130420E-08
   40.20000     -4.0604174E-08
   40.26000     -3.9167130E-08
   40.32000     -3.7857536E-08
   40.38000     -3.6696775E-08
   40.44000     -3.5687673E-08
   40.50000     -3.4819589E-08
   40.56000     -3.4078045E-08
   40.62000     -3.3454764E-08
   40.68000     -3.2953938E-08
   40.74000     -3.2591771E-08
   40.80000     -3.2388940E-08
   40.86000     -3.2358358E-08
   40.92000     -3.2492643E-08
   40.98000     -3.2756162E-08
   41.04000     -3.3085225E-08
   41.10000     -3.3397409E-08
   41.16000     -3.3607886E-08
   41.22000     -3.3648291E-08
   41.28000     -3.3482429E-08
   41.34000     -3.3114087E-08
   41.40000     -3.2584335E-08
   41.46000     -3.1958994E-08
   41.52000     -3.1309835E-08
   41.58000     -3.0695048E-08
   41.64000     -3.0144623E-08
   41.70000     -2.9654798E-08
   41.76000     -2.9192918E-08
   41.82000     -2.8710810E-08
   41.88000     -2.8162328E-08
   41.94000     -2.7519594E-08
   42.00000     -2.6783118E-08
   42.06000     -2.5983070E-08
   42.12000     -2.5171758E-08
   42.18000     -2.4409930E-08
   42.24000     -2.3751072E-08
   42.30000     -2.3228083E-08
   42.36000     -2.2845656E-08
   42.42000     -2.2579897E-08
   42.48000     -2.2384821E-08
   42.54000     -2.2203773E-08
   42.60000     -2.1982901E-08
   42.66000     -2.1683578E-08
   42.72000     -2.1291042E-08
   42.78000     -2.0817350E-08
   42.84000     -2.0297938E-08
   42.90000     -1.9782515E-08
   42.96000     -1.9322364E-08
   43.02000     -1.8957104E-08
   43.08000     -1.8704307E-08
   43.14000     -1.8554683E-08
   43.20000     -1.8474143E-08
   43.26000     -1.8412218E-08
   43.32000     -1.8314507E-08
   43.38000     -1.8135857E-08
   43.44000     -1.7850796E-08
   43.50000     -1.7458746E-08
   43.56000     -1.6983027E-08
   43.62000     -1.6464341E-08
   43.68000     -1.5950850E-08
   43.74000     -1.5487540E-08
   43.80000     -1.5107611E-08
   43.86000     -1.4827890E-08
   43.92000     -1.4649075E-08
   43.98000     -1.4560473E-08
   44.04000     -1.4547695E-08
   44.10000     -1.4601142E-08
   44.16000     -1.4722929E-08
   44.22000     -1.4930384E-08
   44.28000     -1.5255178E-08
   44.34000     -1.5738371E-08
   44.40000     -1.6422819E-08
   44.46000     -1.7345164E-08
   44.52000     -1.8529795E-08
   44.58000     -1.9986654E-08
   44.64000     -2.1713808E-08
   44.70000     -2.3704253E-08
   44.76000     -2.5955408E-08
   44.82000     -2.8478796E-08
   44.88000     -3.1307451E-08
   44.94000     -3.4499124E-08
   45.00000     -3.8134612E-08
   45.06000     -4.2311925E-08
   45.12000     -4.7138411E-08
   45.18000     -5.2723664E-08
   45.24000     -5.9176198E-08
   45.30000     -6.6605793E-08
   45.36000     -7.5132192E-08
   45.42000     -8.4898986E-08
   45.48000     -9.6090126E-08
   45.54000     -1.0894578E-07
   45.60000     -1.2377458E-07
   45.66000     -1.4096024E-07
   45.72000     -1.6096213E-07
   45.78000     -1.8431173E-07
   45.84000     -2.1160727E-07
   45.90000     -2.4351067E-07
   45.96000     -2.8074945E-07
   46.02000     -3.2412575E-07
   46.08000     -3.7453270E-07
   46.14000     -4.3297601E-07
   46.20000     -5.0059822E-07
   46.26000     -5.7870278E-07
   46.32000     -6.6877487E-07
   46.38000     -7.7249916E-07
   46.44000     -8.9177411E-07
   46.50000     -1.0287267E-06
   46.56000     -1.1857277E-06
   46.62000     -1.3654113E-06
   46.68000     -1.5706979E-06
   46.74000     -1.8048207E-06
   46.80000     -2.0713528E-06
   46.86000     -2.3742334E-06
   46.92000     -2.7177925E-06
   46.98000     -3.1067705E-06
   47.04000     -3.5463354E-06
   47.10000     -4.0420996E-06
   47.16000     -4.6001360E-06
   47.22000     -5.2269970E-06
   47.28000     -5.9297372E-06
   47.34000     -6.7159403E-06
   47.40000     -7.5937432E-06
   47.46000     -8.5718602E-06
   47.52000     -9.6595950E-06
   47.58000     -1.0866843E-05
   47.64000     -1.2204081E-05
   47.70000     -1.3682352E-05
   47.76000     -1.5313222E-05
   47.82000     -1.7108754E-05
   47.88000     -1.9081452E-05
   47.94000     -2.1244230E-05
   48.00000     -2.3610375E-05
   48.06000     -2.6193497E-05
   48.12000     -2.9007480E-05
   48.18000     -3.2066448E-05
   48.24000     -3.5384659E-05
   48.30000     -3.8976461E-05
   48.36000     -4.2856140E-05
   48.42000     -4.7037825E-05
   48.48000     -5.1535346E-05
   48.54000     -5.6362089E-05
   48.60000     -6.1530853E-05
   48.66000     -6.7053727E-05
   48.72000     -7.2941941E-05
   48.78000     -7.9205733E-05
   48.84000     -8.5854175E-05
   48.90000     -9.2895054E-05
   48.96000     -1.0033472E-04
   49.02000     -1.0817789E-04
   49.08000     -1.1642750E-04
   49.14000     -1.2508458E-04
   49.20000     -1.3414810E-04
   49.26000     -1.4361479E-04
   49.32000     -1.5347915E-04
   49.38000     -1.6373329E-04
   49.44000     -1.7436690E-04
   49.50000     -1.8536717E-04
   49.56000     -1.9671876E-04
   49.62000     -2.0840380E-04
   49.68000     -2.2040187E-04
   49.74000     -2.3269001E-04
   49.80000     -2.4524279E-04
   49.86000     -2.5803238E-04
   49.92000     -2.7102875E-04
   49.98000     -2.8419972E-04
   50.04000     -2.9751135E-04
   50.10000     -3.1092792E-04
   50.16000     -3.2441245E-04
   50.22000     -3.3792670E-04
   50.28000     -3.5143160E-04
   50.34000     -3.6488735E-04
   50.40000     -3.7825402E-04
   50.46000     -3.9149157E-04
   50.52000     -4.0456044E-04
   50.58000     -4.1742178E-04
   50.64000     -4.3003788E-04
   50.70000     -4.4237255E-04
   50.76000     -4.5439141E-04
   50.82000     -4.6606234E-04
   50.88000     -4.7735564E-04
   50.94000     -4.8824449E-04
   51.00000     -4.9870537E-04
   51.06000     -5.0871802E-04
   51.12000     -5.1826559E-04
   51.18000     -5.2733516E-04
   51.24000     -5.3591770E-04
   51.30000     -5.4400816E-04
   51.36000     -5.5160554E-04
   51.42000     -5.5871293E-04
   51.48000     -5.6533772E-04
   51.54000     -5.7149108E-04
   51.60000     -5.7718821E-04
   51.66000     -5.8244797E-04
   51.72000     -5.8729231E-04
   51.78000     -5.9174671E-04
   51.84000     -5.9583929E-04
   51.90000     -5.9960067E-04
   51.96000     -6.0306391E-04
   52.02000     -6.0626329E-04
   52.08000     -6.0923479E-04
   52.14000     -6.1201496E-04
   52.20000     -6.1464071E-04
   52.26000     -6.1714870E-04
   52.32000     -6.1957526E-04
   52.38000     -6.2195538E-04
   52.44000     -6.2432262E-04
   52.50000     -6.2670856E-04
   52.56000     -6.2914245E-04
   52.62000     -6.3165056E-04
   52.68000     -6.3425605E-04
   52.74000     -6.3697854E-04
   52.80000     -6.3983409E-04
   52.86000     -6.4283476E-04
   52.92000     -6.4598868E-04
   52.98000     -6.4929988E-04
   53.04000     -6.5276847E-04
   53.10000     -6.5639010E-04
   53.16000     -6.6015683E-04
   53.22000     -6.6405645E-04
   53.28000     -6.6807319E-04
   53.34000     -6.7218771E-04
   53.40000     -6.7637739E-04
   53.46000     -6.8061677E-04
   53.52000     -6.8487809E-04
   53.58000     -6.8913127E-04
   53.64000     -6.9334480E-04
   53.70000     -6.9748593E-04
   53.76000     -7.0152117E-04
   53.82000     -7.0541690E-04
   53.88000     -7.0913974E-04
   53.94000     -7.1265717E-04
   54.00000     -7.1593758E-04
   54.06000     -7.1895117E-04
   54.12000     -7.2167028E-04
   54.18000     -7.2406937E-04
   54.24000     -7.2612573E-04
   54.30000     -7.2781963E-04
   54.36000     -7.2913442E-04
   54.42000     -7.3005719E-04
   54.48000     -7.3057826E-04
   54.54000     -7.3069200E-04
   54.60000     -7.3039625E-04
   54.66000     -7.2969275E-04
   54.72000     -7.2858692E-04
   54.78000     -7.2708749E-04
   54.84000     -7.2520669E-04
   54.90000     -7.2295970E-04
   54.96000     -7.2036445E-04
   55.02000     -7.1744143E-04
   55.08000     -7.1421324E-04
   55.14000     -7.1070442E-04
   55.20000     -7.0694083E-04
   55.26000     -7.0294924E-04
   55.32000     -6.9875736E-04
   55.38000     -6.9439283E-04
   55.44000     -6.8988325E-04
   55.50000     -6.8525574E-04
   55.56000     -6.8053638E-04