  -2.400000      0.0000000E+00
  -2.340000      0.0000000E+00
  -2.280000      0.0000000E+00
  -2.220000      0.0000000E+00
  -2.160000      0.0000000E+00
  -2.100000      0.0000000E+00
  -2.040000      0.0000000E+00
  -1.980000      0.0000000E+00
  -1.920000      0.0000000E+00
  -1.860000      4.2466759E-30
  -1.800000      9.2852158E-29
  -1.740000      8.5050405E-28
  -1.680000      4.5860413E-27
  -1.620000      1.6158749E-26
  -1.560000      3.6104087E-26
  -1.500000      3.0777997E-26
  -1.440000     -1.2540023E-25
  -1.380000     -6.7537128E-25
  -1.320000     -1.7884690E-24
  -1.260000     -2.9123812E-24
  -1.200000     -1.7327405E-24
  -1.140000      6.2840068E-24
  -1.080000      2.5636635E-23
  -1.020000      5.3767844E-23
 -0.9600000      7.0569130E-23
 -0.9000000      3.2731597E-23
 -0.8400000     -1.1232571E-22
 -0.7800000     -3.8180903E-22
 -0.7200000     -6.9289801E-22
 -0.6600000     -8.2366101E-22
 -0.6000000     -4.6522457E-22
 -0.5400000      6.0351641E-22
 -0.4800000      2.2901414E-21
 -0.4200000      4.0966407E-21
 -0.3600000      5.3368437E-21
 -0.3000000      5.5916493E-21
 -0.2400000      4.9138406E-21
 -0.1800000      3.0841100E-21
 -0.1200000     -2.2366572E-21
 -5.9999999E-02 -1.7091405E-20
  0.0000000E+00 -4.9420142E-20
  5.9999999E-02 -1.0065231E-19
  0.1200000     -1.5124340E-19
  0.1800000     -1.4856442E-19
  0.2400000     -1.3634917E-20
  0.3000000      3.1668762E-19
  0.3600000      8.1169874E-19
  0.4200000      1.2659474E-18
  0.4800000      1.2840909E-18
  0.5400000      4.0851594E-19
  0.6000000     -1.5832386E-18
  0.6600000     -4.2990119E-18
  0.7200000     -6.4955383E-18
  0.7800000     -6.2775369E-18
  0.8400000     -1.9190801E-18
  0.9000000      6.8270078E-18
  0.9600000      1.7509475E-17
   1.020000      2.4750117E-17
   1.080000      2.1806110E-17
   1.140000      4.0098759E-18
   1.200000     -2.7020202E-17
   1.260000     -6.0646990E-17
   1.320000     -7.8518042E-17
   1.380000     -6.1301647E-17
   1.440000      3.8852544E-19
   1.500000      9.5313051E-17
   1.560000      1.8762598E-16
   1.620000      2.2512892E-16
   1.680000      1.6066123E-16
   1.740000     -1.9681141E-17
   1.800000     -2.7442533E-16
   1.860000     -5.0553907E-16
   1.920000     -5.8721914E-16
   1.980000     -4.2048619E-16
   2.040000      6.4106001E-18
   2.100000      5.8215643E-16
   2.160000      1.0885005E-15
   2.220000      1.2764074E-15
   2.280000      9.8001003E-16
   2.340000      2.1864035E-16
   2.400000     -7.7080236E-16
   2.460000     -1.6065383E-15
   2.520000     -1.9258639E-15
   2.580000     -1.5712130E-15
   2.640000     -6.9850424E-16
   2.700000      2.7222114E-16
   2.760000      8.7048734E-16
   2.820000      8.6187402E-16
   2.880000      4.4587836E-16
   2.940000      2.1377433E-16
   3.000000      8.2286636E-16
   3.060000      2.5110753E-15
   3.120000      4.7163688E-15
   3.180000      6.0835092E-15
   3.240000      4.9889089E-15
   3.300000      4.3793462E-16
   3.360000     -7.0779649E-15
   3.420000     -1.5270715E-14
   3.480000     -2.0619653E-14
   3.540000     -1.9729879E-14
   3.600000     -1.0956433E-14
   3.660000      4.4709220E-15
   3.720000      2.2442372E-14
   3.780000      3.7204896E-14
   3.840000      4.3358377E-14
   3.900000      3.7750730E-14
   3.960000      2.0490881E-14
   4.020000     -5.2043716E-15
   4.080000     -3.4006364E-14
   4.140000     -5.9667630E-14
   4.200000     -7.5940319E-14
   4.260000     -7.7271523E-14
   4.320000     -5.9755152E-14
   4.380000     -2.2713131E-14
   4.440000      2.9433070E-14
   4.500000      8.6202536E-14
   4.560000      1.3246491E-13
   4.620000      1.5279913E-13
   4.680000      1.3756977E-13
   4.740000      8.7783594E-14
   4.800000      1.5524264E-14
   4.860000     -6.1328668E-14
   4.920000     -1.2793465E-13
   4.980000     -1.7967931E-13
   5.040000     -2.2219065E-13
   5.100000     -2.6217185E-13
   5.160000     -2.9317011E-13
   5.220000     -2.8574780E-13
   5.280000     -1.9216680E-13
   5.340000      3.0350983E-14
   5.400000      3.8467211E-13
   5.460000      8.0441469E-13
   5.520000      1.1508027E-12
   5.580000      1.2483364E-12
   5.640000      9.5424916E-13
   5.700000      2.3682152E-13
   5.760000     -7.7412837E-13
   5.820000     -1.7967153E-12
   5.880000     -2.4766643E-12
   5.940000     -2.5159790E-12
   6.000000     -1.8022758E-12
   6.060000     -4.8162922E-13
   6.120000      1.0658172E-12
   6.180000      2.3507405E-12
   6.240000      2.9592754E-12
   6.300000      2.7252710E-12
   6.360000      1.8146891E-12
   6.420000      6.7579796E-13
   6.480000     -1.3900509E-13
   6.540000     -2.1883919E-13
   6.600000      4.8841931E-13
   6.660000      1.5818346E-12
   6.720000      2.2907550E-12
   6.780000      1.7258485E-12
   6.840000     -7.7705968E-13
   6.900000     -5.3347036E-12
   6.960000     -1.1327867E-11
   7.020000     -1.7415805E-11
   7.080000     -2.1756518E-11
   7.140000     -2.2373405E-11
   7.200000     -1.7575176E-11
   7.260000     -6.3414178E-12
   7.320000      1.1377278E-11
   7.380000      3.4451924E-11
   7.440000      6.0443199E-11
   7.500000      8.5538410E-11
   7.560000      1.0459205E-10
   7.620000      1.1135147E-10
   7.680000      9.8969805E-11
   7.740000      6.0875770E-11
   7.800000     -8.0160375E-12
   7.860000     -1.0988805E-10
   7.920000     -2.4263588E-10
   7.980000     -3.9881209E-10
   8.040000     -5.6516741E-10
   8.100000     -7.2296585E-10
   8.160000     -8.4911184E-10
   8.220000     -9.1798597E-10
   8.280000     -9.0378122E-10
   8.340000     -7.8306933E-10
   8.400000     -5.3731897E-10
   8.460000     -1.5510271E-10
   8.520000      3.6622499E-10
   8.580000      1.0195458E-09
   8.640000      1.7877871E-09
   8.700000      2.6445401E-09
   8.760000      3.5554142E-09
   8.820000      4.4799879E-09
   8.880000      5.3741944E-09
   8.940000      6.1929830E-09
   9.000000      6.8931589E-09
   9.060000      7.4363156E-09
   9.120000      7.7917877E-09
   9.180000      7.9394367E-09
   9.240000      7.8719973E-09
   9.300000      7.5965261E-09
   9.360000      7.1345485E-09
   9.420000      6.5205521E-09
   9.480000      5.7988041E-09
   9.540000      5.0187872E-09
   9.600000      4.2299315E-09
   9.660000      3.4764891E-09
   9.720000      2.7933913E-09
   9.780000      2.2036759E-09
   9.840000      1.7176979E-09
   9.900000      1.3339413E-09
   9.960000      1.0409877E-09
   10.02000      8.2010876E-10
   10.08000      6.4804606E-10
   10.14000      4.9973553E-10
   10.20000      3.5090231E-10
   10.26000      1.8052833E-10
   10.32000     -2.6859320E-11
   10.38000     -2.7925981E-10
   10.44000     -5.7592775E-10
   10.50000     -9.0707869E-10
   10.56000     -1.2547722E-09
   10.62000     -1.5949477E-09
   10.68000     -1.9003323E-09
   10.74000     -2.1437419E-09
   10.80000     -2.3012303E-09
   10.86000     -2.3546187E-09
   10.92000     -2.2931022E-09
   10.98000     -2.1138509E-09
   11.04000     -1.8216865E-09
   11.10000     -1.4280104E-09
   11.16000     -9.4918495E-10
   11.22000     -4.0452880E-10
   11.28000      1.8594637E-10
   11.34000      8.0392987E-10
   11.40000      1.4351645E-09
   11.46000      2.0714872E-09
   11.52000      2.7121880E-09
   11.58000      3.3642704E-09
   11.64000      4.0412691E-09
   11.70000      4.7605044E-09
   11.76000      5.5390261E-09
   11.82000      6.3889312E-09
   11.88000      7.3130990E-09
   11.94000      8.3025240E-09
   12.00000      9.3362269E-09
   12.06000      1.0384150E-08
   12.12000      1.1412681E-08
   12.18000      1.2391604E-08
   12.24000      1.3300737E-08
   12.30000      1.4134423E-08
   12.36000      1.4902522E-08
   12.42000      1.5627421E-08
   12.48000      1.6337786E-08
   12.54000      1.7060698E-08
   12.60000      1.7814321E-08
   12.66000      1.8603162E-08
   12.72000      1.9417145E-08
   12.78000      2.0234626E-08
   12.84000      2.1028260E-08
   12.90000      2.1771905E-08
   12.96000      2.2446507E-08
   13.02000      2.3043409E-08
   13.08000      2.3564493E-08
   13.14000      2.4019558E-08
   13.20000      2.4422231E-08
   13.26000      2.4785866E-08
   13.32000      2.5120778E-08
   13.38000      2.5433348E-08
   13.44000      2.5726781E-08
   13.50000      2.6002796E-08
   13.56000      2.6263201E-08
   13.62000      2.6510660E-08
   13.68000      2.6748452E-08
   13.74000      2.6979574E-08
   13.80000      2.7205878E-08
   13.86000      2.7427852E-08
   13.92000      2.7645305E-08
   13.98000      2.7858649E-08
   14.04000      2.8070037E-08
   14.10000      2.8283589E-08
   14.16000      2.8504257E-08
   14.22000      2.8735512E-08
   14.28000      2.8976816E-08
   14.34000      2.9222029E-08
   14.40000      2.9459894E-08
   14.46000      2.9676903E-08
   14.52000      2.9861891E-08
   14.58000      3.0010824E-08
   14.64000      3.0129787E-08
   14.70000      3.0234649E-08
   14.76000      3.0346776E-08
   14.82000      3.0485641E-08
   14.88000      3.0660349E-08
   14.94000      3.0862768E-08
   15.00000      3.1064644E-08
   15.06000      3.1220182E-08
   15.12000      3.1273792E-08
   15.18000      3.1171297E-08
   15.24000      3.0871593E-08
   15.30000      3.0355626E-08
   15.36000      2.9630094E-08
   15.42000      2.8724896E-08
   15.48000      2.7684917E-08
   15.54000      2.6558553E-08
   15.60000      2.5386150E-08
   15.66000      2.4191511E-08
   15.72000      2.2978591E-08
   15.78000      2.1733918E-08
   15.84000      2.0433534E-08
   15.90000      1.9052054E-08
   15.96000      1.7571034E-08
   16.02000      1.5984355E-08
   16.08000      1.4299522E-08
   16.14000      1.2535296E-08
   16.20000      1.0717168E-08
   16.26000      8.8728163E-09
   16.32000      7.0293633E-09
   16.38000      5.2134035E-09
   16.44000      3.4534340E-09
   16.50000      1.7833413E-09
   16.56000      2.4498092E-10
   16.62000     -1.1118649E-09
   16.68000     -2.2330129E-09
   16.74000     -3.0665219E-09
   16.80000     -3.5709877E-09
   16.86000     -3.7233883E-09
   16.92000     -3.5244663E-09
   16.98000     -3.0003200E-09
   17.04000     -2.1999034E-09
   17.10000     -1.1891538E-09
   17.16000     -4.3174717E-11
   17.22000      1.1618260E-09
   17.28000      2.3552744E-09
   17.34000      3.4765182E-09
   17.40000      4.4761541E-09
   17.46000      5.3146110E-09
   17.52000      5.9588792E-09
   17.58000      6.3788317E-09
   17.64000      6.5447279E-09
   17.70000      6.4271890E-09
   17.76000      6.0000707E-09
   17.82000      5.2455342E-09
   17.88000      4.1596220E-09
   17.94000      2.7561986E-09
   18.00000      1.0675283E-09
   18.06000     -8.5911600E-10
   18.12000     -2.9679552E-09
   18.18000     -5.2023119E-09
   18.24000     -7.5109599E-09
   18.30000     -9.8514317E-09
   18.36000     -1.2189795E-08
   18.42000     -1.4497815E-08
   18.48000     -1.6749409E-08
   18.54000     -1.8918382E-08
   18.60000     -2.0978760E-08
   18.66000     -2.2907813E-08
   18.72000     -2.4690637E-08
   18.78000     -2.6324528E-08
   18.84000     -2.7821306E-08
   18.90000     -2.9206404E-08
   18.96000     -3.0514599E-08
   19.02000     -3.1783170E-08
   19.08000     -3.3044131E-08
   19.14000     -3.4317445E-08
   19.20000     -3.5606845E-08
   19.26000     -3.6899547E-08
   19.32000     -3.8169990E-08
   19.38000     -3.9387004E-08
   19.44000     -4.0522696E-08
   19.50000     -4.1560853E-08
   19.56000     -4.2502396E-08
   19.62000     -4.3366164E-08
   19.68000     -4.4184375E-08
   19.74000     -4.4993683E-08
   19.80000     -4.5824297E-08
   19.86000     -4.6690335E-08
   19.92000     -4.7584408E-08
   19.98000     -4.8478299E-08
   20.04000     -4.9329596E-08
   20.10000     -5.0092527E-08
   20.16000     -5.0729913E-08
   20.22000     -5.1223040E-08
   20.28000     -5.1577011E-08
   20.34000     -5.1820521E-08
   20.40000     -5.2000402E-08
   20.46000     -5.2172304E-08
   20.52000     -5.2389506E-08
   20.58000     -5.2692041E-08
   20.64000     -5.3097956E-08
   20.70000     -5.3598583E-08
   20.76000     -5.4158718E-08
   20.82000     -5.4722175E-08
   20.88000     -5.5221715E-08
   20.94000     -5.5591475E-08
   21.00000     -5.5779022E-08
   21.06000     -5.5754256E-08
   21.12000     -5.5513105E-08
   21.18000     -5.5075557E-08
   21.24000     -5.4479070E-08
   21.30000     -5.3769774E-08
   21.36000     -5.2994018E-08
   21.42000     -5.2192370E-08
   21.48000     -5.1396878E-08
   21.54000     -5.0631225E-08
   21.60000     -4.9912355E-08
   21.66000     -4.9252243E-08
   21.72000     -4.8658624E-08
   21.78000     -4.8134428E-08
   21.84000     -4.7676426E-08
   21.90000     -4.7274000E-08
   21.96000     -4.6909101E-08
   22.02000     -4.6558071E-08
   22.08000     -4.6195307E-08
   22.14000     -4.5798149E-08
   22.20000     -4.5351722E-08
   22.26000     -4.4852356E-08
   22.32000     -4.4308401E-08
   22.38000     -4.3737977E-08
   22.44000     -4.3164022E-08
   22.50000     -4.2607855E-08
   22.56000     -4.2082892E-08
   22.62000     -4.1590230E-08
   22.68000     -4.1117080E-08
   22.74000     -4.0638415E-08
   22.80000     -4.0121105E-08
   22.86000     -3.9529333E-08
   22.92000     -3.8829878E-08
   22.98000     -3.7996077E-08
   23.04000     -3.7010008E-08
   23.10000     -3.5862978E-08
   23.16000     -3.4554940E-08
   23.22000     -3.3093471E-08
   23.28000     -3.1492736E-08
   23.34000     -2.9772471E-08
   23.40000     -2.7956608E-08
   23.46000     -2.6071314E-08
   23.52000     -2.4142537E-08
   23.58000     -2.2193705E-08
   23.64000     -2.0244585E-08
   23.70000     -1.8312031E-08
   23.76000     -1.6412709E-08
   23.82000     -1.4566797E-08
   23.88000     -1.2800952E-08
   23.94000     -1.1148855E-08
   24.00000     -9.6484047E-09
   24.06000     -8.3360643E-09
   24.12000     -7.2401249E-09
   24.18000     -6.3752092E-09
   24.24000     -5.7399330E-09
   24.30000     -5.3184022E-09
   24.36000     -5.0848117E-09
   24.42000     -5.0093685E-09
   24.48000     -5.0635820E-09
   24.54000     -5.2234759E-09
   24.60000     -5.4702238E-09
   24.66000     -5.7885816E-09
   24.72000     -6.1639986E-09
   24.78000     -6.5794423E-09
   24.84000     -7.0128676E-09
   24.90000     -7.4360891E-09
   24.96000     -7.8155677E-09
   25.02000     -8.1152836E-09
   25.08000     -8.3013303E-09
   25.14000     -8.3472855E-09
   25.20000     -8.2389358E-09
   25.26000     -7.9769036E-09
   25.32000     -7.5761877E-09
   25.38000     -7.0625088E-09
   25.44000     -6.4662804E-09
   25.50000     -5.8157390E-09
   25.56000     -5.1309073E-09
   25.62000     -4.4197761E-09
   25.68000     -3.6774743E-09
   25.74000     -2.8884635E-09
   25.80000     -2.0311794E-09
   25.86000     -1.0840406E-09
   25.92000     -3.1444423E-11
   25.98000      1.1316967E-09
   26.04000      2.3980660E-09
   26.10000      3.7492560E-09
   26.16000      5.1599272E-09
   26.22000      6.6035208E-09
   26.28000      8.0576434E-09
   26.34000      9.5072270E-09
   26.40000      1.0944315E-08
   26.46000      1.2364469E-08
   26.52000      1.3761033E-08
   26.58000      1.5119392E-08
   26.64000      1.6413461E-08
   26.70000      1.7606094E-08
   26.76000      1.8653846E-08
   26.82000      1.9515113E-08
   26.88000      2.0159437E-08
   26.94000      2.0575113E-08
   27.00000      2.0772497E-08
   27.06000      2.0781428E-08
   27.12000      2.0643087E-08
   27.18000      2.0398241E-08
   27.24000      2.0075364E-08
   27.30000      1.9682231E-08
   27.36000      1.9203693E-08
   27.42000      1.8606309E-08
   27.48000      1.7848343E-08
   27.54000      1.6891748E-08
   27.60000      1.5712345E-08
   27.66000      1.4305019E-08
   27.72000      1.2682692E-08
   27.78000      1.0869881E-08
   27.84000      8.8933705E-09
   27.90000      6.7733326E-09
   27.96000      4.5177275E-09
   28.02000      2.1216278E-09
   28.08000     -4.2858470E-10
   28.14000     -3.1476963E-09
   28.20000     -6.0432988E-09
   28.26000     -9.1092058E-09
   28.32000     -1.2322644E-08
   28.38000     -1.5646066E-08
   28.44000     -1.9033047E-08
   28.50000     -2.2436604E-08
   28.56000     -2.5817599E-08
   28.62000     -2.9150995E-08
   28.68000     -3.2428353E-08
   28.74000     -3.5656075E-08
   28.80000     -3.8850057E-08
   28.86000     -4.2028198E-08
   28.92000     -4.5202771E-08
   28.98000     -4.8374449E-08
   29.04000     -5.1529327E-08
   29.10000     -5.4639543E-08
   29.16000     -5.7667158E-08
   29.22000     -6.0570308E-08
   29.28000     -6.3309884E-08
   29.34000     -6.5855048E-08
   29.40000     -6.8186225E-08
   29.46000     -7.0294838E-08
   29.52000     -7.2180271E-08
   29.58000     -7.3845364E-08
   29.64000     -7.5292064E-08
   29.70000     -7.6518603E-08
   29.76000     -7.7518955E-08
   29.82000     -7.8284117E-08
   29.88000     -7.8804234E-08
   29.94000     -7.9070404E-08
   30.00000     -7.9075491E-08
   30.06000     -7.8814011E-08
   30.12000     -7.8281836E-08
   30.18000     -7.7476486E-08
   30.24000     -7.6398592E-08
   30.30000     -7.5054253E-08
   30.36000     -7.3457443E-08
   30.42000     -7.1631597E-08
   30.48000     -6.9609726E-08
   30.54000     -6.7433007E-08
   30.60000     -6.5148249E-08
   30.66000     -6.2805043E-08
   30.72000     -6.0453061E-08
   30.78000     -5.8139690E-08
   30.84000     -5.5908167E-08
   30.90000     -5.3795819E-08
   30.96000     -5.1832671E-08
   31.02000     -5.0040526E-08
   31.08000     -4.8432696E-08
   31.14000     -4.7014453E-08
   31.20000     -4.5783928E-08
   31.26000     -4.4733085E-08
   31.32000     -4.3848573E-08
   31.38000     -4.3112522E-08
   31.44000     -4.2503725E-08
   31.50000     -4.1999680E-08
   31.56000     -4.1579423E-08
   31.62000     -4.1226659E-08
   31.68000     -4.0931965E-08
   31.74000     -4.0692949E-08
   31.80000     -4.0511793E-08
   31.86000     -4.0390859E-08
   31.92000     -4.0327834E-08
   31.98000     -4.0312582E-08
   32.04000     -4.0327013E-08
   32.10000     -4.0348404E-08
   32.16000     -4.0354752E-08
   32.22000     -4.0330129E-08
   32.28000     -4.0267853E-08
   32.34000     -4.0170324E-08
   32.40000     -4.0046004E-08
   32.46000     -3.9904993E-08
   32.52000     -3.9755456E-08
   32.58000     -3.9602227E-08
   32.64000     -3.9448054E-08
   32.70000     -3.9296435E-08
   32.76000     -3.9154429E-08
   32.82000     -3.9033907E-08
   32.88000     -3.8950510E-08
   32.94000     -3.8920717E-08
   33.00000     -3.8958174E-08
   33.06000     -3.9070546E-08
   33.12000     -3.9257881E-08
   33.18000     -3.9512557E-08
   33.24000     -3.9820360E-08
   33.30000     -4.0161961E-08
   33.36000     -4.0514369E-08
   33.42000     -4.0852239E-08
   33.48000     -4.1149512E-08
   33.54000     -4.1381629E-08
   33.60000     -4.1528263E-08
   33.66000     -4.1575991E-08
   33.72000     -4.1519719E-08
   33.78000     -4.1362124E-08
   33.84000     -4.1110894E-08
   33.90000     -4.0774591E-08
   33.96000     -4.0358756E-08
   34.02000     -3.9863771E-08
   34.08000     -3.9285403E-08
   34.14000     -3.8617610E-08
   34.20000     -3.7856260E-08
   34.26000     -3.7001996E-08
   34.32000     -3.6061103E-08
   34.38000     -3.5044359E-08
   34.44000     -3.3964945E-08
   34.50000     -3.2836773E-08
   34.56000     -3.1674105E-08
   34.62000     -3.0492195E-08
   34.68000     -2.9307907E-08
   34.74000     -2.8139127E-08
   34.80000     -2.7002548E-08
   34.86000     -2.5910721E-08
   34.92000     -2.4869939E-08
   34.98000     -2.3880444E-08
   35.04000     -2.2939282E-08
   35.10000     -2.2044683E-08
   35.16000     -2.1199872E-08
   35.22000     -2.0414388E-08
   35.28000     -1.9702190E-08
   35.34000     -1.9077381E-08
   35.40000     -1.8549548E-08
   35.46000     -1.8120646E-08
   35.52000     -1.7784506E-08
   35.58000     -1.7528642E-08
   35.64000     -1.7337188E-08
   35.70000     -1.7193637E-08
   35.76000     -1.7082682E-08
   35.82000     -1.6991224E-08
   35.88000     -1.6908972E-08
   35.94000     -1.6828883E-08
   36.00000     -1.6747192E-08
   36.06000     -1.6662467E-08
   36.12000     -1.6573400E-08
   36.18000     -1.6475790E-08
   36.24000     -1.6360012E-08
   36.30000     -1.6210560E-08
   36.36000     -1.6008659E-08
   36.42000     -1.5737751E-08
   36.48000     -1.5390297E-08
   36.54000     -1.4973514E-08
   36.60000     -1.4511890E-08
   36.66000     -1.4045286E-08
   36.72000     -1.3622934E-08
   36.78000     -1.3294846E-08
   36.84000     -1.3102778E-08
   36.90000     -1.3072811E-08
   36.96000     -1.3210986E-08
   37.02000     -1.3502683E-08
   37.08000     -1.3915703E-08
   37.14000     -1.4406485E-08
   37.20000     -1.4928393E-08
   37.26000     -1.5440657E-08
   37.32000     -1.5916230E-08
   37.38000     -1.6346807E-08
   37.44000     -1.6743622E-08
   37.50000     -1.7133644E-08
   37.56000     -1.7551812E-08
   37.62000     -1.8031317E-08
   37.68000     -1.8594491E-08
   37.74000     -1.9246963E-08
   37.80000     -1.9976728E-08
   37.86000     -2.0758373E-08
   37.92000     -2.1561039E-08
   37.98000     -2.2357494E-08
   38.04000     -2.3131241E-08
   38.10000     -2.3879315E-08
   38.16000     -2.4609804E-08
   38.22000     -2.5335051E-08
   38.28000     -2.6063097E-08
   38.34000     -2.6790751E-08
   38.40000     -2.7501340E-08
   38.46000     -2.8168655E-08
   38.52000     -2.8766463E-08
   38.58000     -2.9280672E-08
   38.64000     -2.9719917E-08
   38.70000     -3.0120194E-08
   38.76000     -3.0540889E-08
   38.82000     -3.1052164E-08
   38.88000     -3.1716763E-08
   38.94000     -3.2571634E-08
   39.00000     -3.3615212E-08
   39.06000     -3.4804895E-08
   39.12000     -3.6066041E-08
   39.18000     -3.7310087E-08
   39.24000     -3.8456388E-08
   39.30000     -3.9451013E-08
   39.36000     -4.0276962E-08
   39.42000     -4.0952965E-08
   39.48000     -4.1521933E-08
   39.54000     -4.2033271E-08
   39.60000     -4.2524984E-08
   39.66000     -4.3011163E-08
   39.72000     -4.3478330E-08
   39.78000     -4.3891369E-08
   39.84000     -4.4206658E-08
   39.90000     -4.4388209E-08
   39.96000     -4.4421927E-08
   40.02000     -4.4323617E-08
   40.08000     -4.4138243E-08
   40.14000     -4.3930193E-08
   40.20000     -4.3766846E-08
   40.26000     -4.3699785E-08
   40.32000     -4.3749065E-08
   40.38000     -4.3895511E-08
   40.44000     -4.4084221E-08
   40.50000     -4.4239084E-08
   40.56000     -4.4284789E-08
   40.62000     -4.4169951E-08
   40.68000     -4.3884018E-08
   40.74000     -4.3462144E-08
   40.80000     -4.2975657E-08
   40.86000     -4.2510464E-08
   40.92000     -4.2139877E-08
   40.98000     -4.1900538E-08
   41.04000     -4.1779543E-08
   41.10000     -4.1717360E-08
   41.16000     -4.1626059E-08
   41.22000     -4.1417252E-08
   41.28000     -4.1030749E-08
   41.34000     -4.0454655E-08
   41.40000     -3.9730228E-08
   41.46000     -3.8939795E-08
   41.52000     -3.8181568E-08
   41.58000     -3.7539159E-08
   41.64000     -3.7055440E-08
   41.70000     -3.6718774E-08
   41.76000     -3.6465913E-08
   41.82000     -3.6200611E-08
   41.88000     -3.5822357E-08
   41.94000     -3.5256637E-08
   42.00000     -3.4477463E-08
   42.06000     -3.3515288E-08
   42.12000     -3.2447733E-08
   42.18000     -3.1375730E-08
   42.24000     -3.0392389E-08
   42.30000     -2.9554355E-08
   42.36000     -2.8864863E-08
   42.42000     -2.8273963E-08
   42.48000     -2.7695698E-08
   42.54000     -2.7036233E-08
   42.60000     -2.6223237E-08
   42.66000     -2.5226546E-08
   42.72000     -2.4063484E-08
   42.78000     -2.2787868E-08
   42.84000     -2.1467489E-08
   42.90000     -2.0158559E-08
   42.96000     -1.8886103E-08
   43.02000     -1.7636534E-08
   43.08000     -1.6364137E-08
   43.14000     -1.5008478E-08
   43.20000     -1.3516683E-08
   43.26000     -1.1863552E-08
   43.32000     -1.0063742E-08
   43.38000     -8.1728855E-09
   43.44000     -6.2776668E-09
   43.50000     -4.4778150E-09
   43.56000     -2.8649281E-09
   43.62000     -1.5038201E-09
   43.68000     -4.2133583E-10
   43.74000      3.9447334E-10
   43.80000      9.8487540E-10
   43.86000      1.4037435E-09
   43.92000      1.6987847E-09
   43.98000      1.8964015E-09
   44.04000      1.9945707E-09
   44.10000      1.9654560E-09
   44.16000      1.7663560E-09
   44.22000      1.3550895E-09
   44.28000      7.0478989E-10
   44.34000     -1.8641104E-10
   44.40000     -1.2934765E-09
   44.46000     -2.5704647E-09
   44.52000     -3.9621466E-09
   44.58000     -5.4173643E-09
   44.64000     -6.8999362E-09
   44.70000     -8.3939264E-09
   44.76000     -9.9021333E-09
   44.82000     -1.1438970E-08
   44.88000     -1.3020714E-08
   44.94000     -1.4656764E-08
   45.00000     -1.6344742E-08
   45.06000     -1.8070542E-08
   45.12000     -1.9812326E-08
   45.18000     -2.1546233E-08
   45.24000     -2.3251237E-08
   45.30000     -2.4911660E-08
   45.36000     -2.6517144E-08
   45.42000     -2.8061113E-08
   45.48000     -2.9539066E-08
   45.54000     -3.0947600E-08
   45.60000     -3.2284238E-08
   45.66000     -3.3547607E-08
   45.72000     -3.4737443E-08
   45.78000     -3.5854367E-08
   45.84000     -3.6899884E-08
   45.90000     -3.7877101E-08
   45.96000     -3.8792273E-08
   46.02000     -3.9656612E-08
   46.08000     -4.0487489E-08
   46.14000     -4.1308134E-08
   46.20000     -4.2145778E-08
   46.26000     -4.3028912E-08
   46.32000     -4.3984997E-08
   46.38000     -4.5039741E-08
   46.44000     -4.6218496E-08
   46.50000     -4.7549626E-08
   46.56000     -4.9068948E-08
   46.62000     -5.0824337E-08
   46.68000     -5.2879589E-08
   46.74000     -5.5316978E-08
   46.80000     -5.8238001E-08
   46.86000     -6.1762265E-08
   46.92000     -6.6024668E-08
   46.98000     -7.1171925E-08
   47.04000     -7.7359935E-08
   47.10000     -8.4753907E-08
   47.16000     -9.3532641E-08
   47.22000     -1.0389721E-07
   47.28000     -1.1608287E-07
   47.34000     -1.3037192E-07
   47.40000     -1.4710542E-07
   47.46000     -1.6669237E-07
   47.52000     -1.8961599E-07
   47.58000     -2.1643886E-07
   47.64000     -2.4780823E-07
   47.70000     -2.8446289E-07
   47.76000     -3.2724205E-07
   47.82000     -3.7709694E-07
   47.88000     -4.3510403E-07
   47.94000     -5.0248019E-07
   48.00000     -5.8059953E-07
   48.06000     -6.7101143E-07
   48.12000     -7.7545985E-07
   48.18000     -8.9590338E-07
   48.24000     -1.0345346E-06
   48.30000     -1.1938008E-06
   48.36000     -1.3764235E-06
   48.42000     -1.5854204E-06
   48.48000     -1.8241269E-06
   48.54000     -2.0962193E-06
   48.60000     -2.4057367E-06
   48.66000     -2.7571066E-06
   48.72000     -3.1551679E-06
   48.78000     -3.6051988E-06
   48.84000     -4.1129406E-06
   48.90000     -4.6846253E-06
   48.96000     -5.3269987E-06
   49.02000     -6.0473440E-06
   49.08000     -6.8534923E-06
   49.14000     -7.7538352E-06
   49.20000     -8.7573317E-06
   49.26000     -9.8735154E-06
   49.32000     -1.1112490E-05
   49.38000     -1.2484936E-05
   49.44000     -1.4002100E-05
   49.50000     -1.5675785E-05
   49.56000     -1.7518334E-05
   49.62000     -1.9542602E-05
   49.68000     -2.1761924E-05
   49.74000     -2.4190063E-05
   49.80000     -2.6841171E-05
   49.86000     -2.9729694E-05
   49.92000     -3.2870314E-05
   49.98000     -3.6277863E-05
   50.04000     -3.9967210E-05
   50.10000     -4.3953194E-05
   50.16000     -4.8250502E-05
   50.22000     -5.2873573E-05
   50.28000     -5.7836478E-05
   50.34000     -6.3152787E-05
   50.40000     -6.8835419E-05
   50.46000     -7.4896510E-05
   50.52000     -8.1347236E-05
   50.58000     -8.8197681E-05
   50.64000     -9.5456657E-05
   50.70000     -1.0313156E-04
   50.76000     -1.1122823E-04
   50.82000     -1.1975084E-04
   50.88000     -1.2870165E-04
   50.94000     -1.3808103E-04
   51.00000     -1.4788723E-04
   51.06000     -1.5811629E-04
   51.12000     -1.6876204E-04
   51.18000     -1.7981591E-04
   51.24000     -1.9126688E-04
   51.30000     -2.0310152E-04
   51.36000     -2.1530382E-04
   51.42000     -2.2785537E-04
   51.48000     -2.4073530E-04
   51.54000     -2.5392036E-04
   51.60000     -2.6738504E-04
   51.66000     -2.8110167E-04
   51.72000     -2.9504055E-04
   51.78000     -3.0917017E-04
   51.84000     -3.2345727E-04
   51.90000     -3.3786724E-04
   51.96000     -3.5236418E-04
   52.02000     -3.6691123E-04
   52.08000     -3.8147089E-04
   52.14000     -3.9600526E-04
   52.20000     -4.1047647E-04
   52.26000     -4.2484692E-04
   52.32000     -4.3907974E-04
   52.38000     -4.5313884E-04
   52.44000     -4.6698956E-04
   52.50000     -4.8059868E-04
   52.56000     -4.9393479E-04
   52.62000     -5.0696876E-04
   52.68000     -5.1967386E-04
   52.74000     -5.3202605E-04
   52.80000     -5.4400426E-04
   52.86000     -5.5559067E-04
   52.92000     -5.6677079E-04
   52.98000     -5.7753350E-04
   53.04000     -5.8787130E-04
   53.10000     -5.9777999E-04
   53.16000     -6.0725916E-04
   53.22000     -6.1631168E-04
   53.28000     -6.2494393E-04
   53.34000     -6.3316565E-04
   53.40000     -6.4098957E-04
   53.46000     -6.4843142E-04
   53.52000     -6.5550953E-04
   53.58000     -6.6224474E-04
   53.64000     -6.6865981E-04
   53.70000     -6.7477947E-04
   53.76000     -6.8062975E-04
   53.82000     -6.8623782E-04
   53.88000     -6.9163117E-04
   53.94000     -6.9683755E-04
   54.00000     -7.0188456E-04
   54.06000     -7.0679898E-04
   54.12000     -7.1160664E-04
   54.18000     -7.1633246E-04
   54.24000     -7.2099949E-04
   54.30000     -7.2562875E-04
   54.36000     -7.3023897E-04
   54.42000     -7.3484634E-04
   54.48000     -7.3946454E-04
   54.54000     -7.4410427E-04
   54.60000     -7.4877340E-04
   54.66000     -7.5347681E-04
   54.72000     -7.5821619E-04
   54.78000     -7.6299033E-04
   54.84000     -7.6779490E-04
   54.90000     -7.7262305E-04
   54.96000     -7.7746517E-04
   55.02000     -7.8230980E-04
   55.08000     -7.8714307E-04
   55.14000     -7.9194939E-04
   55.20000     -7.9671165E-04
   55.26000     -8.0141134E-04
   55.32000     -8.0602901E-04
   55.38000     -8.1054494E-04
   55.44000     -8.1493927E-04
   55.50000     -8.1919256E-04
   55.56000     -8.2328619E-04