  -2.400000      0.0000000E+00
  -2.340000      0.0000000E+00
  -2.280000      0.0000000E+00
  -2.220000      0.0000000E+00
  -2.160000      0.0000000E+00
  -2.100000      0.0000000E+00
  -2.040000      0.0000000E+00
  -1.980000      0.0000000E+00
  -1.920000      0.0000000E+00
  -1.860000      1.5062998E-28
  -1.800000      1.6889932E-27
  -1.740000      8.4800752E-27
  -1.680000      2.1037298E-26
  -1.620000     -3.6455705E-27
  -1.560000     -2.5726608E-25
  -1.500000     -1.1917327E-24
  -1.440000     -3.3128947E-24
  -1.380000     -6.0124639E-24
  -1.320000     -5.0152368E-24
  -1.260000      1.0248488E-23
  -1.200000      5.4498159E-23
  -1.140000      1.3184804E-22
  -1.080000      2.0434344E-22
  -1.020000      1.5729542E-22
 -0.9600000     -1.9477051E-22
 -0.9000000     -9.9624242E-22
 -0.8400000     -2.0985439E-21
 -0.7800000     -2.7592233E-21
 -0.7200000     -1.5829991E-21
 -0.6600000      2.8678146E-21
 -0.6000000      1.0543757E-20
 -0.5400000      1.7915357E-20
 -0.4800000      1.7093936E-20
 -0.4200000     -1.5273570E-21
 -0.3600000     -4.1407291E-20
 -0.3000000     -8.8374471E-20
 -0.2400000     -1.0271832E-19
 -0.1800000     -2.6925613E-20
 -0.1200000      1.8011137E-19
 -5.9999999E-02  4.8427191E-19
  0.0000000E+00  7.1894424E-19
  5.9999999E-02  5.8151340E-19
  0.1200000     -2.5731482E-19
  0.1800000     -1.9082484E-18
  0.2400000     -3.9475110E-18
  0.3000000     -5.2119364E-18
  0.3600000     -3.9636063E-18
  0.4200000      1.3718350E-18
  0.4800000      1.0940541E-17
  0.5400000      2.2135168E-17
  0.6000000      2.9084610E-17
  0.6600000      2.3938048E-17
  0.7200000      4.2476503E-19
  0.7800000     -4.1009494E-17
  0.8400000     -8.8719680E-17
  0.9000000     -1.1935093E-16
  0.9600000     -1.0425502E-16
   1.020000     -2.3282234E-17
   1.080000      1.1796670E-16
   1.140000      2.7589989E-16
   1.200000      3.7215200E-16
   1.260000      3.1935162E-16
   1.320000      6.6888624E-17
   1.380000     -3.4937002E-16
   1.440000     -7.8068258E-16
   1.500000     -9.9052022E-16
   1.560000     -7.4391092E-16
   1.620000      5.7131267E-17
   1.680000      1.2463401E-15
   1.740000      2.3509687E-15
   1.800000      2.7009638E-15
   1.860000      1.7024816E-15
   1.920000     -7.9724303E-16
   1.980000     -4.2114288E-15
   2.040000     -7.1750840E-15
   2.100000     -7.9047723E-15
   2.160000     -4.9415343E-15
   2.220000      1.9491325E-15
   2.280000      1.1123879E-14
   2.340000      1.9094408E-14
   2.400000      2.1506573E-14
   2.460000      1.4941455E-14
   2.520000     -1.0511890E-15
   2.580000     -2.2613147E-14
   2.640000     -4.1847365E-14
   2.700000     -4.9138885E-14
   2.760000     -3.7111122E-14
   2.820000     -4.8586462E-15
   2.880000      3.9489852E-14
   2.940000      7.9651956E-14
   3.000000      9.6197308E-14
   3.060000      7.4595861E-14
   3.120000      1.3437548E-14
   3.180000     -7.1000822E-14
   3.240000     -1.4707299E-13
   3.300000     -1.7788818E-13
   3.360000     -1.3675213E-13
   3.420000     -2.2228303E-14
   3.480000      1.3427978E-13
   3.540000      2.7396458E-13
   3.600000      3.3001930E-13
   3.660000      2.5571754E-13
   3.720000      5.0495026E-14
   3.780000     -2.2839058E-13
   3.840000     -4.7744464E-13
   3.900000     -5.8202271E-13
   3.960000     -4.6448457E-13
   4.020000     -1.2665528E-13
   4.080000      3.3371965E-13
   4.140000      7.4544385E-13
   4.200000      9.2335731E-13
   4.260000      7.4597468E-13
   4.320000      2.2061874E-13
   4.380000     -4.9490549E-13
   4.440000     -1.1316275E-12
   4.500000     -1.4036951E-12
   4.560000     -1.1266697E-12
   4.620000     -3.1331586E-13
   4.680000      7.9752128E-13
   4.740000      1.8018445E-12
   4.800000      2.2696396E-12
   4.860000      1.9160704E-12
   4.920000      7.3863935E-13
   4.980000     -9.4078792E-13
   5.040000     -2.5591278E-12
   5.100000     -3.5029141E-12
   5.160000     -3.3429991E-12
   5.220000     -2.0233715E-12
   5.280000      7.8016640E-14
   5.340000      2.2563388E-12
   5.400000      3.7310788E-12
   5.460000      3.9555264E-12
   5.520000      2.8640688E-12
   5.580000      9.4683744E-13
   5.640000     -9.0222822E-13
   5.700000     -1.7319188E-12
   5.760000     -9.5853935E-13
   5.820000      1.2958810E-12
   5.880000      4.1052921E-12
   5.940000      5.9601313E-12
   6.000000      5.2701962E-12
   6.060000      9.9809679E-13
   6.120000     -6.7981358E-12
   6.180000     -1.6726495E-11
   6.240000     -2.6249079E-11
   6.300000     -3.2274485E-11
   6.360000     -3.1985251E-11
   6.420000     -2.3639897E-11
   6.480000     -7.0931702E-12
   6.540000      1.6118358E-11
   6.600000      4.3112614E-11
   6.660000      7.0245622E-11
   6.720000      9.3679078E-11
   6.780000      1.0969849E-10
   6.840000      1.1469258E-10
   6.900000      1.0491109E-10
   6.960000      7.6298613E-11
   7.020000      2.4768959E-11
   7.080000     -5.2810489E-11
   7.140000     -1.5690202E-10
   7.200000     -2.8314467E-10
   7.260000     -4.2033566E-10
   7.320000     -5.4923005E-10
   7.380000     -6.4272992E-10
   7.440000     -6.6771194E-10
   7.500000     -5.8830196E-10
   7.560000     -3.7000131E-10
   7.620000      1.6166833E-11
   7.680000      5.9029259E-10
   7.740000      1.3615202E-09
   7.800000      2.3273934E-09
   7.860000      3.4742886E-09
   7.920000      4.7783804E-09
   7.980000      6.2066015E-09
   8.040000      7.7173299E-09
   8.100000      9.2609520E-09
   8.160000      1.0780806E-08
   8.220000      1.2215182E-08
   8.280000      1.3500860E-08
   8.340000      1.4578262E-08
   8.400000      1.5397644E-08
   8.460000      1.5925236E-08
   8.520000      1.6147975E-08
   8.580000      1.6075536E-08
   8.640000      1.5739024E-08
   8.700000      1.5186354E-08
   8.760000      1.4475234E-08
   8.820000      1.3665304E-08
   8.880000      1.2810995E-08
   8.940000      1.1956536E-08
   9.000000      1.1133711E-08
   9.060000      1.0362223E-08
   9.120000      9.6518136E-09
   9.180000      9.0049630E-09
   9.240000      8.4191560E-09
   9.300000      7.8881452E-09
   9.360000      7.4023756E-09
   9.420000      6.9491803E-09
   9.480000      6.5135999E-09
   9.540000      6.0803798E-09
   9.600000      5.6371392E-09
   9.660000      5.1780140E-09
   9.720000      4.7065818E-09
   9.780000      4.2368327E-09
   9.840000      3.7913721E-09
   9.900000      3.3968715E-09
   9.960000      3.0776979E-09
   10.02000      2.8493763E-09
   10.08000      2.7137703E-09
   10.14000      2.6575042E-09
   10.20000      2.6542875E-09
   10.26000      2.6706928E-09
   10.32000      2.6739191E-09
   10.38000      2.6394644E-09
   10.44000      2.5566624E-09
   10.50000      2.4306477E-09
   10.56000      2.2803666E-09
   10.62000      2.1333908E-09
   10.68000      2.0191526E-09
   10.74000      1.9625321E-09
   10.80000      1.9794293E-09
   10.86000      2.0751232E-09
   10.92000      2.2452409E-09
   10.98000      2.4783351E-09
   11.04000      2.7587550E-09
   11.10000      3.0687293E-09
   11.16000      3.3892709E-09
   11.22000      3.7002998E-09
   11.28000      3.9809143E-09
   11.34000      4.2107580E-09
   11.40000      4.3729131E-09
   11.46000      4.4578989E-09
   11.52000      4.4675641E-09
   11.58000      4.4172839E-09
   11.64000      4.3351283E-09
   11.70000      4.2574966E-09
   11.76000      4.2218589E-09
   11.82000      4.2582724E-09
   11.88000      4.3818971E-09
   11.94000      4.5886006E-09
   12.00000      4.8549573E-09
   12.06000      5.1427453E-09
   12.12000      5.4068336E-09
   12.18000      5.6044227E-09
   12.24000      5.7033249E-09
   12.30000      5.6872893E-09
   12.36000      5.5572711E-09
   12.42000      5.3287010E-09
   12.48000      5.0259006E-09
   12.54000      4.6754787E-09
   12.60000      4.3006732E-09
   12.66000      3.9180859E-09
   12.72000      3.5373282E-09
   12.78000      3.1630363E-09
   12.84000      2.7979150E-09
   12.90000      2.4452140E-09
   12.96000      2.1094146E-09
   13.02000      1.7947812E-09
   13.08000      1.5024462E-09
   13.14000      1.2274567E-09
   13.20000      9.5738217E-10
   13.26000      6.7356987E-10
   13.32000      3.5511355E-10
   13.38000     -1.5546668E-11
   13.44000     -4.4728254E-10
   13.50000     -9.3720298E-10
   13.56000     -1.4711902E-09
   13.62000     -2.0281374E-09
   13.68000     -2.5865845E-09
   13.74000     -3.1314304E-09
   13.80000     -3.6581838E-09
   13.86000     -4.1729304E-09
   13.92000     -4.6876418E-09
   13.98000     -5.2121503E-09
   14.04000     -5.7454628E-09
   14.10000     -6.2695356E-09
   14.16000     -6.7480075E-09
   14.22000     -7.1308146E-09
   14.28000     -7.3636461E-09
   14.34000     -7.3994824E-09
   14.40000     -7.2086705E-09
   14.46000     -6.7844192E-09
   14.52000     -6.1421095E-09
   14.58000     -5.3129749E-09
   14.64000     -4.3346438E-09
   14.70000     -3.2421574E-09
   14.76000     -2.0628999E-09
   14.82000     -8.1741047E-10
   14.88000      4.7418741E-10
   14.94000      1.7826659E-09
   15.00000      3.0610727E-09
   15.06000      4.2411004E-09
   15.12000      5.2371498E-09
   15.18000      5.9583067E-09
   15.24000      6.3256453E-09
   15.30000      6.2901506E-09
   15.36000      5.8458309E-09
   15.42000      5.0337081E-09
   15.48000      3.9349808E-09
   15.54000      2.6550115E-09
   15.60000      1.3027055E-09
   15.66000     -2.8626960E-11
   15.72000     -1.2734120E-09
   15.78000     -2.3958586E-09
   15.84000     -3.3823608E-09
   15.90000     -4.2280823E-09
   15.96000     -4.9235354E-09
   16.02000     -5.4468337E-09
   16.08000     -5.7650342E-09
   16.14000     -5.8444152E-09
   16.20000     -5.6659406E-09
   16.26000     -5.2398952E-09
   16.32000     -4.6135451E-09
   16.38000     -3.8678842E-09
   16.44000     -3.1031908E-09
   16.50000     -2.4171039E-09
   16.56000     -1.8817259E-09
   16.62000     -1.5269127E-09
   16.68000     -1.3351513E-09
   16.74000     -1.2497759E-09
   16.80000     -1.1940056E-09
   16.86000     -1.0948024E-09
   16.92000     -9.0405866E-10
   16.98000     -6.1062666E-10
   17.04000     -2.3985244E-10
   17.10000      1.5851408E-10
   17.16000      5.2935334E-10
   17.22000      8.3134816E-10
   17.28000      1.0497733E-09
   17.34000      1.1988650E-09
   17.40000      1.3135546E-09
   17.46000      1.4340635E-09
   17.52000      1.5892351E-09
   17.58000      1.7847023E-09
   17.64000      2.0000710E-09
   17.70000      2.1960298E-09
   17.76000      2.3287958E-09
   17.82000      2.3668485E-09
   17.88000      2.3042190E-09
   17.94000      2.1658866E-09
   18.00000      2.0035593E-09
   18.06000      1.8833142E-09
   18.12000      1.8691773E-09
   18.18000      2.0078987E-09
   18.24000      2.3195645E-09
   18.30000      2.7965610E-09
   18.36000      3.4104948E-09
   18.42000      4.1240327E-09
   18.48000      4.9031055E-09
   18.54000      5.7251230E-09
   18.60000      6.5805836E-09
   18.66000      7.4681523E-09
   18.72000      8.3858556E-09
   18.78000      9.3224752E-09
   18.84000      1.0253070E-08
   18.90000      1.1140756E-08
   18.96000      1.1944294E-08
   19.02000      1.2628574E-08
   19.08000      1.3173914E-08
   19.14000      1.3580435E-08
   19.20000      1.3865681E-08
   19.26000      1.4056247E-08
   19.32000      1.4176379E-08
   19.38000      1.4237715E-08
   19.44000      1.4233885E-08
   19.50000      1.4142040E-08
   19.56000      1.3930982E-08
   19.62000      1.3573380E-08
   19.68000      1.3058165E-08
   19.74000      1.2399084E-08
   19.80000      1.1636482E-08
   19.86000      1.0831362E-08
   19.92000      1.0053133E-08
   19.98000      9.3644354E-09
   20.04000      8.8075200E-09
   20.10000      8.3964391E-09
   20.16000      8.1176461E-09
   20.22000      7.9390432E-09
   20.28000      7.8246583E-09
   20.34000      7.7500975E-09
   20.40000      7.7133553E-09
   20.46000      7.7369577E-09
   20.52000      7.8603364E-09
   20.58000      8.1247995E-09
   20.64000      8.5562659E-09
   20.70000      9.1518713E-09
   20.76000      9.8752961E-09
   20.82000      1.0662564E-08
   20.88000      1.1436350E-08
   20.94000      1.2123854E-08
   21.00000      1.2672280E-08
   21.06000      1.3057104E-08
   21.12000      1.3281247E-08
   21.18000      1.3366576E-08
   21.24000      1.3341769E-08
   21.30000      1.3231340E-08
   21.36000      1.3049612E-08
   21.42000      1.2801031E-08
   21.48000      1.2485620E-08
   21.54000      1.2106492E-08
   21.60000      1.1675904E-08
   21.66000      1.1217244E-08
   21.72000      1.0762222E-08
   21.78000      1.0344503E-08
   21.84000      9.9923811E-09
   21.90000      9.7233448E-09
   21.96000      9.5424966E-09
   22.02000      9.4451771E-09
   22.08000      9.4223864E-09
   22.14000      9.4664099E-09
   22.20000      9.5738626E-09
   22.26000      9.7444524E-09
   22.32000      9.9754942E-09
   22.38000      1.0254224E-08
   22.44000      1.0551192E-08
   22.50000      1.0818008E-08
   22.56000      1.0991344E-08
   22.62000      1.1002792E-08
   22.68000      1.0791881E-08
   22.74000      1.0318143E-08
   22.80000      9.5682875E-09
   22.86000      8.5561913E-09
   22.92000      7.3158812E-09
   22.98000      5.8900946E-09
   23.04000      4.3183164E-09
   23.10000      2.6280262E-09
   23.16000      8.3145690E-10
   23.22000     -1.0719025E-09
   23.28000     -3.0886924E-09
   23.34000     -5.2235944E-09
   23.40000     -7.4723729E-09
   23.46000     -9.8178203E-09
   23.52000     -1.2229218E-08
   23.58000     -1.4664892E-08
   23.64000     -1.7076841E-08
   23.70000     -1.9416223E-08
   23.76000     -2.1638568E-08
   23.82000     -2.3707857E-08
   23.88000     -2.5598821E-08
   23.94000     -2.7297176E-08
   24.00000     -2.8797963E-08
   24.06000     -3.0102512E-08
   24.12000     -3.1215137E-08
   24.18000     -3.2140687E-08
   24.24000     -3.2883943E-08
   24.30000     -3.3451187E-08
   24.36000     -3.3853453E-08
   24.42000     -3.4110069E-08
   24.48000     -3.4250792E-08
   24.54000     -3.4315015E-08
   24.60000     -3.4347416E-08
   24.66000     -3.4390613E-08
   24.72000     -3.4476759E-08
   24.78000     -3.4620513E-08
   24.84000     -3.4815841E-08
   24.90000     -3.5038024E-08
   24.96000     -3.5250569E-08
   25.02000     -3.5415205E-08
   25.08000     -3.5501905E-08
   25.14000     -3.5495844E-08
   25.20000     -3.5399214E-08
   25.26000     -3.5227501E-08
   25.32000     -3.5001786E-08
   25.38000     -3.4739987E-08
   25.44000     -3.4450157E-08
   25.50000     -3.4128192E-08
   25.56000     -3.3760546E-08
   25.62000     -3.3330601E-08
   25.68000     -3.2826176E-08
   25.74000     -3.2245168E-08
   25.80000     -3.1597310E-08
   25.86000     -3.0901521E-08
   25.92000     -3.0180260E-08
   25.98000     -2.9453384E-08
   26.04000     -2.8734110E-08
   26.10000     -2.8028831E-08
   26.16000     -2.7340658E-08
   26.22000     -2.6675000E-08
   26.28000     -2.6044431E-08
   26.34000     -2.5470243E-08
   26.40000     -2.4979514E-08
   26.46000     -2.4598275E-08
   26.52000     -2.4343150E-08
   26.58000     -2.4214648E-08
   26.64000     -2.4194744E-08
   26.70000     -2.4249873E-08
   26.76000     -2.4338407E-08
   26.82000     -2.4420011E-08
   26.88000     -2.4463613E-08
   26.94000     -2.4451397E-08
   27.00000     -2.4377782E-08
   27.06000     -2.4244436E-08
   27.12000     -2.4053859E-08
   27.18000     -2.3804603E-08
   27.24000     -2.3490468E-08
   27.30000     -2.3104260E-08
   27.36000     -2.2644610E-08
   27.42000     -2.2122908E-08
   27.48000     -2.1566919E-08
   27.54000     -2.1018799E-08
   27.60000     -2.0527297E-08
   27.66000     -2.0136349E-08
   27.72000     -1.9873980E-08
   27.78000     -1.9745544E-08
   27.84000     -1.9733957E-08
   27.90000     -1.9806885E-08
   27.96000     -1.9928285E-08
   28.02000     -2.0069931E-08
   28.08000     -2.0218774E-08
   28.14000     -2.0377604E-08
   28.20000     -2.0559218E-08
   28.26000     -2.0776717E-08
   28.32000     -2.1033776E-08
   28.38000     -2.1318488E-08
   28.44000     -2.1602656E-08
   28.50000     -2.1846354E-08
   28.56000     -2.2005697E-08
   28.62000     -2.2040933E-08
   28.68000     -2.1922336E-08
   28.74000     -2.1632397E-08
   28.80000     -2.1164388E-08
   28.86000     -2.0518469E-08
   28.92000     -1.9697342E-08
   28.98000     -1.8703235E-08
   29.04000     -1.7537465E-08
   29.10000     -1.6202726E-08
   29.16000     -1.4707153E-08
   29.22000     -1.3068503E-08
   29.28000     -1.1316600E-08
   29.34000     -9.4926982E-09
   29.40000     -7.6454896E-09
   29.46000     -5.8247163E-09
   29.52000     -4.0742778E-09
   29.58000     -2.4270295E-09
   29.64000     -9.0292435E-10
   29.70000      4.8899723E-10
   29.76000      1.7456708E-09
   29.82000      2.8640907E-09
   29.88000      3.8367367E-09
   29.94000      4.6501367E-09
   30.00000      5.2871854E-09
   30.06000      5.7323999E-09
   30.12000      5.9782339E-09
   30.18000      6.0302070E-09
   30.24000      5.9091003E-09
   30.30000      5.6495799E-09
   30.36000      5.2959024E-09
   30.42000      4.8962772E-09
   30.48000      4.4977484E-09
   30.54000      4.1429593E-09
   30.60000      3.8692436E-09
   30.66000      3.7094570E-09
   30.72000      3.6933028E-09
   30.78000      3.8478136E-09
   30.84000      4.1961261E-09
   30.90000      4.7545230E-09
   30.96000      5.5285900E-09
   31.02000      6.5099028E-09
   31.08000      7.6747506E-09
   31.14000      8.9859018E-09
   31.20000      1.0397535E-08
   31.26000      1.1862356E-08
   31.32000      1.3339089E-08
   31.38000      1.4798240E-08
   31.44000      1.6224440E-08
   31.50000      1.7614809E-08
   31.56000      1.8974170E-08
   31.62000      2.0309093E-08
   31.68000      2.1623240E-08
   31.74000      2.2915872E-08
   31.80000      2.4184104E-08
   31.86000      2.5427797E-08
   31.92000      2.6654677E-08
   31.98000      2.7882930E-08
   32.04000      2.9139276E-08
   32.10000      3.0452245E-08
   32.16000      3.1842351E-08
   32.22000      3.3312283E-08
   32.28000      3.4840728E-08
   32.34000      3.6382378E-08
   32.40000      3.7874852E-08
   32.46000      3.9250843E-08
   32.52000      4.0451976E-08
   32.58000      4.1440199E-08
   32.64000      4.2203293E-08
   32.70000      4.2753001E-08
   32.76000      4.3116760E-08
   32.82000      4.3326086E-08
   32.88000      4.3405603E-08
   32.94000      4.3366345E-08
   33.00000      4.3205286E-08
   33.06000      4.2910891E-08
   33.12000      4.2472379E-08
   33.18000      4.1889251E-08
   33.24000      4.1177394E-08
   33.30000      4.0369336E-08
   33.36000      3.9508013E-08
   33.42000      3.8635601E-08
   33.48000      3.7780833E-08
   33.54000      3.6948983E-08
   33.60000      3.6118266E-08
   33.66000      3.5244515E-08
   33.72000      3.4273324E-08
   33.78000      3.3156088E-08
   33.84000      3.1864751E-08
   33.90000      3.0400141E-08
   33.96000      2.8790810E-08
   34.02000      2.7082827E-08
   34.08000      2.5324070E-08
   34.14000      2.3548921E-08
   34.20000      2.1768885E-08
   34.26000      1.9972509E-08
   34.32000      1.8134234E-08
   34.38000      1.6228608E-08
   34.44000      1.4244308E-08
   34.50000      1.2192889E-08
   34.56000      1.0109376E-08
   34.62000      8.0449576E-09
   34.68000      6.0547327E-09
   34.74000      4.1847716E-09
   34.80000      2.4624134E-09
   34.86000      8.9212332E-10
   34.92000     -5.4277449E-10
   34.98000     -1.8738362E-09
   35.04000     -3.1388612E-09
   35.10000     -4.3730624E-09
   35.16000     -5.6017471E-09
   35.22000     -6.8356516E-09
   35.28000     -8.0695894E-09
   35.34000     -9.2846397E-09
   35.40000     -1.0453534E-08
   35.46000     -1.1548121E-08
   35.52000     -1.2546989E-08
   35.58000     -1.3440880E-08
   35.64000     -1.4233930E-08
   35.70000     -1.4940030E-08
   35.76000     -1.5575566E-08
   35.82000     -1.6151402E-08
   35.88000     -1.6667636E-08
   35.94000     -1.7113683E-08
   36.00000     -1.7473999E-08
   36.06000     -1.7737184E-08
   36.12000     -1.7904435E-08
   36.18000     -1.7993548E-08
   36.24000     -1.8036500E-08
   36.30000     -1.8071640E-08
   36.36000     -1.8133779E-08
   36.42000     -1.8246277E-08
   36.48000     -1.8417881E-08
   36.54000     -1.8644617E-08
   36.60000     -1.8914625E-08
   36.66000     -1.9212981E-08
   36.72000     -1.9524363E-08
   36.78000     -1.9833463E-08
   36.84000     -2.0124920E-08
   36.90000     -2.0384970E-08
   36.96000     -2.0605759E-08
   37.02000     -2.0791029E-08
   37.08000     -2.0960094E-08
   37.14000     -2.1146811E-08
   37.20000     -2.1392232E-08
   37.26000     -2.1732586E-08
   37.32000     -2.2187020E-08
   37.38000     -2.2750307E-08
   37.44000     -2.3394046E-08
   37.50000     -2.4076453E-08
   37.56000     -2.4757036E-08
   37.62000     -2.5410287E-08
   37.68000     -2.6032856E-08
   37.74000     -2.6641473E-08
   37.80000     -2.7262821E-08
   37.86000     -2.7919850E-08
   37.92000     -2.8620370E-08
   37.98000     -2.9352528E-08
   38.04000     -3.0088625E-08
   38.10000     -3.0795306E-08
   38.16000     -3.1445527E-08
   38.22000     -3.2027366E-08
   38.28000     -3.2546151E-08
   38.34000     -3.3019504E-08
   38.40000     -3.3467590E-08
   38.46000     -3.3902797E-08
   38.52000     -3.4323111E-08
   38.58000     -3.4711910E-08
   38.64000     -3.5044277E-08
   38.70000     -3.5297706E-08
   38.76000     -3.5463195E-08
   38.82000     -3.5552777E-08
   38.88000     -3.5600625E-08
   38.94000     -3.5657017E-08
   39.00000     -3.5776683E-08
   39.06000     -3.6005009E-08
   39.12000     -3.6366210E-08
   39.18000     -3.6856978E-08
   39.24000     -3.7447659E-08
   39.30000     -3.8090491E-08
   39.36000     -3.8732381E-08
   39.42000     -3.9328313E-08
   39.48000     -3.9851219E-08
   39.54000     -4.0295497E-08
   39.60000     -4.0673388E-08
   39.66000     -4.1006025E-08
   39.72000     -4.1312717E-08
   39.78000     -4.1602611E-08
   39.84000     -4.1871939E-08
   39.90000     -4.2107843E-08
   39.96000     -4.2297088E-08
   40.02000     -4.2436060E-08
   40.08000     -4.2537728E-08
   40.14000     -4.2632596E-08
   40.20000     -4.2762775E-08
   40.26000     -4.2971298E-08
   40.32000     -4.3290484E-08
   40.38000     -4.3733426E-08
   40.44000     -4.4291436E-08
   40.50000     -4.4937721E-08
   40.56000     -4.5635492E-08
   40.62000     -4.6347413E-08
   40.68000     -4.7043486E-08
   40.74000     -4.7705669E-08
   40.80000     -4.8328978E-08
   40.86000     -4.8919890E-08
   40.92000     -4.9492797E-08
   40.98000     -5.0065239E-08
   41.04000     -5.0652073E-08
   41.10000     -5.1259143E-08
   41.16000     -5.1877834E-08
   41.22000     -5.2482410E-08
   41.28000     -5.3032281E-08
   41.34000     -5.3479845E-08
   41.40000     -5.3782550E-08
   41.46000     -5.3915574E-08
   41.52000     -5.3880388E-08
   41.58000     -5.3705350E-08
   41.64000     -5.3437063E-08
   41.70000     -5.3124776E-08
   41.76000     -5.2803131E-08
   41.82000     -5.2479596E-08
   41.88000     -5.2131529E-08
   41.94000     -5.1714260E-08
   42.00000     -5.1177288E-08
   42.06000     -5.0482512E-08
   42.12000     -4.9617316E-08
   42.18000     -4.8597261E-08
   42.24000     -4.7457235E-08
   42.30000     -4.6234526E-08
   42.36000     -4.4950632E-08
   42.42000     -4.3599293E-08
   42.48000     -4.2145889E-08
   42.54000     -4.0538723E-08
   42.60000     -3.8728011E-08
   42.66000     -3.6685233E-08
   42.72000     -3.4415436E-08
   42.78000     -3.1957899E-08
   42.84000     -2.9375233E-08
   42.90000     -2.6735306E-08
   42.96000     -2.4092841E-08
   43.02000     -2.1477149E-08
   43.08000     -1.8889684E-08
   43.14000     -1.6311285E-08
   43.20000     -1.3715627E-08
   43.26000     -1.1083866E-08
   43.32000     -8.4157019E-09
   43.38000     -5.7340124E-09
   43.44000     -3.0825051E-09
   43.50000     -5.1785315E-10
   43.56000      1.9011304E-09
   43.62000      4.1245118E-09
   43.68000      6.1201328E-09
   43.74000      7.8787936E-09
   43.80000      9.4149373E-09
   43.86000      1.0762817E-08
   43.92000      1.1968890E-08
   43.98000      1.3081933E-08
   44.04000      1.4142952E-08
   44.10000      1.5177225E-08
   44.16000      1.6190556E-08
   44.22000      1.7170837E-08
   44.28000      1.8094575E-08
   44.34000      1.8936557E-08
   44.40000      1.9679565E-08
   44.46000      2.0320840E-08
   44.52000      2.0872985E-08
   44.58000      2.1358812E-08
   44.64000      2.1801959E-08
   44.70000      2.2216858E-08
   44.76000      2.2602105E-08
   44.82000      2.2940201E-08
   44.88000      2.3204230E-08
   44.94000      2.3369244E-08
   45.00000      2.3424054E-08
   45.06000      2.3378647E-08
   45.12000      2.3263954E-08
   45.18000      2.3123540E-08
   45.24000      2.3000034E-08
   45.30000      2.2921343E-08
   45.36000      2.2891944E-08
   45.42000      2.2892724E-08
   45.48000      2.2889500E-08
   45.54000      2.2846979E-08
   45.60000      2.2742755E-08
   45.66000      2.2576119E-08
   45.72000      2.2368726E-08
   45.78000      2.2157678E-08
   45.84000      2.1984805E-08
   45.90000      2.1887313E-08
   45.96000      2.1894222E-08
   46.02000      2.2030159E-08
   46.08000      2.2324823E-08
   46.14000      2.2824128E-08
   46.20000      2.3598519E-08
   46.26000      2.4745766E-08
   46.32000      2.6388404E-08
   46.38000      2.8668648E-08
   46.44000      3.1744939E-08
   46.50000      3.5793622E-08
   46.56000      4.1016943E-08
   46.62000      4.7655995E-08
   46.68000      5.6005010E-08
   46.74000      6.6423091E-08
   46.80000      7.9340836E-08
   46.86000      9.5262045E-08
   46.92000      1.1476346E-07
   46.98000      1.3849768E-07
   47.04000      1.6720422E-07
   47.10000      2.0173174E-07
   47.16000      2.4307121E-07
   47.22000      2.9239590E-07
   47.28000      3.5110213E-07
   47.34000      4.2084423E-07
   47.40000      5.0356084E-07
   47.46000      6.0149341E-07
   47.52000      7.1720251E-07
   47.58000      8.5359062E-07
   47.64000      1.0139387E-06
   47.70000      1.2019606E-06
   47.76000      1.4218737E-06
   47.82000      1.6784809E-06
   47.88000      1.9772556E-06
   47.94000      2.3244222E-06
   48.00000      2.7270341E-06
   48.06000      3.1930438E-06
   48.12000      3.7313816E-06
   48.18000      4.3520395E-06
   48.24000      5.0661706E-06
   48.30000      5.8862015E-06
   48.36000      6.8259492E-06
   48.42000      7.9007468E-06
   48.48000      9.1275597E-06
   48.54000      1.0525097E-05
   48.60000      1.2113927E-05
   48.66000      1.3916591E-05
   48.72000      1.5957719E-05
   48.78000      1.8264160E-05
   48.84000      2.0865109E-05
   48.90000      2.3792238E-05
   48.96000      2.7079801E-05
   49.02000      3.0764721E-05
   49.08000      3.4886652E-05
   49.14000      3.9488041E-05
   49.20000      4.4614135E-05
   49.26000      5.0313036E-05
   49.32000      5.6635672E-05
   49.38000      6.3635816E-05
   49.44000      7.1370036E-05
   49.50000      7.9897654E-05
   49.56000      8.9280606E-05
   49.62000      9.9583260E-05
   49.68000      1.1087226E-04
   49.74000      1.2321619E-04
   49.80000      1.3668538E-04
   49.86000      1.5135147E-04
   49.92000      1.6728711E-04
   49.98000      1.8456552E-04
   50.04000      2.0326003E-04
   50.10000      2.2344361E-04
   50.16000      2.4518822E-04
   50.22000      2.6856433E-04
   50.28000      2.9364016E-04
   50.34000      3.2048108E-04
   50.40000      3.4914879E-04
   50.46000      3.7970071E-04
   50.52000      4.1218931E-04
   50.58000      4.4666103E-04
   50.64000      4.8315589E-04
   50.70000      5.2170648E-04
   50.76000      5.6233734E-04
   50.82000      6.0506439E-04
   50.88000      6.4989401E-04
   50.94000      6.9682254E-04
   51.00000      7.4583548E-04
   51.06000      7.9690729E-04
   51.12000      8.5000083E-04
   51.18000      9.0506731E-04
   51.24000      9.6204551E-04
   51.30000      1.0208624E-03
   51.36000      1.0814323E-03
   51.42000      1.1436580E-03
   51.48000      1.2074295E-03
   51.54000      1.2726260E-03
   51.60000      1.3391158E-03
   51.66000      1.4067568E-03
   51.72000      1.4753975E-03
   51.78000      1.5448779E-03
   51.84000      1.6150308E-03
   51.90000      1.6856821E-03
   51.96000      1.7566533E-03
   52.02000      1.8277623E-03
   52.08000      1.8988248E-03
   52.14000      1.9696562E-03
   52.20000      2.0400726E-03
   52.26000      2.1098931E-03
   52.32000      2.1789414E-03
   52.38000      2.2470467E-03
   52.44000      2.3140458E-03
   52.50000      2.3797851E-03
   52.56000      2.4441213E-03
   52.62000      2.5069232E-03
   52.68000      2.5680731E-03
   52.74000      2.6274680E-03
   52.80000      2.6850195E-03
   52.86000      2.7406565E-03
   52.92000      2.7943244E-03
   52.98000      2.8459851E-03
   53.04000      2.8956186E-03
   53.10000      2.9432222E-03
   53.16000      2.9888107E-03
   53.22000      3.0324152E-03
   53.28000      3.0740835E-03
   53.34000      3.1138777E-03
   53.40000      3.1518743E-03
   53.46000      3.1881626E-03
   53.52000      3.2228427E-03
   53.58000      3.2560248E-03
   53.64000      3.2878267E-03
   53.70000      3.3183719E-03
   53.76000      3.3477882E-03
   53.82000      3.3762052E-03
   53.88000      3.4037521E-03
   53.94000      3.4305549E-03
   54.00000      3.4567374E-03
   54.06000      3.4824153E-03
   54.12000      3.5076980E-03
   54.18000      3.5326832E-03
   54.24000      3.5574585E-03
   54.30000      3.5820983E-03
   54.36000      3.6066624E-03
   54.42000      3.6311951E-03
   54.48000      3.6557249E-03
   54.54000      3.6802643E-03
   54.60000      3.7048084E-03
   54.66000      3.7293364E-03
   54.72000      3.7538109E-03
   54.78000      3.7781785E-03
   54.84000      3.8023707E-03
   54.90000      3.8263046E-03
   54.96000      3.8498838E-03
   55.02000      3.8729999E-03
   55.08000      3.8955356E-03
   55.14000      3.9173649E-03
   55.20000      3.9383569E-03
   55.26000      3.9583766E-03
   55.32000      3.9772848E-03
   55.38000      3.9949445E-03
   55.44000      4.0112208E-03
   55.50000      4.0259818E-03
   55.56000      4.0391032E-03