  -2.400000      0.0000000E+00
  -2.340000      0.0000000E+00
  -2.280000      0.0000000E+00
  -2.220000      0.0000000E+00
  -2.160000      0.0000000E+00
  -2.100000      0.0000000E+00
  -2.040000      0.0000000E+00
  -1.980000      0.0000000E+00
  -1.920000      0.0000000E+00
  -1.860000      3.2715874E-30
  -1.800000     -4.7022368E-29
  -1.740000     -8.9144123E-28
  -1.680000     -6.0495347E-27
  -1.620000     -2.3294776E-26
  -1.560000     -5.1308644E-26
  -1.500000     -2.4065578E-26
  -1.440000      2.7642487E-25
  -1.380000      1.1469782E-24
  -1.320000      2.2237090E-24
  -1.260000      5.4230144E-25
  -1.200000     -1.1875862E-23
  -1.140000     -4.6704952E-23
  -1.080000     -1.0554335E-22
  -1.020000     -1.4536660E-22
 -0.9600000     -3.0754307E-23
 -0.9000000      4.8078762E-22
 -0.8400000      1.6250789E-21
 -0.7800000      3.2843412E-21
 -0.7200000      4.4140337E-21
 -0.6600000      2.5422744E-21
 -0.6000000     -5.9545788E-21
 -0.5400000     -2.3871355E-20
 -0.4800000     -4.9006435E-20
 -0.4200000     -6.8866857E-20
 -0.3600000     -5.7781551E-20
 -0.3000000      1.7889314E-20
 -0.2400000      1.8128740E-19
 -0.1800000      4.1381106E-19
 -0.1200000      6.2274541E-19
 -5.9999999E-02  6.3221771E-19
  0.0000000E+00  2.2742416E-19
  5.9999999E-02 -7.3076423E-19
  0.1200000     -2.1409523E-18
  0.1800000     -3.5201076E-18
  0.2400000     -4.0039665E-18
  0.3000000     -2.6006230E-18
  0.3600000      1.2804541E-18
  0.4200000      7.1722498E-18
  0.4800000      1.3105796E-17
  0.5400000      1.5810302E-17
  0.6000000      1.1859019E-17
  0.6600000     -3.5474176E-19
  0.7200000     -1.8536289E-17
  0.7800000     -3.5551458E-17
  0.8400000     -4.0926236E-17
  0.9000000     -2.5327901E-17
  0.9600000      1.2974397E-17
   1.020000      6.2505698E-17
   1.080000      9.7819587E-17
   1.140000      8.6906467E-17
   1.200000      7.0584289E-18
   1.260000     -1.3547649E-16
   1.320000     -2.9163090E-16
   1.380000     -3.7295591E-16
   1.440000     -2.8008140E-16
   1.500000      4.6388381E-17
   1.560000      5.6936162E-16
   1.620000      1.1219177E-15
   1.680000      1.4276766E-15
   1.740000      1.1909169E-15
   1.800000      2.4202789E-16
   1.860000     -1.3130871E-15
   1.920000     -3.0170536E-15
   1.980000     -4.1316967E-15
   2.040000     -3.8829968E-15
   2.100000     -1.8280669E-15
   2.160000      1.7937403E-15
   2.220000      5.9111245E-15
   2.280000      8.8271023E-15
   2.340000      8.8120835E-15
   2.400000      4.9282664E-15
   2.460000     -2.2442409E-15
   2.520000     -1.0375960E-14
   2.580000     -1.5935061E-14
   2.640000     -1.5502177E-14
   2.700000     -7.4566902E-15
   2.760000      6.6719659E-15
   2.820000      2.1949527E-14
   2.880000      3.1336445E-14
   2.940000      2.8382726E-14
   3.000000      1.0443424E-14
   3.060000     -1.8953084E-14
   3.120000     -4.9926670E-14
   3.180000     -6.8933154E-14
   3.240000     -6.3841876E-14
   3.300000     -2.9709033E-14
   3.360000      2.7180144E-14
   3.420000      8.9224296E-14
   3.480000      1.3234018E-13
   3.540000      1.3470814E-13
   3.600000      8.6460448E-14
   3.660000     -3.7092945E-15
   3.720000     -1.0852377E-13
   3.780000     -1.9001158E-13
   3.840000     -2.1341625E-13
   3.900000     -1.6220719E-13
   3.960000     -4.7842332E-14
   4.020000      9.0942072E-14
   4.080000      2.0084630E-13
   4.140000      2.3516318E-13
   4.200000      1.7535118E-13
   4.260000      4.3335493E-14
   4.320000     -1.0271673E-13
   4.380000     -1.9019332E-13
   4.440000     -1.6460099E-13
   4.500000     -1.9880846E-14
   4.560000      1.8797949E-13
   4.620000      3.5365791E-13
   4.680000      3.6114240E-13
   4.740000      1.3633298E-13
   4.800000     -3.0666650E-13
   4.860000     -8.4673392E-13
   4.920000     -1.2776385E-12
   4.980000     -1.3693903E-12
   5.040000     -9.5184689E-13
   5.100000      7.5332612E-15
   5.160000      1.3610555E-12
   5.220000      2.7927200E-12
   5.280000      3.8864975E-12
   5.340000      4.2335167E-12
   5.400000      3.5470513E-12
   5.460000      1.7511216E-12
   5.520000     -9.8286938E-13
   5.580000     -4.2600008E-12
   5.640000     -7.5355182E-12
   5.700000     -1.0213165E-11
   5.760000     -1.1738222E-11
   5.820000     -1.1661692E-11
   5.880000     -9.6671369E-12
   5.940000     -5.5699937E-12
   6.000000      6.8585616E-13
   6.060000      9.0038619E-12
   6.120000      1.9059563E-11
   6.180000      3.0170862E-11
   6.240000      4.1139276E-11
   6.300000      5.0118094E-11
   6.360000      5.4586016E-11
   6.420000      5.1509325E-11
   6.480000      3.7754751E-11
   6.540000      1.0766512E-11
   6.600000     -3.0549199E-11
   6.660000     -8.4867703E-11
   6.720000     -1.4762055E-10
   6.780000     -2.1054096E-10
   6.840000     -2.6180971E-10
   6.900000     -2.8696839E-10
   6.960000     -2.7065852E-10
   7.020000     -1.9910434E-10
   7.080000     -6.3113230E-11
   7.140000      1.3876131E-10
   7.200000      3.9733666E-10
   7.260000      6.9067152E-10
   7.320000      9.8312858E-10
   7.380000      1.2259683E-09
   7.440000      1.3596508E-09
   7.500000      1.3178241E-09
   7.560000      1.0327535E-09
   7.620000      4.4175411E-10
   7.680000     -5.0597448E-10
   7.740000     -1.8427784E-09
   7.800000     -3.5769181E-09
   7.860000     -5.6884701E-09
   7.920000     -8.1272278E-09
   7.980000     -1.0812935E-08
   8.040000     -1.3638036E-08
   8.100000     -1.6472999E-08
   8.160000     -1.9174124E-08
   8.220000     -2.1593578E-08
   8.280000     -2.3591156E-08
   8.340000     -2.5046935E-08
   8.400000     -2.5873724E-08
   8.460000     -2.6027845E-08
   8.520000     -2.5516686E-08
   8.580000     -2.4401498E-08
   8.640000     -2.2794294E-08
   8.700000     -2.0848448E-08
   8.760000     -1.8743428E-08
   8.820000     -1.6665267E-08
   8.880000     -1.4785169E-08
   8.940000     -1.3239352E-08
   9.000000     -1.2113254E-08
   9.060000     -1.1432733E-08
   9.120000     -1.1163802E-08
   9.180000     -1.1220981E-08
   9.240000     -1.1482804E-08
   9.300000     -1.1811748E-08
   9.360000     -1.2075150E-08
   9.420000     -1.2163632E-08
   9.480000     -1.2004351E-08
   9.540000     -1.1567550E-08
   9.600000     -1.0866358E-08
   9.660000     -9.9509974E-09
   9.720000     -8.8993541E-09
   9.780000     -7.8060065E-09
   9.840000     -6.7714385E-09
   9.900000     -5.8924248E-09
   9.960000     -5.2538098E-09
   10.02000     -4.9214299E-09
   10.08000     -4.9358544E-09
   10.14000     -5.3070170E-09
   10.20000     -6.0104286E-09
   10.26000     -6.9862218E-09
   10.32000     -8.1424618E-09
   10.38000     -9.3637196E-09
   10.44000     -1.0524863E-08
   10.50000     -1.1508616E-08
   10.56000     -1.2224033E-08
   10.62000     -1.2622157E-08
   10.68000     -1.2705144E-08
   10.74000     -1.2526221E-08
   10.80000     -1.2179701E-08
   10.86000     -1.1782677E-08
   10.92000     -1.1452087E-08
   10.98000     -1.1282128E-08
   11.04000     -1.1327087E-08
   11.10000     -1.1593360E-08
   11.16000     -1.2042204E-08
   11.22000     -1.2602122E-08
   11.28000     -1.3187383E-08
   11.34000     -1.3717800E-08
   11.40000     -1.4134804E-08
   11.46000     -1.4410065E-08
   11.52000     -1.4545182E-08
   11.58000     -1.4563448E-08
   11.64000     -1.4496951E-08
   11.70000     -1.4373291E-08
   11.76000     -1.4206136E-08
   11.82000     -1.3992350E-08
   11.88000     -1.3716260E-08
   11.94000     -1.3359315E-08
   12.00000     -1.2911693E-08
   12.06000     -1.2381807E-08
   12.12000     -1.1800340E-08
   12.18000     -1.1217145E-08
   12.24000     -1.0691518E-08
   12.30000     -1.0278409E-08
   12.36000     -1.0014383E-08
   12.42000     -9.9072928E-09
   12.48000     -9.9326440E-09
   12.54000     -1.0037854E-08
   12.60000     -1.0153453E-08
   12.66000     -1.0208453E-08
   12.72000     -1.0146001E-08
   12.78000     -9.9353725E-09
   12.84000     -9.5773594E-09
   12.90000     -9.1018650E-09
   12.96000     -8.5585778E-09
   13.02000     -8.0034654E-09
   13.08000     -7.4848279E-09
   13.14000     -7.0327579E-09
   13.20000     -6.6547226E-09
   13.26000     -6.3381842E-09
   13.32000     -6.0590963E-09
   13.38000     -5.7933889E-09
   13.44000     -5.5277298E-09
   13.50000     -5.2661693E-09
   13.56000     -5.0305995E-09
   13.62000     -4.8549427E-09
   13.68000     -4.7749205E-09
   13.74000     -4.8166253E-09
   13.80000     -4.9874851E-09
   13.86000     -5.2724558E-09
   13.92000     -5.6367297E-09
   13.98000     -6.0342922E-09
   14.04000     -6.4199690E-09
   14.10000     -6.7615704E-09
   14.16000     -7.0486723E-09
   14.22000     -7.2954789E-09
   14.28000     -7.5367899E-09
   14.34000     -7.8180218E-09
   14.40000     -8.1818898E-09
   14.46000     -8.6554328E-09
   14.52000     -9.2411625E-09
   14.58000     -9.9151043E-09
   14.64000     -1.0632727E-08
   14.70000     -1.1341420E-08
   14.76000     -1.1996192E-08
   14.82000     -1.2574021E-08
   14.88000     -1.3082450E-08
   14.94000     -1.3559567E-08
   15.00000     -1.4065041E-08
   15.06000     -1.4664665E-08
   15.12000     -1.5412956E-08
   15.18000     -1.6338978E-08
   15.24000     -1.7439461E-08
   15.30000     -1.8680854E-08
   15.36000     -2.0008931E-08
   15.42000     -2.1362137E-08
   15.48000     -2.2683809E-08
   15.54000     -2.3929166E-08
   15.60000     -2.5065162E-08
   15.66000     -2.6064159E-08
   15.72000     -2.6894869E-08
   15.78000     -2.7515066E-08
   15.84000     -2.7870085E-08
   15.90000     -2.7898990E-08
   15.96000     -2.7547488E-08
   16.02000     -2.6784059E-08
   16.08000     -2.5614201E-08
   16.14000     -2.4087786E-08
   16.20000     -2.2296232E-08
   16.26000     -2.0358801E-08
   16.32000     -1.8400508E-08
   16.38000     -1.6526473E-08
   16.44000     -1.4798738E-08
   16.50000     -1.3221228E-08
   16.56000     -1.1736679E-08
   16.62000     -1.0236565E-08
   16.68000     -8.5819547E-09
   16.74000     -6.6307178E-09
   16.80000     -4.2650510E-09
   16.86000     -1.4134087E-09
   16.92000      1.9375697E-09
   16.98000      5.7429430E-09
   17.04000      9.9100630E-09
   17.10000      1.4316275E-08
   17.16000      1.8828752E-08
   17.22000      2.3321469E-08
   17.28000      2.7685841E-08
   17.34000      3.1833739E-08
   17.40000      3.5694075E-08
   17.46000      3.9206071E-08
   17.52000      4.2312919E-08
   17.58000      4.4958977E-08
   17.64000      4.7092104E-08
   17.70000      4.8670568E-08
   17.76000      4.9672170E-08
   17.82000      5.0102333E-08
   17.88000      4.9997809E-08
   17.94000      4.9424067E-08
   18.00000      4.8466017E-08
   18.06000      4.7213785E-08
   18.12000      4.5746628E-08
   18.18000      4.4118817E-08
   18.24000      4.2350941E-08
   18.30000      4.0428876E-08
   18.36000      3.8310901E-08
   18.42000      3.5941511E-08
   18.48000      3.3268893E-08
   18.54000      3.0262036E-08
   18.60000      2.6923646E-08
   18.66000      2.3295831E-08
   18.72000      1.9457339E-08
   18.78000      1.5513121E-08
   18.84000      1.1578747E-08
   18.90000      7.7632691E-09
   18.96000      4.1542729E-09
   19.02000      8.0796664E-10
   19.08000     -2.2542954E-09
   19.14000     -5.0433493E-09
   19.20000     -7.5950108E-09
   19.26000     -9.9606092E-09
   19.32000     -1.2197500E-08
   19.38000     -1.4361213E-08
   19.44000     -1.6500028E-08
   19.50000     -1.8652068E-08
   19.56000     -2.0844416E-08
   19.62000     -2.3093619E-08
   19.68000     -2.5406926E-08
   19.74000     -2.7783715E-08
   19.80000     -3.0216654E-08
   19.86000     -3.2692334E-08
   19.92000     -3.5191213E-08
   19.98000     -3.7686984E-08
   20.04000     -4.0145743E-08
   20.10000     -4.2525603E-08
   20.16000     -4.4777419E-08
   20.22000     -4.6847230E-08
   20.28000     -4.8680654E-08
   20.34000     -5.0228902E-08
   20.40000     -5.1455626E-08
   20.46000     -5.2343317E-08
   20.52000     -5.2897882E-08
   20.58000     -5.3150032E-08
   20.64000     -5.3152789E-08
   20.70000     -5.2974855E-08
   20.76000     -5.2690584E-08
   20.82000     -5.2368055E-08
   20.88000     -5.2057437E-08
   20.94000     -5.1782145E-08
   21.00000     -5.1534993E-08
   21.06000     -5.1280768E-08
   21.12000     -5.0965269E-08
   21.18000     -5.0529160E-08
   21.24000     -4.9923710E-08
   21.30000     -4.9124520E-08
   21.36000     -4.8139686E-08
   21.42000     -4.7010030E-08
   21.48000     -4.5801091E-08
   21.54000     -4.4588731E-08
   21.60000     -4.3442036E-08
   21.66000     -4.2407809E-08
   21.72000     -4.1500630E-08
   21.78000     -4.0700741E-08
   21.84000     -3.9959996E-08
   21.90000     -3.9213987E-08
   21.96000     -3.8396969E-08
   22.02000     -3.7455827E-08
   22.08000     -3.6359779E-08
   22.14000     -3.5104016E-08
   22.20000     -3.3707160E-08
   22.26000     -3.2204110E-08
   22.32000     -3.0636873E-08
   22.38000     -2.9046175E-08
   22.44000     -2.7466076E-08
   22.50000     -2.5922487E-08
   22.56000     -2.4435160E-08
   22.62000     -2.3021647E-08
   22.68000     -2.1701270E-08
   22.74000     -2.0497430E-08
   22.80000     -1.9437362E-08
   22.86000     -1.8549466E-08
   22.92000     -1.7859158E-08
   22.98000     -1.7384439E-08
   23.04000     -1.7132479E-08
   23.10000     -1.7097914E-08
   23.16000     -1.7263158E-08
   23.22000     -1.7600540E-08
   23.28000     -1.8075783E-08
   23.34000     -1.8652273E-08
   23.40000     -1.9295461E-08
   23.46000     -1.9976870E-08
   23.52000     -2.0677179E-08
   23.58000     -2.1388010E-08
   23.64000     -2.2112101E-08
   23.70000     -2.2861794E-08
   23.76000     -2.3655797E-08
   23.82000     -2.4514511E-08
   23.88000     -2.5454414E-08
   23.94000     -2.6482327E-08
   24.00000     -2.7590746E-08
   24.06000     -2.8755483E-08
   24.12000     -2.9936839E-08
   24.18000     -3.1084767E-08
   24.24000     -3.2147689E-08
   24.30000     -3.3083232E-08
   24.36000     -3.3868425E-08
   24.42000     -3.4506314E-08
   24.48000     -3.5026662E-08
   24.54000     -3.5479577E-08
   24.60000     -3.5922977E-08
   24.66000     -3.6406661E-08
   24.72000     -3.6957069E-08
   24.78000     -3.7567116E-08
   24.84000     -3.8194404E-08
   24.90000     -3.8769052E-08
   24.96000     -3.9209706E-08
   25.02000     -3.9443805E-08
   25.08000     -3.9426766E-08
   25.14000     -3.9154518E-08
   25.20000     -3.8665497E-08
   25.26000     -3.8030873E-08
   25.32000     -3.7335187E-08
   25.38000     -3.6652381E-08
   25.44000     -3.6023824E-08
   25.50000     -3.5444700E-08
   25.56000     -3.4862907E-08
   25.62000     -3.4191235E-08
   25.68000     -3.3329766E-08
   25.74000     -3.2192389E-08
   25.80000     -3.0730131E-08
   25.86000     -2.8944784E-08
   25.92000     -2.6889015E-08
   25.98000     -2.4653165E-08
   26.04000     -2.2342649E-08
   26.10000     -2.0052610E-08
   26.16000     -1.7847128E-08
   26.22000     -1.5748766E-08
   26.28000     -1.3741087E-08
   26.34000     -1.1782782E-08
   26.40000     -9.8286117E-09
   26.46000     -7.8504563E-09
   26.52000     -5.8519389E-09
   26.58000     -3.8723100E-09
   26.64000     -1.9787731E-09
   26.70000     -2.5007330E-10
   26.76000      1.2432005E-09
   26.82000      2.4553668E-09
   26.88000      3.3744438E-09
   26.94000      4.0207326E-09
   27.00000      4.4362656E-09
   27.06000      4.6689670E-09
   27.12000      4.7567514E-09
   27.18000      4.7164117E-09
   27.24000      4.5402766E-09
   27.30000      4.2009911E-09
   27.36000      3.6622225E-09
   27.42000      2.8915015E-09
   27.48000      1.8710609E-09
   27.54000      6.0354921E-10
   27.60000     -8.8867047E-10
   27.66000     -2.5698306E-09
   27.72000     -4.4002237E-09
   27.78000     -6.3456147E-09
   27.84000     -8.3836946E-09
   27.90000     -1.0505874E-08
   27.96000     -1.2714310E-08
   28.02000     -1.5015583E-08
   28.08000     -1.7413372E-08
   28.14000     -1.9902526E-08
   28.20000     -2.2466333E-08
   28.26000     -2.5077629E-08
   28.32000     -2.7703177E-08
   28.38000     -3.0309902E-08
   28.44000     -3.2871107E-08
   28.50000     -3.5370899E-08
   28.56000     -3.7805602E-08
   28.62000     -4.0181654E-08
   28.68000     -4.2510294E-08
   28.74000     -4.4800260E-08
   28.80000     -4.7050129E-08
   28.86000     -4.9242434E-08
   28.92000     -5.1341264E-08
   28.98000     -5.3294571E-08
   29.04000     -5.5041124E-08
   29.10000     -5.6520804E-08
   29.16000     -5.7685938E-08
   29.22000     -5.8510679E-08
   29.28000     -5.8995887E-08
   29.34000     -5.9167803E-08
   29.40000     -5.9070626E-08
   29.46000     -5.8754498E-08
   29.52000     -5.8262032E-08
   29.58000     -5.7617054E-08
   29.64000     -5.6818692E-08
   29.70000     -5.5842918E-08
   29.76000     -5.4651370E-08
   29.82000     -5.3205273E-08
   29.88000     -5.1480580E-08
   29.94000     -4.9479702E-08
   30.00000     -4.7236064E-08
   30.06000     -4.4809596E-08
   30.12000     -4.2274074E-08
   30.18000     -3.9699785E-08
   30.24000     -3.7136715E-08
   30.30000     -3.4603470E-08
   30.36000     -3.2085559E-08
   30.42000     -2.9543822E-08
   30.48000     -2.6930605E-08
   30.54000     -2.4208950E-08
   30.60000     -2.1368958E-08
   30.66000     -1.8436511E-08
   30.72000     -1.5471668E-08
   30.78000     -1.2557330E-08
   30.84000     -9.7814388E-09
   30.90000     -7.2178734E-09
   30.96000     -4.9113469E-09
   31.02000     -2.8702898E-09
   31.08000     -1.0692772E-09
   31.14000      5.4017318E-10
   31.20000      2.0138149E-09
   31.26000      3.3983754E-09
   31.32000      4.7189856E-09
   31.38000      5.9731562E-09
   31.44000      7.1321153E-09
   31.50000      8.1482749E-09
   31.56000      8.9662135E-09
   31.62000      9.5340607E-09
   31.68000      9.8125863E-09
   31.74000      9.7804085E-09
   31.80000      9.4350128E-09
   31.86000      8.7903818E-09
   31.92000      7.8726323E-09
   31.98000      6.7150769E-09
   32.04000      5.3537259E-09
   32.10000      3.8236507E-09
   32.16000      2.1561368E-09
   32.22000      3.7637157E-10
   32.28000     -1.4984338E-09
   32.34000     -3.4602738E-09
   32.40000     -5.5104068E-09
   32.46000     -7.6577278E-09
   32.52000     -9.9152890E-09
   32.58000     -1.2295428E-08
   32.64000     -1.4804611E-08
   32.70000     -1.7439476E-08
   32.76000     -2.0185349E-08
   32.82000     -2.3017822E-08
   32.88000     -2.5907053E-08
   32.94000     -2.8823361E-08
   33.00000     -3.1742371E-08
   33.06000     -3.4647904E-08
   33.12000     -3.7531709E-08
   33.18000     -4.0390098E-08
   33.24000     -4.3218691E-08
   33.30000     -4.6007106E-08
   33.36000     -4.8735579E-08
   33.42000     -5.1374833E-08
   33.48000     -5.3889696E-08
   33.54000     -5.6245561E-08
   33.60000     -5.8415999E-08
   33.66000     -6.0389155E-08
   33.72000     -6.2170720E-08
   33.78000     -6.3782167E-08
   33.84000     -6.5254241E-08
   33.90000     -6.6617098E-08
   33.96000     -6.7889964E-08
   34.02000     -6.9073302E-08
   34.08000     -7.0146243E-08
   34.14000     -7.1070396E-08
   34.20000     -7.1799441E-08
   34.26000     -7.2291748E-08
   34.32000     -7.2522496E-08
   34.38000     -7.2491360E-08
   34.44000     -7.2223621E-08
   34.50000     -7.1764077E-08
   34.56000     -7.1165800E-08
   34.62000     -7.0477178E-08
   34.68000     -6.9731335E-08
   34.74000     -6.8941070E-08
   34.80000     -6.8100682E-08
   34.86000     -6.7193731E-08
   34.92000     -6.6203761E-08
   34.98000     -6.5124262E-08
   35.04000     -6.3964521E-08
   35.10000     -6.2749365E-08
   35.16000     -6.1513198E-08
   35.22000     -6.0290368E-08
   35.28000     -5.9105336E-08
   35.34000     -5.7965956E-08
   35.40000     -5.6862056E-08
   35.46000     -5.5769803E-08
   35.52000     -5.4660248E-08
   35.58000     -5.3509311E-08
   35.64000     -5.2305889E-08
   35.70000     -5.1055547E-08
   35.76000     -4.9778645E-08
   35.82000     -4.8503555E-08
   35.88000     -4.7257274E-08
   35.94000     -4.6056510E-08
   36.00000     -4.4902301E-08
   36.06000     -4.3780069E-08
   36.12000     -4.2665324E-08
   36.18000     -4.1533305E-08
   36.24000     -4.0369518E-08
   36.30000     -3.9177614E-08
   36.36000     -3.7981806E-08
   36.42000     -3.6822765E-08
   36.48000     -3.5747927E-08
   36.54000     -3.4799132E-08
   36.60000     -3.4001310E-08
   36.66000     -3.3355814E-08
   36.72000     -3.2840379E-08
   36.78000     -3.2415777E-08
   36.84000     -3.2037200E-08
   36.90000     -3.1666978E-08
   36.96000     -3.1285094E-08
   37.02000     -3.0894615E-08
   37.08000     -3.0520798E-08
   37.14000     -3.0204262E-08
   37.20000     -2.9990201E-08
   37.26000     -2.9916418E-08
   37.32000     -3.0003140E-08
   37.38000     -3.0246980E-08
   37.44000     -3.0620470E-08
   37.50000     -3.1077168E-08
   37.56000     -3.1561303E-08
   37.62000     -3.2019752E-08
   37.68000     -3.2413599E-08
   37.74000     -3.2726646E-08
   37.80000     -3.2968725E-08
   37.86000     -3.3172821E-08
   37.92000     -3.3386666E-08
   37.98000     -3.3660712E-08
   38.04000     -3.4035665E-08
   38.10000     -3.4532800E-08
   38.16000     -3.5149796E-08
   38.22000     -3.5863234E-08
   38.28000     -3.6636951E-08
   38.34000     -3.7433740E-08
   38.40000     -3.8226705E-08
   38.46000     -3.9006849E-08
   38.52000     -3.9784375E-08
   38.58000     -4.0583465E-08
   38.64000     -4.1432212E-08
   38.70000     -4.2351012E-08
   38.76000     -4.3343221E-08
   38.82000     -4.4391108E-08
   38.88000     -4.5458382E-08
   38.94000     -4.6498489E-08
   39.00000     -4.7465942E-08
   39.06000     -4.8327188E-08
   39.12000     -4.9067541E-08
   39.18000     -4.9692233E-08
   39.24000     -5.0221391E-08
   39.30000     -5.0680892E-08
   39.36000     -5.1092094E-08
   39.42000     -5.1463871E-08
   39.48000     -5.1789460E-08
   39.54000     -5.2048893E-08
   39.60000     -5.2216027E-08
   39.66000     -5.2267524E-08
   39.72000     -5.2190686E-08
   39.78000     -5.1987556E-08
   39.84000     -5.1674061E-08
   39.90000     -5.1274942E-08
   39.96000     -5.0816652E-08
   40.02000     -5.0321177E-08
   40.08000     -4.9803077E-08
   40.14000     -4.9270973E-08
   40.20000     -4.8732506E-08
   40.26000     -4.8200548E-08
   40.32000     -4.7697618E-08
   40.38000     -4.7256052E-08
   40.44000     -4.6913005E-08
   40.50000     -4.6701349E-08
   40.56000     -4.6639336E-08
   40.62000     -4.6722786E-08
   40.68000     -4.6923081E-08
   40.74000     -4.7192760E-08
   40.80000     -4.7477961E-08
   40.86000     -4.7734570E-08
   40.92000     -4.7943420E-08
   40.98000     -4.8119517E-08
   41.04000     -4.8311794E-08
   41.10000     -4.8592614E-08
   41.16000     -4.9039464E-08
   41.22000     -4.9713840E-08
   41.28000     -5.0643692E-08
   41.34000     -5.1814666E-08
   41.40000     -5.3172990E-08
   41.46000     -5.4639045E-08
   41.52000     -5.6127508E-08
   41.58000     -5.7567657E-08
   41.64000     -5.8917884E-08
   41.70000     -6.0170279E-08
   41.76000     -6.1344601E-08
   41.82000     -6.2474363E-08
   41.88000     -6.3590065E-08
   41.94000     -6.4705191E-08
   42.00000     -6.5809282E-08
   42.06000     -6.6869802E-08
   42.12000     -6.7841377E-08
   42.18000     -6.8678759E-08
   42.24000     -6.9348751E-08
   42.30000     -6.9837121E-08
   42.36000     -7.0148211E-08
   42.42000     -7.0297894E-08
   42.48000     -7.0302598E-08
   42.54000     -7.0168454E-08
   42.60000     -6.9884535E-08
   42.66000     -6.9422718E-08
   42.72000     -6.8744257E-08
   42.78000     -6.7811101E-08
   42.84000     -6.6598417E-08
   42.90000     -6.5104210E-08
   42.96000     -6.3353049E-08
   43.02000     -6.1392512E-08
   43.08000     -5.9283085E-08
   43.14000     -5.7084225E-08
   43.20000     -5.4840285E-08
   43.26000     -5.2570279E-08
   43.32000     -5.0264564E-08
   43.38000     -4.7889689E-08
   43.44000     -4.5400530E-08
   43.50000     -4.2756650E-08
   43.56000     -3.9938470E-08
   43.62000     -3.6958582E-08
   43.68000     -3.3864843E-08
   43.74000     -3.0734089E-08
   43.80000     -2.7658190E-08
   43.86000     -2.4726488E-08
   43.92000     -2.2009679E-08
   43.98000     -1.9549750E-08
   44.04000     -1.7358444E-08
   44.10000     -1.5424106E-08
   44.16000     -1.3724119E-08
   44.22000     -1.2238556E-08
   44.28000     -1.0960630E-08
   44.34000     -9.9007833E-09
   44.40000     -9.0835348E-09
   44.46000     -8.5385992E-09
   44.52000     -8.2896774E-09
   44.58000     -8.3449656E-09
   44.64000     -8.6927958E-09
   44.70000     -9.3039363E-09
   44.76000     -1.0139750E-08
   44.82000     -1.1163219E-08
   44.88000     -1.2348719E-08
   44.94000     -1.3686783E-08
   45.00000     -1.5181760E-08
   45.06000     -1.6842906E-08
   45.12000     -1.8671905E-08
   45.18000     -2.0651367E-08
   45.24000     -2.2738845E-08
   45.30000     -2.4869294E-08
   45.36000     -2.6966124E-08
   45.42000     -2.8958043E-08
   45.48000     -3.0796659E-08
   45.54000     -3.2469138E-08
   45.60000     -3.4001399E-08
   45.66000     -3.5450171E-08
   45.72000     -3.6885790E-08
   45.78000     -3.8370764E-08
   45.84000     -3.9940765E-08
   45.90000     -4.1594173E-08
   45.96000     -4.3293699E-08
   46.02000     -4.4979675E-08
   46.08000     -4.6591065E-08
   46.14000     -4.8087735E-08
   46.20000     -4.9467356E-08
   46.26000     -5.0772385E-08
   46.32000     -5.2085518E-08
   46.38000     -5.3515837E-08
   46.44000     -5.5180269E-08
   46.50000     -5.7186124E-08
   46.56000     -5.9619907E-08
   46.62000     -6.2545276E-08
   46.68000     -6.6010486E-08
   46.74000     -7.0062683E-08
   46.80000     -7.4764657E-08
   46.86000     -8.0209311E-08
   46.92000     -8.6528175E-08
   46.98000     -9.3892588E-08
   47.04000     -1.0250876E-07
   47.10000     -1.1261010E-07
   47.16000     -1.2445113E-07
   47.22000     -1.3830672E-07
   47.28000     -1.5447866E-07
   47.34000     -1.7330960E-07
   47.40000     -1.9520196E-07
   47.46000     -2.2063806E-07
   47.52000     -2.5019781E-07
   47.58000     -2.8457097E-07
   47.64000     -3.2456308E-07
   47.70000     -3.7109695E-07
   47.76000     -4.2521364E-07
   47.82000     -4.8807703E-07
   47.88000     -5.6098662E-07
   47.94000     -6.4539967E-07
   48.00000     -7.4296037E-07
   48.06000     -8.5553336E-07
   48.12000     -9.8523594E-07
   48.18000     -1.1344655E-06
   48.24000     -1.3059215E-06
   48.30000     -1.5026224E-06
   48.36000     -1.7279207E-06
   48.42000     -1.9855195E-06
   48.48000     -2.2794927E-06
   48.54000     -2.6143111E-06
   48.60000     -2.9948719E-06
   48.66000     -3.4265340E-06
   48.72000     -3.9151537E-06
   48.78000     -4.4671201E-06
   48.84000     -5.0893850E-06
   48.90000     -5.7894908E-06
   48.96000     -6.5755903E-06
   49.02000     -7.4564628E-06
   49.08000     -8.4415315E-06
   49.14000     -9.5408777E-06
   49.20000     -1.0765254E-05
   49.26000     -1.2126095E-05
   49.32000     -1.3635527E-05
   49.38000     -1.5306359E-05
   49.44000     -1.7152079E-05
   49.50000     -1.9186815E-05
   49.56000     -2.1425309E-05
   49.62000     -2.3882871E-05
   49.68000     -2.6575322E-05
   49.74000     -2.9518940E-05
   49.80000     -3.2730386E-05
   49.86000     -3.6226644E-05
   49.92000     -4.0024934E-05
   49.98000     -4.4142638E-05
   50.04000     -4.8597150E-05
   50.10000     -5.3405802E-05
   50.16000     -5.8585687E-05
   50.22000     -6.4153523E-05
   50.28000     -7.0125483E-05
   50.34000     -7.6517041E-05
   50.40000     -8.3342784E-05
   50.46000     -9.0616239E-05
   50.52000     -9.8349730E-05
   50.58000     -1.0655419E-04
   50.64000     -1.1523897E-04
   50.70000     -1.2441166E-04
   50.76000     -1.3407794E-04
   50.82000     -1.4424142E-04
   50.88000     -1.5490333E-04
   50.94000     -1.6606260E-04
   51.00000     -1.7771554E-04
   51.06000     -1.8985574E-04
   51.12000     -2.0247407E-04
   51.18000     -2.1555850E-04
   51.24000     -2.2909403E-04
   51.30000     -2.4306278E-04
   51.36000     -2.5744381E-04
   51.42000     -2.7221336E-04
   51.48000     -2.8734468E-04
   51.54000     -3.0280821E-04
   51.60000     -3.1857178E-04
   51.66000     -3.3460066E-04
   51.72000     -3.5085776E-04
   51.78000     -3.6730393E-04
   51.84000     -3.8389809E-04
   51.90000     -4.0059761E-04
   51.96000     -4.1735853E-04
   52.02000     -4.3413587E-04
   52.08000     -4.5088411E-04
   52.14000     -4.6755752E-04
   52.20000     -4.8411044E-04
   52.26000     -5.0049787E-04
   52.32000     -5.1667576E-04
   52.38000     -5.3260126E-04
   52.44000     -5.4823339E-04
   52.50000     -5.6353339E-04
   52.56000     -5.7846471E-04
   52.62000     -5.9299404E-04
   52.68000     -6.0709106E-04
   52.74000     -6.2072894E-04
   52.80000     -6.3388469E-04
   52.86000     -6.4653915E-04
   52.92000     -6.5867760E-04
   52.98000     -6.7028939E-04
   53.04000     -6.8136834E-04
   53.10000     -6.9191272E-04
   53.16000     -7.0192508E-04
   53.22000     -7.1141240E-04
   53.28000     -7.2038587E-04
   53.34000     -7.2886061E-04
   53.40000     -7.3685544E-04
   53.46000     -7.4439286E-04
   53.52000     -7.5149833E-04
   53.58000     -7.5820001E-04
   53.64000     -7.6452835E-04
   53.70000     -7.7051582E-04
   53.76000     -7.7619625E-04
   53.82000     -7.8160432E-04
   53.88000     -7.8677537E-04
   53.94000     -7.9174439E-04
   54.00000     -7.9654605E-04
   54.06000     -8.0121378E-04
   54.12000     -8.0577936E-04
   54.18000     -8.1027241E-04
   54.24000     -8.1472023E-04
   54.30000     -8.1914698E-04
   54.36000     -8.2357368E-04
   54.42000     -8.2801766E-04
   54.48000     -8.3249260E-04
   54.54000     -8.3700777E-04
   54.60000     -8.4156869E-04
   54.66000     -8.4617635E-04
   54.72000     -8.5082767E-04
   54.78000     -8.5551536E-04
   54.84000     -8.6022809E-04
   54.90000     -8.6495042E-04
   54.96000     -8.6966332E-04
   55.02000     -8.7434449E-04
   55.08000     -8.7896839E-04
   55.14000     -8.8350708E-04
   55.20000     -8.8793063E-04
   55.26000     -8.9220732E-04
   55.32000     -8.9630438E-04
   55.38000     -9.0018858E-04
   55.44000     -9.0382644E-04
   55.50000     -9.0718491E-04
   55.56000     -9.1023184E-04