  -2.400000      0.0000000E+00
  -2.340000      0.0000000E+00
  -2.280000      0.0000000E+00
  -2.220000      0.0000000E+00
  -2.160000      0.0000000E+00
  -2.100000      0.0000000E+00
  -2.040000      2.9249744E-23
  -1.980000      6.8569517E-24
  -1.920000     -1.3601591E-21
  -1.860000     -8.9244751E-21
  -1.800000     -3.0981536E-20
  -1.740000     -6.7185134E-20
  -1.680000     -7.7534844E-20
  -1.620000      5.1307748E-20
  -1.560000      4.8706555E-19
  -1.500000      1.3080030E-18
  -1.440000      2.2229546E-18
  -1.380000      2.3012975E-18
  -1.320000      3.3256422E-20
  -1.260000     -5.9421731E-18
  -1.200000     -1.5407073E-17
  -1.140000     -2.5000715E-17
  -1.080000     -2.7690496E-17
  -1.020000     -1.4545824E-17
 -0.9600000      2.0713681E-17
 -0.9000000      7.5563207E-17
 -0.8400000      1.3388727E-16
 -0.7800000      1.6641134E-16
 -0.7200000      1.3910330E-16
 -0.6600000      2.8936995E-17
 -0.6000000     -1.5829013E-16
 -0.5400000     -3.7722657E-16
 -0.4800000     -5.4860646E-16
 -0.4200000     -5.8497789E-16
 -0.3600000     -4.2963600E-16
 -0.3000000     -9.0776064E-17
 -0.2400000      3.5120082E-16
 -0.1800000      7.7578853E-16
 -0.1200000      1.0834713E-15
 -5.9999999E-02  1.2496718E-15
  0.0000000E+00  1.3257255E-15
  5.9999999E-02  1.3635040E-15
  0.1200000      1.2936923E-15
  0.1800000      8.4521071E-16
  0.2400000     -3.8934711E-16
  0.3000000     -2.6951115E-15
  0.3600000     -5.8626619E-15
  0.4200000     -8.9152064E-15
  0.4800000     -1.0193223E-14
  0.5400000     -7.9377126E-15
  0.6000000     -1.2470696E-15
  0.6600000      9.0122527E-15
  0.7200000      1.9899982E-14
  0.7800000      2.7099953E-14
  0.8400000      2.6567385E-14
  0.9000000      1.6518244E-14
  0.9600000     -1.1939086E-15
   1.020000     -2.1159462E-14
   1.080000     -3.6201358E-14
   1.140000     -4.0283535E-14
   1.200000     -3.1300290E-14
   1.260000     -1.2414202E-14
   1.320000      8.8235634E-15
   1.380000      2.3360610E-14
   1.440000      2.4419440E-14
   1.500000      1.0640088E-14
   1.560000     -1.2670934E-14
   1.620000     -3.4707358E-14
   1.680000     -4.2445339E-14
   1.740000     -2.5162848E-14
   1.800000      2.0938980E-14
   1.860000      8.9228849E-14
   1.920000      1.6152502E-13
   1.980000      2.1057670E-13
   2.040000      2.0683471E-13
   2.100000      1.2886368E-13
   2.160000     -2.5285312E-14
   2.220000     -2.3031888E-13
   2.280000     -4.3455655E-13
   2.340000     -5.7223567E-13
   2.400000     -5.8542391E-13
   2.460000     -4.4817825E-13
   2.520000     -1.8211536E-13
   2.580000      1.4617913E-13
   2.640000      4.4868791E-13
   2.700000      6.5304408E-13
   2.760000      7.3685383E-13
   2.820000      7.4050108E-13
   2.880000      7.4659240E-13
   2.940000      8.2910594E-13
   3.000000      9.9229023E-13
   3.060000      1.1302178E-12
   3.120000      1.0358238E-12
   3.180000      4.7136530E-13
   3.240000     -7.1463831E-13
   3.300000     -2.4654747E-12
   3.360000     -4.4448421E-12
   3.420000     -6.0640499E-12
   3.480000     -6.6253916E-12
   3.540000     -5.5538100E-12
   3.600000     -2.6446777E-12
   3.660000      1.7682739E-12
   3.720000      6.8093083E-12
   3.780000      1.1255769E-11
   3.840000      1.3891237E-11
   3.900000      1.3903433E-11
   3.960000      1.1175871E-11
   4.020000      6.3436964E-12
   4.080000      5.6531255E-13
   4.140000     -4.9237927E-12
   4.200000     -9.3080032E-12
   4.260000     -1.2533525E-11
   4.320000     -1.5339483E-11
   4.380000     -1.8947921E-11
   4.440000     -2.4533492E-11
   4.500000     -3.2701883E-11
   4.560000     -4.3216371E-11
   4.620000     -5.5111520E-11
   4.680000     -6.7159917E-11
   4.740000     -7.8488174E-11
   4.800000     -8.9051148E-11
   4.860000     -9.9716659E-11
   4.920000     -1.1187300E-10
   4.980000     -1.2668255E-10
   5.040000     -1.4427483E-10
   5.100000     -1.6321888E-10
   5.160000     -1.8051874E-10
   5.220000     -1.9216831E-10
   5.280000     -1.9407989E-10
   5.340000     -1.8305610E-10
   5.400000     -1.5747526E-10
   5.460000     -1.1750202E-10
   5.520000     -6.4853116E-11
   5.580000     -2.3450256E-12
   5.640000      6.6460622E-11
   5.700000      1.3725303E-10
   5.760000      2.0452352E-10
   5.820000      2.6080310E-10
   5.880000      2.9589378E-10
   5.940000      2.9646521E-10
   6.000000      2.4631758E-10
   6.060000      1.2742842E-10
   6.120000     -7.8335637E-11
   6.180000     -3.8716994E-10
   6.240000     -8.1138285E-10
   6.300000     -1.3579359E-09
   6.360000     -2.0276834E-09
   6.420000     -2.8152518E-09
   6.480000     -3.7092920E-09
   6.540000     -4.6927853E-09
   6.600000     -5.7432152E-09
   6.660000     -6.8327304E-09
   6.720000     -7.9287092E-09
   6.780000     -8.9952135E-09
   6.840000     -9.9956310E-09
   6.900000     -1.0896331E-08
   6.960000     -1.1670605E-08
   7.020000     -1.2301835E-08
   7.080000     -1.2784862E-08
   7.140000     -1.3125002E-08
   7.200000     -1.3334912E-08
   7.260000     -1.3430240E-08
   7.320000     -1.3425433E-08
   7.380000     -1.3331027E-08
   7.440000     -1.3153218E-08
   7.500000     -1.2895736E-08
   7.560000     -1.2563180E-08
   7.620000     -1.2164509E-08
   7.680000     -1.1715268E-08
   7.740000     -1.1237613E-08
   7.800000     -1.0757969E-08
   7.860000     -1.0303001E-08
   7.920000     -9.8951460E-09
   7.980000     -9.5490931E-09
   8.040000     -9.2701846E-09
   8.100000     -9.0549950E-09
   8.160000     -8.8936494E-09
   8.220000     -8.7729104E-09
   8.280000     -8.6790690E-09
   8.340000     -8.5999377E-09
   8.400000     -8.5257739E-09
   8.460000     -8.4493639E-09
   8.520000     -8.3657534E-09
   8.580000     -8.2720453E-09
   8.640000     -8.1675164E-09
   8.700000     -8.0540001E-09
   8.760000     -7.9362996E-09
   8.820000     -7.8223401E-09
   8.880000     -7.7227780E-09
   8.940000     -7.6500708E-09
   9.000000     -7.6171123E-09
   9.060000     -7.6357853E-09
   9.120000     -7.7157143E-09
   9.180000     -7.8634201E-09
   9.240000     -8.0818259E-09
   9.300000     -8.3699536E-09
   9.360000     -8.7226404E-09
   9.420000     -9.1303454E-09
   9.480000     -9.5793631E-09
   9.540000     -1.0052934E-08
   9.600000     -1.0533570E-08
   9.660000     -1.1006480E-08
   9.720000     -1.1463369E-08
   9.780000     -1.1905379E-08
   9.840000     -1.2343898E-08
   9.900000     -1.2798385E-08
   9.960000     -1.3291237E-08
   10.02000     -1.3840771E-08
   10.08000     -1.4454191E-08
   10.14000     -1.5122707E-08
   10.20000     -1.5820527E-08
   10.26000     -1.6508386E-08
   10.32000     -1.7140950E-08
   10.38000     -1.7676124E-08
   10.44000     -1.8083597E-08
   10.50000     -1.8350068E-08
   10.56000     -1.8479474E-08
   10.62000     -1.8488111E-08
   10.68000     -1.8395996E-08
   10.74000     -1.8217158E-08
   10.80000     -1.7951825E-08
   10.86000     -1.7583064E-08
   10.92000     -1.7079143E-08
   10.98000     -1.6401145E-08
   11.04000     -1.5513777E-08
   11.10000     -1.4396211E-08
   11.16000     -1.3049618E-08
   11.22000     -1.1499004E-08
   11.28000     -9.7885584E-09
   11.34000     -7.9718205E-09
   11.40000     -6.0995502E-09
   11.46000     -4.2089869E-09
   11.52000     -2.3177034E-09
   11.58000     -4.2384624E-10
   11.64000      1.4874392E-09
   11.70000      3.4334466E-09
   11.76000      5.4224278E-09
   11.82000      7.4446058E-09
   11.88000      9.4683354E-09
   11.94000      1.1442576E-08
   12.00000      1.3305066E-08
   12.06000      1.4993999E-08
   12.12000      1.6459969E-08
   12.18000      1.7674907E-08
   12.24000      1.8635525E-08
   12.30000      1.9360497E-08
   12.36000      1.9882441E-08
   12.42000      2.0237282E-08
   12.48000      2.0454273E-08
   12.54000      2.0549557E-08
   12.60000      2.0524809E-08
   12.66000      2.0370878E-08
   12.72000      2.0074737E-08
   12.78000      1.9627242E-08
   12.84000      1.9029207E-08
   12.90000      1.8293976E-08
   12.96000      1.7446112E-08
   13.02000      1.6516861E-08
   13.08000      1.5538086E-08
   13.14000      1.4536572E-08
   13.20000      1.3530141E-08
   13.26000      1.2526291E-08
   13.32000      1.1523164E-08
   13.38000      1.0512057E-08
   13.44000      9.4805959E-09
   13.50000      8.4159089E-09
   13.56000      7.3074689E-09
   13.62000      6.1494680E-09
   13.68000      4.9425242E-09
   13.74000      3.6943446E-09
   13.80000      2.4189541E-09
   13.86000      1.1344026E-09
   13.92000     -1.4052358E-10
   13.98000     -1.3894825E-09
   14.04000     -2.6003473E-09
   14.10000     -3.7647347E-09
   14.16000     -4.8754747E-09
   14.22000     -5.9232974E-09
   14.28000     -6.8946489E-09
   14.34000     -7.7722371E-09
   14.40000     -8.5387777E-09
   14.46000     -9.1828403E-09
   14.52000     -9.7045412E-09
   14.58000     -1.0118590E-08
   14.64000     -1.0453009E-08
   14.70000     -1.0743477E-08
   14.76000     -1.1024726E-08
   14.82000     -1.1321419E-08
   14.88000     -1.1640976E-08
   14.94000     -1.1970141E-08
   15.00000     -1.2276185E-08
   15.06000     -1.2512640E-08
   15.12000     -1.2628651E-08
   15.18000     -1.2580200E-08
   15.24000     -1.2340736E-08
   15.30000     -1.1908345E-08
   15.36000     -1.1307018E-08
   15.42000     -1.0581069E-08
   15.48000     -9.7839390E-09
   15.54000     -8.9647489E-09
   15.60000     -8.1569889E-09
   15.66000     -7.3729249E-09
   15.72000     -6.6051329E-09
   15.78000     -5.8338712E-09
   15.84000     -5.0371840E-09
   15.90000     -4.2002775E-09
   15.96000     -3.3217671E-09
   16.02000     -2.4159714E-09
   16.08000     -1.5116340E-09
   16.14000     -6.4789735E-10
   16.20000      1.3167416E-10
   16.26000      7.8623075E-10
   16.32000      1.2847376E-09
   16.38000      1.6113676E-09
   16.44000      1.7674801E-09
   16.50000      1.7693359E-09
   16.56000      1.6422037E-09
   16.62000      1.4129492E-09
   16.68000      1.1037213E-09
   16.74000      7.2866257E-10
   16.80000      2.9410194E-10
   16.86000     -1.9873252E-10
   16.92000     -7.5009321E-10
   16.98000     -1.3585660E-09
   17.04000     -2.0190944E-09
   17.10000     -2.7223162E-09
   17.16000     -3.4551677E-09
   17.22000     -4.2027208E-09
   17.28000     -4.9510711E-09
   17.34000     -5.6906586E-09
   17.40000     -6.4189578E-09
   17.46000     -7.1414425E-09
   17.52000     -7.8703284E-09
   17.58000     -8.6214671E-09
   17.64000     -9.4104111E-09
   17.70000     -1.0248558E-08
   17.76000     -1.1139704E-08
   17.82000     -1.2076836E-08
   17.88000     -1.3039158E-08
   17.94000     -1.3990293E-08
   18.00000     -1.4879467E-08
   18.06000     -1.5647277E-08
   18.12000     -1.6236148E-08
   18.18000     -1.6603035E-08
   18.24000     -1.6730166E-08
   18.30000     -1.6629516E-08
   18.36000     -1.6339008E-08
   18.42000     -1.5911748E-08
   18.48000     -1.5402472E-08
   18.54000     -1.4856102E-08
   18.60000     -1.4301806E-08
   18.66000     -1.3753231E-08
   18.72000     -1.3213127E-08
   18.78000     -1.2679697E-08
   18.84000     -1.2152502E-08
   18.90000     -1.1636823E-08
   18.96000     -1.1146129E-08
   19.02000     -1.0702255E-08
   19.08000     -1.0332715E-08
   19.14000     -1.0064963E-08
   19.20000     -9.9186090E-09
   19.26000     -9.8981214E-09
   19.32000     -9.9892006E-09
   19.38000     -1.0161043E-08
   19.44000     -1.0374312E-08
   19.50000     -1.0591957E-08
   19.56000     -1.0788528E-08
   19.62000     -1.0954296E-08
   19.68000     -1.1092814E-08
   19.74000     -1.1213505E-08
   19.80000     -1.1322754E-08
   19.86000     -1.1417212E-08
   19.92000     -1.1481667E-08
   19.98000     -1.1491910E-08
   20.04000     -1.1421316E-08
   20.10000     -1.1249015E-08
   20.16000     -1.0967249E-08
   20.22000     -1.0585774E-08
   20.28000     -1.0131723E-08
   20.34000     -9.6443618E-09
   20.40000     -9.1656842E-09
   20.46000     -8.7294687E-09
   20.52000     -8.3524156E-09
   20.58000     -8.0306757E-09
   20.64000     -7.7432247E-09
   20.70000     -7.4608248E-09
   20.76000     -7.1570705E-09
   20.82000     -6.8173249E-09
   20.88000     -6.4424857E-09
   20.94000     -6.0469283E-09
   21.00000     -5.6522627E-09
   21.06000     -5.2797384E-09
   21.12000     -4.9439404E-09
   21.18000     -4.6492992E-09
   21.24000     -4.3897632E-09
   21.30000     -4.1512278E-09
   21.36000     -3.9160142E-09
   21.42000     -3.6684888E-09
   21.48000     -3.4005181E-09
   21.54000     -3.1150746E-09
   21.60000     -2.8263780E-09
   21.66000     -2.5558466E-09
   21.72000     -2.3247195E-09
   21.78000     -2.1457385E-09
   21.84000     -2.0169399E-09
   21.90000     -1.9198994E-09
   21.96000     -1.8229775E-09
   22.02000     -1.6881132E-09
   22.08000     -1.4784848E-09
   22.14000     -1.1644391E-09
   22.20000     -7.2627954E-10
   22.26000     -1.5409581E-10
   22.32000      5.5399557E-10
   22.38000      1.3935206E-09
   22.44000      2.3540541E-09
   22.50000      3.4181140E-09
   22.56000      4.5591659E-09
   22.62000      5.7398419E-09
   22.68000      6.9114989E-09
   22.74000      8.0158928E-09
   22.80000      8.9891463E-09
   22.86000      9.7675752E-09
   22.92000      1.0294397E-08
   22.98000      1.0526142E-08
   23.04000      1.0437679E-08
   23.10000      1.0025204E-08
   23.16000      9.3069703E-09
   23.22000      8.3219396E-09
   23.28000      7.1265487E-09
   23.34000      5.7897638E-09
   23.40000      4.3865076E-09
   23.46000      2.9898288E-09
   23.52000      1.6626268E-09
   23.58000      4.5026466E-10
   23.64000     -6.2443917E-10
   23.70000     -1.5627059E-09
   23.76000     -2.3874496E-09
   23.82000     -3.1376886E-09
   23.88000     -3.8609769E-09
   23.94000     -4.6053104E-09
   24.00000     -5.4117670E-09
   24.06000     -6.3087615E-09
   24.12000     -7.3085147E-09
   24.18000     -8.4061060E-09
   24.24000     -9.5812203E-09
   24.30000     -1.0802299E-08
   24.36000     -1.2032283E-08
   24.42000     -1.3234701E-08
   24.48000     -1.4378919E-08
   24.54000     -1.5443742E-08
   24.60000     -1.6419275E-08
   24.66000     -1.7307450E-08
   24.72000     -1.8121726E-08
   24.78000     -1.8886100E-08
   24.84000     -1.9633168E-08
   24.90000     -2.0400879E-08
   24.96000     -2.1227983E-08
   25.02000     -2.2148807E-08
   25.08000     -2.3188468E-08
   25.14000     -2.4359577E-08
   25.20000     -2.5661009E-08
   25.26000     -2.7078487E-08
   25.32000     -2.8586436E-08
   25.38000     -3.0150488E-08
   25.44000     -3.1730401E-08
   25.50000     -3.3283531E-08
   25.56000     -3.4768963E-08
   25.62000     -3.6152024E-08
   25.68000     -3.7408480E-08
   25.74000     -3.8527407E-08
   25.80000     -3.9511939E-08
   25.86000     -4.0377444E-08
   25.92000     -4.1147434E-08
   25.98000     -4.1847773E-08
   26.04000     -4.2500375E-08
   26.10000     -4.3117748E-08
   26.16000     -4.3699742E-08
   26.22000     -4.4233680E-08
   26.28000     -4.4697988E-08
   26.34000     -4.5068411E-08
   26.40000     -4.5324750E-08
   26.46000     -4.5455653E-08
   26.52000     -4.5459846E-08
   26.58000     -4.5343548E-08
   26.64000     -4.5115620E-08
   26.70000     -4.4782801E-08
   26.76000     -4.4347207E-08
   26.82000     -4.3807006E-08
   26.88000     -4.3159755E-08
   26.94000     -4.2406789E-08
   27.00000     -4.1556966E-08
   27.06000     -4.0628361E-08
   27.12000     -3.9647347E-08
   27.18000     -3.8645027E-08
   27.24000     -3.7651670E-08
   27.30000     -3.6690277E-08
   27.36000     -3.5771194E-08
   27.42000     -3.4889755E-08
   27.48000     -3.4028552E-08
   27.54000     -3.3164337E-08
   27.60000     -3.2277626E-08
   27.66000     -3.1361530E-08
   27.72000     -3.0426168E-08
   27.78000     -2.9496661E-08
   27.84000     -2.8605248E-08
   27.90000     -2.7780599E-08
   27.96000     -2.7038517E-08
   28.02000     -2.6377570E-08
   28.08000     -2.5780992E-08
   28.14000     -2.5223908E-08
   28.20000     -2.4683031E-08
   28.26000     -2.4145448E-08
   28.32000     -2.3613751E-08
   28.38000     -2.3105946E-08
   28.44000     -2.2650280E-08
   28.50000     -2.2276536E-08
   28.56000     -2.2006521E-08
   28.62000     -2.1846864E-08
   28.68000     -2.1786676E-08
   28.74000     -2.1801053E-08
   28.80000     -2.1859279E-08
   28.86000     -2.1934769E-08
   28.92000     -2.2013213E-08
   28.98000     -2.2096213E-08
   29.04000     -2.2199604E-08
   29.10000     -2.2347729E-08
   29.16000     -2.2565931E-08
   29.22000     -2.2873552E-08
   29.28000     -2.3278734E-08
   29.34000     -2.3775510E-08
   29.40000     -2.4343231E-08
   29.46000     -2.4948635E-08
   29.52000     -2.5550746E-08
   29.58000     -2.6108395E-08
   29.64000     -2.6588790E-08
   29.70000     -2.6974538E-08
   29.76000     -2.7266434E-08
   29.82000     -2.7480596E-08
   29.88000     -2.7640905E-08
   29.94000     -2.7769854E-08
   30.00000     -2.7881491E-08
   30.06000     -2.7979139E-08
   30.12000     -2.8058066E-08
   30.18000     -2.8110994E-08
   30.24000     -2.8133352E-08
   30.30000     -2.8125765E-08
   30.36000     -2.8093071E-08
   30.42000     -2.8040931E-08
   30.48000     -2.7971959E-08
   30.54000     -2.7882995E-08
   30.60000     -2.7764282E-08
   30.66000     -2.7600411E-08
   30.72000     -2.7372574E-08
   30.78000     -2.7061581E-08
   30.84000     -2.6651312E-08
   30.90000     -2.6131973E-08
   30.96000     -2.5502302E-08
   31.02000     -2.4769848E-08
   31.08000     -2.3948928E-08
   31.14000     -2.3056883E-08
   31.20000     -2.2110141E-08
   31.26000     -2.1121759E-08
   31.32000     -2.0101314E-08
   31.38000     -1.9056635E-08
   31.44000     -1.7995747E-08
   31.50000     -1.6927229E-08
   31.56000     -1.5858165E-08
   31.62000     -1.4790495E-08
   31.68000     -1.3717857E-08
   31.74000     -1.2625119E-08
   31.80000     -1.1491805E-08
   31.86000     -1.0298804E-08
   31.92000     -9.0361896E-09
   31.98000     -7.7093212E-09
   32.04000     -6.3408678E-09
   32.10000     -4.9676969E-09
   32.16000     -3.6331964E-09
   32.22000     -2.3770044E-09
   32.28000     -1.2249586E-09
   32.34000     -1.8221767E-10
   32.40000      7.6816914E-10
   32.46000      1.6603925E-09
   32.52000      2.5357783E-09
   32.58000      3.4303436E-09
   32.64000      4.3639643E-09
   32.70000      5.3348317E-09
   32.76000      6.3211942E-09
   32.82000      7.2899220E-09
   32.88000      8.2090388E-09
   32.94000      9.0600478E-09
   33.00000      9.8460031E-09
   33.06000      1.0592704E-08
   33.12000      1.1342558E-08
   33.18000      1.2142862E-08
   33.24000      1.3031869E-08
   33.30000      1.4026753E-08
   33.36000      1.5117150E-08
   33.42000      1.6266402E-08
   33.48000      1.7420250E-08
   33.54000      1.8520126E-08
   33.60000      1.9516408E-08
   33.66000      2.0376882E-08
   33.72000      2.1087409E-08
   33.78000      2.1644782E-08
   33.84000      2.2044869E-08
   33.90000      2.2270898E-08
   33.96000      2.2286452E-08
   34.02000      2.2035849E-08
   34.08000      2.1451854E-08
   34.14000      2.0468358E-08
   34.20000      1.9034538E-08
   34.26000      1.7126846E-08
   34.32000      1.4755885E-08
   34.38000      1.1966330E-08
   34.44000      8.8293550E-09
   34.50000      5.4288538E-09
   34.56000      1.8445381E-09
   34.62000     -1.8634683E-09
   34.68000     -5.6636931E-09
   34.74000     -9.5526778E-09
   34.80000     -1.3544289E-08
   34.86000     -1.7652168E-08
   34.92000     -2.1871086E-08
   34.98000     -2.6163553E-08
   35.04000     -3.0456281E-08
   35.10000     -3.4647847E-08
   35.16000     -3.8625341E-08
   35.22000     -4.2285087E-08
   35.28000     -4.5551655E-08
   35.34000     -4.8389932E-08
   35.40000     -5.0807309E-08
   35.46000     -5.2845586E-08
   35.52000     -5.4565103E-08
   35.58000     -5.6025719E-08
   35.64000     -5.7270125E-08
   35.70000     -5.8314367E-08
   35.76000     -5.9148231E-08
   35.82000     -5.9745048E-08
   35.88000     -6.0077440E-08
   35.94000     -6.0133758E-08
   36.00000     -5.9929619E-08
   36.06000     -5.9510963E-08
   36.12000     -5.8947638E-08
   36.18000     -5.8319564E-08
   36.24000     -5.7699840E-08
   36.30000     -5.7139768E-08
   36.36000     -5.6660195E-08
   36.42000     -5.6251498E-08
   36.48000     -5.5882030E-08
   36.54000     -5.5512160E-08
   36.60000     -5.5109563E-08
   36.66000     -5.4660884E-08
   36.72000     -5.4176446E-08
   36.78000     -5.3686737E-08
   36.84000     -5.3232295E-08
   36.90000     -5.2850517E-08
   36.96000     -5.2563504E-08
   37.02000     -5.2370371E-08
   37.08000     -5.2245710E-08
   37.14000     -5.2144053E-08
   37.20000     -5.2008794E-08
   37.26000     -5.1783264E-08
   37.32000     -5.1421438E-08
   37.38000     -5.0895963E-08
   37.44000     -5.0201539E-08
   37.50000     -4.9352636E-08
   37.56000     -4.8376034E-08
   37.62000     -4.7300208E-08
   37.68000     -4.6144962E-08
   37.74000     -4.4914692E-08
   37.80000     -4.3597375E-08
   37.86000     -4.2169209E-08
   37.92000     -4.0602540E-08
   37.98000     -3.8874031E-08
   38.04000     -3.6970484E-08
   38.10000     -3.4891393E-08
   38.16000     -3.2648899E-08
   38.22000     -3.0266339E-08
   38.28000     -2.7776093E-08
   38.34000     -2.5216620E-08
   38.40000     -2.2628130E-08
   38.46000     -2.0047109E-08
   38.52000     -1.7501065E-08
   38.58000     -1.5005627E-08
   38.64000     -1.2565749E-08
   38.70000     -1.0181038E-08
   38.76000     -7.8532407E-09
   38.82000     -5.5928000E-09
   38.88000     -3.4217222E-09
   38.94000     -1.3716989E-09
   39.00000      5.2157445E-10
   39.06000      2.2256630E-09
   39.12000      3.7178327E-09
   39.18000      4.9889382E-09
   39.24000      6.0439151E-09
   39.30000      6.8987078E-09
   39.36000      7.5739974E-09
   39.42000      8.0867979E-09
   39.48000      8.4419201E-09
   39.54000      8.6261123E-09
   39.60000      8.6076035E-09
   39.66000      8.3423979E-09
   39.72000      7.7862898E-09
   39.78000      6.9091359E-09
   39.84000      5.7067502E-09
   39.90000      4.2063415E-09
   39.96000      2.4636237E-09
   40.02000      5.5243426E-10
   40.08000     -1.4501237E-09
   40.14000     -3.4790053E-09
   40.20000     -5.4931872E-09
   40.26000     -7.4814039E-09
   40.32000     -9.4601784E-09
   40.38000     -1.1464362E-08
   40.44000     -1.3532289E-08
   40.50000     -1.5689507E-08
   40.56000     -1.7936015E-08
   40.62000     -2.0241490E-08
   40.68000     -2.2550678E-08
   40.74000     -2.4797682E-08
   40.80000     -2.6924601E-08
   40.86000     -2.8898240E-08
   40.92000     -3.0719331E-08
   40.98000     -3.2421401E-08
   41.04000     -3.4060115E-08
   41.10000     -3.5696804E-08
   41.16000     -3.7381394E-08
   41.22000     -3.9139547E-08
   41.28000     -4.0966931E-08
   41.34000     -4.2831545E-08
   41.40000     -4.4682714E-08
   41.46000     -4.6463963E-08
   41.52000     -4.8126129E-08
   41.58000     -4.9637155E-08
   41.64000     -5.0986035E-08
   41.70000     -5.2180162E-08
   41.76000     -5.3237340E-08
   41.82000     -5.4175548E-08
   41.88000     -5.5004183E-08
   41.94000     -5.5719742E-08
   42.00000     -5.6307254E-08
   42.06000     -5.6746376E-08
   42.12000     -5.7019591E-08
   42.18000     -5.7119198E-08
   42.24000     -5.7050681E-08
   42.30000     -5.6831468E-08
   42.36000     -5.6485959E-08
   42.42000     -5.6038768E-08
   42.48000     -5.5508561E-08
   42.54000     -5.4904284E-08
   42.60000     -5.4224600E-08
   42.66000     -5.3460361E-08
   42.72000     -5.2599109E-08
   42.78000     -5.1630508E-08
   42.84000     -5.0551403E-08
   42.90000     -4.9369589E-08
   42.96000     -4.8105381E-08
   43.02000     -4.6790422E-08
   43.08000     -4.5463693E-08
   43.14000     -4.4165290E-08
   43.20000     -4.2929369E-08
   43.26000     -4.1778282E-08
   43.32000     -4.0719630E-08
   43.38000     -3.9747327E-08
   43.44000     -3.8846139E-08
   43.50000     -3.7998056E-08
   43.56000     -3.7188190E-08
   43.62000     -3.6408263E-08
   43.68000     -3.5657187E-08
   43.74000     -3.4939461E-08
   43.80000     -3.4263127E-08
   43.86000     -3.3638539E-08
   43.92000     -3.3078450E-08
   43.98000     -3.2598376E-08
   44.04000     -3.2215986E-08
   44.10000     -3.1948463E-08
   44.16000     -3.1808344E-08
   44.22000     -3.1799367E-08
   44.28000     -3.1914428E-08
   44.34000     -3.2136786E-08
   44.40000     -3.2444078E-08
   44.46000     -3.2813158E-08
   44.52000     -3.3223465E-08
   44.58000     -3.3657400E-08
   44.64000     -3.4098225E-08
   44.70000     -3.4527357E-08
   44.76000     -3.4923445E-08
   44.82000     -3.5264446E-08
   44.88000     -3.5532167E-08
   44.94000     -3.5717271E-08
   45.00000     -3.5822303E-08
   45.06000     -3.5861440E-08
   45.12000     -3.5857159E-08
   45.18000     -3.5835214E-08
   45.24000     -3.5819451E-08
   45.30000     -3.5827416E-08
   45.36000     -3.5866904E-08
   45.42000     -3.5933418E-08
   45.48000     -3.6009109E-08
   45.54000     -3.6064353E-08
   45.60000     -3.6063270E-08
   45.66000     -3.5973297E-08
   45.72000     -3.5777287E-08
   45.78000     -3.5484817E-08
   45.84000     -3.5139099E-08
   45.90000     -3.4816765E-08
   45.96000     -3.4620129E-08
   46.02000     -3.4663781E-08
   46.08000     -3.5059038E-08
   46.14000     -3.5900257E-08
   46.20000     -3.7256441E-08
   46.26000     -3.9170406E-08
   46.32000     -4.1666070E-08
   46.38000     -4.4762761E-08
   46.44000     -4.8493575E-08
   46.50000     -5.2923546E-08
   46.56000     -5.8163113E-08
   46.62000     -6.4373516E-08
   46.68000     -7.1763360E-08
   46.74000     -8.0578609E-08
   46.80000     -9.1090719E-08
   46.86000     -1.0358861E-07
   46.92000     -1.1837878E-07
   46.98000     -1.3579526E-07
   47.04000     -1.5621789E-07
   47.10000     -1.8009484E-07
   47.16000     -2.0796413E-07
   47.22000     -2.4046929E-07
   47.28000     -2.7836688E-07
   47.34000     -3.2252660E-07
   47.40000     -3.7392653E-07
   47.46000     -4.3364969E-07
   47.52000     -5.0288691E-07
   47.58000     -5.8294938E-07
   47.64000     -6.7529095E-07
   47.70000     -7.8153721E-07
   47.76000     -9.0351688E-07
   47.82000     -1.0432898E-06
   47.88000     -1.2031689E-06
   47.94000     -1.3857349E-06
   48.00000     -1.5938448E-06
   48.06000     -1.8306386E-06
   48.12000     -2.0995451E-06
   48.18000     -2.4042915E-06
   48.24000     -2.7489207E-06
   48.30000     -3.1378127E-06
   48.36000     -3.5757153E-06
   48.42000     -4.0677746E-06
   48.48000     -4.6195660E-06
   48.54000     -5.2371133E-06
   48.60000     -5.9269073E-06
   48.66000     -6.6959037E-06
   48.72000     -7.5515254E-06
   48.78000     -8.5016482E-06
   48.84000     -9.5545984E-06
   48.90000     -1.0719137E-05
   48.96000     -1.2004450E-05
   49.02000     -1.3420127E-05
   49.08000     -1.4976149E-05
   49.14000     -1.6682858E-05
   49.20000     -1.8550936E-05
   49.26000     -2.0591358E-05
   49.32000     -2.2815355E-05
   49.38000     -2.5234362E-05
   49.44000     -2.7859940E-05
   49.50000     -3.0703723E-05
   49.56000     -3.3777331E-05
   49.62000     -3.7092272E-05
   49.68000     -4.0659852E-05
   49.74000     -4.4491066E-05
   49.80000     -4.8596514E-05
   49.86000     -5.2986263E-05
   49.92000     -5.7669742E-05
   49.98000     -6.2655599E-05
   50.04000     -6.7951587E-05
   50.10000     -7.3564464E-05
   50.16000     -7.9499827E-05
   50.22000     -8.5762047E-05
   50.28000     -9.2354116E-05
   50.34000     -9.9277502E-05
   50.40000     -1.0653209E-04
   50.46000     -1.1411601E-04
   50.52000     -1.2202558E-04
   50.58000     -1.3025520E-04
   50.64000     -1.3879730E-04
   50.70000     -1.4764223E-04
   50.76000     -1.5677832E-04
   50.82000     -1.6619173E-04
   50.88000     -1.7586652E-04
   50.94000     -1.8578462E-04
   51.00000     -1.9592592E-04
   51.06000     -2.0626829E-04
   51.12000     -2.1678770E-04
   51.18000     -2.2745825E-04
   51.24000     -2.3825240E-04
   51.30000     -2.4914104E-04
   51.36000     -2.6009366E-04
   51.42000     -2.7107869E-04
   51.48000     -2.8206364E-04
   51.54000     -2.9301515E-04
   51.60000     -3.0389955E-04
   51.66000     -3.1468287E-04
   51.72000     -3.2533138E-04
   51.78000     -3.3581161E-04
   51.84000     -3.4609094E-04
   51.90000     -3.5613761E-04
   51.96000     -3.6592115E-04
   52.02000     -3.7541267E-04
   52.08000     -3.8458512E-04
   52.14000     -3.9341359E-04
   52.20000     -4.0187564E-04
   52.26000     -4.0995140E-04
   52.32000     -4.1762399E-04
   52.38000     -4.2487946E-04
   52.44000     -4.3170707E-04
   52.50000     -4.3809941E-04
   52.56000     -4.4405257E-04
   52.62000     -4.4956611E-04
   52.68000     -4.5464313E-04
   52.74000     -4.5929017E-04
   52.80000     -4.6351715E-04
   52.86000     -4.6733723E-04
   52.92000     -4.7076677E-04
   52.98000     -4.7382503E-04
   53.04000     -4.7653425E-04
   53.10000     -4.7891907E-04
   53.16000     -4.8100637E-04
   53.22000     -4.8282495E-04
   53.28000     -4.8440511E-04
   53.34000     -4.8577823E-04
   53.40000     -4.8697667E-04
   53.46000     -4.8803308E-04
   53.52000     -4.8898027E-04
   53.58000     -4.8985024E-04
   53.64000     -4.9067440E-04
   53.70000     -4.9148261E-04
   53.76000     -4.9230317E-04
   53.82000     -4.9316231E-04
   53.88000     -4.9408409E-04
   53.94000     -4.9508980E-04
   54.00000     -4.9619796E-04
   54.06000     -4.9742375E-04
   54.12000     -4.9877906E-04
   54.18000     -5.0027209E-04
   54.24000     -5.0190737E-04
   54.30000     -5.0368597E-04
   54.36000     -5.0560490E-04
   54.42000     -5.0765742E-04
   54.48000     -5.0983310E-04
   54.54000     -5.1211839E-04
   54.60000     -5.1449635E-04
   54.66000     -5.1694724E-04
   54.72000     -5.1944866E-04
   54.78000     -5.2197557E-04
   54.84000     -5.2450073E-04
   54.90000     -5.2699522E-04
   54.96000     -5.2942894E-04
   55.02000     -5.3177099E-04
   55.08000     -5.3399045E-04
   55.14000     -5.3605658E-04
   55.20000     -5.3793896E-04
   55.26000     -5.3960772E-04
   55.32000     -5.4103433E-04
   55.38000     -5.4219179E-04
   55.44000     -5.4305542E-04
   55.50000     -5.4360350E-04
   55.56000     -5.4381695E-04