  -2.400000      0.0000000E+00
  -2.340000      0.0000000E+00
  -2.280000      0.0000000E+00
  -2.220000      0.0000000E+00
  -2.160000      0.0000000E+00
  -2.100000      0.0000000E+00
  -2.040000     -5.9931916E-22
  -1.980000     -4.6509571E-21
  -1.920000     -1.6241585E-20
  -1.860000     -2.7252661E-20
  -1.800000      1.1957460E-20
  -1.740000      2.0764901E-19
  -1.680000      6.4700811E-19
  -1.620000      1.1600407E-18
  -1.560000      9.8557371E-19
  -1.500000     -1.3195004E-18
  -1.440000     -7.1646795E-18
  -1.380000     -1.6021157E-17
  -1.320000     -2.2829442E-17
  -1.260000     -1.6658155E-17
  -1.200000      1.6356651E-17
  -1.140000      8.3482303E-17
  -1.080000      1.7063076E-16
  -1.020000      2.2983088E-16
 -0.9600000      1.8182327E-16
 -0.9000000     -5.3698216E-17
 -0.8400000     -4.9839974E-16
 -0.7800000     -1.0454687E-15
 -0.7200000     -1.4225270E-15
 -0.6600000     -1.2407721E-15
 -0.6000000     -1.6384690E-16
 -0.5400000      1.8290698E-15
 -0.4800000      4.1963321E-15
 -0.4200000      5.7830836E-15
 -0.3600000      5.1407933E-15
 -0.3000000      1.2593216E-15
 -0.2400000     -5.5003588E-15
 -0.1800000     -1.2766575E-14
 -0.1200000     -1.6432932E-14
 -5.9999999E-02 -1.2252493E-14
  0.0000000E+00  1.4898849E-15
  5.9999999E-02  2.1351258E-14
  0.1200000      3.7930332E-14
  0.1800000      3.8505057E-14
  0.2400000      1.3359600E-14
  0.3000000     -3.6246603E-14
  0.3600000     -9.2713136E-14
  0.4200000     -1.2415810E-13
  0.4800000     -9.6473766E-14
  0.5400000      7.0535606E-15
  0.6000000      1.6684588E-13
  0.6600000      3.2055749E-13
  0.7200000      3.7852173E-13
  0.7800000      2.6181460E-13
  0.8400000     -4.9166685E-14
  0.9000000     -4.7852217E-13
  0.9600000     -8.5585982E-13
   1.020000     -9.6805907E-13
   1.080000     -6.5282138E-13
   1.140000      1.0014748E-13
   1.200000      1.0896920E-12
   1.260000      1.9291467E-12
   1.320000      2.1716034E-12
   1.380000      1.5032345E-12
   1.440000     -6.8831273E-14
   1.500000     -2.1251256E-12
   1.560000     -3.9079976E-12
   1.620000     -4.5696346E-12
   1.680000     -3.5226821E-12
   1.740000     -7.5745665E-13
   1.800000      3.0256440E-12
   1.860000      6.5672441E-12
   1.920000      8.4715004E-12
   1.980000      7.7597173E-12
   2.040000      4.3276801E-12
   2.100000     -9.1529919E-13
   2.160000     -6.3334945E-12
   2.220000     -1.0198321E-11
   2.280000     -1.1407831E-11
   2.340000     -9.9515153E-12
   2.400000     -6.8605763E-12
   2.460000     -3.6136673E-12
   2.520000     -1.2533173E-12
   2.580000      3.3238340E-13
   2.640000      2.5176662E-12
   2.700000      7.2438045E-12
   2.760000      1.5733956E-11
   2.820000      2.7203215E-11
   2.880000      3.8283463E-11
   2.940000      4.3666803E-11
   3.000000      3.7956138E-11
   3.060000      1.8109663E-11
   3.120000     -1.4534489E-11
   3.180000     -5.3641622E-11
   3.240000     -8.9167000E-11
   3.300000     -1.1026204E-10
   3.360000     -1.0879021E-10
   3.420000     -8.2107737E-11
   3.480000     -3.4000747E-11
   3.540000      2.6597771E-11
   3.600000      8.8567743E-11
   3.660000      1.4198985E-10
   3.720000      1.8053752E-10
   3.780000      2.0188631E-10
   3.840000      2.0601529E-10
   3.900000      1.9218660E-10
   3.960000      1.5596083E-10
   4.020000      8.7598442E-11
   4.080000     -2.7371407E-11
   4.140000     -2.0551406E-10
   4.200000     -4.6169890E-10
   4.260000     -8.0548368E-10
   4.320000     -1.2388639E-09
   4.380000     -1.7559522E-09
   4.440000     -2.3443349E-09
   4.500000     -2.9871732E-09
   4.560000     -3.6648962E-09
   4.620000     -4.3556430E-09
   4.680000     -5.0343676E-09
   4.740000     -5.6713687E-09
   4.800000     -6.2315948E-09
   4.860000     -6.6760792E-09
   4.920000     -6.9661836E-09
   4.980000     -7.0702009E-09
   5.040000     -6.9706614E-09
   5.100000     -6.6699903E-09
   5.160000     -6.1922973E-09
   5.220000     -5.5801892E-09
   5.280000     -4.8872049E-09
   5.340000     -4.1681467E-09
   5.400000     -3.4705057E-09
   5.460000     -2.8298117E-09
   5.520000     -2.2701574E-09
   5.580000     -1.8088729E-09
   5.640000     -1.4623669E-09
   5.700000     -1.2494324E-09
   5.760000     -1.1893176E-09
   5.820000     -1.2943193E-09
   5.880000     -1.5595577E-09
   5.940000     -1.9546278E-09
   6.000000     -2.4219475E-09
   6.060000     -2.8845140E-09
   6.120000     -3.2621879E-09
   6.180000     -3.4919572E-09
   6.240000     -3.5454868E-09
   6.300000     -3.4376515E-09
   6.360000     -3.2226546E-09
   6.420000     -2.9786535E-09
   6.480000     -2.7858353E-09
   6.540000     -2.7050238E-09
   6.600000     -2.7633396E-09
   6.660000     -2.9505356E-09
   6.720000     -3.2256506E-09
   6.780000     -3.5302030E-09
   6.840000     -3.8026076E-09
   6.900000     -3.9891805E-09
   6.960000     -4.0494781E-09
   7.020000     -3.9564827E-09
   7.080000     -3.6941101E-09
   7.140000     -3.2548366E-09
   7.200000     -2.6391300E-09
   7.260000     -1.8565165E-09
   7.320000     -9.2665192E-10
   7.380000      1.2161530E-10
   7.440000      1.2542852E-09
   7.500000      2.4387949E-09
   7.560000      3.6510481E-09
   7.620000      4.8801301E-09
   7.680000      6.1285417E-09
   7.740000      7.4074351E-09
   7.800000      8.7283256E-09
   7.860000      1.0094348E-08
   7.920000      1.1494597E-08
   7.980000      1.2904223E-08
   8.040000      1.4290905E-08
   8.100000      1.5625867E-08
   8.160000      1.6895427E-08
   8.220000      1.8108354E-08
   8.280000      1.9295237E-08
   8.340000      2.0498854E-08
   8.400000      2.1757954E-08
   8.460000      2.3089907E-08
   8.520000      2.4478743E-08
   8.580000      2.5873645E-08
   8.640000      2.7199327E-08
   8.700000      2.8375268E-08
   8.760000      2.9337308E-08
   8.820000      3.0054359E-08
   8.880000      3.0534771E-08
   8.940000      3.0821074E-08
   9.000000      3.0975905E-08
   9.060000      3.1064754E-08
   9.120000      3.1141237E-08
   9.180000      3.1238720E-08
   9.240000      3.1368948E-08
   9.300000      3.1525833E-08
   9.360000      3.1691513E-08
   9.420000      3.1842283E-08
   9.480000      3.1953505E-08
   9.540000      3.2003875E-08
   9.600000      3.1979720E-08
   9.660000      3.1879441E-08
   9.720000      3.1716816E-08
   9.780000      3.1521491E-08
   9.840000      3.1334991E-08
   9.900000      3.1202251E-08
   9.960000      3.1160422E-08
   10.02000      3.1228403E-08
   10.08000      3.1400646E-08
   10.14000      3.1647613E-08
   10.20000      3.1923015E-08
   10.26000      3.2175524E-08
   10.32000      3.2361154E-08
   10.38000      3.2452583E-08
   10.44000      3.2442973E-08
   10.50000      3.2343976E-08
   10.56000      3.2179475E-08
   10.62000      3.1977617E-08
   10.68000      3.1763641E-08
   10.74000      3.1555256E-08
   10.80000      3.1361285E-08
   10.86000      3.1183411E-08
   10.92000      3.1020232E-08
   10.98000      3.0872343E-08
   11.04000      3.0746847E-08
   11.10000      3.0659635E-08
   11.16000      3.0634151E-08
   11.22000      3.0696423E-08
   11.28000      3.0867444E-08
   11.34000      3.1155359E-08
   11.40000      3.1550293E-08
   11.46000      3.2023916E-08
   11.52000      3.2534366E-08
   11.58000      3.3035118E-08
   11.64000      3.3485055E-08
   11.70000      3.3856708E-08
   11.76000      3.4140289E-08
   11.82000      3.4342673E-08
   11.88000      3.4481765E-08
   11.94000      3.4578033E-08
   12.00000      3.4645272E-08
   12.06000      3.4683200E-08
   12.12000      3.4673953E-08
   12.18000      3.4584058E-08
   12.24000      3.4372032E-08
   12.30000      3.3999964E-08
   12.36000      3.3445716E-08
   12.42000      3.2711331E-08
   12.48000      3.1823927E-08
   12.54000      3.0827572E-08
   12.60000      2.9768229E-08
   12.66000      2.8676835E-08
   12.72000      2.7557077E-08
   12.78000      2.6383084E-08
   12.84000      2.5108720E-08
   12.90000      2.3685445E-08
   12.96000      2.2082173E-08
   13.02000      2.0299488E-08
   13.08000      1.8372798E-08
   13.14000      1.6363398E-08
   13.20000      1.4341148E-08
   13.26000      1.2365508E-08
   13.32000      1.0471654E-08
   13.38000      8.6657392E-09
   13.44000      6.9292936E-09
   13.50000      5.2293414E-09
   13.56000      3.5294945E-09
   13.62000      1.7982269E-09
   13.68000      1.2925347E-11
   13.74000     -1.8393710E-09
   13.80000     -3.7625685E-09
   13.86000     -5.7518994E-09
   13.92000     -7.7938340E-09
   13.98000     -9.8663859E-09
   14.04000     -1.1940879E-08
   14.10000     -1.3985573E-08
   14.16000     -1.5970475E-08
   14.22000     -1.7871983E-08
   14.28000     -1.9676021E-08
   14.34000     -2.1378920E-08
   14.40000     -2.2985940E-08
   14.46000     -2.4507838E-08
   14.52000     -2.5956126E-08
   14.58000     -2.7337920E-08
   14.64000     -2.8651575E-08
   14.70000     -2.9884482E-08
   14.76000     -3.1014167E-08
   14.82000     -3.2012675E-08
   14.88000     -3.2852956E-08
   14.94000     -3.3514869E-08
   15.00000     -3.3988542E-08
   15.06000     -3.4274134E-08
   15.12000     -3.4378925E-08
   15.18000     -3.4313782E-08
   15.24000     -3.4090977E-08
   15.30000     -3.3723680E-08
   15.36000     -3.3225902E-08
   15.42000     -3.2611101E-08
   15.48000     -3.1888796E-08
   15.54000     -3.1060623E-08
   15.60000     -3.0118880E-08
   15.66000     -2.9049959E-08
   15.72000     -2.7842699E-08
   15.78000     -2.6498361E-08
   15.84000     -2.5037219E-08
   15.90000     -2.3497787E-08
   15.96000     -2.1928320E-08
   16.02000     -2.0374399E-08
   16.08000     -1.8868660E-08
   16.14000     -1.7427675E-08
   16.20000     -1.6057063E-08
   16.26000     -1.4761377E-08
   16.32000     -1.3552800E-08
   16.38000     -1.2453541E-08
   16.44000     -1.1490512E-08
   16.50000     -1.0685329E-08
   16.56000     -1.0045361E-08
   16.62000     -9.5610888E-09
   16.68000     -9.2117727E-09
   16.74000     -8.9770600E-09
   16.80000     -8.8490273E-09
   16.86000     -8.8385876E-09
   16.92000     -8.9726013E-09
   16.98000     -9.2820418E-09
   17.04000     -9.7855866E-09
   17.10000     -1.0475115E-08
   17.16000     -1.1309060E-08
   17.22000     -1.2216545E-08
   17.28000     -1.3111146E-08
   17.34000     -1.3909653E-08
   17.40000     -1.4549808E-08
   17.46000     -1.5002191E-08
   17.52000     -1.5274205E-08
   17.58000     -1.5407187E-08
   17.64000     -1.5469320E-08
   17.70000     -1.5546801E-08
   17.76000     -1.5734166E-08
   17.82000     -1.6123394E-08
   17.88000     -1.6791363E-08
   17.94000     -1.7786730E-08
   18.00000     -1.9119193E-08
   18.06000     -2.0754992E-08
   18.12000     -2.2621121E-08
   18.18000     -2.4617835E-08
   18.24000     -2.6635686E-08
   18.30000     -2.8571689E-08
   18.36000     -3.0340011E-08
   18.42000     -3.1875434E-08
   18.48000     -3.3131112E-08
   18.54000     -3.4074230E-08
   18.60000     -3.4682937E-08
   18.66000     -3.4946382E-08
   18.72000     -3.4867167E-08
   18.78000     -3.4464431E-08
   18.84000     -3.3775262E-08
   18.90000     -3.2853240E-08
   18.96000     -3.1763857E-08
   19.02000     -3.0577361E-08
   19.08000     -2.9359938E-08
   19.14000     -2.8164520E-08
   19.20000     -2.7022812E-08
   19.26000     -2.5940500E-08
   19.32000     -2.4897311E-08
   19.38000     -2.3852687E-08
   19.44000     -2.2755984E-08
   19.50000     -2.1558511E-08
   19.56000     -2.0223901E-08
   19.62000     -1.8734053E-08
   19.68000     -1.7089846E-08
   19.74000     -1.5308087E-08
   19.80000     -1.3417510E-08
   19.86000     -1.1456273E-08
   19.92000     -9.4715666E-09
   19.98000     -7.5195752E-09
   20.04000     -5.6627742E-09
   20.10000     -3.9622479E-09
   20.16000     -2.4652853E-09
   20.22000     -1.1917245E-09
   20.28000     -1.2451257E-10
   20.34000      7.9056883E-10
   20.40000      1.6341680E-09
   20.46000      2.4941229E-09
   20.52000      3.4437297E-09
   20.58000      4.5244910E-09
   20.64000      5.7383613E-09
   20.70000      7.0507191E-09
   20.76000      8.4016358E-09
   20.82000      9.7210542E-09
   20.88000      1.0943674E-08
   20.94000      1.2020909E-08
   21.00000      1.2928831E-08
   21.06000      1.3671753E-08
   21.12000      1.4281056E-08
   21.18000      1.4808947E-08
   21.24000      1.5317667E-08
   21.30000      1.5866334E-08
   21.36000      1.6498996E-08
   21.42000      1.7237571E-08
   21.48000      1.8081522E-08
   21.54000      1.9013269E-08
   21.60000      2.0006039E-08
   21.66000      2.1030445E-08
   21.72000      2.2057794E-08
   21.78000      2.3060938E-08
   21.84000      2.4015149E-08
   21.90000      2.4901286E-08
   21.96000      2.5711154E-08
   22.02000      2.6452378E-08
   22.08000      2.7149014E-08
   22.14000      2.7835705E-08
   22.20000      2.8546582E-08
   22.26000      2.9303379E-08
   22.32000      3.0108239E-08
   22.38000      3.0944669E-08
   22.44000      3.1785955E-08
   22.50000      3.2606515E-08
   22.56000      3.3390322E-08
   22.62000      3.4132260E-08
   22.68000      3.4832510E-08
   22.74000      3.5487737E-08
   22.80000      3.6084526E-08
   22.86000      3.6598777E-08
   22.92000      3.7001097E-08
   22.98000      3.7264606E-08
   23.04000      3.7370445E-08
   23.10000      3.7308023E-08
   23.16000      3.7070542E-08
   23.22000      3.6649666E-08
   23.28000      3.6033747E-08
   23.34000      3.5211649E-08
   23.40000      3.4180392E-08
   23.46000      3.2951540E-08
   23.52000      3.1551256E-08
   23.58000      3.0011993E-08
   23.64000      2.8358622E-08
   23.70000      2.6595561E-08
   23.76000      2.4701572E-08
   23.82000      2.2635513E-08
   23.88000      2.0350763E-08
   23.94000      1.7811649E-08
   24.00000      1.5004332E-08
   24.06000      1.1937765E-08
   24.12000      8.6356371E-09
   24.18000      5.1247619E-09
   24.24000      1.4265377E-09
   24.30000     -2.4443858E-09
   24.36000     -6.4747261E-09
   24.42000     -1.0644833E-08
   24.48000     -1.4923934E-08
   24.54000     -1.9271384E-08
   24.60000     -2.3643162E-08
   24.66000     -2.7999699E-08
   24.72000     -3.2310954E-08
   24.78000     -3.6556752E-08
   24.84000     -4.0723766E-08
   24.90000     -4.4802412E-08
   24.96000     -4.8786262E-08
   25.02000     -5.2674185E-08
   25.08000     -5.6472420E-08
   25.14000     -6.0193180E-08
   25.20000     -6.3848191E-08
   25.26000     -6.7439238E-08
   25.32000     -7.0950378E-08
   25.38000     -7.4346957E-08
   25.44000     -7.7583003E-08
   25.50000     -8.0614292E-08
   25.56000     -8.3410725E-08
   25.62000     -8.5961858E-08
   25.68000     -8.8272948E-08
   25.74000     -9.0354064E-08
   25.80000     -9.2208452E-08
   25.86000     -9.3826451E-08
   25.92000     -9.5187744E-08
   25.98000     -9.6269773E-08
   26.04000     -9.7057075E-08
   26.10000     -9.7546263E-08
   26.16000     -9.7744703E-08
   26.22000     -9.7664838E-08
   26.28000     -9.7318456E-08
   26.34000     -9.6714459E-08
   26.40000     -9.5860599E-08
   26.46000     -9.4767280E-08
   26.52000     -9.3449813E-08
   26.58000     -9.1927859E-08
   26.64000     -9.0222613E-08
   26.70000     -8.8354525E-08
   26.76000     -8.6343583E-08
   26.82000     -8.4211727E-08
   26.88000     -8.1984638E-08
   26.94000     -7.9689698E-08
   27.00000     -7.7348979E-08
   27.06000     -7.4969897E-08
   27.12000     -7.2539052E-08
   27.18000     -7.0024392E-08
   27.24000     -6.7387397E-08
   27.30000     -6.4601394E-08
   27.36000     -6.1668338E-08
   27.42000     -5.8625982E-08
   27.48000     -5.5541797E-08
   27.54000     -5.2495960E-08
   27.60000     -4.9561418E-08
   27.66000     -4.6789850E-08
   27.72000     -4.4209084E-08
   27.78000     -4.1831253E-08
   27.84000     -3.9665547E-08
   27.90000     -3.7727808E-08
   27.96000     -3.6042174E-08
   28.02000     -3.4635224E-08
   28.08000     -3.3527549E-08
   28.14000     -3.2728479E-08
   28.20000     -3.2236606E-08
   28.26000     -3.2044206E-08
   28.32000     -3.2140804E-08
   28.38000     -3.2512176E-08
   28.44000     -3.3135354E-08
   28.50000     -3.3974416E-08
   28.56000     -3.4983074E-08
   28.62000     -3.6116436E-08
   28.68000     -3.7348109E-08
   28.74000     -3.8683662E-08
   28.80000     -4.0161250E-08
   28.86000     -4.1835754E-08
   28.92000     -4.3751427E-08
   28.98000     -4.5914827E-08
   29.04000     -4.8280818E-08
   29.10000     -5.0758775E-08
   29.16000     -5.3236786E-08
   29.22000     -5.5613469E-08
   29.28000     -5.7824447E-08
   29.34000     -5.9853846E-08
   29.40000     -6.1728826E-08
   29.46000     -6.3501822E-08
   29.52000     -6.5228903E-08
   29.58000     -6.6951522E-08
   29.64000     -6.8685424E-08
   29.70000     -7.0417123E-08
   29.76000     -7.2106836E-08
   29.82000     -7.3696739E-08
   29.88000     -7.5123708E-08
   29.94000     -7.6334672E-08
   30.00000     -7.7300669E-08
   30.06000     -7.8024279E-08
   30.12000     -7.8535741E-08
   30.18000     -7.8877399E-08
   30.24000     -7.9081325E-08
   30.30000     -7.9149459E-08
   30.36000     -7.9045584E-08
   30.42000     -7.8704005E-08
   30.48000     -7.8052452E-08
   30.54000     -7.7040028E-08
   30.60000     -7.5658683E-08
   30.66000     -7.3949636E-08
   30.72000     -7.1992481E-08
   30.78000     -6.9881921E-08
   30.84000     -6.7701286E-08
   30.90000     -6.5501425E-08
   30.96000     -6.3290749E-08
   31.02000     -6.1037390E-08
   31.08000     -5.8681334E-08
   31.14000     -5.6152864E-08
   31.20000     -5.3393286E-08
   31.26000     -5.0373789E-08
   31.32000     -4.7107701E-08
   31.38000     -4.3651458E-08
   31.44000     -4.0091606E-08
   31.50000     -3.6519669E-08
   31.56000     -3.3002202E-08
   31.62000     -2.9557496E-08
   31.68000     -2.6149648E-08
   31.74000     -2.2704995E-08
   31.80000     -1.9146359E-08
   31.86000     -1.5432091E-08
   31.92000     -1.1583714E-08
   31.98000     -7.6899394E-09
   32.04000     -3.8847872E-09
   32.10000     -3.0834488E-10
   32.16000      2.9343008E-09
   32.22000      5.8006839E-09
   32.28000      8.3164720E-09
   32.34000      1.0559618E-08
   32.40000      1.2631438E-08
   32.46000      1.4625639E-08
   32.52000      1.6604190E-08
   32.58000      1.8584428E-08
   32.64000      2.0537797E-08
   32.70000      2.2398710E-08
   32.76000      2.4081745E-08
   32.82000      2.5504804E-08
   32.88000      2.6614005E-08
   32.94000      2.7403221E-08
   33.00000      2.7920025E-08
   33.06000      2.8252265E-08
   33.12000      2.8496368E-08
   33.18000      2.8717160E-08
   33.24000      2.8914975E-08
   33.30000      2.9015220E-08
   33.36000      2.8887532E-08
   33.42000      2.8389042E-08
   33.48000      2.7415243E-08
   33.54000      2.5938068E-08
   33.60000      2.4016073E-08
   33.66000      2.1773822E-08
   33.72000      1.9360463E-08
   33.78000      1.6905114E-08
   33.84000      1.4485637E-08
   33.90000      1.2119452E-08
   33.96000      9.7747295E-09
   34.02000      7.3930941E-09
   34.08000      4.9136273E-09
   34.14000      2.2914035E-09
   34.20000     -4.9132126E-10
   34.26000     -3.4203387E-09
   34.32000     -6.4504331E-09
   34.38000     -9.5129762E-09
   34.44000     -1.2531228E-08
   34.50000     -1.5441467E-08
   34.56000     -1.8213420E-08
   34.62000     -2.0860446E-08
   34.68000     -2.3431907E-08
   34.74000     -2.5987498E-08
   34.80000     -2.8562850E-08
   34.86000     -3.1142015E-08
   34.92000     -3.3651151E-08
   34.98000     -3.5978626E-08
   35.04000     -3.8014146E-08
   35.10000     -3.9689859E-08
   35.16000     -4.1005158E-08
   35.22000     -4.2024773E-08
   35.28000     -4.2852339E-08
   35.34000     -4.3592454E-08
   35.40000     -4.4317620E-08
   35.46000     -4.5051898E-08
   35.52000     -4.5773657E-08
   35.58000     -4.6431474E-08
   35.64000     -4.6964022E-08
   35.70000     -4.7317236E-08
   35.76000     -4.7456545E-08
   35.82000     -4.7375330E-08
   35.88000     -4.7100187E-08
   35.94000     -4.6690879E-08
   36.00000     -4.6231310E-08
   36.06000     -4.5810079E-08
   36.12000     -4.5494915E-08
   36.18000     -4.5311069E-08
   36.24000     -4.5234735E-08
   36.30000     -4.5207148E-08
   36.36000     -4.5164846E-08
   36.42000     -4.5072401E-08
   36.48000     -4.4941284E-08
   36.54000     -4.4824759E-08
   36.60000     -4.4790784E-08
   36.66000     -4.4886303E-08
   36.72000     -4.5110557E-08
   36.78000     -4.5410214E-08
   36.84000     -4.5697309E-08
   36.90000     -4.5880068E-08
   36.96000     -4.5891191E-08
   37.02000     -4.5701718E-08
   37.08000     -4.5317464E-08
   37.14000     -4.4763876E-08
   37.20000     -4.4069164E-08
   37.26000     -4.3253156E-08
   37.32000     -4.2323652E-08
   37.38000     -4.1277005E-08
   37.44000     -4.0099017E-08
   37.50000     -3.8765059E-08
   37.56000     -3.7242149E-08
   37.62000     -3.5496718E-08
   37.68000     -3.3508336E-08
   37.74000     -3.1284475E-08
   37.80000     -2.8867758E-08
   37.86000     -2.6328586E-08
   37.92000     -2.3743016E-08
   37.98000     -2.1164089E-08
   38.04000     -1.8600064E-08
   38.10000     -1.6011231E-08
   38.16000     -1.3328495E-08
   38.22000     -1.0486177E-08
   38.28000     -7.4540925E-09
   38.34000     -4.2542814E-09
   38.40000     -9.5556141E-10
   38.46000      2.3499318E-09
   38.52000      5.5757785E-09
   38.58000      8.6623011E-09
   38.64000      1.1581951E-08
   38.70000      1.4330628E-08
   38.76000      1.6913395E-08
   38.82000      1.9333896E-08
   38.88000      2.1591942E-08
   38.94000      2.3686887E-08
   39.00000      2.5620469E-08
   39.06000      2.7394215E-08
   39.12000      2.9002074E-08
   39.18000      3.0424260E-08
   39.24000      3.1629277E-08
   39.30000      3.2586243E-08
   39.36000      3.3282365E-08
   39.42000      3.3734892E-08
   39.48000      3.3988485E-08
   39.54000      3.4096285E-08
   39.60000      3.4093109E-08
   39.66000      3.3974857E-08
   39.72000      3.3696178E-08
   39.78000      3.3188730E-08
   39.84000      3.2391025E-08
   39.90000      3.1274116E-08
   39.96000      2.9849815E-08
   40.02000      2.8158178E-08
   40.08000      2.6242766E-08
   40.14000      2.4128772E-08
   40.20000      2.1816595E-08
   40.26000      1.9293593E-08
   40.32000      1.6555626E-08
   40.38000      1.3624398E-08
   40.44000      1.0549539E-08
   40.50000      7.3940440E-09
   40.56000      4.2117532E-09
   40.62000      1.0300746E-09
   40.68000     -2.1523539E-09
   40.74000     -5.3525695E-09
   40.80000     -8.5831902E-09
   40.86000     -1.1837170E-08
   40.92000     -1.5085398E-08
   40.98000     -1.8286800E-08
   41.04000     -2.1403292E-08
   41.10000     -2.4409900E-08
   41.16000     -2.7294631E-08
   41.22000     -3.0049964E-08
   41.28000     -3.2663220E-08
   41.34000     -3.5113136E-08
   41.40000     -3.7374942E-08
   41.46000     -3.9429771E-08
   41.52000     -4.1270749E-08
   41.58000     -4.2900211E-08
   41.64000     -4.4318824E-08
   41.70000     -4.5513652E-08
   41.76000     -4.6454151E-08
   41.82000     -4.7100947E-08
   41.88000     -4.7424400E-08
   41.94000     -4.7423157E-08
   42.00000     -4.7131600E-08
   42.06000     -4.6610598E-08
   42.12000     -4.5925066E-08
   42.18000     -4.5119677E-08
   42.24000     -4.4205454E-08
   42.30000     -4.3164420E-08
   42.36000     -4.1969873E-08
   42.42000     -4.0611411E-08
   42.48000     -3.9111747E-08
   42.54000     -3.7527219E-08
   42.60000     -3.5932818E-08
   42.66000     -3.4400411E-08
   42.72000     -3.2981362E-08
   42.78000     -3.1700633E-08
   42.84000     -3.0562276E-08
   42.90000     -2.9559992E-08
   42.96000     -2.8685271E-08
   43.02000     -2.7929358E-08
   43.08000     -2.7281159E-08
   43.14000     -2.6726577E-08
   43.20000     -2.6253423E-08
   43.26000     -2.5860805E-08
   43.32000     -2.5566584E-08
   43.38000     -2.5405404E-08
   43.44000     -2.5414396E-08
   43.50000     -2.5611465E-08
   43.56000     -2.5977211E-08
   43.62000     -2.6451596E-08
   43.68000     -2.6949502E-08
   43.74000     -2.7389271E-08
   43.80000     -2.7720860E-08
   43.86000     -2.7940040E-08
   43.92000     -2.8082487E-08
   43.98000     -2.8202210E-08
   44.04000     -2.8346349E-08
   44.10000     -2.8538658E-08
   44.16000     -2.8777281E-08
   44.22000     -2.9043571E-08
   44.28000     -2.9313142E-08
   44.34000     -2.9561610E-08
   44.40000     -2.9763736E-08
   44.46000     -2.9891190E-08
   44.52000     -2.9915942E-08
   44.58000     -2.9821617E-08
   44.64000     -2.9617587E-08
   44.70000     -2.9345406E-08
   44.76000     -2.9069119E-08
   44.82000     -2.8849719E-08
   44.88000     -2.8714698E-08
   44.94000     -2.8639141E-08
   45.00000     -2.8551257E-08
   45.06000     -2.8362996E-08
   45.12000     -2.8012566E-08
   45.18000     -2.7497981E-08
   45.24000     -2.6883905E-08
   45.30000     -2.6277467E-08
   45.36000     -2.5784253E-08
   45.42000     -2.5465715E-08
   45.48000     -2.5317737E-08
   45.54000     -2.5278631E-08
   45.60000     -2.5259997E-08
   45.66000     -2.5184118E-08
   45.72000     -2.5011429E-08
   45.78000     -2.4750037E-08
   45.84000     -2.4450136E-08
   45.90000     -2.4192479E-08
   45.96000     -2.4078940E-08
   46.02000     -2.4226892E-08
   46.08000     -2.4763184E-08
   46.14000     -2.5812982E-08
   46.20000     -2.7484170E-08
   46.26000     -2.9854981E-08
   46.32000     -3.2975468E-08
   46.38000     -3.6888636E-08
   46.44000     -4.1666670E-08
   46.50000     -4.7447852E-08
   46.56000     -5.4456976E-08
   46.62000     -6.2999050E-08
   46.68000     -7.3429618E-08
   46.74000     -8.6117488E-08
   46.80000     -1.0142015E-07
   46.86000     -1.1968596E-07
   46.92000     -1.4128385E-07
   46.98000     -1.6664848E-07
   47.04000     -1.9632282E-07
   47.10000     -2.3098436E-07
   47.16000     -2.7145163E-07
   47.22000     -3.1867842E-07
   47.28000     -3.7374815E-07
   47.34000     -4.3787728E-07
   47.40000     -5.1242887E-07
   47.46000     -5.9893051E-07
   47.52000     -6.9908947E-07
   47.58000     -8.1480340E-07
   47.64000     -9.4817341E-07
   47.70000     -1.1015283E-06
   47.76000     -1.2774666E-06
   47.82000     -1.4789127E-06
   47.88000     -1.7091731E-06
   47.94000     -1.9719751E-06
   48.00000     -2.2714760E-06
   48.06000     -2.6122520E-06
   48.12000     -2.9992757E-06
   48.18000     -3.4379141E-06
   48.24000     -3.9339566E-06
   48.30000     -4.4936683E-06
   48.36000     -5.1238617E-06
   48.42000     -5.8319533E-06
   48.48000     -6.6260027E-06
   48.54000     -7.5147209E-06
   48.60000     -8.5074671E-06
   48.66000     -9.6142385E-06
   48.72000     -1.0845666E-05
   48.78000     -1.2213012E-05
   48.84000     -1.3728162E-05
   48.90000     -1.5403615E-05
   48.96000     -1.7252463E-05
   49.02000     -1.9288387E-05
   49.08000     -2.1525646E-05
   49.14000     -2.3979070E-05
   49.20000     -2.6664040E-05
   49.26000     -2.9596435E-05
   49.32000     -3.2792519E-05
   49.38000     -3.6268848E-05
   49.44000     -4.0042134E-05
   49.50000     -4.4129101E-05
   49.56000     -4.8546419E-05
   49.62000     -5.3310567E-05
   49.68000     -5.8437759E-05
   49.74000     -6.3943837E-05
   49.80000     -6.9844165E-05
   49.86000     -7.6153425E-05
   49.92000     -8.2885454E-05
   49.98000     -9.0053036E-05
   50.04000     -9.7667762E-05
   50.10000     -1.0573975E-04
   50.16000     -1.1427760E-04
   50.22000     -1.2328810E-04
   50.28000     -1.3277614E-04
   50.34000     -1.4274449E-04
   50.40000     -1.5319377E-04
   50.46000     -1.6412219E-04
   50.52000     -1.7552558E-04
   50.58000     -1.8739721E-04
   50.64000     -1.9972766E-04
   50.70000     -2.1250479E-04
   50.76000     -2.2571371E-04
   50.82000     -2.3933657E-04
   50.88000     -2.5335266E-04
   50.94000     -2.6773839E-04
   51.00000     -2.8246734E-04
   51.06000     -2.9751059E-04
   51.12000     -3.1283667E-04
   51.18000     -3.2841167E-04
   51.24000     -3.4419954E-04
   51.30000     -3.6016220E-04
   51.36000     -3.7625988E-04
   51.42000     -3.9245124E-04
   51.48000     -4.0869389E-04
   51.54000     -4.2494436E-04
   51.60000     -4.4115871E-04
   51.66000     -4.5729280E-04
   51.72000     -4.7330276E-04
   51.78000     -4.8914534E-04
   51.84000     -5.0477841E-04
   51.90000     -5.2016124E-04
   51.96000     -5.3525489E-04
   52.02000     -5.5002281E-04
   52.08000     -5.6443072E-04
   52.14000     -5.7844707E-04
   52.20000     -5.9204380E-04
   52.26000     -6.0519617E-04
   52.32000     -6.1788346E-04
   52.38000     -6.3008885E-04
   52.44000     -6.4179994E-04
   52.50000     -6.5300870E-04
   52.56000     -6.6371169E-04
   52.62000     -6.7391008E-04
   52.68000     -6.8360940E-04
   52.74000     -6.9281954E-04
   52.80000     -7.0155476E-04
   52.86000     -7.0983352E-04
   52.92000     -7.1767828E-04
   52.98000     -7.2511553E-04
   53.04000     -7.3217513E-04
   53.10000     -7.3889014E-04
   53.16000     -7.4529619E-04
   53.22000     -7.5143151E-04
   53.28000     -7.5733609E-04
   53.34000     -7.6305110E-04
   53.40000     -7.6861866E-04
   53.46000     -7.7408110E-04
   53.52000     -7.7948073E-04
   53.58000     -7.8485935E-04
   53.64000     -7.9025741E-04
   53.70000     -7.9571368E-04
   53.76000     -8.0126472E-04
   53.82000     -8.0694444E-04
   53.88000     -8.1278378E-04
   53.94000     -8.1881031E-04
   54.00000     -8.2504773E-04
   54.06000     -8.3151576E-04
   54.12000     -8.3822990E-04
   54.18000     -8.4520126E-04
   54.24000     -8.5243618E-04
   54.30000     -8.5993641E-04
   54.36000     -8.6769887E-04
   54.42000     -8.7571586E-04
   54.48000     -8.8397518E-04
   54.54000     -8.9245994E-04
   54.60000     -9.0114941E-04
   54.66000     -9.1001933E-04
   54.72000     -9.1904181E-04
   54.78000     -9.2818635E-04
   54.84000     -9.3741971E-04
   54.90000     -9.4670604E-04
   54.96000     -9.5600716E-04
   55.02000     -9.6528331E-04
   55.08000     -9.7449380E-04
   55.14000     -9.8359794E-04
   55.20000     -9.9255564E-04
   55.26000     -1.0013275E-03
   55.32000     -1.0098761E-03
   55.38000     -1.0181647E-03
   55.44000     -1.0261582E-03
   55.50000     -1.0338234E-03
   55.56000     -1.0411296E-03