  -2.400000      0.0000000E+00
  -2.340000      0.0000000E+00
  -2.280000      0.0000000E+00
  -2.220000      0.0000000E+00
  -2.160000      0.0000000E+00
  -2.100000      0.0000000E+00
  -2.040000     -3.9109146E-22
  -1.980000     -1.7654393E-21
  -1.920000      1.9646214E-21
  -1.860000      4.2973820E-20
  -1.800000      1.9222761E-19
  -1.740000      5.0001615E-19
  -1.680000      7.9673964E-19
  -1.620000      4.2599639E-19
  -1.560000     -1.7408947E-18
  -1.500000     -6.4916762E-18
  -1.440000     -1.2507193E-17
  -1.380000     -1.4585937E-17
  -1.320000     -4.0993061E-18
  -1.260000      2.5954951E-17
  -1.200000      7.1380406E-17
  -1.140000      1.0770155E-16
  -1.080000      9.1234858E-17
  -1.020000     -2.0506578E-17
 -0.9600000     -2.2939550E-16
 -0.9000000     -4.5583645E-16
 -0.8400000     -5.3013680E-16
 -0.7800000     -2.5041690E-16
 -0.7200000      4.8502869E-16
 -0.6600000      1.5148896E-15
 -0.6000000      2.3211335E-15
 -0.5400000      2.1251152E-15
 -0.4800000      2.4267767E-16
 -0.4200000     -3.3677016E-15
 -0.3600000     -7.6086081E-15
 -0.3000000     -1.0171933E-14
 -0.2400000     -8.2213873E-15
 -0.1800000      1.3327670E-16
 -0.1200000      1.4032398E-14
 -5.9999999E-02  2.8693759E-14
  0.0000000E+00  3.5996684E-14
  5.9999999E-02  2.7473907E-14
  0.1200000     -8.0374162E-16
  0.1800000     -4.3441992E-14
  0.2400000     -8.4025092E-14
  0.3000000     -9.9115045E-14
  0.3600000     -6.8357687E-14
  0.4200000      1.2407887E-14
  0.4800000      1.2138101E-13
  0.5400000      2.1155895E-13
  0.6000000      2.2610803E-13
  0.6600000      1.2563023E-13
  0.7200000     -8.3302865E-14
  0.7800000     -3.3375925E-13
  0.8400000     -5.1134861E-13
  0.9000000     -4.9710225E-13
  0.9600000     -2.2752595E-13
   1.020000      2.5443479E-13
   1.080000      7.8712519E-13
   1.140000      1.1346193E-12
   1.200000      1.0813139E-12
   1.260000      5.4217422E-13
   1.320000     -3.6322703E-13
   1.380000     -1.3195245E-12
   1.440000     -1.9229755E-12
   1.500000     -1.8563608E-12
   1.560000     -1.0579979E-12
   1.620000      2.0278565E-13
   1.680000      1.4031574E-12
   1.740000      1.9902894E-12
   1.800000      1.6649502E-12
   1.860000      5.8674647E-13
   1.920000     -6.2857656E-13
   1.980000     -1.1683140E-12
   2.040000     -4.5902073E-13
   2.100000      1.4170812E-12
   2.160000      3.5627343E-12
   2.220000      4.5223595E-12
   2.280000      2.9298829E-12
   2.340000     -1.6936452E-12
   2.400000     -8.3740992E-12
   2.460000     -1.4702940E-11
   2.520000     -1.7574440E-11
   2.580000     -1.4441337E-11
   2.640000     -4.5914128E-12
   2.700000      1.0152515E-11
   2.760000      2.5724806E-11
   2.820000      3.7102956E-11
   2.880000      4.0120778E-11
   2.940000      3.3050632E-11
   3.000000      1.7248371E-11
   3.060000     -3.4426162E-12
   3.120000     -2.4252935E-11
   3.180000     -4.1265390E-11
   3.240000     -5.2545333E-11
   3.300000     -5.8083843E-11
   3.360000     -5.8640599E-11
   3.420000     -5.4189275E-11
   3.480000     -4.2946643E-11
   3.540000     -2.1733006E-11
   3.600000      1.2252178E-11
   3.660000      5.8936508E-11
   3.720000      1.1336156E-10
   3.780000      1.6528949E-10
   3.840000      2.0093173E-10
   3.900000      2.0635860E-10
   3.960000      1.7133998E-10
   4.020000      9.2090363E-11
   4.080000     -2.8193991E-11
   4.140000     -1.8117635E-10
   4.200000     -3.5672246E-10
   4.260000     -5.4619725E-10
   4.320000     -7.4419465E-10
   4.380000     -9.4790387E-10
   4.440000     -1.1544193E-09
   4.500000     -1.3572878E-09
   4.560000     -1.5439976E-09
   4.620000     -1.6957780E-09
   4.680000     -1.7901083E-09
   4.740000     -1.8051822E-09
   4.800000     -1.7247144E-09
   4.860000     -1.5412811E-09
   4.920000     -1.2569347E-09
   4.980000     -8.8087537E-10
   5.040000     -4.2509907E-10
   5.100000      1.0030265E-10
   5.160000      6.9037942E-10
   5.220000      1.3458338E-09
   5.280000      2.0705364E-09
   5.340000      2.8668636E-09
   5.400000      3.7304941E-09
   5.460000      4.6465631E-09
   5.520000      5.5887077E-09
   5.580000      6.5216277E-09
   5.640000      7.4066278E-09
   5.700000      8.2086018E-09
   5.760000      8.9023757E-09
   5.820000      9.4765493E-09
   5.880000      9.9338404E-09
   5.940000      1.0288195E-08
   6.000000      1.0560057E-08
   6.060000      1.0771672E-08
   6.120000      1.0943982E-08
   6.180000      1.1095575E-08
   6.240000      1.1242962E-08
   6.300000      1.1400640E-08
   6.360000      1.1579670E-08
   6.420000      1.1784569E-08
   6.480000      1.2009849E-08
   6.540000      1.2238558E-08
   6.600000      1.2444990E-08
   6.660000      1.2602166E-08
   6.720000      1.2692279E-08
   6.780000      1.2716301E-08
   6.840000      1.2698289E-08
   6.900000      1.2681482E-08
   6.960000      1.2716298E-08
   7.020000      1.2843844E-08
   7.080000      1.3080790E-08
   7.140000      1.3411372E-08
   7.200000      1.3789780E-08
   7.260000      1.4152261E-08
   7.320000      1.4434703E-08
   7.380000      1.4589628E-08
   7.440000      1.4597235E-08
   7.500000      1.4467829E-08
   7.560000      1.4236327E-08
   7.620000      1.3952042E-08
   7.680000      1.3667763E-08
   7.740000      1.3431143E-08
   7.800000      1.3279522E-08
   7.860000      1.3237529E-08
   7.920000      1.3316075E-08
   7.980000      1.3511714E-08
   8.040000      1.3806436E-08
   8.100000      1.4168894E-08
   8.160000      1.4558357E-08
   8.220000      1.4931921E-08
   8.280000      1.5254129E-08
   8.340000      1.5506847E-08
   8.400000      1.5696347E-08
   8.460000      1.5854912E-08
   8.520000      1.6035482E-08
   8.580000      1.6299820E-08
   8.640000      1.6702634E-08
   8.700000      1.7275545E-08
   8.760000      1.8015147E-08
   8.820000      1.8878737E-08
   8.880000      1.9789448E-08
   8.940000      2.0650262E-08
   9.000000      2.1363938E-08
   9.060000      2.1854113E-08
   9.120000      2.2082144E-08
   9.180000      2.2055016E-08
   9.240000      2.1821988E-08
   9.300000      2.1460886E-08
   9.360000      2.1058250E-08
   9.420000      2.0689772E-08
   9.480000      2.0407326E-08
   9.540000      2.0236360E-08
   9.600000      2.0183277E-08
   9.660000      2.0248194E-08
   9.720000      2.0436339E-08
   9.780000      2.0762139E-08
   9.840000      2.1243901E-08
   9.900000      2.1891866E-08
   9.960000      2.2696028E-08
   10.02000      2.3620535E-08
   10.08000      2.4608502E-08
   10.14000      2.5595902E-08
   10.20000      2.6528722E-08
   10.26000      2.7375735E-08
   10.32000      2.8131181E-08
   10.38000      2.8806101E-08
   10.44000      2.9411998E-08
   10.50000      2.9943500E-08
   10.56000      3.0366664E-08
   10.62000      3.0617024E-08
   10.68000      3.0607698E-08
   10.74000      3.0244880E-08
   10.80000      2.9446468E-08
   10.86000      2.8159509E-08
   10.92000      2.6373073E-08
   10.98000      2.4124162E-08
   11.04000      2.1495236E-08
   11.10000      1.8603126E-08
   11.16000      1.5580742E-08
   11.22000      1.2554868E-08
   11.28000      9.6249773E-09
   11.34000      6.8483912E-09
   11.40000      4.2358326E-09
   11.46000      1.7586672E-09
   11.52000     -6.3430539E-10
   11.58000     -2.9954319E-09
   11.64000     -5.3582765E-09
   11.70000     -7.7245534E-09
   11.76000     -1.0060933E-08
   11.82000     -1.2305714E-08
   11.88000     -1.4382640E-08
   11.94000     -1.6217509E-08
   12.00000     -1.7753120E-08
   12.06000     -1.8959152E-08
   12.12000     -1.9835449E-08
   12.18000     -2.0409111E-08
   12.24000     -2.0727093E-08
   12.30000     -2.0846596E-08
   12.36000     -2.0825317E-08
   12.42000     -2.0713083E-08
   12.48000     -2.0545832E-08
   12.54000     -2.0342569E-08
   12.60000     -2.0105707E-08
   12.66000     -1.9824730E-08
   12.72000     -1.9482462E-08
   12.78000     -1.9062433E-08
   12.84000     -1.8555424E-08
   12.90000     -1.7963414E-08
   12.96000     -1.7300412E-08
   13.02000     -1.6590715E-08
   13.08000     -1.5866092E-08
   13.14000     -1.5163200E-08
   13.20000     -1.4521408E-08
   13.26000     -1.3980091E-08
   13.32000     -1.3573969E-08
   13.38000     -1.3325968E-08
   13.44000     -1.3238970E-08
   13.50000     -1.3289535E-08
   13.56000     -1.3427141E-08
   13.62000     -1.3580942E-08
   13.68000     -1.3673127E-08
   13.74000     -1.3635037E-08
   13.80000     -1.3420710E-08
   13.86000     -1.3013492E-08
   13.92000     -1.2424235E-08
   13.98000     -1.1682981E-08
   14.04000     -1.0828329E-08
   14.10000     -9.8987369E-09
   14.16000     -8.9281018E-09
   14.22000     -7.9452276E-09
   14.28000     -6.9748021E-09
   14.34000     -6.0373342E-09
   14.40000     -5.1469771E-09
   14.46000     -4.3083963E-09
   14.52000     -3.5152963E-09
   14.58000     -2.7530518E-09
   14.64000     -2.0060487E-09
   14.70000     -1.2677902E-09
   14.76000     -5.4997640E-10
   14.82000      1.1345362E-10
   14.88000      6.6966438E-10
   14.94000      1.0572694E-09
   15.00000      1.2206973E-09
   15.06000      1.1241681E-09
   15.12000      7.6112244E-10
   15.18000      1.5648705E-10
   15.24000     -6.3865879E-10
   15.30000     -1.5584299E-09
   15.36000     -2.5365299E-09
   15.42000     -3.5201309E-09
   15.48000     -4.4798423E-09
   15.54000     -5.4132574E-09
   15.60000     -6.3411156E-09
   15.66000     -7.2970767E-09
   15.72000     -8.3139913E-09
   15.78000     -9.4107495E-09
   15.84000     -1.0583643E-08
   15.90000     -1.1804713E-08
   15.96000     -1.3027230E-08
   16.02000     -1.4196194E-08
   16.08000     -1.5260449E-08
   16.14000     -1.6182968E-08
   16.20000     -1.6946899E-08
   16.26000     -1.7556369E-08
   16.32000     -1.8032342E-08
   16.38000     -1.8404691E-08
   16.44000     -1.8702366E-08
   16.50000     -1.8943958E-08
   16.56000     -1.9131194E-08
   16.62000     -1.9247510E-08
   16.68000     -1.9262473E-08
   16.74000     -1.9141080E-08
   16.80000     -1.8855150E-08
   16.86000     -1.8393418E-08
   16.92000     -1.7767581E-08
   16.98000     -1.7013166E-08
   17.04000     -1.6185719E-08
   17.10000     -1.5353553E-08
   17.16000     -1.4588084E-08
   17.22000     -1.3952453E-08
   17.28000     -1.3489320E-08
   17.34000     -1.3209930E-08
   17.40000     -1.3087812E-08
   17.46000     -1.3060428E-08
   17.52000     -1.3039948E-08
   17.58000     -1.2930615E-08
   17.64000     -1.2646847E-08
   17.70000     -1.2125482E-08
   17.76000     -1.1328365E-08
   17.82000     -1.0236445E-08
   17.88000     -8.8409635E-09
   17.94000     -7.1382553E-09
   18.00000     -5.1316325E-09
   18.06000     -2.8384071E-09
   18.12000     -2.9605018E-10
   18.18000      2.4386031E-09
   18.24000      5.2989484E-09
   18.30000      8.2229077E-09
   18.36000      1.1164075E-08
   18.42000      1.4092890E-08
   18.48000      1.6986586E-08
   18.54000      1.9813410E-08
   18.60000      2.2520512E-08
   18.66000      2.5033430E-08
   18.72000      2.7268978E-08
   18.78000      2.9156158E-08
   18.84000      3.0655464E-08
   18.90000      3.1768000E-08
   18.96000      3.2531371E-08
   19.02000      3.3005922E-08
   19.08000      3.3258967E-08
   19.14000      3.3354272E-08
   19.20000      3.3349515E-08
   19.26000      3.3299418E-08
   19.32000      3.3258960E-08
   19.38000      3.3281669E-08
   19.44000      3.3411961E-08
   19.50000      3.3674652E-08
   19.56000      3.4067359E-08
   19.62000      3.4560600E-08
   19.68000      3.5106588E-08
   19.74000      3.5653336E-08
   19.80000      3.6157981E-08
   19.86000      3.6593757E-08
   19.92000      3.6948329E-08
   19.98000      3.7215674E-08
   20.04000      3.7386730E-08
   20.10000      3.7444156E-08
   20.16000      3.7363865E-08
   20.22000      3.7121996E-08
   20.28000      3.6702989E-08
   20.34000      3.6104151E-08
   20.40000      3.5334544E-08
   20.46000      3.4409585E-08
   20.52000      3.3345287E-08
   20.58000      3.2156102E-08
   20.64000      3.0857496E-08
   20.70000      2.9471220E-08
   20.76000      2.8028966E-08
   20.82000      2.6571056E-08
   20.88000      2.5139972E-08
   20.94000      2.3771953E-08
   21.00000      2.2491511E-08
   21.06000      2.1311994E-08
   21.12000      2.0241572E-08
   21.18000      1.9290315E-08
   21.24000      1.8473074E-08
   21.30000      1.7805357E-08
   21.36000      1.7294017E-08
   21.42000      1.6928336E-08
   21.48000      1.6677717E-08
   21.54000      1.6498651E-08
   21.60000      1.6348210E-08
   21.66000      1.6197029E-08
   21.72000      1.6034493E-08
   21.78000      1.5863080E-08
   21.84000      1.5685147E-08
   21.90000      1.5490302E-08
   21.96000      1.5251679E-08
   22.02000      1.4934624E-08
   22.08000      1.4514019E-08
   22.14000      1.3990926E-08
   22.20000      1.3398737E-08
   22.26000      1.2794168E-08
   22.32000      1.2236425E-08
   22.38000      1.1764401E-08
   22.44000      1.1382912E-08
   22.50000      1.1064303E-08
   22.56000      1.0763589E-08
   22.62000      1.0438366E-08
   22.68000      1.0062825E-08
   22.74000      9.6292183E-09
   22.80000      9.1376062E-09
   22.86000      8.5813818E-09
   22.92000      7.9380760E-09
   22.98000      7.1714465E-09
   23.04000      6.2440644E-09
   23.10000      5.1335753E-09
   23.16000      3.8440566E-09
   23.22000      2.4070614E-09
   23.28000      8.7300861E-10
   23.34000     -7.0125128E-10
   23.40000     -2.2616005E-09
   23.46000     -3.7586263E-09
   23.52000     -5.1439240E-09
   23.58000     -6.3664762E-09
   23.64000     -7.3751516E-09
   23.70000     -8.1294980E-09
   23.76000     -8.6152365E-09
   23.82000     -8.8566834E-09
   23.88000     -8.9183754E-09
   23.94000     -8.8926990E-09
   24.00000     -8.8769028E-09
   24.06000     -8.9481382E-09
   24.12000     -9.1461132E-09
   24.18000     -9.4693018E-09
   24.24000     -9.8842659E-09
   24.30000     -1.0342069E-08
   24.36000     -1.0793691E-08
   24.42000     -1.1198664E-08
   24.48000     -1.1525973E-08
   24.54000     -1.1750872E-08
   24.60000     -1.1852823E-08
   24.66000     -1.1817865E-08
   24.72000     -1.1644706E-08
   24.78000     -1.1350460E-08
   24.84000     -1.0971371E-08
   24.90000     -1.0556325E-08
   24.96000     -1.0155047E-08
   25.02000     -9.8058681E-09
   25.08000     -9.5281418E-09
   25.14000     -9.3217523E-09
   25.20000     -9.1723020E-09
   25.26000     -9.0580166E-09
   25.32000     -8.9545544E-09
   25.38000     -8.8365075E-09
   25.44000     -8.6775183E-09
   25.50000     -8.4523704E-09
   25.56000     -8.1429903E-09
   25.62000     -7.7468059E-09
   25.68000     -7.2826882E-09
   25.74000     -6.7890875E-09
   25.80000     -6.3119034E-09
   25.86000     -5.8850369E-09
   25.92000     -5.5113749E-09
   25.98000     -5.1534514E-09
   26.04000     -4.7397717E-09
   26.10000     -4.1860635E-09
   26.16000     -3.4237269E-09
   26.22000     -2.4241036E-09
   26.28000     -1.2088395E-09
   26.34000      1.5711100E-10
   26.40000      1.5854825E-09
   26.46000      2.9879683E-09
   26.52000      4.2926702E-09
   26.58000      5.4482951E-09
   26.64000      6.4176393E-09
   26.70000      7.1674413E-09
   26.76000      7.6628757E-09
   26.82000      7.8714129E-09
   26.88000      7.7746822E-09
   26.94000      7.3819106E-09
   27.00000      6.7371366E-09
   27.06000      5.9154481E-09
   27.12000      5.0089226E-09
   27.18000      4.1077541E-09
   27.24000      3.2835861E-09
   27.30000      2.5799602E-09
   27.36000      2.0106254E-09
   27.42000      1.5629549E-09
   27.48000      1.2027894E-09
   27.54000      8.7883362E-10
   27.60000      5.2752791E-10
   27.66000      8.0867160E-11
   27.72000     -5.2141363E-10
   27.78000     -1.3169652E-09
   27.84000     -2.3080819E-09
   27.90000     -3.4568688E-09
   27.96000     -4.6918478E-09
   28.02000     -5.9250507E-09
   28.08000     -7.0741462E-09
   28.14000     -8.0820106E-09
   28.20000     -8.9273549E-09
   28.26000     -9.6238519E-09
   28.32000     -1.0209561E-08
   28.38000     -1.0731431E-08
   28.44000     -1.1230211E-08
   28.50000     -1.1729655E-08
   28.56000     -1.2231754E-08
   28.62000     -1.2717996E-08
   28.68000     -1.3155722E-08
   28.74000     -1.3508145E-08
   28.80000     -1.3745847E-08
   28.86000     -1.3856618E-08
   28.92000     -1.3849895E-08
   28.98000     -1.3752973E-08
   29.04000     -1.3598848E-08
   29.10000     -1.3409528E-08
   29.16000     -1.3181807E-08
   29.22000     -1.2883059E-08
   29.28000     -1.2461185E-08
   29.34000     -1.1866677E-08
   29.40000     -1.1078344E-08
   29.46000     -1.0121044E-08
   29.52000     -9.0658885E-09
   29.58000     -8.0105247E-09
   29.64000     -7.0460651E-09
   29.70000     -6.2238743E-09
   29.76000     -5.5361298E-09
   29.82000     -4.9183804E-09
   29.88000     -4.2727555E-09
   29.94000     -3.5017451E-09
   30.00000     -2.5387439E-09
   30.06000     -1.3643729E-09
   30.12000     -5.0740631E-12
   30.18000      1.4816081E-09
   30.24000      3.0262086E-09
   30.30000      4.5629620E-09
   30.36000      6.0383973E-09
   30.42000      7.4144113E-09
   30.48000      8.6695318E-09
   30.54000      9.8007016E-09
   30.60000      1.0824659E-08
   30.66000      1.1775712E-08
   30.72000      1.2697532E-08
   30.78000      1.3630137E-08
   30.84000      1.4597100E-08
   30.90000      1.5599237E-08
   30.96000      1.6618406E-08
   31.02000      1.7629809E-08
   31.08000      1.8616438E-08
   31.14000      1.9577998E-08
   31.20000      2.0529690E-08
   31.26000      2.1491783E-08
   31.32000      2.2475733E-08
   31.38000      2.3474060E-08
   31.44000      2.4458584E-08
   31.50000      2.5387102E-08
   31.56000      2.6214584E-08
   31.62000      2.6904083E-08
   31.68000      2.7434027E-08
   31.74000      2.7801500E-08
   31.80000      2.8022432E-08
   31.86000      2.8129417E-08
   31.92000      2.8166175E-08
   31.98000      2.8177244E-08
   32.04000      2.8193149E-08
   32.10000      2.8215018E-08
   32.16000      2.8205877E-08
   32.22000      2.8095981E-08
   32.28000      2.7804978E-08
   32.34000      2.7275904E-08
   32.40000      2.6508495E-08
   32.46000      2.5576618E-08
   32.52000      2.4618984E-08
   32.58000      2.3802821E-08
   32.64000      2.3272330E-08
   32.70000      2.3101531E-08
   32.76000      2.3270596E-08
   32.82000      2.3675385E-08
   32.88000      2.4165981E-08
   32.94000      2.4597840E-08
   33.00000      2.4874698E-08
   33.06000      2.4967283E-08
   33.12000      2.4903818E-08
   33.18000      2.4740746E-08
   33.24000      2.4529468E-08
   33.30000      2.4293854E-08
   33.36000      2.4025454E-08
   33.42000      2.3693588E-08
   33.48000      2.3261157E-08
   33.54000      2.2696842E-08
   33.60000      2.1979334E-08
   33.66000      2.1095556E-08
   33.72000      2.0038202E-08
   33.78000      1.8806809E-08
   33.84000      1.7412102E-08
   33.90000      1.5879451E-08
   33.96000      1.4246540E-08
   34.02000      1.2553884E-08
   34.08000      1.0831892E-08
   34.14000      9.0915977E-09
   34.20000      7.3250552E-09
   34.26000      5.5162115E-09
   34.32000      3.6566716E-09
   34.38000      1.7572169E-09
   34.44000     -1.5242151E-10
   34.50000     -2.0367312E-09
   34.56000     -3.8741788E-09
   34.62000     -5.6727361E-09
   34.68000     -7.4716358E-09
   34.74000     -9.3264063E-09
   34.80000     -1.1282763E-08
   34.86000     -1.3350920E-08
   34.92000     -1.5492146E-08
   34.98000     -1.7623934E-08
   35.04000     -1.9641719E-08
   35.10000     -2.1448081E-08
   35.16000     -2.2977948E-08
   35.22000     -2.4211436E-08
   35.28000     -2.5172074E-08
   35.34000     -2.5914181E-08
   35.40000     -2.6505965E-08
   35.46000     -2.7013831E-08
   35.52000     -2.7490406E-08
   35.58000     -2.7966253E-08
   35.64000     -2.8444944E-08
   35.70000     -2.8902889E-08
   35.76000     -2.9296583E-08
   35.82000     -2.9578793E-08
   35.88000     -2.9720963E-08
   35.94000     -2.9733938E-08
   36.00000     -2.9676633E-08
   36.06000     -2.9645053E-08
   36.12000     -2.9742283E-08
   36.18000     -3.0039889E-08
   36.24000     -3.0547291E-08
   36.30000     -3.1204234E-08
   36.36000     -3.1901770E-08
   36.42000     -3.2524323E-08
   36.48000     -3.2994762E-08
   36.54000     -3.3302793E-08
   36.60000     -3.3504353E-08
   36.66000     -3.3693251E-08
   36.72000     -3.3958710E-08
   36.78000     -3.4348034E-08
   36.84000     -3.4849904E-08
   36.90000     -3.5403311E-08
   36.96000     -3.5925510E-08
   37.02000     -3.6345117E-08
   37.08000     -3.6626492E-08
   37.14000     -3.6777369E-08
   37.20000     -3.6839825E-08
   37.26000     -3.6870958E-08
   37.32000     -3.6921605E-08
   37.38000     -3.7019987E-08
   37.44000     -3.7163634E-08
   37.50000     -3.7320127E-08
   37.56000     -3.7435363E-08
   37.62000     -3.7447375E-08
   37.68000     -3.7302879E-08
   37.74000     -3.6972772E-08
   37.80000     -3.6461806E-08
   37.86000     -3.5808331E-08
   37.92000     -3.5072635E-08
   37.98000     -3.4316614E-08
   38.04000     -3.3581379E-08
   38.10000     -3.2871263E-08
   38.16000     -3.2150794E-08
   38.22000     -3.1356411E-08
   38.28000     -3.0418843E-08
   38.34000     -2.9287845E-08
   38.40000     -2.7950183E-08
   38.46000     -2.6434954E-08
   38.52000     -2.4805543E-08
   38.58000     -2.3142574E-08
   38.64000     -2.1524897E-08
   38.70000     -2.0014864E-08
   38.76000     -1.8651029E-08
   38.82000     -1.7447658E-08
   38.88000     -1.6398161E-08
   38.94000     -1.5479488E-08
   39.00000     -1.4656250E-08
   39.06000     -1.3885169E-08
   39.12000     -1.3121065E-08
   39.18000     -1.2324437E-08
   39.24000     -1.1468797E-08
   39.30000     -1.0544736E-08
   39.36000     -9.5584971E-09
   39.42000     -8.5255198E-09
   39.48000     -7.4623152E-09
   39.54000     -6.3813457E-09
   39.60000     -5.2920672E-09
   39.66000     -4.2075983E-09
   39.72000     -3.1527720E-09
   39.78000     -2.1679050E-09
   39.84000     -1.3046213E-09
   39.90000     -6.1448746E-10
   39.96000     -1.3547236E-10
   40.02000      1.1726160E-10
   40.08000      1.5199297E-10
   40.14000     -7.0568985E-12
   40.20000     -3.3056560E-10
   40.26000     -7.9214957E-10
   40.32000     -1.3697868E-09
   40.38000     -2.0413016E-09
   40.44000     -2.7783666E-09
   40.50000     -3.5442387E-09
   40.56000     -4.2977688E-09
   40.62000     -5.0019460E-09
   40.68000     -5.6320668E-09
   40.74000     -6.1785688E-09
   40.80000     -6.6426424E-09
   40.86000     -7.0269359E-09
   40.92000     -7.3264923E-09
   40.98000     -7.5247799E-09
   41.04000     -7.5966780E-09
   41.10000     -7.5163831E-09
   41.16000     -7.2659043E-09
   41.22000     -6.8402137E-09
   41.28000     -6.2478738E-09
   41.34000     -5.5090554E-09
   41.40000     -4.6542743E-09
   41.46000     -3.7259009E-09
   41.52000     -2.7814089E-09
   41.58000     -1.8944137E-09
   41.64000     -1.1490591E-09
   41.70000     -6.2601596E-10
   41.76000     -3.8323295E-10
   41.82000     -4.3893891E-10
   41.88000     -7.6548395E-10
   41.94000     -1.2990560E-09
   42.00000     -1.9632751E-09
   42.06000     -2.6974434E-09
   42.12000     -3.4767909E-09
   42.18000     -4.3147796E-09
   42.24000     -5.2457696E-09
   42.30000     -6.2962364E-09
   42.36000     -7.4591293E-09
   42.42000     -8.6850873E-09
   42.48000     -9.8960058E-09
   42.54000     -1.1014813E-08
   42.60000     -1.1996463E-08
   42.66000     -1.2843937E-08
   42.72000     -1.3600494E-08
   42.78000     -1.4321738E-08
   42.84000     -1.5041532E-08
   42.90000     -1.5748986E-08
   42.96000     -1.6387714E-08
   43.02000     -1.6877015E-08
   43.08000     -1.7143755E-08
   43.14000     -1.7149443E-08
   43.20000     -1.6900971E-08
   43.26000     -1.6443000E-08
   43.32000     -1.5839193E-08
   43.38000     -1.5153423E-08
   43.44000     -1.4439258E-08
   43.50000     -1.3739125E-08
   43.56000     -1.3088327E-08
   43.62000     -1.2517281E-08
   43.68000     -1.2048680E-08
   43.74000     -1.1691603E-08
   43.80000     -1.1438222E-08
   43.86000     -1.1267775E-08
   43.92000     -1.1157740E-08
   43.98000     -1.1096799E-08
   44.04000     -1.1092021E-08
   44.10000     -1.1165308E-08
   44.16000     -1.1340251E-08
   44.22000     -1.1626192E-08
   44.28000     -1.2008253E-08
   44.34000     -1.2448854E-08
   44.40000     -1.2899968E-08
   44.46000     -1.3319545E-08
   44.52000     -1.3683688E-08
   44.58000     -1.3988880E-08
   44.64000     -1.4244291E-08
   44.70000     -1.4459179E-08
   44.76000     -1.4632215E-08
   44.82000     -1.4747436E-08
   44.88000     -1.4777269E-08
   44.94000     -1.4689554E-08
   45.00000     -1.4454455E-08
   45.06000     -1.4048891E-08
   45.12000     -1.3458877E-08
   45.18000     -1.2681793E-08
   45.24000     -1.1730018E-08
   45.30000     -1.0634866E-08
   45.36000     -9.4473389E-09
   45.42000     -8.2315479E-09
   45.48000     -7.0488655E-09
   45.54000     -5.9350751E-09
   45.60000     -4.8770676E-09
   45.66000     -3.7976169E-09
   45.72000     -2.5550539E-09
   45.78000     -9.5940977E-10
   45.84000      1.2001281E-09
   45.90000      4.1269566E-09
   45.96000      7.9997680E-09
   46.02000      1.2974223E-08
   46.08000      1.9204071E-08
   46.14000      2.6874307E-08
   46.20000      3.6234308E-08
   46.26000      4.7619849E-08
   46.32000      6.1459026E-08
   46.38000      7.8265245E-08
   46.44000      9.8626849E-08
   46.50000      1.2320412E-07
   46.56000      1.5274081E-07
   46.62000      1.8809050E-07
   46.68000      2.3025230E-07
   46.74000      2.8040799E-07
   46.80000      3.3995425E-07
   46.86000      4.1052789E-07
   46.92000      4.9402604E-07
   46.98000      5.9262692E-07
   47.04000      7.0881532E-07
   47.10000      8.4541665E-07
   47.16000      1.0056401E-06
   47.22000      1.1931297E-06
   47.28000      1.4120222E-06
   47.34000      1.6670083E-06
   47.40000      1.9634003E-06
   47.46000      2.3072046E-06
   47.52000      2.7052033E-06
   47.58000      3.1650427E-06
   47.64000      3.6953249E-06
   47.70000      4.3056984E-06
   47.76000      5.0069416E-06
   47.82000      5.8110450E-06
   47.88000      6.7312890E-06
   47.94000      7.7823352E-06
   48.00000      8.9803343E-06
   48.06000      1.0343055E-05
   48.12000      1.1890015E-05
   48.18000      1.3642627E-05
   48.24000      1.5624313E-05
   48.30000      1.7860613E-05
   48.36000      2.0379272E-05
   48.42000      2.3210314E-05
   48.48000      2.6386131E-05
   48.54000      2.9941555E-05
   48.60000      3.3913922E-05
   48.66000      3.8343125E-05
   48.72000      4.3271670E-05
   48.78000      4.8744674E-05
   48.84000      5.4809858E-05
   48.90000      6.1517545E-05
   48.96000      6.8920584E-05
   49.02000      7.7074299E-05
   49.08000      8.6036343E-05
   49.14000      9.5866526E-05
   49.20000      1.0662665E-04
   49.26000      1.1838022E-04
   49.32000      1.3119222E-04
   49.38000      1.4512875E-04
   49.44000      1.6025675E-04
   49.50000      1.7664356E-04
   49.56000      1.9435647E-04
   49.62000      2.1346229E-04
   49.68000      2.3402675E-04
   49.74000      2.5611394E-04
   49.80000      2.7978580E-04
   49.86000      3.0510128E-04
   49.92000      3.3211586E-04
   49.98000      3.6088086E-04
   50.04000      3.9144268E-04
   50.10000      4.2384205E-04
   50.16000      4.5811353E-04
   50.22000      4.9428467E-04
   50.28000      5.3237542E-04
   50.34000      5.7239726E-04
   50.40000      6.1435282E-04
   50.46000      6.5823511E-04
   50.52000      7.0402701E-04
   50.58000      7.5170078E-04
   50.64000      8.0121757E-04
   50.70000      8.5252756E-04
   50.76000      9.0556912E-04
   50.82000      9.6026924E-04
   50.88000      1.0165431E-03
   50.94000      1.0742946E-03
   51.00000      1.1334160E-03
   51.06000      1.1937887E-03
   51.12000      1.2552837E-03
   51.18000      1.3177616E-03
   51.24000      1.3810743E-03
   51.30000      1.4450650E-03
   51.36000      1.5095697E-03
   51.42000      1.5744176E-03
   51.48000      1.6394331E-03
   51.54000      1.7044368E-03
   51.60000      1.7692468E-03
   51.66000      1.8336801E-03
   51.72000      1.8975545E-03
   51.78000      1.9606892E-03
   51.84000      2.0229074E-03
   51.90000      2.0840364E-03
   51.96000      2.1439113E-03
   52.02000      2.2023746E-03
   52.08000      2.2592796E-03
   52.14000      2.3144898E-03
   52.20000      2.3678811E-03
   52.26000      2.4193435E-03
   52.32000      2.4687808E-03
   52.38000      2.5161132E-03
   52.44000      2.5612775E-03
   52.50000      2.6042266E-03
   52.56000      2.6449312E-03
   52.62000      2.6833802E-03
   52.68000      2.7195793E-03
   52.74000      2.7535527E-03
   52.80000      2.7853411E-03
   52.86000      2.8150016E-03
   52.92000      2.8426072E-03
   52.98000      2.8682454E-03
   53.04000      2.8920171E-03
   53.10000      2.9140364E-03
   53.16000      2.9344279E-03
   53.22000      2.9533259E-03
   53.28000      2.9708710E-03
   53.34000      2.9872104E-03
   53.40000      3.0024936E-03
   53.46000      3.0168733E-03
   53.52000      3.0305013E-03
   53.58000      3.0435279E-03
   53.64000      3.0560996E-03
   53.70000      3.0683563E-03
   53.76000      3.0804311E-03
   53.82000      3.0924464E-03
   53.88000      3.1045151E-03
   53.94000      3.1167369E-03
   54.00000      3.1291984E-03
   54.06000      3.1419715E-03
   54.12000      3.1551127E-03
   54.18000      3.1686630E-03
   54.24000      3.1826461E-03
   54.30000      3.1970690E-03
   54.36000      3.2119232E-03
   54.42000      3.2271831E-03
   54.48000      3.2428079E-03
   54.54000      3.2587417E-03
   54.60000      3.2749132E-03
   54.66000      3.2912395E-03
   54.72000      3.3076254E-03
   54.78000      3.3239652E-03
   54.84000      3.3401451E-03
   54.90000      3.3560435E-03
   54.96000      3.3715342E-03
   55.02000      3.3864873E-03
   55.08000      3.4007712E-03
   55.14000      3.4142549E-03
   55.20000      3.4268096E-03
   55.26000      3.4383105E-03
   55.32000      3.4486391E-03
   55.38000      3.4576836E-03
   55.44000      3.4653426E-03
   55.50000      3.4715242E-03
   55.56000      3.4761485E-03