  -2.400000      0.0000000E+00
  -2.340000      0.0000000E+00
  -2.280000      0.0000000E+00
  -2.220000      0.0000000E+00
  -2.160000      0.0000000E+00
  -2.100000      0.0000000E+00
  -2.040000      0.0000000E+00
  -1.980000      0.0000000E+00
  -1.920000     -3.4780690E-25
  -1.860000     -3.9007286E-24
  -1.800000     -2.1011170E-23
  -1.740000     -6.8625099E-23
  -1.680000     -1.3223954E-22
  -1.620000     -5.3446481E-23
  -1.560000      6.0378868E-22
  -1.500000      2.4089933E-21
  -1.440000      5.1072025E-21
  -1.380000      5.6450000E-21
  -1.320000     -3.4387158E-21
  -1.260000     -3.1320926E-20
  -1.200000     -7.7016241E-20
  -1.140000     -1.0875556E-19
  -1.080000     -4.9511597E-20
  -1.020000      1.9908807E-19
 -0.9600000      6.6190227E-19
 -0.9000000      1.1344895E-18
 -0.8400000      1.0677738E-18
 -0.7800000     -3.1216023E-19
 -0.7200000     -3.4663885E-18
 -0.6600000     -7.6348704E-18
 -0.6000000     -1.0052314E-17
 -0.5400000     -6.2157796E-18
 -0.4800000      7.9024559E-18
 -0.4200000      3.1730638E-17
 -0.3600000      5.5877440E-17
 -0.3000000      6.1396263E-17
 -0.2400000      2.6270692E-17
 -0.1800000     -6.0047509E-17
 -0.1200000     -1.7912309E-16
 -5.9999999E-02 -2.7439344E-16
  0.0000000E+00 -2.6356992E-16
  5.9999999E-02 -7.8599165E-17
  0.1200000      2.7737846E-16
  0.1800000      6.8605005E-16
  0.2400000      9.2236329E-16
  0.3000000      7.4134102E-16
  0.3600000      2.9287464E-17
  0.4200000     -1.0474602E-15
  0.4800000     -1.9986498E-15
  0.5400000     -2.1578099E-15
  0.6000000     -1.0252621E-15
  0.6600000      1.3180793E-15
  0.7200000      3.9609336E-15
  0.7800000      5.3212605E-15
  0.8400000      3.8168177E-15
  0.9000000     -1.1293419E-15
  0.9600000     -8.2199143E-15
   1.020000     -1.4156929E-14
   1.080000     -1.4681697E-14
   1.140000     -6.6807373E-15
   1.200000      9.4335423E-15
   1.260000      2.8365841E-14
   1.320000      4.0843935E-14
   1.380000      3.7206461E-14
   1.440000      1.2692315E-14
   1.500000     -2.7927176E-14
   1.560000     -6.9273919E-14
   1.620000     -8.9818147E-14
   1.680000     -7.1425565E-14
   1.740000     -1.0517132E-14
   1.800000      7.4797509E-14
   1.860000      1.4698776E-13
   1.920000      1.6277482E-13
   1.980000      9.4586807E-14
   2.040000     -4.9302047E-14
   2.100000     -2.1727336E-13
   2.160000     -3.2756629E-13
   2.220000     -3.0158699E-13
   2.280000     -1.0582283E-13
   2.340000      2.1705799E-13
   2.400000      5.4715987E-13
   2.460000      7.2522506E-13
   2.520000      6.2051205E-13
   2.580000      2.0213308E-13
   2.640000     -4.2099432E-13
   2.700000     -1.0188198E-12
   2.760000     -1.3214946E-12
   2.820000     -1.1370774E-12
   2.880000     -4.5584435E-13
   2.940000      5.1188714E-13
   3.000000      1.3950180E-12
   3.060000      1.8067245E-12
   3.120000      1.5201692E-12
   3.180000      5.9542426E-13
   3.240000     -6.1111093E-13
   3.300000     -1.5772509E-12
   3.360000     -1.8432649E-12
   3.420000     -1.2413826E-12
   3.480000     -1.4813053E-14
   3.540000      1.2484726E-12
   3.600000      1.8627831E-12
   3.660000      1.3791689E-12
   3.720000     -1.4315454E-13
   3.780000     -2.0717135E-12
   3.840000     -3.4080848E-12
   3.900000     -3.2133491E-12
   3.960000     -1.0851815E-12
   4.020000      2.5299567E-12
   4.080000      6.3620476E-12
   4.140000      8.7227630E-12
   4.200000      8.1667615E-12
   4.260000      4.1537086E-12
   4.320000     -2.5764883E-12
   4.380000     -1.0110405E-11
   4.440000     -1.5956833E-11
   4.500000     -1.7929656E-11
   4.560000     -1.4977380E-11
   4.620000     -7.6179176E-12
   4.680000      2.2157213E-12
   4.740000      1.1873002E-11
   4.800000      1.8948390E-11
   4.860000      2.2109106E-11
   4.920000      2.1437473E-11
   4.980000      1.8143358E-11
   5.040000      1.3780646E-11
   5.100000      9.3317932E-12
   5.160000      4.6017998E-12
   5.220000     -1.7537713E-12
   5.280000     -1.1510208E-11
   5.340000     -2.5717461E-11
   5.400000     -4.3578606E-11
   5.460000     -6.1867469E-11
   5.520000     -7.5214231E-11
   5.580000     -7.7269954E-11
   5.640000     -6.2425350E-11
   5.700000     -2.7539981E-11
   5.760000      2.6875837E-11
   5.820000      9.6386107E-11
   5.880000      1.7328636E-10
   5.940000      2.4788047E-10
   6.000000      3.0985625E-10
   6.060000      3.4924558E-10
   6.120000      3.5667375E-10
   6.180000      3.2295019E-10
   6.240000      2.3838170E-10
   6.300000      9.2364741E-11
   6.360000     -1.2625094E-10
   6.420000     -4.2782272E-10
   6.480000     -8.1980089E-10
   6.540000     -1.3043950E-09
   6.600000     -1.8767350E-09
   6.660000     -2.5241162E-09
   6.720000     -3.2265632E-09
   6.780000     -3.9584793E-09
   6.840000     -4.6908051E-09
   6.900000     -5.3929958E-09
   6.960000     -6.0343490E-09
   7.020000     -6.5846542E-09
   7.080000     -7.0146213E-09
   7.140000     -7.2968089E-09
   7.200000     -7.4076887E-09
   7.260000     -7.3310087E-09
   7.320000     -7.0619226E-09
   7.380000     -6.6107035E-09
   7.440000     -6.0046021E-09
   7.500000     -5.2866320E-09
   7.560000     -4.5108663E-09
   7.620000     -3.7348360E-09
   7.680000     -3.0106027E-09
   7.740000     -2.3765840E-09
   7.800000     -1.8520701E-09
   7.860000     -1.4356512E-09
   7.920000     -1.1076808E-09
   7.980000     -8.3584634E-10
   8.040000     -5.8224398E-10
   8.100000     -3.1024616E-10
   8.160000      1.0132046E-11
   8.220000      3.9893977E-10
   8.280000      8.6492441E-10
   8.340000      1.4055140E-09
   8.400000      2.0075195E-09
   8.460000      2.6482148E-09
   8.520000      3.2968730E-09
   8.580000      3.9171306E-09
   8.640000      4.4705768E-09
   8.700000      4.9216387E-09
   8.760000      5.2432805E-09
   8.820000      5.4225069E-09
   8.880000      5.4643237E-09
   8.940000      5.3929110E-09
   9.000000      5.2492815E-09
   9.060000      5.0855333E-09
   9.120000      4.9567057E-09
   9.180000      4.9119411E-09
   9.240000      4.9868998E-09
   9.300000      5.1990843E-09
   9.360000      5.5469567E-09
   9.420000      6.0127205E-09
   9.480000      6.5676824E-09
   9.540000      7.1785067E-09
   9.600000      7.8126634E-09
   9.660000      8.4418730E-09
   9.720000      9.0432524E-09
   9.780000      9.5987893E-09
   9.840000      1.0094356E-08
   9.900000      1.0519506E-08
   9.960000      1.0868710E-08
   10.02000      1.1143779E-08
   10.08000      1.1356305E-08
   10.14000      1.1528535E-08
   10.20000      1.1691351E-08
   10.26000      1.1878978E-08
   10.32000      1.2121324E-08
   10.38000      1.2436002E-08
   10.44000      1.2822551E-08
   10.50000      1.3260916E-08
   10.56000      1.3715049E-08
   10.62000      1.4140784E-08
   10.68000      1.4495761E-08
   10.74000      1.4748426E-08
   10.80000      1.4883470E-08
   10.86000      1.4902252E-08
   10.92000      1.4818456E-08
   10.98000      1.4650727E-08
   11.04000      1.4414914E-08
   11.10000      1.4118545E-08
   11.16000      1.3759234E-08
   11.22000      1.3327313E-08
   11.28000      1.2811597E-08
   11.34000      1.2206160E-08
   11.40000      1.1515759E-08
   11.46000      1.0758034E-08
   11.52000      9.9616484E-09
   11.58000      9.1608641E-09
   11.64000      8.3880858E-09
   11.70000      7.6665509E-09
   11.76000      7.0052333E-09
   11.82000      6.3973387E-09
   11.88000      5.8227343E-09
   11.94000      5.2535993E-09
   12.00000      4.6618278E-09
   12.06000      4.0264450E-09
   12.12000      3.3394807E-09
   12.18000      2.6092319E-09
   12.24000      1.8604469E-09
   12.30000      1.1315000E-09
   12.36000      4.6904614E-10
   12.42000     -7.9047137E-11
   12.48000     -4.7147664E-10
   12.54000     -6.8080225E-10
   12.60000     -6.9899919E-10
   12.66000     -5.4005789E-10
   12.72000     -2.3871283E-10
   12.78000      1.5502942E-10
   12.84000      5.8500954E-10
   12.90000      1.0000597E-09
   12.96000      1.3645890E-09
   13.02000      1.6655896E-09
   13.08000      1.9135129E-09
   13.14000      2.1360005E-09
   13.20000      2.3657425E-09
   13.26000      2.6260458E-09
   13.32000      2.9190195E-09
   13.38000      3.2208902E-09
   13.44000      3.4867340E-09
   13.50000      3.6635435E-09
   13.56000      3.7073482E-09
   13.62000      3.5983980E-09
   13.68000      3.3489491E-09
   13.74000      3.0007945E-09
   13.80000      2.6132991E-09
   13.86000      2.2459572E-09
   13.92000      1.9411888E-09
   13.98000      1.7127828E-09
   14.04000      1.5433547E-09
   14.10000      1.3912668E-09
   14.16000      1.2046621E-09
   14.22000      9.3835484E-10
   14.28000      5.6876459E-10
   14.34000      1.0286395E-10
   14.40000     -4.2105772E-10
   14.46000     -9.4067953E-10
   14.52000     -1.3826923E-09
   14.58000     -1.6779199E-09
   14.64000     -1.7746047E-09
   14.70000     -1.6468429E-09
   14.76000     -1.2967953E-09
   14.82000     -7.5107409E-10
   14.88000     -5.3044541E-11
   14.94000      7.4659884E-10
   15.00000      1.5987324E-09
   15.06000      2.4625118E-09
   15.12000      3.3090117E-09
   15.18000      4.1217265E-09
   15.24000      4.8945998E-09
   15.30000      5.6287521E-09
   15.36000      6.3292931E-09
   15.42000      7.0033197E-09
   15.48000      7.6595050E-09
   15.54000      8.3088070E-09
   15.60000      8.9651619E-09
   15.66000      9.6449613E-09
   15.72000      1.0364721E-08
   15.78000      1.1137303E-08
   15.84000      1.1967913E-08
   15.90000      1.2851380E-08
   15.96000      1.3771756E-08
   16.02000      1.4704508E-08
   16.08000      1.5620623E-08
   16.14000      1.6491613E-08
   16.20000      1.7294326E-08
   16.26000      1.8014783E-08
   16.32000      1.8650566E-08
   16.38000      1.9211310E-08
   16.44000      1.9716948E-08
   16.50000      2.0193646E-08
   16.56000      2.0667830E-08
   16.62000      2.1159584E-08
   16.68000      2.1677229E-08
   16.74000      2.2214921E-08
   16.80000      2.2754230E-08
   16.86000      2.3269367E-08
   16.92000      2.3734192E-08
   16.98000      2.4128459E-08
   17.04000      2.4440963E-08
   17.10000      2.4668561E-08
   17.16000      2.4811792E-08
   17.22000      2.4869246E-08
   17.28000      2.4833366E-08
   17.34000      2.4689671E-08
   17.40000      2.4419949E-08
   17.46000      2.4008218E-08
   17.52000      2.3447194E-08
   17.58000      2.2742835E-08
   17.64000      2.1915454E-08
   17.70000      2.0997135E-08
   17.76000      2.0026523E-08
   17.82000      1.9042648E-08
   17.88000      1.8079302E-08
   17.94000      1.7160913E-08
   18.00000      1.6300227E-08
   18.06000      1.5497543E-08
   18.12000      1.4741297E-08
   18.18000      1.4009948E-08
   18.24000      1.3275260E-08
   18.30000      1.2507051E-08
   18.36000      1.1679081E-08
   18.42000      1.0775207E-08
   18.48000      9.7944319E-09
   18.54000      8.7533376E-09
   18.60000      7.6847755E-09
   18.66000      6.6325185E-09
   18.72000      5.6428084E-09
   18.78000      4.7547477E-09
   18.84000      3.9920831E-09
   18.90000      3.3586434E-09
   18.96000      2.8386842E-09
   19.02000      2.4019173E-09
   19.08000      2.0116560E-09
   19.14000      1.6337616E-09
   19.20000      1.2441296E-09
   19.26000      8.3316243E-10
   19.32000      4.0663631E-10
   19.38000     -1.6814954E-11
   19.44000     -4.1087209E-10
   19.50000     -7.4835560E-10
   19.56000     -1.0084772E-09
   19.62000     -1.1830551E-09
   19.68000     -1.2801203E-09
   19.74000     -1.3236406E-09
   19.80000     -1.3489402E-09
   19.86000     -1.3946667E-09
   19.92000     -1.4933795E-09
   19.98000     -1.6634578E-09
   20.04000     -1.9047228E-09
   20.10000     -2.1990161E-09
   20.16000     -2.5154239E-09
   20.22000     -2.8185170E-09
   20.28000     -3.0772640E-09
   20.34000     -3.2723337E-09
   20.40000     -3.4001104E-09
   20.46000     -3.4726293E-09
   20.52000     -3.5135899E-09
   20.58000     -3.5514838E-09
   20.64000     -3.6116017E-09
   20.70000     -3.7091177E-09
   20.76000     -3.8453347E-09
   20.82000     -4.0084145E-09
   20.88000     -4.1785686E-09
   20.94000     -4.3361927E-09
   21.00000     -4.4703499E-09
   21.06000     -4.5848449E-09
   21.12000     -4.6999946E-09
   21.18000     -4.8497530E-09
   21.24000     -5.0754374E-09
   21.30000     -5.4182823E-09
   21.36000     -5.9130860E-09
   21.42000     -6.5844756E-09
   21.48000     -7.4461766E-09
   21.54000     -8.5027310E-09
   21.60000     -9.7526112E-09
   21.66000     -1.1191687E-08
   21.72000     -1.2816247E-08
   21.78000     -1.4625123E-08
   21.84000     -1.6620616E-08
   21.90000     -1.8808068E-08
   21.96000     -2.1194136E-08
   22.02000     -2.3784054E-08
   22.08000     -2.6578391E-08
   22.14000     -2.9570023E-08
   22.20000     -3.2741774E-08
   22.26000     -3.6065003E-08
   22.32000     -3.9499010E-08
   22.38000     -4.2991097E-08
   22.44000     -4.6477222E-08
   22.50000     -4.9883489E-08
   22.56000     -5.3128801E-08
   22.62000     -5.6128997E-08
   22.68000     -5.8802257E-08
   22.74000     -6.1075113E-08
   22.80000     -6.2888049E-08
   22.86000     -6.4199611E-08
   22.92000     -6.4988306E-08
   22.98000     -6.5252067E-08
   23.04000     -6.5005636E-08
   23.10000     -6.4276563E-08
   23.16000     -6.3100977E-08
   23.22000     -6.1520197E-08
   23.28000     -5.9579069E-08
   23.34000     -5.7326460E-08
   23.40000     -5.4817324E-08
   23.46000     -5.2114999E-08
   23.52000     -4.9291934E-08
   23.58000     -4.6427342E-08
   23.64000     -4.3601254E-08
   23.70000     -4.0886103E-08
   23.76000     -3.8337980E-08
   23.82000     -3.5990130E-08
   23.88000     -3.3850746E-08
   23.94000     -3.1905433E-08
   24.00000     -3.0123637E-08
   24.06000     -2.8467104E-08
   24.12000     -2.6898425E-08
   24.18000     -2.5388060E-08
   24.24000     -2.3918869E-08
   24.30000     -2.2487667E-08
   24.36000     -2.1103837E-08
   24.42000     -1.9785370E-08
   24.48000     -1.8553301E-08
   24.54000     -1.7425952E-08
   24.60000     -1.6414610E-08
   24.66000     -1.5521705E-08
   24.72000     -1.4741637E-08
   24.78000     -1.4063239E-08
   24.84000     -1.3472249E-08
   24.90000     -1.2952460E-08
   24.96000     -1.2485224E-08
   25.02000     -1.2048315E-08
   25.08000     -1.1615815E-08
   25.14000     -1.1160423E-08
   25.20000     -1.0658456E-08
   25.26000     -1.0096329E-08
   25.32000     -9.4763672E-09
   25.38000     -8.8198480E-09
   25.44000     -8.1661247E-09
   25.50000     -7.5680626E-09
   25.56000     -7.0851396E-09
   25.62000     -6.7759296E-09
   25.68000     -6.6913466E-09
   25.74000     -6.8692829E-09
   25.80000     -7.3306654E-09
   25.86000     -8.0767784E-09
   25.92000     -9.0879917E-09
   25.98000     -1.0324461E-08
   26.04000     -1.1729498E-08
   26.10000     -1.3235904E-08
   26.16000     -1.4774668E-08
   26.22000     -1.6284391E-08
   26.28000     -1.7719152E-08
   26.34000     -1.9052699E-08
   26.40000     -2.0277835E-08
   26.46000     -2.1401391E-08
   26.52000     -2.2436698E-08
   26.58000     -2.3396105E-08
   26.64000     -2.4285958E-08
   26.70000     -2.5105283E-08
   26.76000     -2.5847887E-08
   26.82000     -2.6506454E-08
   26.88000     -2.7076624E-08
   26.94000     -2.7559482E-08
   27.00000     -2.7961708E-08
   27.06000     -2.8293679E-08
   27.12000     -2.8566481E-08
   27.18000     -2.8788936E-08
   27.24000     -2.8965600E-08
   27.30000     -2.9096144E-08
   27.36000     -2.9176192E-08
   27.42000     -2.9199290E-08
   27.48000     -2.9159493E-08
   27.54000     -2.9053911E-08
   27.60000     -2.8884545E-08
   27.66000     -2.8658855E-08
   27.72000     -2.8388744E-08
   27.78000     -2.8088078E-08
   27.84000     -2.7769261E-08
   27.90000     -2.7439681E-08
   27.96000     -2.7098894E-08
   28.02000     -2.6737233E-08
   28.08000     -2.6336222E-08
   28.14000     -2.5870770E-08
   28.20000     -2.5312790E-08
   28.26000     -2.4635645E-08
   28.32000     -2.3818551E-08
   28.38000     -2.2850159E-08
   28.44000     -2.1730528E-08
   28.50000     -2.0471150E-08
   28.56000     -1.9093250E-08
   28.62000     -1.7625103E-08
   28.68000     -1.6099502E-08
   28.74000     -1.4552332E-08
   28.80000     -1.3022646E-08
   28.86000     -1.1553674E-08
   28.92000     -1.0193414E-08
   28.98000     -8.9932470E-09
   29.04000     -8.0035436E-09
   29.10000     -7.2663640E-09
   29.16000     -6.8067614E-09
   29.22000     -6.6250800E-09
   29.28000     -6.6927295E-09
   29.34000     -6.9530737E-09
   29.40000     -7.3275865E-09
   29.46000     -7.7259319E-09
   29.52000     -8.0576328E-09
   29.58000     -8.2427958E-09
   29.64000     -8.2199643E-09
   29.70000     -7.9501703E-09
   29.76000     -7.4173010E-09
   29.82000     -6.6256378E-09
   29.88000     -5.5957443E-09
   29.94000     -4.3598050E-09
   30.00000     -2.9573075E-09
   30.06000     -1.4316349E-09
   30.12000      1.7213389E-10
   30.18000      1.8082540E-09
   30.24000      3.4305516E-09
   30.30000      4.9925988E-09
   30.36000      6.4487233E-09
   30.42000      7.7565891E-09
   30.48000      8.8814582E-09
   30.54000      9.8013260E-09
   30.60000      1.0511268E-08
   30.66000      1.1025003E-08
   30.72000      1.1372292E-08
   30.78000      1.1592135E-08
   30.84000      1.1723436E-08
   30.90000      1.1795964E-08
   30.96000      1.1824551E-08
   31.02000      1.1808229E-08
   31.08000      1.1734174E-08
   31.14000      1.1584591E-08
   31.20000      1.1343952E-08
   31.26000      1.1004463E-08
   31.32000      1.0568857E-08
   31.38000      1.0050762E-08
   31.44000      9.4733146E-09
   31.50000      8.8664232E-09
   31.56000      8.2625338E-09
   31.62000      7.6907520E-09
   31.68000      7.1698718E-09
   31.74000      6.7020758E-09
   31.80000      6.2697523E-09
   31.86000      5.8374723E-09
   31.92000      5.3594200E-09
   31.98000      4.7903232E-09
   32.04000      4.0962638E-09
   32.10000      3.2616652E-09
   32.16000      2.2903115E-09
   32.22000      1.2007692E-09
   32.28000      1.8728174E-11
   32.34000     -1.2303566E-09
   32.40000     -2.5256945E-09
   32.46000     -3.8518326E-09
   32.52000     -5.1966058E-09
   32.58000     -6.5484498E-09
   32.64000     -7.8950348E-09
   32.70000     -9.2241015E-09
   32.76000     -1.0526021E-08
   32.82000     -1.1796640E-08
   32.88000     -1.3038782E-08
   32.94000     -1.4261472E-08
   33.00000     -1.5477093E-08
   33.06000     -1.6697733E-08
   33.12000     -1.7932432E-08
   33.18000     -1.9186608E-08
   33.24000     -2.0463681E-08
   33.30000     -2.1767745E-08
   33.36000     -2.3105356E-08
   33.42000     -2.4484846E-08
   33.48000     -2.5912918E-08
   33.54000     -2.7389889E-08
   33.60000     -2.8905870E-08
   33.66000     -3.0440056E-08
   33.72000     -3.1963815E-08
   33.78000     -3.3446586E-08
   33.84000     -3.4862246E-08
   33.90000     -3.6193700E-08
   33.96000     -3.7434393E-08
   34.02000     -3.8587004E-08
   34.08000     -3.9660584E-08
   34.14000     -4.0667505E-08
   34.20000     -4.1621025E-08
   34.26000     -4.2533436E-08
   34.32000     -4.3414548E-08
   34.38000     -4.4270379E-08
   34.44000     -4.5102478E-08
   34.50000     -4.5908376E-08
   34.56000     -4.6683436E-08
   34.62000     -4.7423423E-08
   34.68000     -4.8126843E-08
   34.74000     -4.8795840E-08
   34.80000     -4.9435311E-08
   34.86000     -5.0050630E-08
   34.92000     -5.0645060E-08
   34.98000     -5.1217889E-08
   35.04000     -5.1763912E-08
   35.10000     -5.2274142E-08
   35.16000     -5.2737327E-08
   35.22000     -5.3141761E-08
   35.28000     -5.3477109E-08
   35.34000     -5.3736048E-08
   35.40000     -5.3915514E-08
   35.46000     -5.4017089E-08
   35.52000     -5.4046190E-08
   35.58000     -5.4009686E-08
   35.64000     -5.3912455E-08
   35.70000     -5.3753670E-08
   35.76000     -5.3524310E-08
   35.82000     -5.3207248E-08
   35.88000     -5.2780710E-08
   35.94000     -5.2224969E-08
   36.00000     -5.1530908E-08
   36.06000     -5.0707836E-08
   36.12000     -4.9787605E-08
   36.18000     -4.8822475E-08
   36.24000     -4.7875982E-08
   36.30000     -4.7008658E-08
   36.36000     -4.6262819E-08
   36.42000     -4.5651763E-08
   36.48000     -4.5157790E-08
   36.54000     -4.4740244E-08
   36.60000     -4.4350983E-08
   36.66000     -4.3951587E-08
   36.72000     -4.3525823E-08
   36.78000     -4.3082995E-08
   36.84000     -4.2651646E-08
   36.90000     -4.2266890E-08
   36.96000     -4.1956763E-08
   37.02000     -4.1732754E-08
   37.08000     -4.1587068E-08
   37.14000     -4.1496502E-08
   37.20000     -4.1430372E-08
   37.26000     -4.1359513E-08
   37.32000     -4.1263835E-08
   37.38000     -4.1137216E-08
   37.44000     -4.0989296E-08
   37.50000     -4.0844164E-08
   37.56000     -4.0735891E-08
   37.62000     -4.0701540E-08
   37.68000     -4.0772736E-08
   37.74000     -4.0968029E-08
   37.80000     -4.1288445E-08
   37.86000     -4.1718060E-08
   37.92000     -4.2229683E-08
   37.98000     -4.2793776E-08
   38.04000     -4.3387391E-08
   38.10000     -4.3999847E-08
   38.16000     -4.4633186E-08
   38.22000     -4.5297718E-08
   38.28000     -4.6004789E-08
   38.34000     -4.6759975E-08
   38.40000     -4.7559265E-08
   38.46000     -4.8389310E-08
   38.52000     -4.9230994E-08
   38.58000     -5.0064269E-08
   38.64000     -5.0872281E-08
   38.70000     -5.1643422E-08
   38.76000     -5.2371437E-08
   38.82000     -5.3054453E-08
   38.88000     -5.3693963E-08
   38.94000     -5.4294087E-08
   39.00000     -5.4860646E-08
   39.06000     -5.5399184E-08
   39.12000     -5.5911670E-08
   39.18000     -5.6392565E-08
   39.24000     -5.6826142E-08
   39.30000     -5.7186874E-08
   39.36000     -5.7443721E-08
   39.42000     -5.7567327E-08
   39.48000     -5.7537417E-08
   39.54000     -5.7347336E-08
   39.60000     -5.7003813E-08
   39.66000     -5.6522222E-08
   39.72000     -5.5919859E-08
   39.78000     -5.5210588E-08
   39.84000     -5.4403269E-08
   39.90000     -5.3504380E-08
   39.96000     -5.2522825E-08
   40.02000     -5.1473901E-08
   40.08000     -5.0379906E-08
   40.14000     -4.9266749E-08
   40.20000     -4.8158046E-08
   40.26000     -4.7069364E-08
   40.32000     -4.6005063E-08
   40.38000     -4.4958867E-08
   40.44000     -4.3917410E-08
   40.50000     -4.2865111E-08
   40.56000     -4.1788372E-08
   40.62000     -4.0677943E-08
   40.68000     -3.9529315E-08
   40.74000     -3.8341700E-08
   40.80000     -3.7116365E-08
   40.86000     -3.5854907E-08
   40.92000     -3.4557871E-08
   40.98000     -3.3223973E-08
   41.04000     -3.1850345E-08
   41.10000     -3.0434233E-08
   41.16000     -2.8976171E-08
   41.22000     -2.7483994E-08
   41.28000     -2.5976192E-08
   41.34000     -2.4482800E-08
   41.40000     -2.3042482E-08
   41.46000     -2.1695881E-08
   41.52000     -2.0477041E-08
   41.58000     -1.9405926E-08
   41.64000     -1.8484977E-08
   41.70000     -1.7701201E-08
   41.76000     -1.7032800E-08
   41.82000     -1.6457360E-08
   41.88000     -1.5957834E-08
   41.94000     -1.5523890E-08
   42.00000     -1.5148654E-08
   42.06000     -1.4823487E-08
   42.12000     -1.4534465E-08
   42.18000     -1.4263284E-08
   42.24000     -1.3992701E-08
   42.30000     -1.3713978E-08
   42.36000     -1.3432482E-08
   42.42000     -1.3168504E-08
   42.48000     -1.2952731E-08
   42.54000     -1.2818429E-08
   42.60000     -1.2793550E-08
   42.66000     -1.2895387E-08
   42.72000     -1.3128439E-08
   42.78000     -1.3484417E-08
   42.84000     -1.3942791E-08
   42.90000     -1.4471341E-08
   42.96000     -1.5027743E-08
   43.02000     -1.5564021E-08
   43.08000     -1.6034910E-08
   43.14000     -1.6408869E-08
   43.20000     -1.6678294E-08
   43.26000     -1.6864492E-08
   43.32000     -1.7014498E-08
   43.38000     -1.7189919E-08
   43.44000     -1.7451415E-08
   43.50000     -1.7844318E-08
   43.56000     -1.8390372E-08
   43.62000     -1.9087752E-08
   43.68000     -1.9918124E-08
   43.74000     -2.0856861E-08
   43.80000     -2.1882014E-08
   43.86000     -2.2979080E-08
   43.92000     -2.4141180E-08
   43.98000     -2.5366546E-08
   44.04000     -2.6656117E-08
   44.10000     -2.8013421E-08
   44.16000     -2.9447330E-08
   44.22000     -3.0976668E-08
   44.28000     -3.2634794E-08
   44.34000     -3.4472549E-08
   44.40000     -3.6558934E-08
   44.46000     -3.8979934E-08
   44.52000     -4.1836287E-08
   44.58000     -4.5240885E-08
   44.64000     -4.9316050E-08
   44.70000     -5.4190725E-08
   44.76000     -5.9998001E-08
   44.82000     -6.6874321E-08
   44.88000     -7.4962180E-08
   44.94000     -8.4417984E-08
   45.00000     -9.5425150E-08
   45.06000     -1.0821059E-07
   45.12000     -1.2306074E-07
   45.18000     -1.4033311E-07
   45.24000     -1.6046090E-07
   45.30000     -1.8395056E-07
   45.36000     -2.1137637E-07
   45.42000     -2.4337655E-07
   45.48000     -2.8065605E-07
   45.54000     -3.2399839E-07
   45.60000     -3.7428535E-07
   45.66000     -4.3252061E-07
   45.72000     -4.9985312E-07
   45.78000     -5.7759547E-07
   45.84000     -6.6723726E-07
   45.90000     -7.7045371E-07
   45.96000     -8.8911372E-07
   46.02000     -1.0252894E-06
   46.08000     -1.1812697E-06
   46.14000     -1.3595773E-06
   46.20000     -1.5629912E-06
   46.26000     -1.7945708E-06
   46.32000     -2.0576811E-06
   46.38000     -2.3560190E-06
   46.44000     -2.6936418E-06
   46.50000     -3.0749902E-06
   46.56000     -3.5049081E-06
   46.62000     -3.9886595E-06
   46.68000     -4.5319380E-06
   46.74000     -5.1408729E-06
   46.80000     -5.8220376E-06
   46.86000     -6.5824556E-06
   46.92000     -7.4296090E-06
   46.98000     -8.3714513E-06
   47.04000     -9.4164152E-06
   47.10000     -1.0573414E-05
   47.16000     -1.1851834E-05
   47.22000     -1.3261516E-05
   47.28000     -1.4812726E-05
   47.34000     -1.6516118E-05
   47.40000     -1.8382707E-05
   47.46000     -2.0423809E-05
   47.52000     -2.2651004E-05
   47.58000     -2.5076075E-05
   47.64000     -2.7710954E-05
   47.70000     -3.0567655E-05
   47.76000     -3.3658191E-05
   47.82000     -3.6994494E-05
   47.88000     -4.0588318E-05
   47.94000     -4.4451113E-05
   48.00000     -4.8593909E-05
   48.06000     -5.3027226E-05
   48.12000     -5.7760924E-05
   48.18000     -6.2804065E-05
   48.24000     -6.8164831E-05
   48.30000     -7.3850329E-05
   48.36000     -7.9866513E-05
   48.42000     -8.6218060E-05
   48.48000     -9.2908216E-05
   48.54000     -9.9938668E-05
   48.60000     -1.0730946E-04
   48.66000     -1.1501882E-04
   48.72000     -1.2306312E-04
   48.78000     -1.3143667E-04
   48.84000     -1.4013180E-04
   48.90000     -1.4913869E-04
   48.96000     -1.5844536E-04
   49.02000     -1.6803769E-04
   49.08000     -1.7789942E-04
   49.14000     -1.8801217E-04
   49.20000     -1.9835547E-04
   49.26000     -2.0890679E-04
   49.32000     -2.1964169E-04
   49.38000     -2.3053383E-04
   49.44000     -2.4155516E-04
   49.50000     -2.5267605E-04
   49.56000     -2.6386557E-04
   49.62000     -2.7509147E-04
   49.68000     -2.8632081E-04
   49.74000     -2.9751984E-04
   49.80000     -3.0865462E-04
   49.86000     -3.1969100E-04
   49.92000     -3.3059507E-04
   49.98000     -3.4133330E-04
   50.04000     -3.5187308E-04
   50.10000     -3.6218279E-04
   50.16000     -3.7223232E-04
   50.22000     -3.8199322E-04
   50.28000     -3.9143904E-04
   50.34000     -4.0054557E-04
   50.40000     -4.0929124E-04
   50.46000     -4.1765714E-04
   50.52000     -4.2562725E-04
   50.58000     -4.3318875E-04
   50.64000     -4.4033217E-04
   50.70000     -4.4705154E-04
   50.76000     -4.5334443E-04
   50.82000     -4.5921194E-04
   50.88000     -4.6465851E-04
   50.94000     -4.6969196E-04
   51.00000     -4.7432349E-04
   51.06000     -4.7856753E-04
   51.12000     -4.8244168E-04
   51.18000     -4.8596656E-04
   51.24000     -4.8916537E-04
   51.30000     -4.9206364E-04
   51.36000     -4.9468875E-04
   51.42000     -4.9706968E-04
   51.48000     -4.9923663E-04
   51.54000     -5.0122070E-04
   51.60000     -5.0305371E-04
   51.66000     -5.0476746E-04
   51.72000     -5.0639350E-04
   51.78000     -5.0796248E-04
   51.84000     -5.0950423E-04
   51.90000     -5.1104679E-04
   51.96000     -5.1261630E-04
   52.02000     -5.1423680E-04
   52.08000     -5.1592983E-04
   52.14000     -5.1771384E-04
   52.20000     -5.1960425E-04
   52.26000     -5.2161323E-04
   52.32000     -5.2374945E-04
   52.38000     -5.2601809E-04
   52.44000     -5.2842096E-04
   52.50000     -5.3095620E-04
   52.56000     -5.3361832E-04
   52.62000     -5.3639855E-04
   52.68000     -5.3928443E-04
   52.74000     -5.4226059E-04
   52.80000     -5.4530893E-04
   52.86000     -5.4840860E-04
   52.92000     -5.5153656E-04
   52.98000     -5.5466767E-04
   53.04000     -5.5777532E-04
   53.10000     -5.6083134E-04
   53.16000     -5.6380685E-04
   53.22000     -5.6667242E-04
   53.28000     -5.6939916E-04
   53.34000     -5.7195855E-04
   53.40000     -5.7432317E-04
   53.46000     -5.7646673E-04
   53.52000     -5.7836436E-04
   53.58000     -5.7999318E-04
   53.64000     -5.8133254E-04
   53.70000     -5.8236427E-04
   53.76000     -5.8307324E-04
   53.82000     -5.8344734E-04
   53.88000     -5.8347784E-04
   53.94000     -5.8315898E-04
   54.00000     -5.8248849E-04
   54.06000     -5.8146741E-04
   54.12000     -5.8009988E-04
   54.18000     -5.7839329E-04
   54.24000     -5.7635823E-04
   54.30000     -5.7400810E-04
   54.36000     -5.7135918E-04
   54.42000     -5.6842982E-04
   54.48000     -5.6524063E-04
   54.54000     -5.6181406E-04
   54.60000     -5.5817410E-04
   54.66000     -5.5434578E-04
   54.72000     -5.5035483E-04
   54.78000     -5.4622744E-04
   54.84000     -5.4198946E-04
   54.90000     -5.3766667E-04
   54.96000     -5.3328415E-04
   55.02000     -5.2886602E-04
   55.08000     -5.2443513E-04
   55.14000     -5.2001263E-04
   55.20000     -5.1561772E-04
   55.26000     -5.1126734E-04
   55.32000     -5.0697610E-04
   55.38000     -5.0275616E-04
   55.44000     -4.9861701E-04
   55.50000     -4.9456605E-04
   55.56000     -4.9060775E-04