  -2.400000      0.0000000E+00
  -2.340000      0.0000000E+00
  -2.280000      0.0000000E+00
  -2.220000      0.0000000E+00
  -2.160000      0.0000000E+00
  -2.100000      0.0000000E+00
  -2.040000      0.0000000E+00
  -1.980000      0.0000000E+00
  -1.920000     -6.7307276E-27
  -1.860000     -2.4515477E-25
  -1.800000     -2.4410559E-24
  -1.740000     -1.3040627E-23
  -1.680000     -4.3861723E-23
  -1.620000     -9.1076188E-23
  -1.560000     -6.4076382E-23
  -1.500000      3.2019564E-22
  -1.440000      1.5159480E-21
  -1.380000      3.6556605E-21
  -1.320000      5.3153390E-21
  -1.260000      2.0222712E-21
  -1.200000     -1.3533692E-20
  -1.140000     -4.6477647E-20
  -1.080000     -8.8244494E-20
  -1.020000     -1.0292281E-19
 -0.9600000     -2.5053179E-20
 -0.9000000      2.1199851E-19
 -0.8400000      6.0723753E-19
 -0.7800000      1.0038056E-18
 -0.7200000      1.0456787E-18
 -0.6600000      2.6880563E-19
 -0.6000000     -1.6180997E-18
 -0.5400000     -4.3228616E-18
 -0.4800000     -6.6506318E-18
 -0.4200000     -6.6056187E-18
 -0.3600000     -2.1701687E-18
 -0.3000000      7.3046632E-18
 -0.2400000      1.9653037E-17
 -0.1800000      2.9350952E-17
 -0.1200000      2.8811409E-17
 -5.9999999E-02  1.1787237E-17
  0.0000000E+00 -2.2056664E-17
  5.9999999E-02 -6.3580000E-17
  0.1200000     -9.4301065E-17
  0.1800000     -9.2042054E-17
  0.2400000     -4.1531819E-17
  0.3000000      5.3731383E-17
  0.3600000      1.6450505E-16
  0.4200000      2.3991443E-16
  0.4800000      2.2540214E-16
  0.5400000      9.0703272E-17
  0.6000000     -1.4332033E-16
  0.6600000     -3.9444135E-16
  0.7200000     -5.3821680E-16
  0.7800000     -4.5809723E-16
  0.8400000     -1.1105524E-16
  0.9000000      4.2190613E-16
  0.9600000      9.3442441E-16
   1.020000      1.1612477E-15
   1.080000      8.9856093E-16
   1.140000      1.2792340E-16
   1.200000     -9.2521292E-16
   1.260000     -1.8503172E-15
   1.320000     -2.2248371E-15
   1.380000     -1.8277415E-15
   1.440000     -7.7423094E-16
   1.500000      5.2945340E-16
   1.560000      1.6207049E-15
   1.620000      2.2867016E-15
   1.680000      2.7356405E-15
   1.740000      3.4531411E-15
   1.800000      4.7296367E-15
   1.860000      6.0873386E-15
   1.920000      6.0170099E-15
   1.980000      2.4065788E-15
   2.040000     -6.2594917E-15
   2.100000     -1.9338645E-14
   2.160000     -3.2945628E-14
   2.220000     -4.0266445E-14
   2.280000     -3.3748720E-14
   2.340000     -8.7543218E-15
   2.400000      3.2716787E-14
   2.460000      8.0161341E-14
   2.520000      1.1617024E-13
   2.580000      1.2183066E-13
   2.640000      8.4489083E-14
   2.700000      4.9097066E-15
   2.760000     -9.9566500E-14
   2.820000     -1.9814463E-13
   2.880000     -2.5584884E-13
   2.940000     -2.4602759E-13
   3.000000     -1.6129413E-13
   3.060000     -1.8166202E-14
   3.120000      1.4708189E-13
   3.180000      2.9020468E-13
   3.240000      3.7381038E-13
   3.300000      3.7905700E-13
   3.360000      3.0931074E-13
   3.420000      1.8458611E-13
   3.480000      3.0121196E-14
   3.540000     -1.3448318E-13
   3.600000     -2.9930033E-13
   3.660000     -4.5870810E-13
   3.720000     -5.9964490E-13
   3.780000     -6.9120935E-13
   3.840000     -6.8428943E-13
   3.900000     -5.2595455E-13
   3.960000     -1.8575065E-13
   4.020000      3.1671036E-13
   4.080000      8.9720825E-13
   4.140000      1.4167199E-12
   4.200000      1.7173921E-12
   4.260000      1.6743071E-12
   4.320000      1.2434744E-12
   4.380000      4.8527783E-13
   4.440000     -4.4889130E-13
   4.500000     -1.3638321E-12
   4.560000     -2.0832147E-12
   4.620000     -2.5013271E-12
   4.680000     -2.6013078E-12
   4.740000     -2.4322196E-12
   4.800000     -2.0569945E-12
   4.860000     -1.4985191E-12
   4.920000     -7.1409821E-13
   4.980000      3.8312067E-13
   5.040000      1.8590563E-12
   5.100000      3.6755906E-12
   5.160000      5.6275744E-12
   5.220000      7.3342608E-12
   5.280000      8.3003578E-12
   5.340000      8.0351715E-12
   5.400000      6.1951312E-12
   5.460000      2.7046646E-12
   5.520000     -2.1833668E-12
   5.580000     -7.9067707E-12
   5.640000     -1.3686536E-11
   5.700000     -1.8664577E-11
   5.760000     -2.2046250E-11
   5.820000     -2.3207039E-11
   5.880000     -2.1734061E-11
   5.940000     -1.7392860E-11
   6.000000     -1.0034174E-11
   6.060000      5.2171548E-13
   6.120000      1.4571290E-11
   6.180000      3.2535554E-11
   6.240000      5.4863777E-11
   6.300000      8.1849139E-11
   6.360000      1.1341758E-10
   6.420000      1.4897959E-10
   6.480000      1.8742781E-10
   6.540000      2.2731529E-10
   6.600000      2.6717528E-10
   6.660000      3.0587427E-10
   6.720000      3.4286116E-10
   6.780000      3.7820744E-10
   6.840000      4.1241599E-10
   6.900000      4.4607507E-10
   6.960000      4.7950105E-10
   7.020000      5.1251359E-10
   7.080000      5.4441857E-10
   7.140000      5.7417171E-10
   7.200000      6.0061156E-10
   7.260000      6.2263344E-10
   7.320000      6.3922817E-10
   7.380000      6.4940930E-10
   7.440000      6.5213496E-10
   7.500000      6.4635053E-10
   7.560000      6.3121786E-10
   7.620000      6.0648608E-10
   7.680000      5.7285865E-10
   7.740000      5.3218380E-10
   7.800000      4.8735516E-10
   7.860000      4.4193668E-10
   7.920000      3.9965065E-10
   7.980000      3.6392056E-10
   8.040000      3.3761730E-10
   8.100000      3.2303454E-10
   8.160000      3.2199052E-10
   8.220000      3.3588940E-10
   8.280000      3.6562023E-10
   8.340000      4.1129664E-10
   8.400000      4.7197968E-10
   8.460000      5.4559235E-10
   8.520000      6.2918060E-10
   8.580000      7.1952094E-10
   8.640000      8.1390022E-10
   8.700000      9.1078500E-10
   8.760000      1.0101300E-09
   8.820000      1.1132225E-09
   8.880000      1.2221628E-09
   8.940000      1.3392221E-09
   9.000000      1.4663444E-09
   9.060000      1.6049551E-09
   9.120000      1.7560646E-09
   9.180000      1.9205177E-09
   9.240000      2.0991910E-09
   9.300000      2.2929967E-09
   9.360000      2.5026801E-09
   9.420000      2.7284901E-09
   9.480000      2.9698424E-09
   9.540000      3.2250647E-09
   9.600000      3.4912402E-09
   9.660000      3.7641357E-09
   9.720000      4.0382209E-09
   9.780000      4.3068460E-09
   9.840000      4.5627053E-09
   9.900000      4.7986966E-09
   9.960000      5.0091820E-09
   10.02000      5.1914912E-09
   10.08000      5.3473599E-09
   10.14000      5.4839022E-09
   10.20000      5.6137881E-09
   10.26000      5.7544227E-09
   10.32000      5.9261498E-09
   10.38000      6.1496688E-09
   10.44000      6.4429400E-09
   10.50000      6.8179160E-09
   10.56000      7.2773809E-09
   10.62000      7.8122113E-09
   10.68000      8.3994118E-09
   10.74000      9.0013810E-09
   10.80000      9.5668966E-09
   10.86000      1.0034256E-08
   10.92000      1.0336749E-08
   10.98000      1.0410180E-08
   11.04000      1.0201651E-08
   11.10000      9.6783355E-09
   11.16000      8.8347827E-09
   11.22000      7.6974027E-09
   11.28000      6.3252479E-09
   11.34000      4.8068522E-09
   11.40000      3.2535390E-09
   11.46000      1.7900575E-09
   11.52000      5.4360855E-10
   11.58000     -3.6771650E-10
   11.64000     -8.4616802E-10
   11.70000     -8.2438562E-10
   11.76000     -2.7333896E-10
   11.82000      7.9287826E-10
   11.88000      2.3164599E-09
   11.94000      4.2002930E-09
   12.00000      6.3175092E-09
   12.06000      8.5253857E-09
   12.12000      1.0681795E-08
   12.18000      1.2661638E-08
   12.24000      1.4370467E-08
   12.30000      1.5752974E-08
   12.36000      1.6795063E-08
   12.42000      1.7519577E-08
   12.48000      1.7977083E-08
   12.54000      1.8233889E-08
   12.60000      1.8359755E-08
   12.66000      1.8417275E-08
   12.72000      1.8454177E-08
   12.78000      1.8498882E-08
   12.84000      1.8559154E-08
   12.90000      1.8623233E-08
   12.96000      1.8663020E-08
   13.02000      1.8638861E-08
   13.08000      1.8505544E-08
   13.14000      1.8219042E-08
   13.20000      1.7743254E-08
   13.26000      1.7055909E-08
   13.32000      1.6152798E-08
   13.38000      1.5049658E-08
   13.44000      1.3781343E-08
   13.50000      1.2398276E-08
   13.56000      1.0960377E-08
   13.62000      9.5290549E-09
   13.68000      8.1581382E-09
   13.74000      6.8850747E-09
   13.80000      5.7240053E-09
   13.86000      4.6624029E-09
   13.92000      3.6624734E-09
   13.98000      2.6676412E-09
   14.04000      1.6132317E-09
   14.10000      4.3938944E-10
   14.16000     -8.9634938E-10
   14.22000     -2.4093731E-09
   14.28000     -4.0830859E-09
   14.34000     -5.8696470E-09
   14.40000     -7.6961175E-09
   14.46000     -9.4748556E-09
   14.52000     -1.1116322E-08
   14.58000     -1.2542109E-08
   14.64000     -1.3695884E-08
   14.70000     -1.4550261E-08
   14.76000     -1.5108197E-08
   14.82000     -1.5398662E-08
   14.88000     -1.5467485E-08
   14.94000     -1.5365519E-08
   15.00000     -1.5136971E-08
   15.06000     -1.4810657E-08
   15.12000     -1.4396188E-08
   15.18000     -1.3885632E-08
   15.24000     -1.3259625E-08
   15.30000     -1.2495672E-08
   15.36000     -1.1575889E-08
   15.42000     -1.0491843E-08
   15.48000     -9.2454080E-09
   15.54000     -7.8460491E-09
   15.60000     -6.3063794E-09
   15.66000     -4.6383857E-09
   15.72000     -2.8523444E-09
   15.78000     -9.5917618E-10
   15.84000      1.0246608E-09
   15.90000      3.0719789E-09
   15.96000      5.1420481E-09
   16.02000      7.1821629E-09
   16.08000      9.1340180E-09
   16.14000      1.0943475E-08
   16.20000      1.2570842E-08
   16.26000      1.3998394E-08
   16.32000      1.5232507E-08
   16.38000      1.6299488E-08
   16.44000      1.7236101E-08
   16.50000      1.8077587E-08
   16.56000      1.8846819E-08
   16.62000      1.9547953E-08
   16.68000      2.0166629E-08
   16.74000      2.0676683E-08
   16.80000      2.1051141E-08
   16.86000      2.1273834E-08
   16.92000      2.1347606E-08
   16.98000      2.1296110E-08
   17.04000      2.1158298E-08
   17.10000      2.0977103E-08
   17.16000      2.0785780E-08
   17.22000      2.0596145E-08
   17.28000      2.0392475E-08
   17.34000      2.0133086E-08
   17.40000      1.9759460E-08
   17.46000      1.9210713E-08
   17.52000      1.8439737E-08
   17.58000      1.7426814E-08
   17.64000      1.6187043E-08
   17.70000      1.4769168E-08
   17.76000      1.3245490E-08
   17.82000      1.1694834E-08
   17.88000      1.0182633E-08
   17.94000      8.7434664E-09
   18.00000      7.3713138E-09
   18.06000      6.0209628E-09
   18.12000      4.6211071E-09
   18.18000      3.0960468E-09
   18.24000      1.3900885E-09
   18.30000     -5.1252369E-10
   18.36000     -2.5783045E-09
   18.42000     -4.7290394E-09
   18.48000     -6.8591279E-09
   18.54000     -8.8607779E-09
   18.60000     -1.0649513E-08
   18.66000     -1.2182165E-08
   18.72000     -1.3461764E-08
   18.78000     -1.4527809E-08
   18.84000     -1.5435100E-08
   18.90000     -1.6228123E-08
   18.96000     -1.6919637E-08
   19.02000     -1.7480916E-08
   19.08000     -1.7847340E-08
   19.14000     -1.7937996E-08
   19.20000     -1.7683103E-08
   19.26000     -1.7050375E-08
   19.32000     -1.6061573E-08
   19.38000     -1.4793726E-08
   19.44000     -1.3364428E-08
   19.50000     -1.1905835E-08
   19.56000     -1.0535473E-08
   19.62000     -9.3327692E-09
   19.68000     -8.3280298E-09
   19.74000     -7.5062641E-09
   19.80000     -6.8233343E-09
   19.86000     -6.2280328E-09
   19.92000     -5.6821174E-09
   19.98000     -5.1716205E-09
   20.04000     -4.7062683E-09
   20.10000     -4.3084327E-09
   20.16000     -3.9969468E-09
   20.22000     -3.7729282E-09
   20.28000     -3.6138137E-09
   20.34000     -3.4783953E-09
   20.40000     -3.3211127E-09
   20.46000     -3.1099103E-09
   20.52000     -2.8402249E-09
   20.58000     -2.5388496E-09
   20.64000     -2.2551578E-09
   20.70000     -2.0420796E-09
   20.76000     -1.9334054E-09
   20.82000     -1.9258646E-09
   20.88000     -1.9731794E-09
   20.94000     -1.9953579E-09
   21.00000     -1.9012092E-09
   21.06000     -1.6173631E-09
   21.12000     -1.1145621E-09
   21.18000     -4.2262813E-10
   21.24000      3.7097697E-10
   21.30000      1.1388387E-09
   21.36000      1.7422053E-09
   21.42000      2.0618243E-09
   21.48000      2.0218109E-09
   21.54000      1.5998436E-09
   21.60000      8.2155088E-10
   21.66000     -2.5793467E-10
   21.72000     -1.5783497E-09
   21.78000     -3.0961480E-09
   21.84000     -4.7966386E-09
   21.90000     -6.6927699E-09
   21.96000     -8.8115701E-09
   22.02000     -1.1173416E-08
   22.08000     -1.3771727E-08
   22.14000     -1.6560557E-08
   22.20000     -1.9454973E-08
   22.26000     -2.2344826E-08
   22.32000     -2.5118020E-08
   22.38000     -2.7685973E-08
   22.44000     -3.0003019E-08
   22.50000     -3.2073292E-08
   22.56000     -3.3942698E-08
   22.62000     -3.5678696E-08
   22.68000     -3.7344698E-08
   22.74000     -3.8977877E-08
   22.80000     -4.0577948E-08
   22.86000     -4.2110585E-08
   22.92000     -4.3523883E-08
   22.98000     -4.4771728E-08
   23.04000     -4.5835449E-08
   23.10000     -4.6735849E-08
   23.16000     -4.7531135E-08
   23.22000     -4.8301235E-08
   23.28000     -4.9123678E-08
   23.34000     -5.0049021E-08
   23.40000     -5.1084029E-08
   23.46000     -5.2188138E-08
   23.52000     -5.3284289E-08
   23.58000     -5.4280658E-08
   23.64000     -5.5095985E-08
   23.70000     -5.5680321E-08
   23.76000     -5.6024341E-08
   23.82000     -5.6154594E-08
   23.88000     -5.6116729E-08
   23.94000     -5.5953240E-08
   24.00000     -5.5684016E-08
   24.06000     -5.5297118E-08
   24.12000     -5.4753375E-08
   24.18000     -5.4003273E-08
   24.24000     -5.3010027E-08
   24.30000     -5.1770392E-08
   24.36000     -5.0325426E-08
   24.42000     -4.8756871E-08
   24.48000     -4.7169856E-08
   24.54000     -4.5667257E-08
   24.60000     -4.4324068E-08
   24.66000     -4.3170250E-08
   24.72000     -4.2187974E-08
   24.78000     -4.1324657E-08
   24.84000     -4.0517975E-08
   24.90000     -3.9724924E-08
   24.96000     -3.8945238E-08
   25.02000     -3.8230755E-08
   25.08000     -3.7676802E-08
   25.14000     -3.7397466E-08
   25.20000     -3.7492487E-08
   25.26000     -3.8016687E-08
   25.32000     -3.8962344E-08
   25.38000     -4.0260765E-08
   25.44000     -4.1802696E-08
   25.50000     -4.3470820E-08
   25.56000     -4.5173632E-08
   25.62000     -4.6869747E-08
   25.68000     -4.8575245E-08
   25.74000     -5.0352341E-08
   25.80000     -5.2283696E-08
   25.86000     -5.4440687E-08
   25.92000     -5.6855360E-08
   25.98000     -5.9504060E-08
   26.04000     -6.2307016E-08
   26.10000     -6.5143304E-08
   26.16000     -6.7876620E-08
   26.22000     -7.0384289E-08
   26.28000     -7.2581784E-08
   26.34000     -7.4436414E-08
   26.40000     -7.5967307E-08
   26.46000     -7.7232762E-08
   26.52000     -7.8309192E-08
   26.58000     -7.9267757E-08
   26.64000     -8.0154464E-08
   26.70000     -8.0978396E-08
   26.76000     -8.1709679E-08
   26.82000     -8.2286959E-08
   26.88000     -8.2632042E-08
   26.94000     -8.2668144E-08
   27.00000     -8.2338019E-08
   27.06000     -8.1617920E-08
   27.12000     -8.0524579E-08
   27.18000     -7.9113292E-08
   27.24000     -7.7467497E-08
   27.30000     -7.5682252E-08
   27.36000     -7.3845698E-08
   27.42000     -7.2023425E-08
   27.48000     -7.0249762E-08
   27.54000     -6.8528180E-08
   27.60000     -6.6839895E-08
   27.66000     -6.5157536E-08
   27.72000     -6.3459005E-08
   27.78000     -6.1736976E-08
   27.84000     -6.0000971E-08
   27.90000     -5.8271937E-08
   27.96000     -5.6571729E-08
   28.02000     -5.4911705E-08
   28.08000     -5.3284964E-08
   28.14000     -5.1665118E-08
   28.20000     -5.0012112E-08
   28.26000     -4.8283155E-08
   28.32000     -4.6445130E-08
   28.38000     -4.4484722E-08
   28.44000     -4.2413529E-08
   28.50000     -4.0267096E-08
   28.56000     -3.8098609E-08
   28.62000     -3.5968991E-08
   28.68000     -3.3935798E-08
   28.74000     -3.2043033E-08
   28.80000     -3.0313945E-08
   28.86000     -2.8748174E-08
   28.92000     -2.7323921E-08
   28.98000     -2.6004747E-08
   29.04000     -2.4749408E-08
   29.10000     -2.3522155E-08
   29.16000     -2.2300638E-08
   29.22000     -2.1079247E-08
   29.28000     -1.9867255E-08
   29.34000     -1.8682842E-08
   29.40000     -1.7545556E-08
   29.46000     -1.6470123E-08
   29.52000     -1.5463796E-08
   29.58000     -1.4527944E-08
   29.64000     -1.3662752E-08
   29.70000     -1.2872511E-08
   29.76000     -1.2168571E-08
   29.82000     -1.1567729E-08
   29.88000     -1.1085496E-08
   29.94000     -1.0725925E-08
   30.00000     -1.0471575E-08
   30.06000     -1.0278066E-08
   30.12000     -1.0076902E-08
   30.18000     -9.7878301E-09
   30.24000     -9.3385299E-09
   30.30000     -8.6861318E-09
   30.36000     -7.8332976E-09
   30.42000     -6.8322836E-09
   30.48000     -5.7737206E-09
   30.54000     -4.7618727E-09
   30.60000     -3.8831725E-09
   30.66000     -3.1780438E-09
   30.72000     -2.6260092E-09
   30.78000     -2.1505184E-09
   30.84000     -1.6437330E-09
   30.90000     -1.0046197E-09
   30.96000     -1.7847013E-10
   31.02000      8.1564533E-10
   31.08000      1.8800321E-09
   31.14000      2.8598417E-09
   31.20000      3.5858512E-09
   31.26000      3.9258854E-09
   31.32000      3.8283750E-09
   31.38000      3.3431724E-09
   31.44000      2.6115767E-09
   31.50000      1.8274686E-09
   31.56000      1.1811025E-09
   31.62000      8.0311841E-10
   31.68000      7.2652384E-10
   31.74000      8.7867663E-10
   31.80000      1.1056263E-09
   31.86000      1.2208567E-09
   31.92000      1.0629484E-09
   31.98000      5.4428484E-10
   32.04000     -3.2376724E-10
   32.10000     -1.4360677E-09
   32.16000     -2.6266791E-09
   32.22000     -3.7186632E-09
   32.28000     -4.5751016E-09
   32.34000     -5.1359494E-09
   32.40000     -5.4302105E-09
   32.46000     -5.5608163E-09
   32.52000     -5.6680771E-09
   32.58000     -5.8840137E-09
   32.64000     -6.2923000E-09
   32.70000     -6.9062742E-09
   32.76000     -7.6712539E-09
   32.82000     -8.4893532E-09
   32.88000     -9.2577439E-09
   32.94000     -9.9072484E-09
   33.00000     -1.0428419E-08
   33.06000     -1.0876773E-08
   33.12000     -1.1355803E-08
   33.18000     -1.1983666E-08
   33.24000     -1.2854572E-08
   33.30000     -1.4007499E-08
   33.36000     -1.5412347E-08
   33.42000     -1.6978102E-08
   33.48000     -1.8580485E-08
   33.54000     -2.0100202E-08
   33.60000     -2.1459369E-08
   33.66000     -2.2644020E-08
   33.72000     -2.3705041E-08
   33.78000     -2.4737041E-08
   33.84000     -2.5842207E-08
   33.90000     -2.7091636E-08
   33.96000     -2.8497693E-08
   34.02000     -3.0007264E-08
   34.08000     -3.1518532E-08
   34.14000     -3.2915437E-08
   34.20000     -3.4107703E-08
   34.26000     -3.5062129E-08
   34.32000     -3.5814050E-08
   34.38000     -3.6454669E-08
   34.44000     -3.7098577E-08
   34.50000     -3.7842572E-08
   34.56000     -3.8729933E-08
   34.62000     -3.9732321E-08
   34.68000     -4.0755548E-08
   34.74000     -4.1667253E-08
   34.80000     -4.2337170E-08
   34.86000     -4.2676586E-08
   34.92000     -4.2663881E-08
   34.98000     -4.2348145E-08
   35.04000     -4.1830287E-08
   35.10000     -4.1228898E-08
   35.16000     -4.0642998E-08
   35.22000     -4.0124416E-08
   35.28000     -3.9668471E-08
   35.34000     -3.9224645E-08
   35.40000     -3.8721755E-08
   35.46000     -3.8097259E-08
   35.52000     -3.7319591E-08
   35.58000     -3.6396028E-08
   35.64000     -3.5364490E-08
   35.70000     -3.4274105E-08
   35.76000     -3.3163275E-08
   35.82000     -3.2044337E-08
   35.88000     -3.0900846E-08
   35.94000     -2.9697983E-08
   36.00000     -2.8401361E-08
   36.06000     -2.6996059E-08
   36.12000     -2.5497878E-08
   36.18000     -2.3952008E-08
   36.24000     -2.2419519E-08
   36.30000     -2.0957060E-08
   36.36000     -1.9597937E-08
   36.42000     -1.8342121E-08
   36.48000     -1.7159129E-08
   36.54000     -1.6002566E-08
   36.60000     -1.4830543E-08
   36.66000     -1.3624031E-08
   36.72000     -1.2396320E-08
   36.78000     -1.1190275E-08
   36.84000     -1.0064790E-08
   36.90000     -9.0756629E-09
   36.96000     -8.2578513E-09
   37.02000     -7.6152062E-09
   37.08000     -7.1209927E-09
   37.14000     -6.7287411E-09
   37.20000     -6.3896088E-09
   37.26000     -6.0704588E-09
   37.32000     -5.7667182E-09
   37.38000     -5.5058904E-09
   37.44000     -5.3406528E-09
   37.50000     -5.3339031E-09
   37.56000     -5.5407572E-09
   37.62000     -5.9934302E-09
   37.68000     -6.6937811E-09
   37.74000     -7.6154700E-09
   37.80000     -8.7142311E-09
   37.86000     -9.9419726E-09
   37.92000     -1.1259400E-08
   37.98000     -1.2642833E-08
   38.04000     -1.4083500E-08
   38.10000     -1.5580603E-08
   38.16000     -1.7131880E-08
   38.22000     -1.8726109E-08
   38.28000     -2.0341204E-08
   38.34000     -2.1949077E-08
   38.40000     -2.3525757E-08
   38.46000     -2.5062786E-08
   38.52000     -2.6575002E-08
   38.58000     -2.8100548E-08
   38.64000     -2.9691426E-08
   38.70000     -3.1396450E-08
   38.76000     -3.3241594E-08
   38.82000     -3.5214633E-08
   38.88000     -3.7260339E-08
   38.94000     -3.9289461E-08
   39.00000     -4.1200181E-08
   39.06000     -4.2906059E-08
   39.12000     -4.4361617E-08
   39.18000     -4.5576787E-08
   39.24000     -4.6614616E-08
   39.30000     -4.7571955E-08
   39.36000     -4.8548639E-08
   39.42000     -4.9614737E-08
   39.48000     -5.0786564E-08
   39.54000     -5.2019612E-08
   39.60000     -5.3221115E-08
   39.66000     -5.4278669E-08
   39.72000     -5.5095775E-08
   39.78000     -5.5622657E-08
   39.84000     -5.5872096E-08
   39.90000     -5.5914768E-08
   39.96000     -5.5855278E-08
   40.02000     -5.5796669E-08
   40.08000     -5.5804854E-08
   40.14000     -5.5884740E-08
   40.20000     -5.5975825E-08
   40.26000     -5.5968876E-08
   40.32000     -5.5738440E-08
   40.38000     -5.5180994E-08
   40.44000     -5.4246858E-08
   40.50000     -5.2956203E-08
   40.56000     -5.1394412E-08
   40.62000     -4.9688584E-08
   40.68000     -4.7972676E-08
   40.74000     -4.6351957E-08
   40.80000     -4.4877464E-08
   40.86000     -4.3537611E-08
   40.92000     -4.2268685E-08
   40.98000     -4.0979923E-08
   41.04000     -3.9584805E-08
   41.10000     -3.8028503E-08
   41.16000     -3.6303529E-08
   41.22000     -3.4449698E-08
   41.28000     -3.2539866E-08
   41.34000     -3.0657045E-08
   41.40000     -2.8870772E-08
   41.46000     -2.7220009E-08
   41.52000     -2.5707072E-08
   41.58000     -2.4303342E-08
   41.64000     -2.2963752E-08
   41.70000     -2.1644682E-08
   41.76000     -2.0319417E-08
   41.82000     -1.8986565E-08
   41.88000     -1.7669523E-08
   41.94000     -1.6408057E-08
   42.00000     -1.5245540E-08
   42.06000     -1.4216445E-08
   42.12000     -1.3338263E-08
   42.18000     -1.2609989E-08
   42.24000     -1.2016925E-08
   42.30000     -1.1539306E-08
   42.36000     -1.1161207E-08
   42.42000     -1.0876573E-08
   42.48000     -1.0690573E-08
   42.54000     -1.0616461E-08
   42.60000     -1.0669656E-08
   42.66000     -1.0861544E-08
   42.72000     -1.1195337E-08
   42.78000     -1.1665356E-08
   42.84000     -1.2259804E-08
   42.90000     -1.2965877E-08
   42.96000     -1.3775192E-08
   43.02000     -1.4687322E-08
   43.08000     -1.5709849E-08
   43.14000     -1.6854495E-08
   43.20000     -1.8130477E-08
   43.26000     -1.9537572E-08
   43.32000     -2.1061819E-08
   43.38000     -2.2676268E-08
   43.44000     -2.4347404E-08
   43.50000     -2.6045745E-08
   43.56000     -2.7757178E-08
   43.62000     -2.9490860E-08
   43.68000     -3.1280308E-08
   43.74000     -3.3176498E-08
   43.80000     -3.5234535E-08
   43.86000     -3.7498090E-08
   43.92000     -3.9986912E-08
   43.98000     -4.2692211E-08
   44.04000     -4.5582301E-08
   44.10000     -4.8617540E-08
   44.16000     -5.1770165E-08
   44.22000     -5.5042623E-08
   44.28000     -5.8478001E-08
   44.34000     -6.2158769E-08
   44.40000     -6.6193934E-08
   44.46000     -7.0699180E-08
   44.52000     -7.5777585E-08
   44.58000     -8.1508631E-08
   44.64000     -8.7950788E-08
   44.70000     -9.5158185E-08
   44.76000     -1.0320684E-07
   44.82000     -1.1222263E-07
   44.88000     -1.2240255E-07
   44.94000     -1.3402362E-07
   45.00000     -1.4743860E-07
   45.06000     -1.6306258E-07
   45.12000     -1.8135815E-07
   45.18000     -2.0282644E-07
   45.24000     -2.2800984E-07
   45.30000     -2.5750668E-07
   45.36000     -2.9199524E-07
   45.42000     -3.3226110E-07
   45.48000     -3.7922234E-07
   45.54000     -4.3394863E-07
   45.60000     -4.9767368E-07
   45.66000     -5.7180307E-07
   45.72000     -6.5792074E-07
   45.78000     -7.5779872E-07
   45.84000     -8.7341135E-07
   45.90000     -1.0069563E-06
   45.96000     -1.1608806E-06
   46.02000     -1.3379107E-06
   46.08000     -1.5410812E-06
   46.14000     -1.7737646E-06
   46.20000     -2.0396933E-06
   46.26000     -2.3429834E-06
   46.32000     -2.6881542E-06
   46.38000     -3.0801527E-06
   46.44000     -3.5243845E-06
   46.50000     -4.0267473E-06
   46.56000     -4.5936713E-06
   46.62000     -5.2321552E-06
   46.68000     -5.9497993E-06
   46.74000     -6.7548272E-06
   46.80000     -7.6560909E-06
   46.86000     -8.6630798E-06
   46.92000     -9.7859111E-06
   46.98000     -1.1035332E-05
   47.04000     -1.2422725E-05
   47.10000     -1.3960114E-05
   47.16000     -1.5660171E-05
   47.22000     -1.7536217E-05
   47.28000     -1.9602208E-05
   47.34000     -2.1872704E-05
   47.40000     -2.4362813E-05
   47.46000     -2.7088128E-05
   47.52000     -3.0064653E-05
   47.58000     -3.3308697E-05
   47.64000     -3.6836816E-05
   47.70000     -4.0665713E-05
   47.76000     -4.4812143E-05
   47.82000     -4.9292841E-05
   47.88000     -5.4124394E-05
   47.94000     -5.9323109E-05
   48.00000     -6.4904882E-05
   48.06000     -7.0884998E-05
   48.12000     -7.7277953E-05
   48.18000     -8.4097272E-05
   48.24000     -9.1355294E-05
   48.30000     -9.9063021E-05
   48.36000     -1.0722993E-04
   48.42000     -1.1586385E-04
   48.48000     -1.2497083E-04
   48.54000     -1.3455497E-04
   48.60000     -1.4461835E-04
   48.66000     -1.5516079E-04
   48.72000     -1.6617969E-04
   48.78000     -1.7766983E-04
   48.84000     -1.8962332E-04
   48.90000     -2.0202933E-04
   48.96000     -2.1487421E-04
   49.02000     -2.2814130E-04
   49.08000     -2.4181111E-04
   49.14000     -2.5586123E-04
   49.20000     -2.7026652E-04
   49.26000     -2.8499906E-04
   49.32000     -3.0002824E-04
   49.38000     -3.1532111E-04
   49.44000     -3.3084213E-04
   49.50000     -3.4655357E-04
   49.56000     -3.6241568E-04
   49.62000     -3.7838708E-04
   49.68000     -3.9442489E-04
   49.74000     -4.1048514E-04
   49.80000     -4.2652318E-04
   49.86000     -4.4249400E-04
   49.92000     -4.5835259E-04
   49.98000     -4.7405437E-04
   50.04000     -4.8955565E-04
   50.10000     -5.0481380E-04
   50.16000     -5.1978772E-04
   50.22000     -5.3443830E-04
   50.28000     -5.4872863E-04
   50.34000     -5.6262466E-04
   50.40000     -5.7609531E-04
   50.46000     -5.8911310E-04
   50.52000     -6.0165435E-04
   50.58000     -6.1369920E-04
   50.64000     -6.2523206E-04
   50.70000     -6.3624163E-04
   50.76000     -6.4672111E-04
   50.82000     -6.5666810E-04
   50.88000     -6.6608452E-04
   50.94000     -6.7497685E-04
   51.00000     -6.8335608E-04
   51.06000     -6.9123699E-04
   51.12000     -6.9863896E-04
   51.18000     -7.0558506E-04
   51.24000     -7.1210199E-04
   51.30000     -7.1821950E-04
   51.36000     -7.2397024E-04
   51.42000     -7.2938891E-04
   51.48000     -7.3451205E-04
   51.54000     -7.3937769E-04
   51.60000     -7.4402452E-04
   51.66000     -7.4849196E-04
   51.72000     -7.5281918E-04
   51.78000     -7.5704453E-04
   51.84000     -7.6120551E-04
   51.90000     -7.6533761E-04
   51.96000     -7.6947454E-04
   52.02000     -7.7364728E-04
   52.08000     -7.7788363E-04
   52.14000     -7.8220805E-04
   52.20000     -7.8664115E-04
   52.26000     -7.9119939E-04
   52.32000     -7.9589506E-04
   52.38000     -8.0073625E-04
   52.44000     -8.0572686E-04
   52.50000     -8.1086613E-04
   52.56000     -8.1614906E-04
   52.62000     -8.2156621E-04
   52.68000     -8.2710403E-04
   52.74000     -8.3274487E-04
   52.80000     -8.3846733E-04
   52.86000     -8.4424682E-04
   52.92000     -8.5005572E-04
   52.98000     -8.5586391E-04
   53.04000     -8.6163916E-04
   53.10000     -8.6734752E-04
   53.16000     -8.7295403E-04
   53.22000     -8.7842339E-04
   53.28000     -8.8372012E-04
   53.34000     -8.8880933E-04
   53.40000     -8.9365727E-04
   53.46000     -8.9823152E-04
   53.52000     -9.0250163E-04
   53.58000     -9.0643961E-04
   53.64000     -9.1002003E-04
   53.70000     -9.1322104E-04
   53.76000     -9.1602403E-04
   53.82000     -9.1841421E-04
   53.88000     -9.2038081E-04
   53.94000     -9.2191674E-04
   54.00000     -9.2301908E-04
   54.06000     -9.2368911E-04
   54.12000     -9.2393224E-04
   54.18000     -9.2375797E-04
   54.24000     -9.2317967E-04
   54.30000     -9.2221436E-04
   54.36000     -9.2088239E-04
   54.42000     -9.1920723E-04
   54.48000     -9.1721467E-04
   54.54000     -9.1493275E-04
   54.60000     -9.1239117E-04
   54.66000     -9.0962125E-04
   54.72000     -9.0665487E-04
   54.78000     -9.0352469E-04
   54.84000     -9.0026314E-04
   54.90000     -8.9690246E-04
   54.96000     -8.9347357E-04
   55.02000     -8.9000619E-04
   55.08000     -8.8652835E-04
   55.14000     -8.8306586E-04
   55.20000     -8.7964215E-04
   55.26000     -8.7627792E-04
   55.32000     -8.7299081E-04
   55.38000     -8.6979539E-04
   55.44000     -8.6670247E-04
   55.50000     -8.6371973E-04
   55.56000     -8.6085132E-04