  -2.400000      0.0000000E+00
  -2.340000      0.0000000E+00
  -2.280000      0.0000000E+00
  -2.220000      0.0000000E+00
  -2.160000      0.0000000E+00
  -2.100000      0.0000000E+00
  -2.040000      0.0000000E+00
  -1.980000      0.0000000E+00
  -1.920000      1.4302199E-25
  -1.860000      4.4769202E-25
  -1.800000     -5.7939510E-24
  -1.740000     -5.9745270E-23
  -1.680000     -2.8516261E-22
  -1.620000     -8.6307522E-22
  -1.560000     -1.6815299E-21
  -1.500000     -1.4289057E-21
  -1.440000      3.4403807E-21
  -1.380000      1.7977827E-20
  -1.320000      4.3203382E-20
  -1.260000      6.4601242E-20
  -1.200000      4.0975283E-20
  -1.140000     -8.8995638E-20
  -1.080000     -3.6118666E-19
  -1.020000     -6.9925687E-19
 -0.9600000     -8.3381688E-19
 -0.9000000     -3.3168937E-19
 -0.8400000      1.1553618E-18
 -0.7800000      3.4269640E-18
 -0.7200000      5.2987958E-18
 -0.6600000      4.6759507E-18
 -0.6000000     -4.0214931E-19
 -0.5400000     -9.7883458E-18
 -0.4800000     -1.9319705E-17
 -0.4200000     -2.0840893E-17
 -0.3600000     -5.9140349E-18
 -0.3000000      2.6864146E-17
 -0.2400000      6.4330028E-17
 -0.1800000      7.7419155E-17
 -0.1200000      3.2305860E-17
 -5.9999999E-02 -8.5278662E-17
  0.0000000E+00 -2.4216775E-16
  5.9999999E-02 -3.4593882E-16
  0.1200000     -2.7020602E-16
  0.1800000      7.5887376E-17
  0.2400000      6.5546649E-16
  0.3000000      1.2412511E-15
  0.3600000      1.4460927E-15
  0.4200000      8.8284571E-16
  0.4800000     -5.7938769E-16
  0.5400000     -2.5805060E-15
  0.6000000     -4.2243003E-15
  0.6600000     -4.3542660E-15
  0.7200000     -2.1381604E-15
  0.7800000      2.2579345E-15
  0.8400000      7.2901483E-15
  0.9000000      1.0331238E-14
  0.9600000      8.7687620E-15
   1.020000      1.5922806E-15
   1.080000     -9.2891020E-15
   1.140000     -1.8922054E-14
   1.200000     -2.0965048E-14
   1.260000     -1.0878539E-14
   1.320000      1.0622207E-14
   1.380000      3.5791391E-14
   1.440000      5.1464607E-14
   1.500000      4.4438357E-14
   1.560000      8.9456903E-15
   1.620000     -4.7269046E-14
   1.680000     -1.0222458E-13
   1.740000     -1.2661215E-13
   1.800000     -9.7093971E-14
   1.860000     -1.0750933E-14
   1.920000      1.0688815E-13
   1.980000      2.0662088E-13
   2.040000      2.3443124E-13
   2.100000      1.5838207E-13
   2.160000     -8.6400749E-15
   2.220000     -2.0368417E-13
   2.280000     -3.3355859E-13
   2.340000     -3.1581516E-13
   2.400000     -1.2463119E-13
   2.460000      1.8142660E-13
   2.520000      4.6886968E-13
   2.580000      5.8005293E-13
   2.640000      4.0854741E-13
   2.700000     -3.4282625E-14
   2.760000     -5.9777834E-13
   2.820000     -1.0363753E-12
   2.880000     -1.1111320E-12
   2.940000     -7.0857036E-13
   3.000000      7.9700657E-14
   3.060000      9.6399657E-13
   3.120000      1.5625691E-12
   3.180000      1.5712719E-12
   3.240000      9.2336913E-13
   3.300000     -1.4156779E-13
   3.360000     -1.1487127E-12
   3.420000     -1.5862706E-12
   3.480000     -1.1531868E-12
   3.540000      5.7824059E-14
   3.600000      1.5412223E-12
   3.660000      2.5570405E-12
   3.720000      2.4489952E-12
   3.780000      9.6950096E-13
   3.840000     -1.5413285E-12
   3.900000     -4.2243331E-12
   3.960000     -6.0133738E-12
   4.020000     -6.0715469E-12
   4.080000     -4.1628159E-12
   4.140000     -7.8451926E-13
   4.200000      3.0150561E-12
   4.260000      6.0667981E-12
   4.320000      7.5695518E-12
   4.380000      7.4088834E-12
   4.440000      6.1455953E-12
   4.500000      4.6656195E-12
   4.560000      3.6506987E-12
   4.620000      3.1321449E-12
   4.680000      2.3724731E-12
   4.740000      1.8021832E-13
   4.800000     -4.4409060E-12
   4.860000     -1.1583552E-11
   4.920000     -2.0006575E-11
   4.980000     -2.7231660E-11
   5.040000     -3.0205307E-11
   5.100000     -2.6322122E-11
   5.160000     -1.4437303E-11
   5.220000      4.5198268E-12
   5.280000      2.7572106E-11
   5.340000      5.0352320E-11
   5.400000      6.8140965E-11
   5.460000      7.6900930E-11
   5.520000      7.3962683E-11
   5.580000      5.8200122E-11
   5.640000      2.9787089E-11
   5.700000     -1.0175585E-11
   5.760000     -5.9817665E-11
   5.820000     -1.1621450E-10
   5.880000     -1.7467583E-10
   5.940000     -2.2788660E-10
   6.000000     -2.6533994E-10
   6.060000     -2.7347999E-10
   6.120000     -2.3676169E-10
   6.180000     -1.3950632E-10
   6.240000      3.1884551E-11
   6.300000      2.8696842E-10
   6.360000      6.3011657E-10
   6.420000      1.0604781E-09
   6.480000      1.5729518E-09
   6.540000      2.1596911E-09
   6.600000      2.8114717E-09
   6.660000      3.5183034E-09
   6.720000      4.2689940E-09
   6.780000      5.0498241E-09
   6.840000      5.8429279E-09
   6.900000      6.6252088E-09
   6.960000      7.3685125E-09
   7.020000      8.0414262E-09
   7.080000      8.6124858E-09
   7.140000      9.0540873E-09
   7.200000      9.3460741E-09
   7.260000      9.4781116E-09
   7.320000      9.4503054E-09
   7.380000      9.2721466E-09
   7.440000      8.9603569E-09
   7.500000      8.5364640E-09
   7.560000      8.0247835E-09
   7.620000      7.4510860E-09
   7.680000      6.8416801E-09
   7.740000      6.2223569E-09
   7.800000      5.6166241E-09
   7.860000      5.0430868E-09
   7.920000      4.5124611E-09
   7.980000      4.0252424E-09
   8.040000      3.5712313E-09
   8.100000      3.1317797E-09
   8.160000      2.6847762E-09
   8.220000      2.2113897E-09
   8.280000      1.7027523E-09
   8.340000      1.1644876E-09
   8.400000      6.1746486E-10
   8.460000      9.4229062E-11
   8.520000     -3.6806230E-10
   8.580000     -7.3622552E-10
   8.640000     -9.8867325E-10
   8.700000     -1.1199294E-09
   8.760000     -1.1409557E-09
   8.820000     -1.0756031E-09
   8.880000     -9.5468367E-10
   8.940000     -8.0971385E-10
   9.000000     -6.6811906E-10
   9.060000     -5.5080457E-10
   9.120000     -4.7191029E-10
   9.180000     -4.3976947E-10
   9.240000     -4.5790691E-10
   9.300000     -5.2536836E-10
   9.360000     -6.3646949E-10
   9.420000     -7.8074730E-10
   9.480000     -9.4409192E-10
   9.540000     -1.1115947E-09
   9.600000     -1.2717584E-09
   9.660000     -1.4208058E-09
   9.720000     -1.5653664E-09
   9.780000     -1.7221110E-09
   9.840000     -1.9138913E-09
   9.900000     -2.1632671E-09
   9.960000     -2.4854079E-09
   10.02000     -2.8827660E-09
   10.08000     -3.3433960E-09
   10.14000     -3.8435406E-09
   10.20000     -4.3535699E-09
   10.26000     -4.8451558E-09
   10.32000     -5.2972133E-09
   10.38000     -5.6986922E-09
   10.44000     -6.0476411E-09
   10.50000     -6.3474030E-09
   10.56000     -6.6018551E-09
   10.62000     -6.8117658E-09
   10.68000     -6.9735973E-09
   10.74000     -7.0807933E-09
   10.80000     -7.1262853E-09
   10.86000     -7.1043194E-09
   10.92000     -7.0099841E-09
   10.98000     -6.8360095E-09
   11.04000     -6.5679555E-09
   11.10000     -6.1801502E-09
   11.16000     -5.6350968E-09
   11.22000     -4.8881623E-09
   11.28000     -3.8975911E-09
   11.34000     -2.6377232E-09
   11.40000     -1.1117373E-09
   11.46000      6.4015326E-10
   11.52000      2.5400839E-09
   11.58000      4.4803490E-09
   11.64000      6.3379924E-09
   11.70000      7.9925515E-09
   11.76000      9.3425712E-09
   11.82000      1.0317179E-08
   11.88000      1.0880767E-08
   11.94000      1.1031005E-08
   12.00000      1.0792213E-08
   12.06000      1.0207015E-08
   12.12000      9.3289305E-09
   12.18000      8.2175200E-09
   12.24000      6.9362032E-09
   12.30000      5.5516507E-09
   12.36000      4.1330579E-09
   12.42000      2.7498335E-09
   12.48000      1.4671431E-09
   12.54000      3.3991029E-10
   12.60000     -5.9318245E-10
   12.66000     -1.3138498E-09
   12.72000     -1.8251732E-09
   12.78000     -2.1491320E-09
   12.84000     -2.3216475E-09
   12.90000     -2.3868749E-09
   12.96000     -2.3924323E-09
   13.02000     -2.3864422E-09
   13.08000     -2.4160700E-09
   13.14000     -2.5263340E-09
   13.20000     -2.7578182E-09
   13.26000     -3.1426912E-09
   13.32000     -3.6996695E-09
   13.38000     -4.4296851E-09
   13.44000     -5.3142637E-09
   13.50000     -6.3178640E-09
   13.56000     -7.3939339E-09
   13.62000     -8.4928944E-09
   13.68000     -9.5694679E-09
   13.74000     -1.0587093E-08
   13.80000     -1.1518496E-08
   13.86000     -1.2343240E-08
   13.92000     -1.3044385E-08
   13.98000     -1.3606702E-08
   14.04000     -1.4018005E-08
   14.10000     -1.4273484E-08
   14.16000     -1.4381138E-08
   14.22000     -1.4365397E-08
   14.28000     -1.4266257E-08
   14.34000     -1.4132756E-08
   14.40000     -1.4011893E-08
   14.46000     -1.3936166E-08
   14.52000     -1.3913967E-08
   14.58000     -1.3926373E-08
   14.64000     -1.3931827E-08
   14.70000     -1.3877317E-08
   14.76000     -1.3712291E-08
   14.82000     -1.3400614E-08
   14.88000     -1.2926781E-08
   14.94000     -1.2295002E-08
   15.00000     -1.1522542E-08
   15.06000     -1.0630734E-08
   15.12000     -9.6374624E-09
   15.18000     -8.5538030E-09
   15.24000     -7.3853110E-09
   15.30000     -6.1364789E-09
   15.36000     -4.8157536E-09
   15.42000     -3.4387575E-09
   15.48000     -2.0285167E-09
   15.54000     -6.1300659E-10
   15.60000      7.7860629E-10
   15.66000      2.1194126E-09
   15.72000      3.3868226E-09
   15.78000      4.5631174E-09
   15.84000      5.6351586E-09
   15.90000      6.5942194E-09
   15.96000      7.4365496E-09
   16.02000      8.1645632E-09
   16.08000      8.7877927E-09
   16.14000      9.3224601E-09
   16.20000      9.7888631E-09
   16.26000      1.0206701E-08
   16.32000      1.0589554E-08
   16.38000      1.0940569E-08
   16.44000      1.1251389E-08
   16.50000      1.1505509E-08
   16.56000      1.1685679E-08
   16.62000      1.1783312E-08
   16.68000      1.1806806E-08
   16.74000      1.1785653E-08
   16.80000      1.1768421E-08
   16.86000      1.1814688E-08
   16.92000      1.1983131E-08
   16.98000      1.2319424E-08
   17.04000      1.2847813E-08
   17.10000      1.3569045E-08
   17.16000      1.4465165E-08
   17.22000      1.5509226E-08
   17.28000      1.6676223E-08
   17.34000      1.7951038E-08
   17.40000      1.9330407E-08
   17.46000      2.0818161E-08
   17.52000      2.2415760E-08
   17.58000      2.4112156E-08
   17.64000      2.5877398E-08
   17.70000      2.7663166E-08
   17.76000      2.9410609E-08
   17.82000      3.1062871E-08
   17.88000      3.2577592E-08
   17.94000      3.3934462E-08
   18.00000      3.5134768E-08
   18.06000      3.6193125E-08
   18.12000      3.7124941E-08
   18.18000      3.7935028E-08
   18.24000      3.8612491E-08
   18.30000      3.9134264E-08
   18.36000      3.9475868E-08
   18.42000      3.9624574E-08
   18.48000      3.9588762E-08
   18.54000      3.9398717E-08
   18.60000      3.9097767E-08
   18.66000      3.8727073E-08
   18.72000      3.8310379E-08
   18.78000      3.7845364E-08
   18.84000      3.7305558E-08
   18.90000      3.6652171E-08
   18.96000      3.5850992E-08
   19.02000      3.4887329E-08
   19.08000      3.3773091E-08
   19.14000      3.2543650E-08
   19.20000      3.1246607E-08
   19.26000      2.9927833E-08
   19.32000      2.8620780E-08
   19.38000      2.7342928E-08
   19.44000      2.6099650E-08
   19.50000      2.4892428E-08
   19.56000      2.3726750E-08
   19.62000      2.2615755E-08
   19.68000      2.1578105E-08
   19.74000      2.0631514E-08
   19.80000      1.9785162E-08
   19.86000      1.9034632E-08
   19.92000      1.8361591E-08
   19.98000      1.7738392E-08
   20.04000      1.7135722E-08
   20.10000      1.6530404E-08
   20.16000      1.5910693E-08
   20.22000      1.5277474E-08
   20.28000      1.4641411E-08
   20.34000      1.4017473E-08
   20.40000      1.3418886E-08
   20.46000      1.2852553E-08
   20.52000      1.2317116E-08
   20.58000      1.1803829E-08
   20.64000      1.1299315E-08
   20.70000      1.0788808E-08
   20.76000      1.0258445E-08
   20.82000      9.6958193E-09
   20.88000      9.0888772E-09
   20.94000      8.4241165E-09
   21.00000      7.6855935E-09
   21.06000      6.8560326E-09
   21.12000      5.9205214E-09
   21.18000      4.8719402E-09
   21.24000      3.7159800E-09
   21.30000      2.4729785E-09
   21.36000      1.1743293E-09
   21.42000     -1.4696547E-10
   21.48000     -1.4695065E-09
   21.54000     -2.7960942E-09
   21.60000     -4.1604857E-09
   21.66000     -5.6243650E-09
   21.72000     -7.2638469E-09
   21.78000     -9.1489296E-09
   21.84000     -1.1322522E-08
   21.90000     -1.3786503E-08
   21.96000     -1.6500115E-08
   22.02000     -1.9391537E-08
   22.08000     -2.2378583E-08
   22.14000     -2.5391021E-08
   22.20000     -2.8386562E-08
   22.26000     -3.1355121E-08
   22.32000     -3.4310474E-08
   22.38000     -3.7273058E-08
   22.44000     -4.0250438E-08
   22.50000     -4.3222471E-08
   22.56000     -4.6135707E-08
   22.62000     -4.8908248E-08
   22.68000     -5.1442608E-08
   22.74000     -5.3641781E-08
   22.80000     -5.5423534E-08
   22.86000     -5.6729235E-08
   22.92000     -5.7526115E-08
   22.98000     -5.7804378E-08
   23.04000     -5.7572262E-08
   23.10000     -5.6852205E-08
   23.16000     -5.5679877E-08
   23.22000     -5.4105772E-08
   23.28000     -5.2197112E-08
   23.34000     -5.0037062E-08
   23.40000     -4.7719283E-08
   23.46000     -4.5337796E-08
   23.52000     -4.2974673E-08
   23.58000     -4.0689375E-08
   23.64000     -3.8513306E-08
   23.70000     -3.6451407E-08
   23.76000     -3.4489872E-08
   23.82000     -3.2606980E-08
   23.88000     -3.0783170E-08
   23.94000     -2.9007323E-08
   24.00000     -2.7278098E-08
   24.06000     -2.5601231E-08
   24.12000     -2.3984988E-08
   24.18000     -2.2436113E-08
   24.24000     -2.0957788E-08
   24.30000     -1.9549850E-08
   24.36000     -1.8210541E-08
   24.42000     -1.6938529E-08
   24.48000     -1.5734180E-08
   24.54000     -1.4599455E-08
   24.60000     -1.3536563E-08
   24.66000     -1.2545882E-08
   24.72000     -1.1624027E-08
   24.78000     -1.0762869E-08
   24.84000     -9.9500079E-09
   24.90000     -9.1706278E-09
   24.96000     -8.4100389E-09
   25.02000     -7.6558031E-09
   25.08000     -6.8983814E-09
   25.14000     -6.1298864E-09
   25.20000     -5.3414362E-09
   25.26000     -4.5204844E-09
   25.32000     -3.6497418E-09
   25.38000     -2.7087830E-09
   25.44000     -1.6782528E-09
   25.50000     -5.4536775E-10
   25.56000      6.9130546E-10
   25.62000      2.0195716E-09
   25.68000      3.4145367E-09
   25.74000      4.8420712E-09
   25.80000      6.2630963E-09
   25.86000      7.6368094E-09
   25.92000      8.9217309E-09
   25.98000      1.0074753E-08
   26.04000      1.1049660E-08
   26.10000      1.1797127E-08
   26.16000      1.2267876E-08
   26.22000      1.2419384E-08
   26.28000      1.2224918E-08
   26.34000      1.1682180E-08
   26.40000      1.0818354E-08
   26.46000      9.6889474E-09
   26.52000      8.3696152E-09
   26.58000      6.9426269E-09
   26.64000      5.4816889E-09
   26.70000      4.0398103E-09
   26.76000      2.6440587E-09
   26.82000      1.2986474E-09
   26.88000     -5.3338497E-12
   26.94000     -1.2778049E-09
   27.00000     -2.5203266E-09
   27.06000     -3.7233396E-09
   27.12000     -4.8709201E-09
   27.18000     -5.9506564E-09
   27.24000     -6.9640005E-09
   27.30000     -7.9322771E-09
   27.36000     -8.8955083E-09
   27.42000     -9.9044009E-09
   27.48000     -1.1008776E-08
   27.54000     -1.2247104E-08
   27.60000     -1.3641016E-08
   27.66000     -1.5196079E-08
   27.72000     -1.6907137E-08
   27.78000     -1.8764473E-08
   27.84000     -2.0757021E-08
   27.90000     -2.2870861E-08
   27.96000     -2.5084258E-08
   28.02000     -2.7362873E-08
   28.08000     -2.9659319E-08
   28.14000     -3.1919264E-08
   28.20000     -3.4092878E-08
   28.26000     -3.6147167E-08
   28.32000     -3.8073480E-08
   28.38000     -3.9886146E-08
   28.44000     -4.1611980E-08
   28.50000     -4.3274959E-08
   28.56000     -4.4882878E-08
   28.62000     -4.6422265E-08
   28.68000     -4.7864148E-08
   28.74000     -4.9178176E-08
   28.80000     -5.0348493E-08
   28.86000     -5.1383783E-08
   28.92000     -5.2316491E-08
   28.98000     -5.3191215E-08
   29.04000     -5.4047295E-08
   29.10000     -5.4903250E-08
   29.16000     -5.5749908E-08
   29.22000     -5.6554995E-08
   29.28000     -5.7276750E-08
   29.34000     -5.7880417E-08
   29.40000     -5.8350277E-08
   29.46000     -5.8692223E-08
   29.52000     -5.8926179E-08
   29.58000     -5.9072033E-08
   29.64000     -5.9135349E-08
   29.70000     -5.9098941E-08
   29.76000     -5.8923831E-08
   29.82000     -5.8559223E-08
   29.88000     -5.7957621E-08
   29.94000     -5.7089476E-08
   30.00000     -5.5951883E-08
   30.06000     -5.4568233E-08
   30.12000     -5.2978994E-08
   30.18000     -5.1227168E-08
   30.24000     -4.9343853E-08
   30.30000     -4.7339658E-08
   30.36000     -4.5205631E-08
   30.42000     -4.2923844E-08
   30.48000     -4.0483759E-08
   30.54000     -3.7897880E-08
   30.60000     -3.5209702E-08
   30.66000     -3.2489456E-08
   30.72000     -2.9818032E-08
   30.78000     -2.7264180E-08
   30.84000     -2.4863750E-08
   30.90000     -2.2609456E-08
   30.96000     -2.0456014E-08
   31.02000     -1.8339396E-08
   31.08000     -1.6203002E-08
   31.14000     -1.4020372E-08
   31.20000     -1.1805293E-08
   31.26000     -9.6053077E-09
   31.32000     -7.4817779E-09
   31.38000     -5.4853468E-09
   31.44000     -3.6375400E-09
   31.50000     -1.9260931E-09
   31.56000     -3.1513334E-10
   31.62000      1.2355652E-09
   31.68000      2.7519360E-09
   31.74000      4.2363140E-09
   31.80000      5.6709757E-09
   31.86000      7.0312809E-09
   31.92000      8.3003924E-09
   31.98000      9.4772439E-09
   32.04000      1.0573611E-08
   32.10000      1.1602489E-08
   32.16000      1.2564943E-08
   32.22000      1.3443561E-08
   32.28000      1.4206974E-08
   32.34000      1.4823775E-08
   32.40000      1.5278784E-08
   32.46000      1.5582962E-08
   32.52000      1.5771196E-08
   32.58000      1.5888151E-08
   32.64000      1.5968446E-08
   32.70000      1.6020334E-08
   32.76000      1.6020804E-08
   32.82000      1.5924869E-08
   32.88000      1.5685439E-08
   32.94000      1.5275527E-08
   33.00000      1.4703249E-08
   33.06000      1.4013143E-08
   33.12000      1.3272825E-08
   33.18000      1.2550110E-08
   33.24000      1.1889566E-08
   33.30000      1.1297902E-08
   33.36000      1.0744112E-08
   33.42000      1.0174514E-08
   33.48000      9.5368780E-09
   33.54000      8.8041610E-09
   33.60000      7.9884703E-09
   33.66000      7.1396928E-09
   33.72000      6.3293313E-09
   33.78000      5.6258114E-09
   33.84000      5.0707487E-09
   33.90000      4.6650181E-09
   33.96000      4.3694062E-09
   34.02000      4.1189332E-09
   34.08000      3.8448960E-09
   34.14000      3.4962258E-09
   34.20000      3.0526324E-09
   34.26000      2.5255995E-09
   34.32000      1.9481199E-09
   34.38000      1.3581924E-09
   34.44000      7.8308987E-10
   34.50000      2.3059517E-10
   34.56000     -3.0979344E-10
   34.62000     -8.5702351E-10
   34.68000     -1.4250376E-09
   34.74000     -2.0122464E-09
   34.80000     -2.5990639E-09
   34.86000     -3.1548462E-09
   34.92000     -3.6510293E-09
   34.98000     -4.0740868E-09
   35.04000     -4.4317741E-09
   35.10000     -4.7491722E-09
   35.16000     -5.0560072E-09
   35.22000     -5.3711511E-09
   35.28000     -5.6919029E-09
   35.34000     -5.9936500E-09
   35.40000     -6.2406955E-09
   35.46000     -6.4037100E-09
   35.52000     -6.4760228E-09
   35.58000     -6.4813586E-09
   35.64000     -6.4694388E-09
   35.70000     -6.5012635E-09
   35.76000     -6.6303469E-09
   35.82000     -6.8876731E-09
   35.88000     -7.2761566E-09
   35.94000     -7.7760056E-09
   36.00000     -8.3576364E-09
   36.06000     -8.9958938E-09
   36.12000     -9.6793649E-09
   36.18000     -1.0411318E-08
   36.24000     -1.1202938E-08
   36.30000     -1.2062912E-08
   36.36000     -1.2988772E-08
   36.42000     -1.3964146E-08
   36.48000     -1.4962914E-08
   36.54000     -1.5957951E-08
   36.60000     -1.6930111E-08
   36.66000     -1.7873283E-08
   36.72000     -1.8793537E-08
   36.78000     -1.9703259E-08
   36.84000     -2.0613529E-08
   36.90000     -2.1528470E-08
   36.96000     -2.2444045E-08
   37.02000     -2.3351275E-08
   37.08000     -2.4241739E-08
   37.14000     -2.5112060E-08
   37.20000     -2.5964860E-08
   37.26000     -2.6805525E-08
   37.32000     -2.7636403E-08
   37.38000     -2.8451501E-08
   37.44000     -2.9234766E-08
   37.50000     -2.9963569E-08
   37.56000     -3.0616619E-08
   37.62000     -3.1183291E-08
   37.68000     -3.1670364E-08
   37.74000     -3.2102836E-08
   37.80000     -3.2517661E-08
   37.86000     -3.2952393E-08
   37.92000     -3.3432833E-08
   37.98000     -3.3964710E-08
   38.04000     -3.4532736E-08
   38.10000     -3.5107604E-08
   38.16000     -3.5658122E-08
   38.22000     -3.6163659E-08
   38.28000     -3.6622048E-08
   38.34000     -3.7050075E-08
   38.40000     -3.7476799E-08
   38.46000     -3.7932697E-08
   38.52000     -3.8439122E-08
   38.58000     -3.9001851E-08
   38.64000     -3.9610612E-08
   38.70000     -4.0243922E-08
   38.76000     -4.0876341E-08
   38.82000     -4.1484796E-08
   38.88000     -4.2051266E-08
   38.94000     -4.2561375E-08
   39.00000     -4.3000536E-08
   39.06000     -4.3351069E-08
   39.12000     -4.3593399E-08
   39.18000     -4.3712674E-08
   39.24000     -4.3708933E-08
   39.30000     -4.3606253E-08
   39.36000     -4.3455231E-08
   39.42000     -4.3325013E-08
   39.48000     -4.3285247E-08
   39.54000     -4.3383345E-08
   39.60000     -4.3625509E-08
   39.66000     -4.3969859E-08
   39.72000     -4.4335589E-08
   39.78000     -4.4625899E-08
   39.84000     -4.4756447E-08
   39.90000     -4.4678856E-08
   39.96000     -4.4390625E-08
   40.02000     -4.3928821E-08
   40.08000     -4.3351257E-08
   40.14000     -4.2713818E-08
   40.20000     -4.2053017E-08
   40.26000     -4.1379774E-08
   40.32000     -4.0684714E-08
   40.38000     -3.9950482E-08
   40.44000     -3.9164110E-08
   40.50000     -3.8323638E-08
   40.56000     -3.7436745E-08
   40.62000     -3.6513587E-08
   40.68000     -3.5558738E-08
   40.74000     -3.4567393E-08
   40.80000     -3.3528480E-08
   40.86000     -3.2433373E-08
   40.92000     -3.1285762E-08
   40.98000     -3.0106975E-08
   41.04000     -2.8933027E-08
   41.10000     -2.7803521E-08
   41.16000     -2.6746806E-08
   41.22000     -2.5768085E-08
   41.28000     -2.4846383E-08
   41.34000     -2.3942398E-08
   41.40000     -2.3014156E-08
   41.46000     -2.2033536E-08
   41.52000     -2.0996072E-08
   41.58000     -1.9919385E-08
   41.64000     -1.8830848E-08
   41.70000     -1.7750203E-08
   41.76000     -1.6675239E-08
   41.82000     -1.5577445E-08
   41.88000     -1.4410224E-08
   41.94000     -1.3126830E-08
   42.00000     -1.1701053E-08
   42.06000     -1.0142488E-08
   42.12000     -8.5002148E-09
   42.18000     -6.8532202E-09
   42.24000     -5.2907905E-09
   42.30000     -3.8899084E-09
   42.36000     -2.6977525E-09
   42.42000     -1.7254773E-09
   42.48000     -9.5506558E-10
   42.54000     -3.5583408E-10
   42.60000      9.6849195E-11
   42.66000      4.0910406E-10
   42.72000      5.6818394E-10
   42.78000      5.5461380E-10
   42.84000      3.6123526E-10
   42.90000      9.8160794E-12
   42.96000     -4.4369597E-10
   43.02000     -9.1946950E-10
   43.08000     -1.3367775E-09
   43.14000     -1.6406315E-09
   43.20000     -1.8206144E-09
   43.26000     -1.9131590E-09
   43.32000     -1.9851827E-09
   43.38000     -2.1047690E-09
   43.44000     -2.3100599E-09
   43.50000     -2.5883222E-09
   43.56000     -2.8730094E-09
   43.62000     -3.0593248E-09
   43.68000     -3.0314355E-09
   43.74000     -2.6900668E-09
   43.80000     -1.9694530E-09
   43.86000     -8.3724988E-10
   43.92000      7.2198242E-10
   43.98000      2.7326912E-09
   44.04000      5.2533506E-09
   44.10000      8.3914484E-09
   44.16000      1.2304178E-08
   44.22000      1.7186954E-08
   44.28000      2.3257000E-08
   44.34000      3.0740988E-08
   44.40000      3.9873580E-08
   44.46000      5.0908760E-08
   44.52000      6.4140742E-08
   44.58000      7.9928064E-08
   44.64000      9.8714423E-08
   44.70000      1.2104312E-07
   44.76000      1.4756574E-07
   44.82000      1.7904959E-07
   44.88000      2.1638877E-07
   44.94000      2.6062239E-07
   45.00000      3.1296054E-07
   45.06000      3.7481516E-07
   45.12000      4.4783226E-07
   45.18000      5.3392290E-07
   45.24000      6.3529308E-07
   45.30000      7.5447502E-07
   45.36000      8.9436344E-07
   45.42000      1.0582610E-06
   45.48000      1.2499327E-06
   45.54000      1.4736673E-06
   45.60000      1.7343447E-06
   45.66000      2.0375003E-06
   45.72000      2.3893917E-06
   45.78000      2.7970618E-06
   45.84000      3.2684059E-06
   45.90000      3.8122460E-06
   45.96000      4.4384169E-06
   46.02000      5.1578654E-06
   46.08000      5.9827562E-06
   46.14000      6.9265930E-06
   46.20000      8.0043328E-06
   46.26000      9.2324990E-06
   46.32000      1.0629297E-05
   46.38000      1.2214705E-05
   46.44000      1.4010585E-05
   46.50000      1.6040780E-05
   46.56000      1.8331220E-05
   46.62000      2.0910025E-05
   46.68000      2.3807601E-05
   46.74000      2.7056734E-05
   46.80000      3.0692667E-05
   46.86000      3.4753139E-05
   46.92000      3.9278435E-05
   46.98000      4.4311364E-05
   47.04000      4.9897273E-05
   47.10000      5.6084013E-05
   47.16000      6.2921878E-05
   47.22000      7.0463582E-05
   47.28000      7.8764140E-05
   47.34000      8.7880740E-05
   47.40000      9.7872580E-05
   47.46000      1.0880062E-04
   47.52000      1.2072729E-04
   47.58000      1.3371618E-04
   47.64000      1.4783168E-04
   47.70000      1.6313857E-04
   47.76000      1.7970160E-04
   47.82000      1.9758510E-04
   47.88000      2.1685238E-04
   47.94000      2.3756524E-04
   48.00000      2.5978341E-04
   48.06000      2.8356377E-04
   48.12000      3.0895980E-04
   48.18000      3.3602081E-04
   48.24000      3.6479125E-04
   48.30000      3.9530999E-04
   48.36000      4.2760963E-04
   48.42000      4.6171583E-04
   48.48000      4.9764669E-04
   48.54000      5.3541182E-04
   48.60000      5.7501212E-04
   48.66000      6.1643892E-04
   48.72000      6.5967324E-04
   48.78000      7.0468581E-04
   48.84000      7.5143605E-04
   48.90000      7.9987233E-04
   48.96000      8.4993144E-04
   49.02000      9.0153859E-04
   49.08000      9.5460733E-04
   49.14000      1.0090397E-03
   49.20000      1.0647266E-03
   49.26000      1.1215481E-03
   49.32000      1.1793735E-03
   49.38000      1.2380627E-03
   49.44000      1.2974667E-03
   49.50000      1.3574280E-03
   49.56000      1.4177826E-03
   49.62000      1.4783603E-03
   49.68000      1.5389863E-03
   49.74000      1.5994824E-03
   49.80000      1.6596687E-03
   49.86000      1.7193652E-03
   49.92000      1.7783927E-03
   49.98000      1.8365752E-03
   50.04000      1.8937413E-03
   50.10000      1.9497257E-03
   50.16000      2.0043710E-03
   50.22000      2.0575293E-03
   50.28000      2.1090633E-03
   50.34000      2.1588490E-03
   50.40000      2.2067749E-03
   50.46000      2.2527454E-03
   50.52000      2.2966808E-03
   50.58000      2.3385186E-03
   50.64000      2.3782137E-03
   50.70000      2.4157395E-03
   50.76000      2.4510876E-03
   50.82000      2.4842685E-03
   50.88000      2.5153109E-03
   50.94000      2.5442624E-03
   51.00000      2.5711886E-03
   51.06000      2.5961713E-03
   51.12000      2.6193089E-03
   51.18000      2.6407142E-03
   51.24000      2.6605134E-03
   51.30000      2.6788444E-03
   51.36000      2.6958557E-03
   51.42000      2.7117038E-03
   51.48000      2.7265523E-03
   51.54000      2.7405682E-03
   51.60000      2.7539209E-03
   51.66000      2.7667794E-03
   51.72000      2.7793106E-03
   51.78000      2.7916771E-03
   51.84000      2.8040346E-03
   51.90000      2.8165316E-03
   51.96000      2.8293054E-03
   52.02000      2.8424817E-03
   52.08000      2.8561726E-03
   52.14000      2.8704745E-03
   52.20000      2.8854674E-03
   52.26000      2.9012153E-03
   52.32000      2.9177631E-03
   52.38000      2.9351383E-03
   52.44000      2.9533489E-03
   52.50000      2.9723851E-03
   52.56000      2.9922186E-03
   52.62000      3.0128032E-03
   52.68000      3.0340760E-03
   52.74000      3.0559578E-03
   52.80000      3.0783555E-03
   52.86000      3.1011621E-03
   52.92000      3.1242589E-03
   52.98000      3.1475183E-03
   53.04000      3.1708032E-03
   53.10000      3.1939724E-03
   53.16000      3.2168794E-03
   53.22000      3.2393772E-03
   53.28000      3.2613182E-03
   53.34000      3.2825572E-03
   53.40000      3.3029534E-03
   53.46000      3.3223731E-03
   53.52000      3.3406897E-03
   53.58000      3.3577867E-03
   53.64000      3.3735600E-03
   53.70000      3.3879166E-03
   53.76000      3.4007784E-03
   53.82000      3.4120816E-03
   53.88000      3.4217776E-03
   53.94000      3.4298336E-03
   54.00000      3.4362320E-03
   54.06000      3.4409717E-03
   54.12000      3.4440663E-03
   54.18000      3.4455457E-03
   54.24000      3.4454537E-03
   54.30000      3.4438472E-03
   54.36000      3.4407952E-03
   54.42000      3.4363777E-03
   54.48000      3.4306829E-03
   54.54000      3.4238072E-03
   54.60000      3.4158533E-03
   54.66000      3.4069279E-03
   54.72000      3.3971407E-03
   54.78000      3.3866016E-03
   54.84000      3.3754196E-03
   54.90000      3.3636999E-03
   54.96000      3.3515433E-03
   55.02000      3.3390445E-03
   55.08000      3.3262903E-03
   55.14000      3.3133584E-03
   55.20000      3.3003166E-03
   55.26000      3.2872218E-03
   55.32000      3.2741185E-03
   55.38000      3.2610397E-03
   55.44000      3.2480042E-03
   55.50000      3.2350183E-03
   55.56000      3.2220753E-03