  -2.400000      0.0000000E+00
  -2.340000      0.0000000E+00
  -2.280000      0.0000000E+00
  -2.220000      0.0000000E+00
  -2.160000      0.0000000E+00
  -2.100000      0.0000000E+00
  -2.040000      0.0000000E+00
  -1.980000      0.0000000E+00
  -1.920000      0.0000000E+00
  -1.860000      0.0000000E+00
  -1.800000      0.0000000E+00
  -1.740000      0.0000000E+00
  -1.680000      5.3334853E-35
  -1.620000      9.0198106E-34
  -1.560000      7.5484061E-33
  -1.500000      4.1200998E-32
  -1.440000      1.6274874E-31
  -1.380000      4.8697350E-31
  -1.320000      1.1221633E-30
  -1.260000      2.0069140E-30
  -1.200000      2.9970853E-30
  -1.140000      5.3887550E-30
  -1.080000      1.6108323E-29
  -1.020000      5.0696537E-29
 -0.9600000      1.1409382E-28
 -0.9000000      1.0933539E-28
 -0.8400000     -3.8511654E-28
 -0.7800000     -2.4287161E-27
 -0.7200000     -7.7403024E-27
 -0.6600000     -1.7425427E-26
 -0.6000000     -2.7879820E-26
 -0.5400000     -2.3023395E-26
 -0.4800000      3.4308633E-26
 -0.4200000      2.0114969E-25
 -0.3600000      5.2292194E-25
 -0.3000000      9.4862249E-25
 -0.2400000      1.1906683E-24
 -0.1800000      5.8883378E-25
 -0.1200000     -1.8626858E-24
 -5.9999999E-02 -7.0761383E-24
  0.0000000E+00 -1.4799434E-23
  5.9999999E-02 -2.1988597E-23
  0.1200000     -2.1342545E-23
  0.1800000     -1.5726584E-24
  0.2400000      4.8479112E-23
  0.3000000      1.3041885E-22
  0.3600000      2.2286222E-22
  0.4200000      2.7015861E-22
  0.4800000      1.8477021E-22
  0.5400000     -1.2348162E-22
  0.6000000     -6.8524043E-22
  0.6600000     -1.3897999E-21
  0.7200000     -1.9250815E-21
  0.7800000     -1.8037451E-21
  0.8400000     -5.3429804E-22
  0.9000000      2.0595735E-21
  0.9600000      5.4751125E-21
   1.020000      8.3447572E-21
   1.080000      8.6997404E-21
   1.140000      4.8352471E-21
   1.200000     -3.4005532E-21
   1.260000     -1.3523319E-20
   1.320000     -2.0480977E-20
   1.380000     -1.8645751E-20
   1.440000     -5.5984327E-21
   1.500000      1.3903963E-20
   1.560000      2.6711158E-20
   1.620000      1.5777517E-20
   1.680000     -2.8886165E-20
   1.740000     -9.6447269E-20
   1.800000     -1.4702949E-19
   1.860000     -1.1915692E-19
   1.920000      4.1439128E-20
   1.980000      3.3733188E-19
   2.040000      6.7948053E-19
   2.100000      8.8169781E-19
   2.160000      7.1453423E-19
   2.220000      1.9778394E-20
   2.280000     -1.1507096E-18
   2.340000     -2.4424799E-18
   2.400000     -3.2316303E-18
   2.460000     -2.8289720E-18
   2.520000     -8.2491848E-19
   2.580000      2.5477523E-18
   2.640000      6.2219703E-18
   2.700000      8.4577993E-18
   2.760000      7.4363388E-18
   2.820000      2.1778117E-18
   2.880000     -6.5383400E-18
   2.940000     -1.5722576E-17
   3.000000     -2.0650061E-17
   3.060000     -1.6471442E-17
   3.120000     -6.9951340E-19
   3.180000      2.4264602E-17
   3.240000      4.9850036E-17
   3.300000      6.2584280E-17
   3.360000      4.8565362E-17
   3.420000      4.5327833E-19
   3.480000     -7.5382710E-17
   3.540000     -1.5521026E-16
   3.600000     -2.0140846E-16
   3.660000     -1.7472942E-16
   3.720000     -5.3168447E-17
   3.780000      1.4925014E-16
   3.840000      3.7350767E-16
   3.900000      5.2540437E-16
   3.960000      5.0717712E-16
   4.020000      2.6378229E-16
   4.080000     -1.7400803E-16
   4.140000     -6.7317012E-16
   4.200000     -1.0274180E-15
   4.260000     -1.0336288E-15
   4.320000     -5.9326399E-16
   4.380000      2.0530398E-16
   4.440000      1.0733823E-15
   4.500000      1.6078371E-15
   4.560000      1.4635865E-15
   4.620000      5.4901896E-16
   4.680000     -8.5249742E-16
   4.740000     -2.1225780E-15
   4.800000     -2.5365734E-15
   4.860000     -1.6149462E-15
   4.920000      5.5364975E-16
   4.980000      3.1953515E-15
   5.040000      5.0566232E-15
   5.100000      4.9103406E-15
   5.160000      2.1805218E-15
   5.220000     -2.5979110E-15
   5.280000     -7.7471039E-15
   5.340000     -1.0949783E-14
   5.400000     -1.0162573E-14
   5.460000     -4.6031883E-15
   5.520000      4.6102339E-15
   5.580000      1.4500994E-14
   5.640000      2.1053949E-14
   5.700000      2.0616287E-14
   5.760000      1.1438190E-14
   5.820000     -5.1951576E-15
   5.880000     -2.4726698E-14
   5.940000     -4.0252659E-14
   6.000000     -4.4539876E-14
   6.060000     -3.2674282E-14
   6.120000     -4.5285841E-15
   6.180000      3.3937717E-14
   6.240000      7.1380585E-14
   6.300000      9.4046841E-14
   6.360000      9.0402166E-14
   6.420000      5.5882385E-14
   6.480000     -4.2247666E-15
   6.540000     -7.5375639E-14
   6.600000     -1.3815105E-13
   6.660000     -1.7494305E-13
   6.720000     -1.7605244E-13
   6.780000     -1.4214059E-13
   6.840000     -8.1488479E-14
   6.900000     -3.2524778E-15
   6.960000      8.9397260E-14
   7.020000      2.0128844E-13
   7.080000      3.3903105E-13
   7.140000      4.9729275E-13
   7.200000      6.4330599E-13
   7.260000      7.0885100E-13
   7.320000      5.9870891E-13
   7.380000      2.1970446E-13
   7.440000     -4.7391534E-13
   7.500000     -1.4319838E-12
   7.560000     -2.4759264E-12
   7.620000     -3.3013113E-12
   7.680000     -3.5272844E-12
   7.740000     -2.7918061E-12
   7.800000     -8.7622840E-13
   7.860000      2.1707035E-12
   7.920000      5.9467951E-12
   7.980000      9.6842638E-12
   8.040000      1.2336250E-11
   8.100000      1.2766700E-11
   8.160000      1.0022713E-11
   8.220000      3.6419387E-12
   8.280000     -6.0733992E-12
   8.340000     -1.7893584E-11
   8.400000     -2.9679335E-11
   8.460000     -3.8623001E-11
   8.520000     -4.1711138E-11
   8.580000     -3.6353150E-11
   8.640000     -2.1070328E-11
   8.700000      3.8945579E-12
   8.760000      3.6193607E-11
   8.820000      7.1337658E-11
   8.880000      1.0307571E-10
   8.940000      1.2418630E-10
   9.000000      1.2760185E-10
   9.060000      1.0772153E-10
   9.120000      6.1722780E-11
   9.180000     -9.3388075E-12
   9.240000     -9.9844258E-11
   9.300000     -1.9951121E-10
   9.360000     -2.9399105E-10
   9.420000     -3.6619430E-10
   9.480000     -3.9827930E-10
   9.540000     -3.7413603E-10
   9.600000     -2.8210922E-10
   9.660000     -1.1764174E-10
   9.720000      1.1449921E-10
   9.780000      3.9872691E-10
   9.840000      7.0812473E-10
   9.900000      1.0050921E-09
   9.960000      1.2432264E-09
   10.02000      1.3704274E-09
   10.08000      1.3331026E-09
   10.14000      1.0812352E-09
   10.20000      5.7392424E-10
   10.26000     -2.1514401E-10
   10.32000     -1.2929702E-09
   10.38000     -2.6440001E-09
   10.44000     -4.2290496E-09
   10.50000     -5.9868732E-09
   10.56000     -7.8385094E-09
   10.62000     -9.6940989E-09
   10.68000     -1.1461421E-08
   10.74000     -1.3055041E-08
   10.80000     -1.4404742E-08
   10.86000     -1.5461996E-08
   10.92000     -1.6203481E-08
   10.98000     -1.6631139E-08
   11.04000     -1.6768897E-08
   11.10000     -1.6656740E-08
   11.16000     -1.6343325E-08
   11.22000     -1.5878566E-08
   11.28000     -1.5307503E-08
   11.34000     -1.4666481E-08
   11.40000     -1.3982005E-08
   11.46000     -1.3272016E-08
   11.52000     -1.2548806E-08
   11.58000     -1.1822406E-08
   11.64000     -1.1103411E-08
   11.70000     -1.0404412E-08
   11.76000     -9.7398489E-09
   11.82000     -9.1245349E-09
   11.88000     -8.5715488E-09
   11.94000     -8.0902840E-09
   12.00000     -7.6852542E-09
   12.06000     -7.3558910E-09
   12.12000     -7.0970714E-09
   12.18000     -6.8998420E-09
   12.24000     -6.7517054E-09
   12.30000     -6.6360935E-09
   12.36000     -6.5311241E-09
   12.42000     -6.4082952E-09
   12.48000     -6.2321575E-09
   12.54000     -5.9620655E-09
   12.60000     -5.5567306E-09
   12.66000     -4.9814943E-09
   12.72000     -4.2172918E-09
   12.78000     -3.2694023E-09
   12.84000     -2.1736160E-09
   12.90000     -9.9763409E-10
   12.96000      1.6366528E-10
   13.02000      1.1991290E-09
   13.08000      1.9969237E-09
   13.14000      2.4620745E-09
   13.20000      2.5325018E-09
   13.26000      2.1902209E-09
   13.32000      1.4652907E-09
   13.38000      4.3162499E-10
   13.44000     -8.0444112E-10
   13.50000     -2.1203677E-09
   13.56000     -3.3949716E-09
   13.62000     -4.5237796E-09
   13.68000     -5.4293801E-09
   13.74000     -6.0654406E-09
   13.80000     -6.4147412E-09
   13.86000     -6.4830830E-09
   13.92000     -6.2917360E-09
   13.98000     -5.8710068E-09
   14.04000     -5.2566045E-09
   14.10000     -4.4890203E-09
   14.16000     -3.6147423E-09
   14.22000     -2.6871818E-09
   14.28000     -1.7651529E-09
   14.34000     -9.0760538E-10
   14.40000     -1.6480643E-10
   14.46000      4.3220102E-10
   14.52000      8.8084839E-10
   14.58000      1.2116936E-09
   14.64000      1.4859662E-09
   14.70000      1.7852188E-09
   14.76000      2.1945008E-09
   14.82000      2.7825249E-09
   14.88000      3.5835626E-09
   14.94000      4.5858428E-09
   15.00000      5.7299001E-09
   15.06000      6.9178983E-09
   15.12000      8.0320701E-09
   15.18000      8.9578363E-09
   15.24000      9.6057793E-09
   15.30000      9.9268211E-09
   15.36000      9.9168904E-09
   15.42000      9.6103907E-09
   15.48000      9.0650998E-09
   15.54000      8.3436165E-09
   15.60000      7.4972739E-09
   15.66000      6.5573187E-09
   15.72000      5.5353833E-09
   15.78000      4.4319028E-09
   15.84000      3.2482663E-09
   15.90000      1.9972546E-09
   15.96000      7.0708889E-10
   16.02000     -5.8299809E-10
   16.08000     -1.8343495E-09
   16.14000     -3.0232901E-09
   16.20000     -4.1525277E-09
   16.26000     -5.2543681E-09
   16.32000     -6.3831633E-09
   16.38000     -7.5981577E-09
   16.44000     -8.9414955E-09
   16.50000     -1.0418391E-08
   16.56000     -1.1986501E-08
   16.62000     -1.3559236E-08
   16.68000     -1.5023639E-08
   16.74000     -1.6268885E-08
   16.80000     -1.7217651E-08
   16.86000     -1.7850970E-08
   16.92000     -1.8218351E-08
   16.98000     -1.8428766E-08
   17.04000     -1.8623611E-08
   17.10000     -1.8938392E-08
   17.16000     -1.9463721E-08
   17.22000     -2.0217215E-08
   17.28000     -2.1135190E-08
   17.34000     -2.2087594E-08
   17.40000     -2.2912747E-08
   17.46000     -2.3462341E-08
   17.52000     -2.3643830E-08
   17.58000     -2.3447694E-08
   17.64000     -2.2951451E-08
   17.70000     -2.2299066E-08
   17.76000     -2.1661796E-08
   17.82000     -2.1192111E-08
   17.88000     -2.0984309E-08
   17.94000     -2.1053372E-08
   18.00000     -2.1337893E-08
   18.06000     -2.1725501E-08
   18.12000     -2.2092275E-08
   18.18000     -2.2343482E-08
   18.24000     -2.2442784E-08
   18.30000     -2.2420794E-08
   18.36000     -2.2360656E-08
   18.42000     -2.2365453E-08
   18.48000     -2.2518167E-08
   18.54000     -2.2847074E-08
   18.60000     -2.3307903E-08
   18.66000     -2.3788777E-08
   18.72000     -2.4136932E-08
   18.78000     -2.4199538E-08
   18.84000     -2.3866528E-08
   18.90000     -2.3102784E-08
   18.96000     -2.1960085E-08
   19.02000     -2.0565212E-08
   19.08000     -1.9087592E-08
   19.14000     -1.7695658E-08
   19.20000     -1.6514210E-08
   19.26000     -1.5594409E-08
   19.32000     -1.4904138E-08
   19.38000     -1.4340470E-08
   19.44000     -1.3759782E-08
   19.50000     -1.3016570E-08
   19.56000     -1.2000233E-08
   19.62000     -1.0660568E-08
   19.68000     -9.0165262E-09
   19.74000     -7.1476758E-09
   19.80000     -5.1723354E-09
   19.86000     -3.2191789E-09
   19.92000     -1.3998264E-09
   19.98000      2.1137717E-10
   20.04000      1.5868348E-09
   20.10000      2.7438842E-09
   20.16000      3.7337711E-09
   20.22000      4.6251323E-09
   20.28000      5.4862603E-09
   20.34000      6.3699916E-09
   20.40000      7.3040205E-09
   20.46000      8.2880085E-09
   20.52000      9.2974046E-09
   20.58000      1.0292551E-08
   20.64000      1.1230585E-08
   20.70000      1.2077072E-08
   20.76000      1.2814335E-08
   20.82000      1.3444250E-08
   20.88000      1.3984669E-08
   20.94000      1.4460473E-08
   21.00000      1.4891935E-08
   21.06000      1.5284174E-08
   21.12000      1.5621376E-08
   21.18000      1.5868258E-08
   21.24000      1.5979017E-08
   21.30000      1.5911455E-08
   21.36000      1.5641895E-08
   21.42000      1.5175850E-08
   21.48000      1.4550221E-08
   21.54000      1.3825376E-08
   21.60000      1.3068783E-08
   21.66000      1.2335033E-08
   21.72000      1.1648763E-08
   21.78000      1.0996540E-08
   21.84000      1.0331145E-08
   21.90000      9.5875121E-09
   21.96000      8.7054826E-09
   22.02000      7.6518347E-09
   22.08000      6.4339640E-09
   22.14000      5.1002087E-09
   22.20000      3.7263135E-09
   22.26000      2.3923377E-09
   22.32000      1.1576611E-09
   22.38000      4.2470163E-11
   22.44000     -9.7807273E-10
   22.50000     -1.9650770E-09
   22.56000     -2.9955896E-09
   22.62000     -4.1375072E-09
   22.68000     -5.4280327E-09
   22.74000     -6.8626598E-09
   22.80000     -8.3980396E-09
   22.86000     -9.9674375E-09
   22.92000     -1.1503308E-08
   22.98000     -1.2959283E-08
   23.04000     -1.4324232E-08
   23.10000     -1.5623851E-08
   23.16000     -1.6909620E-08
   23.22000     -1.8239191E-08
   23.28000     -1.9655076E-08
   23.34000     -2.1168875E-08
   23.40000     -2.2756137E-08
   23.46000     -2.4363073E-08
   23.52000     -2.5922354E-08
   23.58000     -2.7372201E-08
   23.64000     -2.8672273E-08
   23.70000     -2.9811265E-08
   23.76000     -3.0804248E-08
   23.82000     -3.1681434E-08
   23.88000     -3.2472684E-08
   23.94000     -3.3193423E-08
   24.00000     -3.3836695E-08
   24.06000     -3.4373794E-08
   24.12000     -3.4762937E-08
   24.18000     -3.4962632E-08
   24.24000     -3.4945124E-08
   24.30000     -3.4705426E-08
   24.36000     -3.4263202E-08
   24.42000     -3.3657464E-08
   24.48000     -3.2936526E-08
   24.54000     -3.2147252E-08
   24.60000     -3.1327659E-08
   24.66000     -3.0505330E-08
   24.72000     -2.9701809E-08
   24.78000     -2.8940365E-08
   24.84000     -2.8253211E-08
   24.90000     -2.7684091E-08
   24.96000     -2.7283804E-08
   25.02000     -2.7099023E-08
   25.08000     -2.7157618E-08
   25.14000     -2.7455602E-08
   25.20000     -2.7950978E-08
   25.26000     -2.8567991E-08
   25.32000     -2.9211984E-08
   25.38000     -2.9791343E-08
   25.44000     -3.0240290E-08
   25.50000     -3.0535386E-08
   25.56000     -3.0700313E-08
   25.62000     -3.0797054E-08
   25.68000     -3.0905902E-08
   25.74000     -3.1100516E-08
   25.80000     -3.1425863E-08
   25.86000     -3.1885957E-08
   25.92000     -3.2445001E-08
   25.98000     -3.3041161E-08
   26.04000     -3.3607897E-08
   26.10000     -3.4095368E-08
   26.16000     -3.4484565E-08
   26.22000     -3.4789217E-08
   26.28000     -3.5045009E-08
   26.34000     -3.5289979E-08
   26.40000     -3.5543380E-08
   26.46000     -3.5790976E-08
   26.52000     -3.5982740E-08
   26.58000     -3.6044725E-08
   26.64000     -3.5901571E-08
   26.70000     -3.5501959E-08
   26.76000     -3.4837687E-08
   26.82000     -3.3948758E-08
   26.88000     -3.2911686E-08
   26.94000     -3.1814213E-08
   27.00000     -3.0725094E-08
   27.06000     -2.9669771E-08
   27.12000     -2.8621351E-08
   27.18000     -2.7510815E-08
   27.24000     -2.6253572E-08
   27.30000     -2.4783136E-08
   27.36000     -2.3079753E-08
   27.42000     -2.1183222E-08
   27.48000     -1.9184577E-08
   27.54000     -1.7198994E-08
   27.60000     -1.5329121E-08
   27.66000     -1.3631900E-08
   27.72000     -1.2101014E-08
   27.78000     -1.0671827E-08
   27.84000     -9.2478514E-09
   27.90000     -7.7399838E-09
   27.96000     -6.1049863E-09
   28.02000     -4.3694617E-09
   28.08000     -2.6301556E-09
   28.14000     -1.0293493E-09
   28.20000      2.8736519E-10
   28.26000      1.2172920E-09
   28.32000      1.7352937E-09
   28.38000      1.9046604E-09
   28.44000      1.8594327E-09
   28.50000      1.7627394E-09
   28.56000      1.7538562E-09
   28.62000      1.9009019E-09
   28.68000      2.1748991E-09
   28.74000      2.4545017E-09
   28.80000      2.5610061E-09
   28.86000      2.3133209E-09
   28.92000      1.5857111E-09
   28.98000      3.4967026E-10
   29.04000     -1.3140435E-09
   29.10000     -3.2377252E-09
   29.16000     -5.2167097E-09
   29.22000     -7.0710979E-09
   29.28000     -8.6991916E-09
   29.34000     -1.0105174E-08
   29.40000     -1.1392006E-08
   29.46000     -1.2722053E-08
   29.52000     -1.4258609E-08
   29.58000     -1.6107762E-08
   29.64000     -1.8279616E-08
   29.70000     -2.0681219E-08
   29.76000     -2.3142849E-08
   29.82000     -2.5468337E-08
   29.88000     -2.7492424E-08
   29.94000     -2.9126605E-08
   30.00000     -3.0379049E-08
   30.06000     -3.1343454E-08
   30.12000     -3.2161740E-08
   30.18000     -3.2973897E-08
   30.24000     -3.3871792E-08
   30.30000     -3.4871565E-08
   30.36000     -3.5912628E-08
   30.42000     -3.6882092E-08
   30.48000     -3.7655411E-08
   30.54000     -3.8139124E-08
   30.60000     -3.8301973E-08
   30.66000     -3.8185018E-08
   30.72000     -3.7888789E-08
   30.78000     -3.7543067E-08
   30.84000     -3.7269864E-08
   30.90000     -3.7151651E-08
   30.96000     -3.7214093E-08
   31.02000     -3.7427096E-08
   31.08000     -3.7721783E-08
   31.14000     -3.8016029E-08
   31.20000     -3.8239303E-08
   31.26000     -3.8348833E-08
   31.32000     -3.8333248E-08
   31.38000     -3.8204554E-08
   31.44000     -3.7983462E-08
   31.50000     -3.7684678E-08
   31.56000     -3.7307892E-08
   31.62000     -3.6836983E-08
   31.68000     -3.6246540E-08
   31.74000     -3.5512002E-08
   31.80000     -3.4619013E-08
   31.86000     -3.3568668E-08
   31.92000     -3.2377731E-08
   31.98000     -3.1074993E-08
   32.04000     -2.9696203E-08
   32.10000     -2.8279652E-08
   32.16000     -2.6863466E-08
   32.22000     -2.5484161E-08
   32.28000     -2.4175430E-08
   32.34000     -2.2966246E-08
   32.40000     -2.1878339E-08
   32.46000     -2.0924103E-08
   32.52000     -2.0106464E-08
   32.58000     -1.9421790E-08
   32.64000     -1.8865833E-08
   32.70000     -1.8441140E-08
   32.76000     -1.8163483E-08
   32.82000     -1.8064549E-08
   32.88000     -1.8189169E-08
   32.94000     -1.8587009E-08
   33.00000     -1.9300678E-08
   33.06000     -2.0353742E-08
   33.12000     -2.1742538E-08
   33.18000     -2.3434904E-08
   33.24000     -2.5376893E-08
   33.30000     -2.7506088E-08
   33.36000     -2.9767813E-08
   33.42000     -3.2129439E-08
   33.48000     -3.4588219E-08
   33.54000     -3.7169819E-08
   33.60000     -3.9917413E-08
   33.66000     -4.2874028E-08
   33.72000     -4.6063001E-08
   33.78000     -4.9472320E-08
   33.84000     -5.3047735E-08
   33.90000     -5.6697360E-08
   33.96000     -6.0307116E-08
   34.02000     -6.3763174E-08
   34.08000     -6.6974998E-08
   34.14000     -6.9892032E-08
   34.20000     -7.2508641E-08
   34.26000     -7.4855365E-08
   34.32000     -7.6978893E-08
   34.38000     -7.8917175E-08
   34.44000     -8.0677957E-08
   34.50000     -8.2228489E-08
   34.56000     -8.3500559E-08
   34.62000     -8.4409919E-08
   34.68000     -8.4884213E-08
   34.74000     -8.4890225E-08
   34.80000     -8.4451038E-08
   34.86000     -8.3646825E-08
   34.92000     -8.2598135E-08
   34.98000     -8.1436482E-08
   35.04000     -8.0271406E-08
   35.10000     -7.9164487E-08
   35.16000     -7.8118745E-08
   35.22000     -7.7086639E-08
   35.28000     -7.5993761E-08
   35.34000     -7.4769900E-08
   35.40000     -7.3376526E-08
   35.46000     -7.1821283E-08
   35.52000     -7.0154343E-08
   35.58000     -6.8448301E-08
   35.64000     -6.6769182E-08
   35.70000     -6.5149344E-08
   35.76000     -6.3572735E-08
   35.82000     -6.1978191E-08
   35.88000     -6.0280158E-08
   35.94000     -5.8399820E-08
   36.00000     -5.6295661E-08
   36.06000     -5.3982596E-08
   36.12000     -5.1532961E-08
   36.18000     -4.9058816E-08
   36.24000     -4.6681695E-08
   36.30000     -4.4500013E-08
   36.36000     -4.2565041E-08
   36.42000     -4.0872997E-08
   36.48000     -3.9375148E-08
   36.54000     -3.8001541E-08
   36.60000     -3.6689752E-08
   36.66000     -3.5408661E-08
   36.72000     -3.4169627E-08
   36.78000     -3.3022118E-08
   36.84000     -3.2036315E-08
   36.90000     -3.1279448E-08
   36.96000     -3.0794332E-08
   37.02000     -3.0587287E-08
   37.08000     -3.0628815E-08
   37.14000     -3.0865866E-08
   37.20000     -3.1240351E-08
   37.26000     -3.1706726E-08
   37.32000     -3.2242045E-08
   37.38000     -3.2844927E-08
   37.44000     -3.3524206E-08
   37.50000     -3.4281868E-08
   37.56000     -3.5097198E-08
   37.62000     -3.5918617E-08
   37.68000     -3.6667107E-08
   37.74000     -3.7250818E-08
   37.80000     -3.7586471E-08
   37.86000     -3.7620538E-08
   37.92000     -3.7343074E-08
   37.98000     -3.6789483E-08
   38.04000     -3.6029551E-08
   38.10000     -3.5147341E-08
   38.16000     -3.4218559E-08
   38.22000     -3.3292729E-08
   38.28000     -3.2385710E-08
   38.34000     -3.1484259E-08
   38.40000     -3.0560258E-08
   38.46000     -2.9588819E-08
   38.52000     -2.8563480E-08
   38.58000     -2.7503097E-08
   38.64000     -2.6448372E-08
   38.70000     -2.5450033E-08
   38.76000     -2.4553616E-08
   38.82000     -2.3786939E-08
   38.88000     -2.3154907E-08
   38.94000     -2.2643221E-08
   39.00000     -2.2228983E-08
   39.06000     -2.1893467E-08
   39.12000     -2.1631555E-08
   39.18000     -2.1453696E-08
   39.24000     -2.1379293E-08
   39.30000     -2.1423933E-08
   39.36000     -2.1585713E-08
   39.42000     -2.1836772E-08
   39.48000     -2.2124791E-08
   39.54000     -2.2385708E-08
   39.60000     -2.2564473E-08
   39.66000     -2.2637003E-08
   39.72000     -2.2624876E-08
   39.78000     -2.2596062E-08
   39.84000     -2.2649438E-08
   39.90000     -2.2886669E-08
   39.96000     -2.3380213E-08
   40.02000     -2.4148227E-08
   40.08000     -2.5145551E-08
   40.14000     -2.6274702E-08
   40.20000     -2.7414009E-08
   40.26000     -2.8454194E-08
   40.32000     -2.9331664E-08
   40.38000     -3.0047840E-08
   40.44000     -3.0668435E-08
   40.50000     -3.1302953E-08
   40.56000     -3.2071128E-08
   40.62000     -3.3066907E-08
   40.68000     -3.4331418E-08
   40.74000     -3.5843293E-08
   40.80000     -3.7529311E-08
   40.86000     -3.9291574E-08
   40.92000     -4.1042060E-08
   40.98000     -4.2732960E-08
   41.04000     -4.4372371E-08
   41.10000     -4.6020038E-08
   41.16000     -4.7764630E-08
   41.22000     -4.9690360E-08
   41.28000     -5.1844779E-08
   41.34000     -5.4219033E-08
   41.40000     -5.6747698E-08
   41.46000     -5.9328318E-08
   41.52000     -6.1854010E-08
   41.58000     -6.4247757E-08
   41.64000     -6.6486429E-08
   41.70000     -6.8605992E-08
   41.76000     -7.0686184E-08
   41.82000     -7.2819745E-08
   41.88000     -7.5077132E-08
   41.94000     -7.7479044E-08
   42.00000     -7.9986293E-08
   42.06000     -8.2510596E-08
   42.12000     -8.4942172E-08
   42.18000     -8.7184290E-08
   42.24000     -8.9182549E-08
   42.30000     -9.0938947E-08
   42.36000     -9.2506291E-08
   42.42000     -9.3965866E-08
   42.48000     -9.5396793E-08
   42.54000     -9.6848247E-08
   42.60000     -9.8323802E-08
   42.66000     -9.9782795E-08
   42.72000     -1.0115698E-07
   42.78000     -1.0237570E-07
   42.84000     -1.0339014E-07
   42.90000     -1.0418790E-07
   42.96000     -1.0479298E-07
   43.02000     -1.0525180E-07
   43.08000     -1.0561075E-07
   43.14000     -1.0589399E-07
   43.20000     -1.0609007E-07
   43.26000     -1.0615268E-07
   43.32000     -1.0601578E-07
   43.38000     -1.0561765E-07
   43.44000     -1.0492522E-07
   43.50000     -1.0394930E-07
   43.56000     -1.0274440E-07
   43.62000     -1.0139278E-07
   43.68000     -9.9977790E-08
   43.74000     -9.8556193E-08
   43.80000     -9.7139548E-08
   43.86000     -9.5691981E-08
   43.92000     -9.4145321E-08
   43.98000     -9.2426703E-08
   44.04000     -9.0488761E-08
   44.10000     -8.8331660E-08
   44.16000     -8.6009216E-08
   44.22000     -8.3616428E-08
   44.28000     -8.1262797E-08
   44.34000     -7.9040099E-08
   44.40000     -7.6995185E-08
   44.46000     -7.5116681E-08
   44.52000     -7.3339528E-08
   44.58000     -7.1566106E-08
   44.64000     -6.9697208E-08
   44.70000     -6.7663379E-08
   44.76000     -6.5447331E-08
   44.82000     -6.3090710E-08
   44.88000     -6.0683433E-08
   44.94000     -5.8338969E-08
   45.00000     -5.6163127E-08
   45.06000     -5.4225811E-08
   45.12000     -5.2544227E-08
   45.18000     -5.1082552E-08
   45.24000     -4.9767756E-08
   45.30000     -4.8516434E-08
   45.36000     -4.7263992E-08
   45.42000     -4.5986905E-08
   45.48000     -4.4711246E-08
   45.54000     -4.3505185E-08
   45.60000     -4.2458449E-08
   45.66000     -4.1656026E-08
   45.72000     -4.1154934E-08
   45.78000     -4.0971774E-08
   45.84000     -4.1084835E-08
   45.90000     -4.1449457E-08
   45.96000     -4.2021007E-08
   46.02000     -4.2777369E-08
   46.08000     -4.3733365E-08
   46.14000     -4.4942578E-08
   46.20000     -4.6486615E-08
   46.26000     -4.8456211E-08
   46.32000     -5.0931366E-08
   46.38000     -5.3967888E-08
   46.44000     -5.7595621E-08
   46.50000     -6.1829702E-08
   46.56000     -6.6692003E-08
   46.62000     -7.2237015E-08
   46.68000     -7.8574956E-08
   46.74000     -8.5886036E-08
   46.80000     -9.4422518E-08
   46.86000     -1.0449916E-07
   46.92000     -1.1647622E-07
   46.98000     -1.3074182E-07
   47.04000     -1.4770146E-07
   47.10000     -1.6777990E-07
   47.16000     -1.9143805E-07
   47.22000     -2.1920178E-07
   47.28000     -2.5169604E-07
   47.34000     -2.8967639E-07
   47.40000     -3.3405030E-07
   47.46000     -3.8588573E-07
   47.52000     -4.4640893E-07
   47.58000     -5.1699834E-07
   47.64000     -5.9918221E-07
   47.70000     -6.9464795E-07
   47.76000     -8.0526615E-07
   47.82000     -9.3312741E-07
   47.88000     -1.0805894E-06
   47.94000     -1.2503248E-06
   48.00000     -1.4453650E-06
   48.06000     -1.6691336E-06
   48.12000     -1.9254676E-06
   48.18000     -2.2186314E-06
   48.24000     -2.5533234E-06
   48.30000     -2.9346861E-06
   48.36000     -3.3683252E-06
   48.42000     -3.8603439E-06
   48.48000     -4.4173862E-06
   48.54000     -5.0466938E-06
   48.60000     -5.7561538E-06
   48.66000     -6.5543509E-06
   48.72000     -7.4505988E-06
   48.78000     -8.4549592E-06
   48.84000     -9.5782507E-06
   48.90000     -1.0832046E-05
   48.96000     -1.2228666E-05
   49.02000     -1.3781168E-05
   49.08000     -1.5503339E-05
   49.14000     -1.7409682E-05
   49.20000     -1.9515417E-05
   49.26000     -2.1836466E-05
   49.32000     -2.4389439E-05
   49.38000     -2.7191609E-05
   49.44000     -3.0260841E-05
   49.50000     -3.3615510E-05
   49.56000     -3.7274425E-05
   49.62000     -4.1256688E-05
   49.68000     -4.5581583E-05
   49.74000     -5.0268456E-05
   49.80000     -5.5336557E-05
   49.86000     -6.0804919E-05
   49.92000     -6.6692199E-05
   49.98000     -7.3016512E-05
   50.04000     -7.9795282E-05
   50.10000     -8.7045024E-05
   50.16000     -9.4781164E-05
   50.22000     -1.0301785E-04
   50.28000     -1.1176770E-04
   50.34000     -1.2104157E-04
   50.40000     -1.3084836E-04
   50.46000     -1.4119477E-04
   50.52000     -1.5208518E-04
   50.58000     -1.6352131E-04
   50.64000     -1.7550221E-04
   50.70000     -1.8802397E-04
   50.76000     -2.0107957E-04
   50.82000     -2.1465882E-04
   50.88000     -2.2874818E-04
   50.94000     -2.4333068E-04
   51.00000     -2.5838599E-04
   51.06000     -2.7389021E-04
   51.12000     -2.8981612E-04
   51.18000     -3.0613286E-04
   51.24000     -3.2280624E-04
   51.30000     -3.3979875E-04
   51.36000     -3.5706977E-04
   51.42000     -3.7457584E-04
   51.48000     -3.9227077E-04
   51.54000     -4.1010612E-04
   51.60000     -4.2803143E-04
   51.66000     -4.4599458E-04
   51.72000     -4.6394212E-04
   51.78000     -4.8181973E-04
   51.84000     -4.9957260E-04
   51.90000     -5.1714596E-04
   51.96000     -5.3448527E-04
   52.02000     -5.5153714E-04
   52.08000     -5.6824961E-04
   52.14000     -5.8457261E-04
   52.20000     -6.0045859E-04
   52.26000     -6.1586284E-04
   52.32000     -6.3074421E-04
   52.38000     -6.4506516E-04
   52.44000     -6.5879256E-04
   52.50000     -6.7189784E-04
   52.56000     -6.8435713E-04
   52.62000     -6.9615192E-04
   52.68000     -7.0726906E-04
   52.74000     -7.1770092E-04
   52.80000     -7.2744559E-04
   52.86000     -7.3650648E-04
   52.92000     -7.4489304E-04
   52.98000     -7.5262005E-04
   53.04000     -7.5970782E-04
   53.10000     -7.6618179E-04
   53.16000     -7.7207218E-04
   53.22000     -7.7741395E-04
   53.28000     -7.8224606E-04
   53.34000     -7.8661105E-04
   53.40000     -7.9055456E-04
   53.46000     -7.9412514E-04
   53.52000     -7.9737313E-04
   53.58000     -8.0035033E-04
   53.64000     -8.0310932E-04
   53.70000     -8.0570258E-04
   53.76000     -8.0818182E-04
   53.82000     -8.1059762E-04
   53.88000     -8.1299868E-04
   53.94000     -8.1543141E-04
   54.00000     -8.1793923E-04
   54.06000     -8.2056224E-04
   54.12000     -8.2333613E-04
   54.18000     -8.2629221E-04
   54.24000     -8.2945684E-04
   54.30000     -8.3285116E-04
   54.36000     -8.3649124E-04
   54.42000     -8.4038719E-04
   54.48000     -8.4454368E-04
   54.54000     -8.4895937E-04
   54.60000     -8.5362716E-04
   54.66000     -8.5853453E-04
   54.72000     -8.6366350E-04
   54.78000     -8.6899102E-04
   54.84000     -8.7448966E-04
   54.90000     -8.8012766E-04
   54.96000     -8.8586938E-04
   55.02000     -8.9167571E-04
   55.08000     -8.9750480E-04
   55.14000     -9.0331258E-04
   55.20000     -9.0905320E-04
   55.26000     -9.1467978E-04
   55.32000     -9.2014531E-04
   55.38000     -9.2540303E-04
   55.44000     -9.3040708E-04
   55.50000     -9.3511300E-04
   55.56000     -9.3947840E-04