  -2.400000      0.0000000E+00
  -2.340000      0.0000000E+00
  -2.280000      0.0000000E+00
  -2.220000      0.0000000E+00
  -2.160000      0.0000000E+00
  -2.100000      0.0000000E+00
  -2.040000      0.0000000E+00
  -1.980000      0.0000000E+00
  -1.920000      0.0000000E+00
  -1.860000      0.0000000E+00
  -1.800000      0.0000000E+00
  -1.740000      0.0000000E+00
  -1.680000      3.8476268E-36
  -1.620000      7.1337871E-35
  -1.560000      6.7415253E-34
  -1.500000      4.2912637E-33
  -1.440000      2.0533737E-32
  -1.380000      7.7764317E-32
  -1.320000      2.3774550E-31
  -1.260000      5.8047082E-31
  -1.200000      1.0515934E-30
  -1.140000      9.4636126E-31
  -1.080000     -2.2450131E-30
  -1.020000     -1.4507586E-29
 -0.9600000     -4.5768813E-29
 -0.9000000     -1.0384869E-28
 -0.8400000     -1.7162408E-28
 -0.7800000     -1.5615168E-28
 -0.7200000      1.8481244E-28
 -0.6600000      1.2787659E-27
 -0.6000000      3.5754882E-27
 -0.5400000      6.9225926E-27
 -0.4800000      9.2719059E-27
 -0.4200000      4.9871363E-27
 -0.3600000     -1.5851531E-26
 -0.3000000     -6.4183911E-26
 -0.2400000     -1.4091839E-25
 -0.1800000     -2.1636598E-25
 -0.1200000     -2.0609996E-25
 -5.9999999E-02  3.6981436E-26
  0.0000000E+00  6.7948623E-25
  5.9999999E-02  1.7750903E-24
  0.1200000      3.0335194E-24
  0.1800000      3.5608546E-24
  0.2400000      1.7677418E-24
  0.3000000     -4.2335798E-24
  0.3600000     -1.5416054E-23
  0.4200000     -2.9756950E-23
  0.4800000     -3.9923272E-23
  0.5400000     -3.2371343E-23
  0.6000000      9.6309346E-24
  0.6600000      9.6782858E-23
  0.7200000      2.1845290E-22
  0.7800000      3.2639051E-22
  0.8400000      3.2871708E-22
  0.9000000      1.0919371E-22
  0.9600000     -4.1710090E-22
   1.020000     -1.2158263E-21
   1.080000     -2.0426842E-21
   1.140000     -2.4058469E-21
   1.200000     -1.6490675E-21
   1.260000      7.9645144E-22
   1.320000      5.0029834E-21
   1.380000      1.0085957E-20
   1.440000      1.3905053E-20
   1.500000      1.3218658E-20
   1.560000      4.5785166E-21
   1.620000     -1.3908221E-20
   1.680000     -4.0198509E-20
   1.740000     -6.6151288E-20
   1.800000     -7.7059429E-20
   1.860000     -5.4655597E-20
   1.920000      1.5215024E-20
   1.980000      1.3099602E-19
   2.040000      2.6380736E-19
   2.100000      3.5301574E-19
   2.160000      3.1740088E-19
   2.220000      8.6979437E-20
   2.280000     -3.4864918E-19
   2.340000     -8.9285472E-19
   2.400000     -1.3244661E-18
   2.460000     -1.3405934E-18
   2.520000     -6.7362999E-19
   2.580000      7.3921709E-19
   2.640000      2.5996508E-18
   2.700000      4.2018889E-18
   2.760000      4.5839446E-18
   2.820000      2.8992660E-18
   2.880000     -1.0810025E-18
   2.940000     -6.5421802E-18
   3.000000     -1.1539691E-17
   3.060000     -1.3449984E-17
   3.120000     -9.9559318E-18
   3.180000     -2.8709524E-19
   3.240000      1.3793495E-17
   3.300000      2.7809193E-17
   3.360000      3.5538803E-17
   3.420000      3.1060516E-17
   3.480000      1.1333989E-17
   3.540000     -2.1533043E-17
   3.600000     -5.9242550E-17
   3.660000     -8.8200012E-17
   3.720000     -9.2687844E-17
   3.780000     -6.0155347E-17
   3.840000      1.2258899E-17
   3.900000      1.1185887E-16
   3.960000      2.0812310E-16
   4.020000      2.5737093E-16
   4.080000      2.1636027E-16
   4.140000      6.3105649E-17
   4.200000     -1.8213632E-16
   4.260000     -4.4713641E-16
   4.320000     -6.2034845E-16
   4.380000     -5.8957495E-16
   4.440000     -2.9670601E-16
   4.500000      2.1501566E-16
   4.560000      7.8957452E-16
   4.620000      1.2003681E-15
   4.680000      1.2388362E-15
   4.740000      8.1417188E-16
   4.800000      1.4052095E-17
   4.860000     -9.1197687E-16
   4.920000     -1.6477897E-15
   4.980000     -1.9416183E-15
   5.040000     -1.7049428E-15
   5.100000     -1.0261117E-15
   5.160000     -9.5621152E-17
   5.220000      9.0295819E-16
   5.280000      1.8574533E-15
   5.340000      2.6981199E-15
   5.400000      3.2985028E-15
   5.460000      3.3964045E-15
   5.520000      2.6341365E-15
   5.580000      7.4774343E-16
   5.640000     -2.1779036E-15
   5.700000     -5.5512574E-15
   5.760000     -8.3555540E-15
   5.820000     -9.4826643E-15
   5.880000     -8.1688688E-15
   5.940000     -4.2987604E-15
   6.000000      1.5829562E-15
   6.060000      8.5112827E-15
   6.120000      1.5361849E-14
   6.180000      2.0885352E-14
   6.240000      2.3485982E-14
   6.300000      2.1049357E-14
   6.360000      1.1318313E-14
   6.420000     -6.8731476E-15
   6.480000     -3.1788161E-14
   6.540000     -5.7382125E-14
   6.600000     -7.3615098E-14
   6.660000     -6.9332594E-14
   6.720000     -3.7315582E-14
   6.780000      2.0414926E-14
   6.840000      8.9864565E-14
   6.900000      1.4728457E-13
   6.960000      1.6679068E-13
   7.020000      1.3111998E-13
   7.080000      4.1104130E-14
   7.140000     -8.0885677E-14
   7.200000     -1.9623353E-13
   7.260000     -2.6310825E-13
   7.320000     -2.5247770E-13
   7.380000     -1.6046572E-13
   7.440000     -1.1491472E-14
   7.500000      1.4960266E-13
   7.560000      2.7344351E-13
   7.620000      3.2350395E-13
   7.680000      2.8785787E-13
   7.740000      1.8090252E-13
   7.800000      3.5276737E-14
   7.860000     -1.1150241E-13
   7.920000     -2.2929591E-13
   7.980000     -3.0147255E-13
   8.040000     -3.2362207E-13
   8.100000     -2.9758287E-13
   8.160000     -2.2568149E-13
   8.220000     -1.0931667E-13
   8.280000      4.7114571E-14
   8.340000      2.2960792E-13
   8.400000      4.1000295E-13
   8.460000      5.4757083E-13
   8.520000      5.9779802E-13
   8.580000      5.2574443E-13
   8.640000      3.1901367E-13
   8.700000     -4.4726910E-15
   8.760000     -3.9637285E-13
   8.820000     -7.8497441E-13
   8.880000     -1.0869242E-12
   8.940000     -1.2210727E-12
   9.000000     -1.1230470E-12
   9.060000     -7.6011858E-13
   9.120000     -1.4535901E-13
   9.180000      6.5205946E-13
   9.240000      1.5056953E-12
   9.300000      2.2450509E-12
   9.360000      2.6847879E-12
   9.420000      2.6651539E-12
   9.480000      2.0925267E-12
   9.540000      9.6662077E-13
   9.600000     -6.1511121E-13
   9.660000     -2.4757618E-12
   9.720000     -4.3890521E-12
   9.780000     -6.1042681E-12
   9.840000     -7.3524823E-12
   9.900000     -7.8334422E-12
   9.960000     -7.1998900E-12
   10.02000     -5.0687479E-12
   10.08000     -1.0881088E-12
   10.14000      4.9284812E-12
   10.20000      1.2819017E-11
   10.26000      2.1891128E-11
   10.32000      3.0809116E-11
   10.38000      3.7612236E-11
   10.44000      3.9895875E-11
   10.50000      3.5140984E-11
   10.56000      2.1132436E-11
   10.62000     -3.6193294E-12
   10.68000     -3.9538178E-11
   10.74000     -8.5782423E-11
   10.80000     -1.4020717E-10
   10.86000     -1.9947799E-10
   10.92000     -2.5931041E-10
   10.98000     -3.1481021E-10
   11.04000     -3.6089587E-10
   11.10000     -3.9278361E-10
   11.16000     -4.0649678E-10
   11.22000     -3.9933501E-10
   11.28000     -3.7021444E-10
   11.34000     -3.1979211E-10
   11.40000     -2.5032443E-10
   11.46000     -1.6527257E-10
   11.52000     -6.8739417E-11
   11.58000      3.5129663E-11
   11.64000      1.4264424E-10
   11.70000      2.5086669E-10
   11.76000      3.5768216E-10
   11.82000      4.6168550E-10
   11.88000      5.6197519E-10
   11.94000      6.5795569E-10
   12.00000      7.4922146E-10
   12.06000      8.3555413E-10
   12.12000      9.1701591E-10
   12.18000      9.9409603E-10
   12.24000      1.0678546E-09
   12.30000      1.1400167E-09
   12.36000      1.2129862E-09
   12.42000      1.2897636E-09
   12.48000      1.3737722E-09
   12.54000      1.4685968E-09
   12.60000      1.5776499E-09
   12.66000      1.7037700E-09
   12.72000      1.8487590E-09
   12.78000      2.0128739E-09
   12.84000      2.1943043E-09
   12.90000      2.3887001E-09
   12.96000      2.5888436E-09
   13.02000      2.7845910E-09
   13.08000      2.9631946E-09
   13.14000      3.1100835E-09
   13.20000      3.2101075E-09
   13.26000      3.2491432E-09
   13.32000      3.2158798E-09
   13.38000      3.1035223E-09
   13.44000      2.9111356E-09
   13.50000      2.6443847E-09
   13.56000      2.3155124E-09
   13.62000      1.9425279E-09
   13.68000      1.5476939E-09
   13.74000      1.1555347E-09
   13.80000      7.9062806E-10
   13.86000      4.7547105E-10
   13.92000      2.2865954E-10
   13.98000      6.3555647E-11
   14.04000     -1.2459225E-11
   14.10000      1.8854597E-12
   14.16000      1.0221238E-10
   14.22000      2.7947608E-10
   14.28000      5.2132337E-10
   14.34000      8.1363716E-10
   14.40000      1.1420195E-09
   14.46000      1.4929694E-09
   14.52000      1.8545712E-09
   14.58000      2.2166320E-09
   14.64000      2.5703568E-09
   14.70000      2.9077634E-09
   14.76000      3.2211014E-09
   14.82000      3.5024867E-09
   14.88000      3.7438470E-09
   14.94000      3.9371453E-09
   15.00000      4.0747379E-09
   15.06000      4.1497206E-09
   15.12000      4.1561612E-09
   15.18000      4.0892592E-09
   15.24000      3.9455630E-09
   15.30000      3.7234211E-09
   15.36000      3.4237875E-09
   15.42000      3.0513385E-09
   15.48000      2.6156617E-09
   15.54000      2.1320969E-09
   15.60000      1.6217464E-09
   15.66000      1.1102691E-09
   15.72000      6.2533145E-10
   15.78000      1.9297614E-10
   15.84000     -1.6645429E-10
   15.90000     -4.4194440E-10
   15.96000     -6.3406147E-10
   16.02000     -7.5516132E-10
   16.08000     -8.2732854E-10
   16.14000     -8.7838420E-10
   16.20000     -9.3676666E-10
   16.26000     -1.0263457E-09
   16.32000     -1.1621943E-09
   16.38000     -1.3480496E-09
   16.44000     -1.5757455E-09
   16.50000     -1.8264522E-09
   16.56000     -2.0732289E-09
   16.62000     -2.2842703E-09
   16.68000     -2.4262878E-09
   16.74000     -2.4676585E-09
   16.80000     -2.3811975E-09
   16.86000     -2.1465829E-09
   16.92000     -1.7525198E-09
   16.98000     -1.1986752E-09
   17.04000     -4.9727816E-10
   17.10000      3.2588465E-10
   17.16000      1.2314555E-09
   17.22000      2.1678452E-09
   17.28000      3.0741549E-09
   17.34000      3.8846339E-09
   17.40000      4.5343107E-09
   17.46000      4.9651230E-09
   17.52000      5.1317337E-09
   17.58000      5.0062114E-09
   17.64000      4.5809596E-09
   17.70000      3.8695744E-09
   17.76000      2.9056002E-09
   17.82000      1.7394264E-09
   17.88000      4.3369003E-10
   17.94000     -9.4234265E-10
   18.00000     -2.3188831E-09
   18.06000     -3.6315777E-09
   18.12000     -4.8266049E-09
   18.18000     -5.8641909E-09
   18.24000     -6.7199899E-09
   18.30000     -7.3841457E-09
   18.36000     -7.8583442E-09
   18.42000     -8.1516234E-09
   18.48000     -8.2759666E-09
   18.54000     -8.2426457E-09
   18.60000     -8.0599012E-09
   18.66000     -7.7320577E-09
   18.72000     -7.2597306E-09
   18.78000     -6.6406209E-09
   18.84000     -5.8705543E-09
   18.90000     -4.9447082E-09
   18.96000     -3.8593102E-09
   19.02000     -2.6141262E-09
   19.08000     -1.2158128E-09
   19.14000      3.1830447E-10
   19.20000      1.9569817E-09
   19.26000      3.6535797E-09
   19.32000      5.3474434E-09
   19.38000      6.9686221E-09
   19.44000      8.4454905E-09
   19.50000      9.7138990E-09
   19.56000      1.0725834E-08
   19.62000      1.1455489E-08
   19.68000      1.1901132E-08
   19.74000      1.2082221E-08
   19.80000      1.2032447E-08
   19.86000      1.1790513E-08
   19.92000      1.1391065E-08
   19.98000      1.0858178E-08
   20.04000      1.0202971E-08
   20.10000      9.4257375E-09
   20.16000      8.5216234E-09
   20.22000      7.4878317E-09
   20.28000      6.3299814E-09
   20.34000      5.0656284E-09
   20.40000      3.7239929E-09
   20.46000      2.3423112E-09
   20.52000      9.6038644E-10
   20.58000     -3.8447956E-10
   20.64000     -1.6602310E-09
   20.70000     -2.8395373E-09
   20.76000     -3.8964671E-09
   20.82000     -4.8021085E-09
   20.88000     -5.5215086E-09
   20.94000     -6.0140031E-09
   21.00000     -6.2378076E-09
   21.06000     -6.1581069E-09
   21.12000     -5.7563891E-09
   21.18000     -5.0380766E-09
   21.24000     -4.0358219E-09
   21.30000     -2.8071345E-09
   21.36000     -1.4267565E-09
   21.42000      2.4205207E-11
   21.48000      1.4694946E-09
   21.54000      2.8464577E-09
   21.60000      4.1104560E-09
   21.66000      5.2344920E-09
   21.72000      6.2049974E-09
   21.78000      7.0156898E-09
   21.84000      7.6617024E-09
   21.90000      8.1358182E-09
   21.96000      8.4277829E-09
   22.02000      8.5266372E-09
   22.08000      8.4250518E-09
   22.14000      8.1240445E-09
   22.20000      7.6363715E-09
   22.26000      6.9872064E-09
   22.32000      6.2115308E-09
   22.38000      5.3485278E-09
   22.44000      4.4341566E-09
   22.50000      3.4936234E-09
   22.56000      2.5356062E-09
   22.62000      1.5497715E-09
   22.68000      5.0843796E-10
   22.74000     -6.2765682E-10
   22.80000     -1.9004718E-09
   22.86000     -3.3444123E-09
   22.92000     -4.9769189E-09
   22.98000     -6.7920749E-09
   23.04000     -8.7588878E-09
   23.10000     -1.0824908E-08
   23.16000     -1.2924595E-08
   23.22000     -1.4990599E-08
   23.28000     -1.6965320E-08
   23.34000     -1.8809878E-08
   23.40000     -2.0508283E-08
   23.46000     -2.2065883E-08
   23.52000     -2.3502743E-08
   23.58000     -2.4844057E-08
   23.64000     -2.6110504E-08
   23.70000     -2.7311231E-08
   23.76000     -2.8441212E-08
   23.82000     -2.9483154E-08
   23.88000     -3.0412568E-08
   23.94000     -3.1203840E-08
   24.00000     -3.1835015E-08
   24.06000     -3.2290025E-08
   24.12000     -3.2558322E-08
   24.18000     -3.2633288E-08
   24.24000     -3.2511149E-08
   24.30000     -3.2191934E-08
   24.36000     -3.1682852E-08
   24.42000     -3.1002955E-08
   24.48000     -3.0187028E-08
   24.54000     -2.9286390E-08
   24.60000     -2.8365083E-08
   24.66000     -2.7491573E-08
   24.72000     -2.6727895E-08
   24.78000     -2.6119345E-08
   24.84000     -2.5688163E-08
   24.90000     -2.5433511E-08
   24.96000     -2.5338013E-08
   25.02000     -2.5378920E-08
   25.08000     -2.5540094E-08
   25.14000     -2.5820608E-08
   25.20000     -2.6236737E-08
   25.26000     -2.6816558E-08
   25.32000     -2.7589046E-08
   25.38000     -2.8571790E-08
   25.44000     -2.9762145E-08
   25.50000     -3.1135393E-08
   25.56000     -3.2650959E-08
   25.62000     -3.4264467E-08
   25.68000     -3.5941071E-08
   25.74000     -3.7664833E-08
   25.80000     -3.9440181E-08
   25.86000     -4.1284498E-08
   25.92000     -4.3214285E-08
   25.98000     -4.5229903E-08
   26.04000     -4.7304713E-08
   26.10000     -4.9383001E-08
   26.16000     -5.1387961E-08
   26.22000     -5.3237393E-08
   26.28000     -5.4861697E-08
   26.34000     -5.6217939E-08
   26.40000     -5.7294862E-08
   26.46000     -5.8107066E-08
   26.52000     -5.8680499E-08
   26.58000     -5.9034846E-08
   26.64000     -5.9169622E-08
   26.70000     -5.9059687E-08
   26.76000     -5.8662437E-08
   26.82000     -5.7934638E-08
   26.88000     -5.6853061E-08
   26.94000     -5.5431379E-08
   27.00000     -5.3726946E-08
   27.06000     -5.1834078E-08
   27.12000     -4.9865356E-08
   27.18000     -4.7926203E-08
   27.24000     -4.6090541E-08
   27.30000     -4.4384961E-08
   27.36000     -4.2786219E-08
   27.42000     -4.1232706E-08
   27.48000     -3.9646309E-08
   27.54000     -3.7957996E-08
   27.60000     -3.6129361E-08
   27.66000     -3.4164017E-08
   27.72000     -3.2105820E-08
   27.78000     -3.0025195E-08
   27.84000     -2.7998402E-08
   27.90000     -2.6086621E-08
   27.96000     -2.4321393E-08
   28.02000     -2.2700702E-08
   28.08000     -2.1196257E-08
   28.14000     -1.9768919E-08
   28.20000     -1.8386720E-08
   28.26000     -1.7039342E-08
   28.32000     -1.5744307E-08
   28.38000     -1.4542994E-08
   28.44000     -1.3487937E-08
   28.50000     -1.2625646E-08
   28.56000     -1.1980625E-08
   28.62000     -1.1545963E-08
   28.68000     -1.1283860E-08
   28.74000     -1.1136314E-08
   28.80000     -1.1042884E-08
   28.86000     -1.0959864E-08
   28.92000     -1.0874420E-08
   28.98000     -1.0808558E-08
   29.04000     -1.0810916E-08
   29.10000     -1.0938548E-08
   29.16000     -1.1234448E-08
   29.22000     -1.1708464E-08
   29.28000     -1.2328548E-08
   29.34000     -1.3026153E-08
   29.40000     -1.3714935E-08
   29.46000     -1.4317359E-08
   29.52000     -1.4790888E-08
   29.58000     -1.5145130E-08
   29.64000     -1.5443872E-08
   29.70000     -1.5790546E-08
   29.76000     -1.6300865E-08
   29.82000     -1.7070631E-08
   29.88000     -1.8148432E-08
   29.94000     -1.9521771E-08
   30.00000     -2.1121085E-08
   30.06000     -2.2840634E-08
   30.12000     -2.4569772E-08
   30.18000     -2.6224857E-08
   30.24000     -2.7771680E-08
   30.30000     -2.9231465E-08
   30.36000     -3.0668794E-08
   30.42000     -3.2165801E-08
   30.48000     -3.3791370E-08
   30.54000     -3.5575525E-08
   30.60000     -3.7497252E-08
   30.66000     -3.9489326E-08
   30.72000     -4.1457913E-08
   30.78000     -4.3310056E-08
   30.84000     -4.4979547E-08
   30.90000     -4.6442732E-08
   30.96000     -4.7719148E-08
   31.02000     -4.8857334E-08
   31.08000     -4.9910884E-08
   31.14000     -5.0913297E-08
   31.20000     -5.1860539E-08
   31.26000     -5.2707623E-08
   31.32000     -5.3381065E-08
   31.38000     -5.3803440E-08
   31.44000     -5.3922157E-08
   31.50000     -5.3732766E-08
   31.56000     -5.3288581E-08
   31.62000     -5.2692805E-08
   31.68000     -5.2074981E-08
   31.74000     -5.1558899E-08
   31.80000     -5.1232043E-08
   31.86000     -5.1126285E-08
   31.92000     -5.1215871E-08
   31.98000     -5.1433059E-08
   32.04000     -5.1695885E-08
   32.10000     -5.1938574E-08
   32.16000     -5.2134222E-08
   32.22000     -5.2302155E-08
   32.28000     -5.2497594E-08
   32.34000     -5.2787357E-08
   32.40000     -5.3220216E-08
   32.46000     -5.3802317E-08
   32.52000     -5.4486520E-08
   32.58000     -5.5179559E-08
   32.64000     -5.5765071E-08
   32.70000     -5.6134930E-08
   32.76000     -5.6218916E-08
   32.82000     -5.6003216E-08
   32.88000     -5.5532301E-08
   32.94000     -5.4894286E-08
   33.00000     -5.4195052E-08
   33.06000     -5.3529806E-08
   33.12000     -5.2960903E-08
   33.18000     -5.2508469E-08
   33.24000     -5.2155638E-08
   33.30000     -5.1865740E-08
   33.36000     -5.1604889E-08
   33.42000     -5.1362065E-08
   33.48000     -5.1159741E-08
   33.54000     -5.1051359E-08
   33.60000     -5.1106355E-08
   33.66000     -5.1387659E-08
   33.72000     -5.1929199E-08
   33.78000     -5.2721195E-08
   33.84000     -5.3708618E-08
   33.90000     -5.4803746E-08
   33.96000     -5.5909034E-08
   34.02000     -5.6942806E-08
   34.08000     -5.7859278E-08
   34.14000     -5.8656202E-08
   34.20000     -5.9367693E-08
   34.26000     -6.0044954E-08
   34.32000     -6.0731516E-08
   34.38000     -6.1441582E-08
   34.44000     -6.2148942E-08
   34.50000     -6.2790185E-08
   34.56000     -6.3281441E-08
   34.62000     -6.3543425E-08
   34.68000     -6.3526990E-08
   34.74000     -6.3231035E-08
   34.80000     -6.2707009E-08
   34.86000     -6.2047896E-08
   34.92000     -6.1364503E-08
   34.98000     -6.0755475E-08
   35.04000     -6.0280016E-08
   35.10000     -5.9941449E-08
   35.16000     -5.9687046E-08
   35.22000     -5.9424348E-08
   35.28000     -5.9049267E-08
   35.34000     -5.8477095E-08
   35.40000     -5.7666846E-08
   35.46000     -5.6631361E-08
   35.52000     -5.5430451E-08
   35.58000     -5.4149954E-08
   35.64000     -5.2873936E-08
   35.70000     -5.1659281E-08
   35.76000     -5.0520534E-08
   35.82000     -4.9429165E-08
   35.88000     -4.8326562E-08
   35.94000     -4.7145811E-08
   36.00000     -4.5834753E-08
   36.06000     -4.4372914E-08
   36.12000     -4.2777152E-08
   36.18000     -4.1094648E-08
   36.24000     -3.9385956E-08
   36.30000     -3.7704080E-08
   36.36000     -3.6076791E-08
   36.42000     -3.4498356E-08
   36.48000     -3.2933723E-08
   36.54000     -3.1334004E-08
   36.60000     -2.9658093E-08
   36.66000     -2.7892984E-08
   36.72000     -2.6065475E-08
   36.78000     -2.4240689E-08
   36.84000     -2.2507049E-08
   36.90000     -2.0951934E-08
   36.96000     -1.9635417E-08
   37.02000     -1.8570399E-08
   37.08000     -1.7715591E-08
   37.14000     -1.6983925E-08
   37.20000     -1.6264208E-08
   37.26000     -1.5449709E-08
   37.32000     -1.4465348E-08
   37.38000     -1.3285701E-08
   37.44000     -1.1939103E-08
   37.50000     -1.0497454E-08
   37.56000     -9.0555661E-09
   37.62000     -7.7065545E-09
   37.68000     -6.5203278E-09
   37.74000     -5.5305533E-09
   37.80000     -4.7326250E-09
   37.86000     -4.0919974E-09
   37.92000     -3.5596985E-09
   37.98000     -3.0903360E-09
   38.04000     -2.6576192E-09
   38.10000     -2.2631841E-09
   38.16000     -1.9362587E-09
   38.22000     -1.7241785E-09
   38.28000     -1.6764375E-09
   38.34000     -1.8271321E-09
   38.40000     -2.1814384E-09
   38.46000     -2.7106828E-09
   38.52000     -3.3577823E-09
   38.58000     -4.0512833E-09
   38.64000     -4.7232676E-09
   38.70000     -5.3251794E-09
   38.76000     -5.8366201E-09
   38.82000     -6.2648700E-09
   38.88000     -6.6362209E-09
   38.94000     -6.9828685E-09
   39.00000     -7.3302724E-09
   39.06000     -7.6892741E-09
   39.12000     -8.0553084E-09
   39.18000     -8.4143901E-09
   39.24000     -8.7531529E-09
   39.30000     -9.0687813E-09
   39.36000     -9.3746859E-09
   39.42000     -9.6993054E-09
   39.48000     -1.0078089E-08
   39.54000     -1.0541441E-08
   39.60000     -1.1103233E-08
   39.66000     -1.1754447E-08
   39.72000     -1.2464687E-08
   39.78000     -1.3191179E-08
   39.84000     -1.3892026E-08
   39.90000     -1.4538910E-08
   39.96000     -1.5124765E-08
   40.02000     -1.5664055E-08
   40.08000     -1.6186036E-08
   40.14000     -1.6723805E-08
   40.20000     -1.7303273E-08
   40.26000     -1.7935880E-08
   40.32000     -1.8617460E-08
   40.38000     -1.9333449E-08
   40.44000     -2.0068272E-08
   40.50000     -2.0815188E-08
   40.56000     -2.1582498E-08
   40.62000     -2.2393303E-08
   40.68000     -2.3278513E-08
   40.74000     -2.4265645E-08
   40.80000     -2.5368049E-08
   40.86000     -2.6579148E-08
   40.92000     -2.7874380E-08
   40.98000     -2.9220114E-08
   41.04000     -3.0585834E-08
   41.10000     -3.1954503E-08
   41.16000     -3.3326970E-08
   41.22000     -3.4718873E-08
   41.28000     -3.6151778E-08
   41.34000     -3.7642288E-08
   41.40000     -3.9193310E-08
   41.46000     -4.0790663E-08
   41.52000     -4.2405922E-08
   41.58000     -4.4004469E-08
   41.64000     -4.5556188E-08
   41.70000     -4.7045358E-08
   41.76000     -4.8476554E-08
   41.82000     -4.9873961E-08
   41.88000     -5.1273549E-08
   41.94000     -5.2709570E-08
   42.00000     -5.4199326E-08
   42.06000     -5.5731373E-08
   42.12000     -5.7261968E-08
   42.18000     -5.8722168E-08
   42.24000     -6.0034417E-08
   42.30000     -6.1133626E-08
   42.36000     -6.1986043E-08
   42.42000     -6.2599142E-08
   42.48000     -6.3018881E-08
   42.54000     -6.3314701E-08
   42.60000     -6.3556961E-08
   42.66000     -6.3794140E-08
   42.72000     -6.4037373E-08
   42.78000     -6.4257605E-08
   42.84000     -6.4396559E-08
   42.90000     -6.4388203E-08
   42.96000     -6.4183816E-08
   43.02000     -6.3772561E-08
   43.08000     -6.3190335E-08
   43.14000     -6.2513593E-08
   43.20000     -6.1839337E-08
   43.26000     -6.1256927E-08
   43.32000     -6.0820405E-08
   43.38000     -6.0530098E-08
   43.44000     -6.0330180E-08
   43.50000     -6.0123689E-08
   43.56000     -5.9801572E-08
   43.62000     -5.9277106E-08
   43.68000     -5.8514857E-08
   43.74000     -5.7544483E-08
   43.80000     -5.6454134E-08
   43.86000     -5.5364872E-08
   43.92000     -5.4394054E-08
   43.98000     -5.3619544E-08
   44.04000     -5.3056525E-08
   44.10000     -5.2654396E-08
   44.16000     -5.2314348E-08
   44.22000     -5.1921358E-08
   44.28000     -5.1379910E-08
   44.34000     -5.0642054E-08
   44.40000     -4.9719503E-08
   44.46000     -4.8676981E-08
   44.52000     -4.7609827E-08
   44.58000     -4.6613639E-08
   44.64000     -4.5755431E-08
   44.70000     -4.5055263E-08
   44.76000     -4.4483549E-08
   44.82000     -4.3974556E-08
   44.88000     -4.3451333E-08
   44.94000     -4.2853902E-08
   45.00000     -4.2161300E-08
   45.06000     -4.1400337E-08
   45.12000     -4.0638245E-08
   45.18000     -3.9961868E-08
   45.24000     -3.9450605E-08
   45.30000     -3.9152095E-08
   45.36000     -3.9068727E-08
   45.42000     -3.9159048E-08
   45.48000     -3.9353196E-08
   45.54000     -3.9576960E-08
   45.60000     -3.9776335E-08
   45.66000     -3.9934669E-08
   45.72000     -4.0077278E-08
   45.78000     -4.0262613E-08
   45.84000     -4.0563656E-08
   45.90000     -4.1046125E-08
   45.96000     -4.1750845E-08
   46.02000     -4.2685787E-08
   46.08000     -4.3829942E-08
   46.14000     -4.5147118E-08
   46.20000     -4.6605141E-08
   46.26000     -4.8194373E-08
   46.32000     -4.9940393E-08
   46.38000     -5.1907566E-08
   46.44000     -5.4193137E-08
   46.50000     -5.6914299E-08
   46.56000     -6.0192846E-08
   46.62000     -6.4142789E-08
   46.68000     -6.8865745E-08
   46.74000     -7.4456544E-08
   46.80000     -8.1018207E-08
   46.86000     -8.8682469E-08
   46.92000     -9.7630092E-08
   46.98000     -1.0810562E-07
   47.04000     -1.2042339E-07
   47.10000     -1.3496475E-07
   47.16000     -1.5216970E-07
   47.22000     -1.7252788E-07
   47.28000     -1.9657334E-07
   47.34000     -2.2488760E-07
   47.40000     -2.5811164E-07
   47.46000     -2.9696693E-07
   47.52000     -3.4228233E-07
   47.58000     -3.9502294E-07
   47.64000     -4.5631612E-07
   47.70000     -5.2747134E-07
   47.76000     -6.0999230E-07
   47.82000     -7.0558184E-07
   47.88000     -8.1614508E-07
   47.94000     -9.4379402E-07
   48.00000     -1.0908587E-06
   48.06000     -1.2599066E-06
   48.12000     -1.4537698E-06
   48.18000     -1.6755776E-06
   48.24000     -1.9287934E-06
   48.30000     -2.2172510E-06
   48.36000     -2.5451907E-06
   48.42000     -2.9172900E-06
   48.48000     -3.3386902E-06
   48.54000     -3.8150156E-06
   48.60000     -4.3523874E-06
   48.66000     -4.9574323E-06
   48.72000     -5.6372951E-06
   48.78000     -6.3996513E-06
   48.84000     -7.2527287E-06
   48.90000     -8.2053275E-06
   48.96000     -9.2668379E-06
   49.02000     -1.0447252E-05
   49.08000     -1.1757165E-05
   49.14000     -1.3207772E-05
   49.20000     -1.4810848E-05
   49.26000     -1.6578733E-05
   49.32000     -1.8524299E-05
   49.38000     -2.0660917E-05
   49.44000     -2.3002403E-05
   49.50000     -2.5562966E-05
   49.56000     -2.8357128E-05
   49.62000     -3.1399668E-05
   49.68000     -3.4705536E-05
   49.74000     -3.8289789E-05
   49.80000     -4.2167489E-05
   49.86000     -4.6353598E-05
   49.92000     -5.0862840E-05
   49.98000     -5.5709574E-05
   50.04000     -6.0907627E-05
   50.10000     -6.6470144E-05
   50.16000     -7.2409457E-05
   50.22000     -7.8736899E-05
   50.28000     -8.5462663E-05
   50.34000     -9.2595656E-05
   50.40000     -1.0014330E-04
   50.46000     -1.0811147E-04
   50.52000     -1.1650428E-04
   50.58000     -1.2532393E-04
   50.64000     -1.3457060E-04
   50.70000     -1.4424218E-04
   50.76000     -1.5433421E-04
   50.82000     -1.6483973E-04
   50.88000     -1.7574924E-04
   50.94000     -1.8705057E-04
   51.00000     -1.9872886E-04
   51.06000     -2.1076659E-04
   51.12000     -2.2314364E-04
   51.18000     -2.3583721E-04
   51.24000     -2.4882192E-04
   51.30000     -2.6206984E-04
   51.36000     -2.7555067E-04
   51.42000     -2.8923177E-04
   51.48000     -3.0307838E-04
   51.54000     -3.1705390E-04
   51.60000     -3.3111993E-04
   51.66000     -3.4523677E-04
   51.72000     -3.5936353E-04
   51.78000     -3.7345855E-04
   51.84000     -3.8747981E-04
   51.90000     -4.0138510E-04
   51.96000     -4.1513253E-04
   52.02000     -4.2868068E-04
   52.08000     -4.4198905E-04
   52.14000     -4.5501851E-04
   52.20000     -4.6773162E-04
   52.26000     -4.8009306E-04
   52.32000     -4.9206993E-04
   52.38000     -5.0363189E-04
   52.44000     -5.1475194E-04
   52.50000     -5.2540621E-04
   52.56000     -5.3557474E-04
   52.62000     -5.4524129E-04
   52.68000     -5.5439363E-04
   52.74000     -5.6302344E-04
   52.80000     -5.7112670E-04
   52.86000     -5.7870348E-04
   52.92000     -5.8575807E-04
   52.98000     -5.9229904E-04
   53.04000     -5.9833936E-04
   53.10000     -6.0389552E-04
   53.16000     -6.0898799E-04
   53.22000     -6.1364064E-04
   53.28000     -6.1788043E-04
   53.34000     -6.2173739E-04
   53.40000     -6.2524388E-04
   53.46000     -6.2843470E-04
   53.52000     -6.3134631E-04
   53.58000     -6.3401624E-04
   53.64000     -6.3648279E-04
   53.70000     -6.3878438E-04
   53.76000     -6.4095919E-04
   53.82000     -6.4304471E-04
   53.88000     -6.4507779E-04
   53.94000     -6.4709358E-04
   54.00000     -6.4912578E-04
   54.06000     -6.5120531E-04
   54.12000     -6.5336050E-04
   54.18000     -6.5561646E-04
   54.24000     -6.5799500E-04
   54.30000     -6.6051440E-04
   54.36000     -6.6318928E-04
   54.42000     -6.6603028E-04
   54.48000     -6.6904427E-04
   54.54000     -6.7223399E-04
   54.60000     -6.7559822E-04
   54.66000     -6.7913183E-04
   54.72000     -6.8282592E-04
   54.78000     -6.8666821E-04
   54.84000     -6.9064280E-04
   54.90000     -6.9473090E-04
   54.96000     -6.9891068E-04
   55.02000     -7.0315797E-04
   55.08000     -7.0744625E-04
   55.14000     -7.1174745E-04
   55.20000     -7.1603234E-04
   55.26000     -7.2027050E-04
   55.32000     -7.2443124E-04
   55.38000     -7.2848343E-04
   55.44000     -7.3239655E-04
   55.50000     -7.3614053E-04
   55.56000     -7.3968671E-04