  -2.400000      0.0000000E+00
  -2.340000      0.0000000E+00
  -2.280000      0.0000000E+00
  -2.220000      0.0000000E+00
  -2.160000      0.0000000E+00
  -2.100000      0.0000000E+00
  -2.040000      0.0000000E+00
  -1.980000      0.0000000E+00
  -1.920000      0.0000000E+00
  -1.860000      0.0000000E+00
  -1.800000      0.0000000E+00
  -1.740000      0.0000000E+00
  -1.680000      1.2475093E-34
  -1.620000      2.2064624E-33
  -1.560000      1.9423152E-32
  -1.500000      1.1211282E-31
  -1.440000      4.6862940E-31
  -1.380000      1.4629061E-30
  -1.320000      3.2900804E-30
  -1.260000      4.1322990E-30
  -1.200000     -4.6125857E-30
  -1.140000     -4.5674349E-29
  -1.080000     -1.5779550E-28
  -1.020000     -3.6861360E-28
 -0.9600000     -5.9986848E-28
 -0.9000000     -4.8156906E-28
 -0.8400000      8.5081961E-28
 -0.7800000      4.6879253E-27
 -0.7200000      1.1865502E-26
 -0.6600000      2.0542351E-26
 -0.6000000      2.2908139E-26
 -0.5400000      3.0648733E-27
 -0.4800000     -5.9070693E-26
 -0.4200000     -1.7210684E-25
 -0.3600000     -3.0487354E-25
 -0.3000000     -3.5835493E-25
 -0.2400000     -1.7032475E-25
 -0.1800000      4.0447566E-25
 -0.1200000      1.3208787E-24
 -5.9999999E-02  2.1414272E-24
  0.0000000E+00  1.9966261E-24
  5.9999999E-02 -1.8679830E-26
  0.1200000     -3.8524129E-24
  0.1800000     -7.1997205E-24
  0.2400000     -4.9507948E-24
  0.3000000      8.9455312E-24
  0.3600000      3.5864170E-23
  0.4200000      6.3969337E-23
  0.4800000      6.1694552E-23
  0.5400000     -1.7572284E-23
  0.6000000     -2.0994662E-22
  0.6600000     -4.9315242E-22
  0.7200000     -7.3359475E-22
  0.7800000     -6.6958978E-22
  0.8400000      1.5165455E-23
  0.9000000      1.4944417E-21
  0.9600000      3.5148302E-21
   1.020000      5.1664881E-21
   1.080000      4.9414041E-21
   1.140000      1.2938709E-21
   1.200000     -6.2857746E-21
   1.260000     -1.6058014E-20
   1.320000     -2.3466528E-20
   1.380000     -2.2137122E-20
   1.440000     -6.9068208E-21
   1.500000      2.1800781E-20
   1.560000      5.4411133E-20
   1.620000      7.2532424E-20
   1.680000      5.5606357E-20
   1.740000     -6.5395332E-21
   1.800000     -1.0001185E-19
   1.860000     -1.8058473E-19
   1.920000     -1.8364111E-19
   1.980000     -5.3710298E-20
   2.040000      2.1359897E-19
   2.100000      5.3621497E-19
   2.160000      7.4201084E-19
   2.220000      6.1686922E-19
   2.280000      5.0912490E-21
   2.340000     -1.0656666E-18
   2.400000     -2.2898055E-18
   2.460000     -3.0862396E-18
   2.520000     -2.7492497E-18
   2.580000     -7.5140544E-19
   2.640000      2.8722666E-18
   2.700000      7.2116112E-18
   2.760000      1.0447451E-17
   2.820000      1.0284606E-17
   2.880000      4.9052898E-18
   2.940000     -5.7611302E-18
   3.000000     -1.8972031E-17
   3.060000     -2.9050950E-17
   3.120000     -2.8874069E-17
   3.180000     -1.3082690E-17
   3.240000      1.7829736E-17
   3.300000      5.4463802E-17
   3.360000      7.8922341E-17
   3.420000      7.0435349E-17
   3.480000      1.5805564E-17
   3.540000     -7.8844593E-17
   3.600000     -1.8123379E-16
   3.660000     -2.3755987E-16
   3.720000     -1.9178188E-16
   3.780000     -1.5718129E-17
   3.840000      2.6199391E-16
   3.900000      5.4494796E-16
   3.960000      6.9021713E-16
   4.020000      5.6390154E-16
   4.080000      1.1466032E-16
   4.140000     -5.6769826E-16
   4.200000     -1.2458925E-15
   4.260000     -1.6033759E-15
   4.320000     -1.3762990E-15
   4.380000     -5.0003055E-16
   4.440000      8.0253534E-16
   4.500000      2.0541294E-15
   4.560000      2.6935053E-15
   4.620000      2.3293595E-15
   4.680000      9.6571052E-16
   4.740000     -9.2461312E-16
   4.800000     -2.5481525E-15
   4.860000     -3.1272952E-15
   4.920000     -2.2860962E-15
   4.980000     -2.9655028E-16
   5.040000      1.9608648E-15
   5.100000      3.3426201E-15
   5.160000      2.9621809E-15
   5.220000      6.5429632E-16
   5.280000     -2.8375695E-15
   5.340000     -6.0552865E-15
   5.400000     -7.3419401E-15
   5.460000     -5.4908072E-15
   5.520000     -3.0057443E-16
   5.580000      7.1410392E-15
   5.640000      1.4539488E-14
   5.700000      1.8870134E-14
   5.760000      1.7233905E-14
   5.820000      8.0001923E-15
   5.880000     -8.0174523E-15
   5.940000     -2.6830853E-14
   6.000000     -4.1606451E-14
   6.060000     -4.4505784E-14
   6.120000     -2.9904651E-14
   6.180000      2.0154829E-15
   6.240000      4.3047485E-14
   6.300000      7.7896958E-14
   6.360000      8.9063664E-14
   6.420000      6.4578070E-14
   6.480000      5.5547425E-15
   6.540000     -7.0389793E-14
   6.600000     -1.3283504E-13
   6.660000     -1.4949984E-13
   6.720000     -1.0091141E-13
   6.780000      7.3898907E-15
   6.840000      1.4139098E-13
   6.900000      2.4718083E-13
   6.960000      2.6982358E-13
   7.020000      1.7596710E-13
   7.080000     -2.8662494E-14
   7.140000     -2.9425751E-13
   7.200000     -5.3716076E-13
   7.260000     -6.6243208E-13
   7.320000     -5.9174079E-13
   7.380000     -2.8858957E-13
   7.440000      2.2517647E-13
   7.500000      8.6442978E-13
   7.560000      1.4878164E-12
   7.620000      1.9165349E-12
   7.680000      1.9648452E-12
   7.740000      1.4816748E-12
   7.800000      3.9952837E-13
   7.860000     -1.2185574E-12
   7.920000     -3.1486062E-12
   7.980000     -5.0079606E-12
   8.040000     -6.3013609E-12
   8.100000     -6.5107446E-12
   8.160000     -5.2147692E-12
   8.220000     -2.2130869E-12
   8.280000      2.3729525E-12
   8.340000      8.0463561E-12
   8.400000      1.3940103E-11
   8.460000      1.8885397E-11
   8.520000      2.1541007E-11
   8.580000      2.0582406E-11
   8.640000      1.4948960E-11
   8.700000      4.1383065E-12
   8.760000     -1.1485611E-11
   8.820000     -3.0436362E-11
   8.880000     -4.9994724E-11
   8.940000     -6.6344041E-11
   9.000000     -7.5019602E-11
   9.060000     -7.1669712E-11
   9.120000     -5.3032363E-11
   9.180000     -1.7944039E-11
   9.240000      3.1850411E-11
   9.300000      9.1304984E-11
   9.360000      1.5224136E-10
   9.420000      2.0411259E-10
   9.480000      2.3528188E-10
   9.540000      2.3465513E-10
   9.600000      1.9347145E-10
   9.660000      1.0706251E-10
   9.720000     -2.3586483E-11
   9.780000     -1.9062724E-10
   9.840000     -3.7865264E-10
   9.900000     -5.6469718E-10
   9.960000     -7.1912010E-10
   10.02000     -8.0751034E-10
   10.08000     -7.9364032E-10
   10.14000     -6.4331518E-10
   10.20000     -3.2876238E-10
   10.26000      1.6697572E-10
   10.32000      8.4628682E-10
   10.38000      1.6945090E-09
   10.44000      2.6792415E-09
   10.50000      3.7517420E-09
   10.56000      4.8504218E-09
   10.62000      5.9061422E-09
   10.68000      6.8487571E-09
   10.74000      7.6141156E-09
   10.80000      8.1506686E-09
   10.86000      8.4248493E-09
   10.92000      8.4245366E-09
   10.98000      8.1602298E-09
   11.04000      7.6638340E-09
   11.10000      6.9853048E-09
   11.16000      6.1876091E-09
   11.22000      5.3406466E-09
   11.28000      4.5147766E-09
   11.34000      3.7745744E-09
   11.40000      3.1733887E-09
   11.46000      2.7491687E-09
   11.52000      2.5219438E-09
   11.58000      2.4931841E-09
   11.64000      2.6470721E-09
   11.70000      2.9534641E-09
   11.76000      3.3720595E-09
   11.82000      3.8571271E-09
   11.88000      4.3620676E-09
   11.94000      4.8432387E-09
   12.00000      5.2626885E-09
   12.06000      5.5897673E-09
   12.12000      5.8018137E-09
   12.18000      5.8842460E-09
   12.24000      5.8303478E-09
   12.30000      5.6409255E-09
   12.36000      5.3238347E-09
   12.42000      4.8932738E-09
   12.48000      4.3687405E-09
   12.54000      3.7735894E-09
   12.60000      3.1332787E-09
   12.66000      2.4734799E-09
   12.72000      1.8182749E-09
   12.78000      1.1886375E-09
   12.84000      6.0131145E-10
   12.90000      6.8077780E-11
   12.96000     -4.0465586E-10
   13.02000     -8.1603518E-10
   13.08000     -1.1707321E-09
   13.14000     -1.4786198E-09
   13.20000     -1.7539493E-09
   13.26000     -2.0137851E-09
   13.32000     -2.2755606E-09
   13.38000     -2.5538440E-09
   13.44000     -2.8567553E-09
   13.50000     -3.1827896E-09
   13.56000     -3.5189693E-09
   13.62000     -3.8411407E-09
   13.68000     -4.1168149E-09
   13.74000     -4.3103379E-09
   13.80000     -4.3895083E-09
   13.86000     -4.3323065E-09
   13.92000     -4.1322727E-09
   13.98000     -3.8013717E-09
   14.04000     -3.3697665E-09
   14.10000     -2.8826321E-09
   14.16000     -2.3947522E-09
   14.22000     -1.9639756E-09
   14.28000     -1.6446592E-09
   14.34000     -1.4820226E-09
   14.40000     -1.5080206E-09
   14.46000     -1.7390157E-09
   14.52000     -2.1752704E-09
   14.58000     -2.8020863E-09
   14.64000     -3.5922738E-09
   14.70000     -4.5095212E-09
   14.76000     -5.5121716E-09
   14.82000     -6.5569252E-09
   14.88000     -7.6020994E-09
   14.94000     -8.6102840E-09
   15.00000     -9.5504227E-09
   15.06000     -1.0399502E-08
   15.12000     -1.1143927E-08
   15.18000     -1.1780522E-08
   15.24000     -1.2316733E-08
   15.30000     -1.2769460E-08
   15.36000     -1.3162042E-08
   15.42000     -1.3519327E-08
   15.48000     -1.3861509E-08
   15.54000     -1.4198127E-08
   15.60000     -1.4524069E-08
   15.66000     -1.4819251E-08
   15.72000     -1.5052761E-08
   15.78000     -1.5190864E-08
   15.84000     -1.5206826E-08
   15.90000     -1.5089526E-08
   15.96000     -1.4847855E-08
   16.02000     -1.4508958E-08
   16.08000     -1.4110412E-08
   16.14000     -1.3688544E-08
   16.20000     -1.3266715E-08
   16.26000     -1.2847710E-08
   16.32000     -1.2413247E-08
   16.38000     -1.1931264E-08
   16.44000     -1.1368906E-08
   16.50000     -1.0706994E-08
   16.56000     -9.9509787E-09
   16.62000     -9.1344186E-09
   16.68000     -8.3134886E-09
   16.74000     -7.5541173E-09
   16.80000     -6.9159762E-09
   16.86000     -6.4385990E-09
   16.92000     -6.1341705E-09
   16.98000     -5.9889982E-09
   17.04000     -5.9724976E-09
   17.10000     -6.0497571E-09
   17.16000     -6.1925340E-09
   17.22000     -6.3843189E-09
   17.28000     -6.6176171E-09
   17.34000     -6.8848305E-09
   17.40000     -7.1668351E-09
   17.46000     -7.4244539E-09
   17.52000     -7.5970670E-09
   17.58000     -7.6099926E-09
   17.64000     -7.3889654E-09
   17.70000     -6.8773356E-09
   17.76000     -6.0505192E-09
   17.82000     -4.9230953E-09
   17.88000     -3.5464089E-09
   17.94000     -1.9976714E-09
   18.00000     -3.6412190E-10
   18.06000      1.2729523E-09
   18.12000      2.8500697E-09
   18.18000      4.3269477E-09
   18.24000      5.6855884E-09
   18.30000      6.9253003E-09
   18.36000      8.0568316E-09
   18.42000      9.0982875E-09
   18.48000      1.0073909E-08
   18.54000      1.1014877E-08
   18.60000      1.1959944E-08
   18.66000      1.2953472E-08
   18.72000      1.4039540E-08
   18.78000      1.5252647E-08
   18.84000      1.6607329E-08
   18.90000      1.8090036E-08
   18.96000      1.9656220E-08
   19.02000      2.1234055E-08
   19.08000      2.2734085E-08
   19.14000      2.4062254E-08
   19.20000      2.5132932E-08
   19.26000      2.5879004E-08
   19.32000      2.6257419E-08
   19.38000      2.6250310E-08
   19.44000      2.5862951E-08
   19.50000      2.5120276E-08
   19.56000      2.4063146E-08
   19.62000      2.2744661E-08
   19.68000      2.1226011E-08
   19.74000      1.9571264E-08
   19.80000      1.7840907E-08
   19.86000      1.6085041E-08
   19.92000      1.4337872E-08
   19.98000      1.2615490E-08
   20.04000      1.0918229E-08
   20.10000      9.2375574E-09
   20.16000      7.5657240E-09
   20.22000      5.9051586E-09
   20.28000      4.2743542E-09
   20.34000      2.7079361E-09
   20.40000      1.2505539E-09
   20.46000     -5.3522513E-11
   20.52000     -1.1715642E-09
   20.58000     -2.0903737E-09
   20.64000     -2.8182645E-09
   20.70000     -3.3803818E-09
   20.76000     -3.8091574E-09
   20.82000     -4.1334296E-09
   20.88000     -4.3700754E-09
   20.94000     -4.5208242E-09
   21.00000     -4.5747321E-09
   21.06000     -4.5145763E-09
   21.12000     -4.3240806E-09
   21.18000     -3.9929953E-09
   21.24000     -3.5184893E-09
   21.30000     -2.9034066E-09
   21.36000     -2.1536366E-09
   21.42000     -1.2773487E-09
   21.48000     -2.8783312E-10
   21.54000      7.9043411E-10
   21.60000      1.9150899E-09
   21.66000      3.0223248E-09
   21.72000      4.0296988E-09
   21.78000      4.8463127E-09
   21.84000      5.3882561E-09
   21.90000      5.5946980E-09
   21.96000      5.4392122E-09
   22.02000      4.9323576E-09
   22.08000      4.1147667E-09
   22.14000      3.0436156E-09
   22.20000      1.7778227E-09
   22.26000      3.6757208E-10
   22.32000     -1.1484513E-09
   22.38000     -2.7383094E-09
   22.44000     -4.3682014E-09
   22.50000     -5.9954135E-09
   22.56000     -7.5675048E-09
   22.62000     -9.0294829E-09
   22.68000     -1.0336862E-08
   22.74000     -1.1469417E-08
   22.80000     -1.2439493E-08
   22.86000     -1.3290425E-08
   22.92000     -1.4084391E-08
   22.98000     -1.4883326E-08
   23.04000     -1.5729597E-08
   23.10000     -1.6633779E-08
   23.16000     -1.7574370E-08
   23.22000     -1.8509965E-08
   23.28000     -1.9399380E-08
   23.34000     -2.0222041E-08
   23.40000     -2.0990536E-08
   23.46000     -2.1750107E-08
   23.52000     -2.2564898E-08
   23.58000     -2.3495829E-08
   23.64000     -2.4578291E-08
   23.70000     -2.5807687E-08
   23.76000     -2.7137750E-08
   23.82000     -2.8491380E-08
   23.88000     -2.9779040E-08
   23.94000     -3.0917189E-08
   24.00000     -3.1839875E-08
   24.06000     -3.2500104E-08
   24.12000     -3.2862243E-08
   24.18000     -3.2890561E-08
   24.24000     -3.2540584E-08
   24.30000     -3.1758333E-08
   24.36000     -3.0488948E-08
   24.42000     -2.8691810E-08
   24.48000     -2.6356208E-08
   24.54000     -2.3510994E-08
   24.60000     -2.0223750E-08
   24.66000     -1.6588990E-08
   24.72000     -1.2709180E-08
   24.78000     -8.6752214E-09
   24.84000     -4.5532325E-09
   24.90000     -3.8213432E-10
   24.96000      3.8176973E-09
   25.02000      8.0287403E-09
   25.08000      1.2220360E-08
   25.14000      1.6339399E-08
   25.20000      2.0311496E-08
   25.26000      2.4052978E-08
   25.32000      2.7488865E-08
   25.38000      3.0570106E-08
   25.44000      3.3283364E-08
   25.50000      3.5649702E-08
   25.56000      3.7713033E-08
   25.62000      3.9523037E-08
   25.68000      4.1119449E-08
   25.74000      4.2523581E-08
   25.80000      4.3739863E-08
   25.86000      4.4765663E-08
   25.92000      4.5604377E-08
   25.98000      4.6275414E-08
   26.04000      4.6816304E-08
   26.10000      4.7275549E-08
   26.16000      4.7698958E-08
   26.22000      4.8114817E-08
   26.28000      4.8524011E-08
   26.34000      4.8899093E-08
   26.40000      4.9193002E-08
   26.46000      4.9354533E-08
   26.52000      4.9345239E-08
   26.58000      4.9152213E-08
   26.64000      4.8793037E-08
   26.70000      4.8311932E-08
   26.76000      4.7769280E-08
   26.82000      4.7228507E-08
   26.88000      4.6744596E-08
   26.94000      4.6357201E-08
   27.00000      4.6089255E-08
   27.06000      4.5949729E-08
   27.12000      4.5938076E-08
   27.18000      4.6047859E-08
   27.24000      4.6268003E-08
   27.30000      4.6581643E-08
   27.36000      4.6963684E-08
   27.42000      4.7378816E-08
   27.48000      4.7781306E-08
   27.54000      4.8117158E-08
   27.60000      4.8328324E-08
   27.66000      4.8358014E-08
   27.72000      4.8156068E-08
   27.78000      4.7683567E-08
   27.84000      4.6916213E-08
   27.90000      4.5846132E-08
   27.96000      4.4482000E-08
   28.02000      4.2847340E-08
   28.08000      4.0977032E-08
   28.14000      3.8912578E-08
   28.20000      3.6696946E-08
   28.26000      3.4370245E-08
   28.32000      3.1967232E-08
   28.38000      2.9517246E-08
   28.44000      2.7046255E-08
   28.50000      2.4579940E-08
   28.56000      2.2146361E-08
   28.62000      1.9776831E-08
   28.68000      1.7504300E-08
   28.74000      1.5359607E-08
   28.80000      1.3366680E-08
   28.86000      1.1538343E-08
   28.92000      9.8740847E-09
   28.98000      8.3604963E-09
   29.04000      6.9740995E-09
   29.10000      5.6855289E-09
   29.16000      4.4637507E-09
   29.22000      3.2793332E-09
   29.28000      2.1065023E-09
   29.34000      9.2441094E-10
   29.40000     -2.8166136E-10
   29.46000     -1.5187530E-09
   29.52000     -2.7845810E-09
   29.58000     -4.0667447E-09
   29.64000     -5.3438440E-09
   29.70000     -6.5889969E-09
   29.76000     -7.7751379E-09
   29.82000     -8.8803969E-09
   29.88000     -9.8914335E-09
   29.94000     -1.0803200E-08
   30.00000     -1.1615056E-08
   30.06000     -1.2324892E-08
   30.12000     -1.2924076E-08
   30.18000     -1.3396002E-08
   30.24000     -1.3719688E-08
   30.30000     -1.3877753E-08
   30.36000     -1.3865963E-08
   30.42000     -1.3700499E-08
   30.48000     -1.3419474E-08
   30.54000     -1.3077159E-08
   30.60000     -1.2732110E-08
   30.66000     -1.2432890E-08
   30.72000     -1.2206415E-08
   30.78000     -1.2053401E-08
   30.84000     -1.1953178E-08
   30.90000     -1.1876732E-08
   30.96000     -1.1803745E-08
   31.02000     -1.1737423E-08
   31.08000     -1.1711298E-08
   31.14000     -1.1784553E-08
   31.20000     -1.2026385E-08
   31.26000     -1.2493922E-08
   31.32000     -1.3210842E-08
   31.38000     -1.4154116E-08
   31.44000     -1.5253905E-08
   31.50000     -1.6407375E-08
   31.56000     -1.7502488E-08
   31.62000     -1.8444453E-08
   31.68000     -1.9176511E-08
   31.74000     -1.9688850E-08
   31.80000     -2.0013426E-08
   31.86000     -2.0207361E-08
   31.92000     -2.0331207E-08
   31.98000     -2.0429596E-08
   32.04000     -2.0520377E-08
   32.10000     -2.0594705E-08
   32.16000     -2.0626565E-08
   32.22000     -2.0587049E-08
   32.28000     -2.0457662E-08
   32.34000     -2.0238115E-08
   32.40000     -1.9946713E-08
   32.46000     -1.9614388E-08
   32.52000     -1.9275573E-08
   32.58000     -1.8959643E-08
   32.64000     -1.8685741E-08
   32.70000     -1.8462002E-08
   32.76000     -1.8288382E-08
   32.82000     -1.8161229E-08
   32.88000     -1.8077655E-08
   32.94000     -1.8038543E-08
   33.00000     -1.8049949E-08
   33.06000     -1.8123348E-08
   33.12000     -1.8275015E-08
   33.18000     -1.8524490E-08
   33.24000     -1.8891477E-08
   33.30000     -1.9390741E-08
   33.36000     -2.0025501E-08
   33.42000     -2.0781060E-08
   33.48000     -2.1621529E-08
   33.54000     -2.2492149E-08
   33.60000     -2.3328177E-08
   33.66000     -2.4068633E-08
   33.72000     -2.4670742E-08
   33.78000     -2.5119951E-08
   33.84000     -2.5431447E-08
   33.90000     -2.5642185E-08
   33.96000     -2.5796016E-08
   34.02000     -2.5927402E-08
   34.08000     -2.6049706E-08
   34.14000     -2.6152319E-08
   34.20000     -2.6207447E-08
   34.26000     -2.6183651E-08
   34.32000     -2.6060887E-08
   34.38000     -2.5841482E-08
   34.44000     -2.5553282E-08
   34.50000     -2.5244256E-08
   34.56000     -2.4970854E-08
   34.62000     -2.4784491E-08
   34.68000     -2.4720839E-08
   34.74000     -2.4795280E-08
   34.80000     -2.5005484E-08
   34.86000     -2.5339506E-08
   34.92000     -2.5785928E-08
   34.98000     -2.6342017E-08
   35.04000     -2.7016815E-08
   35.10000     -2.7828044E-08
   35.16000     -2.8793949E-08
   35.22000     -2.9923079E-08
   35.28000     -3.1205502E-08
   35.34000     -3.2608455E-08
   35.40000     -3.4077843E-08
   35.46000     -3.5545202E-08
   35.52000     -3.6938157E-08
   35.58000     -3.8191740E-08
   35.64000     -3.9257870E-08
   35.70000     -4.0111100E-08
   35.76000     -4.0749562E-08
   35.82000     -4.1191306E-08
   35.88000     -4.1466940E-08
   35.94000     -4.1610249E-08
   36.00000     -4.1648835E-08
   36.06000     -4.1596795E-08
   36.12000     -4.1451294E-08
   36.18000     -4.1193978E-08
   36.24000     -4.0797101E-08
   36.30000     -4.0233001E-08
   36.36000     -3.9484178E-08
   36.42000     -3.8550848E-08
   36.48000     -3.7453127E-08
   36.54000     -3.6226616E-08
   36.60000     -3.4912301E-08
   36.66000     -3.3544065E-08
   36.72000     -3.2138473E-08
   36.78000     -3.0691034E-08
   36.84000     -2.9181255E-08
   36.90000     -2.7585367E-08
   36.96000     -2.5892371E-08
   37.02000     -2.4117321E-08
   37.08000     -2.2306201E-08
   37.14000     -2.0529511E-08
   37.20000     -1.8865927E-08
   37.26000     -1.7381131E-08
   37.32000     -1.6109146E-08
   37.38000     -1.5042868E-08
   37.44000     -1.4137417E-08
   37.50000     -1.3325394E-08
   37.56000     -1.2538821E-08
   37.62000     -1.1730141E-08
   37.68000     -1.0884942E-08
   37.74000     -1.0022152E-08
   37.80000     -9.1820604E-09
   37.86000     -8.4070102E-09
   37.92000     -7.7221944E-09
   37.98000     -7.1237527E-09
   38.04000     -6.5783148E-09
   38.10000     -6.0336172E-09
   38.16000     -5.4355547E-09
   38.22000     -4.7448343E-09
   38.28000     -3.9470054E-09
   38.34000     -3.0526535E-09
   38.40000     -2.0886561E-09
   38.46000     -1.0847396E-09
   38.52000     -6.0991136E-11
   38.58000      9.7903208E-10
   38.64000      2.0476201E-09
   38.70000      3.1657976E-09
   38.76000      4.3532022E-09
   38.82000      5.6190599E-09
   38.88000      6.9574351E-09
   38.94000      8.3479774E-09
   39.00000      9.7612007E-09
   39.06000      1.1165791E-08
   39.12000      1.2534839E-08
   39.18000      1.3848569E-08
   39.24000      1.5092535E-08
   39.30000      1.6252212E-08
   39.36000      1.7306435E-08
   39.42000      1.8222881E-08
   39.48000      1.8958268E-08
   39.54000      1.9464284E-08
   39.60000      1.9697927E-08
   39.66000      1.9632916E-08
   39.72000      1.9268082E-08
   39.78000      1.8629331E-08
   39.84000      1.7764041E-08
   39.90000      1.6729635E-08
   39.96000      1.5580216E-08
   40.02000      1.4356063E-08
   40.08000      1.3079500E-08
   40.14000      1.1758305E-08
   40.20000      1.0394757E-08
   40.26000      8.9963264E-09
   40.32000      7.5834627E-09
   40.38000      6.1910925E-09
   40.44000      4.8629034E-09
   40.50000      3.6402421E-09
   40.56000      2.5494182E-09
   40.62000      1.5918661E-09
   40.68000      7.4069312E-10
   40.74000     -5.4885641E-11
   40.80000     -8.5819946E-10
   40.86000     -1.7299246E-09
   40.92000     -2.7132301E-09
   40.98000     -3.8233567E-09
   41.04000     -5.0444782E-09
   41.10000     -6.3347119E-09
   41.16000     -7.6379436E-09
   41.22000     -8.8992786E-09
   41.28000     -1.0079908E-08
   41.34000     -1.1167169E-08
   41.40000     -1.2176780E-08
   41.46000     -1.3146351E-08
   41.52000     -1.4121768E-08
   41.58000     -1.5140445E-08
   41.64000     -1.6216655E-08
   41.70000     -1.7333925E-08
   41.76000     -1.8447428E-08
   41.82000     -1.9496124E-08
   41.88000     -2.0420909E-08
   41.94000     -2.1182748E-08
   42.00000     -2.1774500E-08
   42.06000     -2.2222219E-08
   42.12000     -2.2575433E-08
   42.18000     -2.2889992E-08
   42.24000     -2.3209719E-08
   42.30000     -2.3553456E-08
   42.36000     -2.3911932E-08
   42.42000     -2.4255007E-08
   42.48000     -2.4546088E-08
   42.54000     -2.4757917E-08
   42.60000     -2.4883910E-08
   42.66000     -2.4941304E-08
   42.72000     -2.4965692E-08
   42.78000     -2.4999849E-08
   42.84000     -2.5081492E-08
   42.90000     -2.5234501E-08
   42.96000     -2.5466127E-08
   43.02000     -2.5770037E-08
   43.08000     -2.6132584E-08
   43.14000     -2.6538974E-08
   43.20000     -2.6976561E-08
   43.26000     -2.7434602E-08
   43.32000     -2.7901766E-08
   43.38000     -2.8363853E-08
   43.44000     -2.8803823E-08
   43.50000     -2.9204745E-08
   43.56000     -2.9554352E-08
   43.62000     -2.9848930E-08
   43.68000     -3.0094334E-08
   43.74000     -3.0303369E-08
   43.80000     -3.0490575E-08
   43.86000     -3.0666595E-08
   43.92000     -3.0834435E-08
   43.98000     -3.0989025E-08
   44.04000     -3.1119825E-08
   44.10000     -3.1215226E-08
   44.16000     -3.1266939E-08
   44.22000     -3.1272922E-08
   44.28000     -3.1238297E-08
   44.34000     -3.1174391E-08
   44.40000     -3.1096601E-08
   44.46000     -3.1021834E-08
   44.52000     -3.0966046E-08
   44.58000     -3.0942260E-08
   44.64000     -3.0959029E-08
   44.70000     -3.1019365E-08
   44.76000     -3.1120091E-08
   44.82000     -3.1251854E-08
   44.88000     -3.1400102E-08
   44.94000     -3.1547462E-08
   45.00000     -3.1677555E-08
   45.06000     -3.1779681E-08
   45.12000     -3.1853116E-08
   45.18000     -3.1909273E-08
   45.24000     -3.1970270E-08
   45.30000     -3.2063394E-08
   45.36000     -3.2212530E-08
   45.42000     -3.2428801E-08
   45.48000     -3.2703362E-08
   45.54000     -3.3004774E-08
   45.60000     -3.3281836E-08
   45.66000     -3.3470922E-08
   45.72000     -3.3505248E-08
   45.78000     -3.3322852E-08
   45.84000     -3.2870432E-08
   45.90000     -3.2101614E-08
   45.96000     -3.0969712E-08
   46.02000     -2.9416817E-08
   46.08000     -2.7361526E-08
   46.14000     -2.4688033E-08
   46.20000     -2.1238446E-08
   46.26000     -1.6809183E-08
   46.32000     -1.1151092E-08
   46.38000     -3.9716852E-09
   46.44000      5.0628062E-09
   46.50000      1.6328288E-08
   46.56000      3.0248657E-08
   46.62000      4.7307690E-08
   46.68000      6.8066349E-08
   46.74000      9.3183601E-08
   46.80000      1.2343844E-07
   46.86000      1.5975091E-07
   46.92000      2.0320186E-07
   46.98000      2.5505224E-07
   47.04000      3.1676421E-07
   47.10000      3.9002663E-07
   47.16000      4.7678660E-07
   47.22000      5.7928810E-07
   47.28000      7.0011828E-07
   47.34000      8.4225854E-07
   47.40000      1.0091426E-06
   47.46000      1.2047154E-06
   47.52000      1.4334945E-06
   47.58000      1.7006304E-06
   47.64000      2.0119662E-06
   47.70000      2.3741011E-06
   47.76000      2.7944600E-06
   47.82000      3.2813743E-06
   47.88000      3.8441799E-06
   47.94000      4.4933249E-06
   48.00000      5.2404926E-06
   48.06000      6.0987245E-06
   48.12000      7.0825449E-06
   48.18000      8.2080869E-06
   48.24000      9.4932066E-06
   48.30000      1.0957609E-05
   48.36000      1.2622965E-05
   48.42000      1.4513031E-05
   48.48000      1.6653774E-05
   48.54000      1.9073494E-05
   48.60000      2.1802944E-05
   48.66000      2.4875459E-05
   48.72000      2.8327064E-05
   48.78000      3.2196578E-05
   48.84000      3.6525689E-05
   48.90000      4.1359039E-05
   48.96000      4.6744248E-05
   49.02000      5.2731943E-05
   49.08000      5.9375754E-05
   49.14000      6.6732260E-05
   49.20000      7.4860967E-05
   49.26000      8.3824176E-05
   49.32000      9.3686867E-05
   49.38000      1.0451651E-04
   49.44000      1.1638289E-04
   49.50000      1.2935777E-04
   49.56000      1.4351460E-04
   49.62000      1.5892813E-04
   49.68000      1.7567410E-04
   49.74000      1.9382864E-04
   49.80000      2.1346791E-04
   49.86000      2.3466747E-04
   49.92000      2.5750164E-04
   49.98000      2.8204292E-04
   50.04000      3.0836125E-04
   50.10000      3.3652326E-04
   50.16000      3.6659147E-04
   50.22000      3.9862352E-04
   50.28000      4.3267151E-04
   50.34000      4.6878096E-04
   50.40000      5.0699007E-04
   50.46000      5.4732914E-04
   50.52000      5.8981939E-04
   50.58000      6.3447270E-04
   50.64000      6.8129017E-04
   50.70000      7.3026225E-04
   50.76000      7.8136771E-04
   50.82000      8.3457300E-04
   50.88000      8.8983204E-04
   50.94000      9.4708620E-04
   51.00000      1.0062633E-03
   51.06000      1.0672783E-03
   51.12000      1.1300327E-03
   51.18000      1.1944149E-03
   51.24000      1.2603004E-03
   51.30000      1.3275529E-03
   51.36000      1.3960241E-03
   51.42000      1.4655552E-03
   51.48000      1.5359769E-03
   51.54000      1.6071112E-03
   51.60000      1.6787722E-03
   51.66000      1.7507672E-03
   51.72000      1.8228990E-03
   51.78000      1.8949663E-03
   51.84000      1.9667672E-03
   51.90000      2.0380982E-03
   51.96000      2.1087585E-03
   52.02000      2.1785502E-03
   52.08000      2.2472807E-03
   52.14000      2.3147645E-03
   52.20000      2.3808253E-03
   52.26000      2.4452978E-03
   52.32000      2.5080279E-03
   52.38000      2.5688759E-03
   52.44000      2.6277171E-03
   52.50000      2.6844435E-03
   52.56000      2.7389647E-03
   52.62000      2.7912091E-03
   52.68000      2.8411241E-03
   52.74000      2.8886769E-03
   52.80000      2.9338559E-03
   52.86000      2.9766681E-03
   52.92000      3.0171415E-03
   52.98000      3.0553224E-03
   53.04000      3.0912771E-03
   53.10000      3.1250885E-03
   53.16000      3.1568576E-03
   53.22000      3.1866999E-03
   53.28000      3.2147453E-03
   53.34000      3.2411355E-03
   53.40000      3.2660223E-03
   53.46000      3.2895654E-03
   53.52000      3.3119305E-03
   53.58000      3.3332866E-03
   53.64000      3.3538046E-03
   53.70000      3.3736543E-03
   53.76000      3.3930030E-03
   53.82000      3.4120122E-03
   53.88000      3.4308354E-03
   53.94000      3.4496172E-03
   54.00000      3.4684900E-03
   54.06000      3.4875735E-03
   54.12000      3.5069713E-03
   54.18000      3.5267719E-03
   54.24000      3.5470456E-03
   54.30000      3.5678453E-03
   54.36000      3.5892045E-03
   54.42000      3.6111372E-03
   54.48000      3.6336384E-03
   54.54000      3.6566833E-03
   54.60000      3.6802280E-03
   54.66000      3.7042107E-03
   54.72000      3.7285523E-03
   54.78000      3.7531578E-03
   54.84000      3.7779165E-03
   54.90000      3.8027060E-03
   54.96000      3.8273914E-03
   55.02000      3.8518284E-03
   55.08000      3.8758647E-03
   55.14000      3.8993428E-03
   55.20000      3.9221025E-03
   55.26000      3.9439811E-03
   55.32000      3.9648172E-03
   55.38000      3.9844532E-03
   55.44000      4.0027364E-03
   55.50000      4.0195207E-03
   55.56000      4.0346682E-03