  -2.400000      0.0000000E+00
  -2.340000      0.0000000E+00
  -2.280000      0.0000000E+00
  -2.220000      0.0000000E+00
  -2.160000      0.0000000E+00
  -2.100000      0.0000000E+00
  -2.040000      0.0000000E+00
  -1.980000      1.8738478E-22
  -1.920000      1.9707112E-21
  -1.860000      1.0575486E-20
  -1.800000      3.7731659E-20
  -1.740000      9.6563145E-20
  -1.680000      1.7215535E-19
  -1.620000      1.5426788E-19
  -1.560000     -2.4011130E-19
  -1.500000     -1.4359570E-18
  -1.440000     -3.6662055E-18
  -1.380000     -6.2426283E-18
  -1.320000     -6.7702520E-18
  -1.260000     -1.2514311E-18
  -1.200000      1.3836250E-17
  -1.140000      3.7548478E-17
  -1.080000      6.1032430E-17
  -1.020000      6.8930185E-17
 -0.9600000      4.8079115E-17
 -0.9000000     -1.0176136E-18
 -0.8400000     -6.2596608E-17
 -0.7800000     -1.2591906E-16
 -0.7200000     -2.2108819E-16
 -0.6600000     -4.3264296E-16
 -0.6000000     -8.3513404E-16
 -0.5400000     -1.3282010E-15
 -0.4800000     -1.4493071E-15
 -0.4200000     -3.6492326E-16
 -0.3600000      2.7280892E-15
 -0.3000000      7.7423013E-15
 -0.2400000      1.2742857E-14
 -0.1800000      1.3695372E-14
 -0.1200000      5.7994470E-15
 -5.9999999E-02 -1.3353291E-14
  0.0000000E+00 -3.9908652E-14
  5.9999999E-02 -6.1703660E-14
  0.1200000     -6.0948317E-14
  0.1800000     -2.2849520E-14
  0.2400000      5.2319202E-14
  0.3000000      1.4027653E-13
  0.3600000      1.9505187E-13
  0.4200000      1.6716857E-13
  0.4800000      3.3583172E-14
  0.5400000     -1.7495060E-13
  0.6000000     -3.6858578E-13
  0.6600000     -4.2872487E-13
  0.7200000     -2.6972269E-13
  0.7800000      9.4943164E-14
  0.8400000      5.2282240E-13
  0.9000000      7.8205931E-13
  0.9600000      6.6108707E-13
   1.020000      1.0449637E-13
   1.080000     -7.0073998E-13
   1.140000     -1.3584793E-12
   1.200000     -1.4335409E-12
   1.260000     -6.9681408E-13
   1.320000      6.8072544E-13
   1.380000      2.1152520E-12
   1.440000      2.8340520E-12
   1.500000      2.2642123E-12
   1.560000      3.9915629E-13
   1.620000     -2.0732519E-12
   1.680000     -4.0047813E-12
   1.740000     -4.3224322E-12
   1.800000     -2.6202786E-12
   1.860000      5.1389871E-13
   1.920000      3.6629528E-12
   1.980000      5.2213533E-12
   2.040000      4.2299441E-12
   2.100000      9.7369552E-13
   2.160000     -3.0156749E-12
   2.220000     -5.6299639E-12
   2.280000     -5.2485533E-12
   2.340000     -1.6718754E-12
   2.400000      3.5886040E-12
   2.460000      7.8896707E-12
   2.520000      8.6964602E-12
   2.580000      4.9108348E-12
   2.640000     -2.3822034E-12
   2.700000     -1.0181147E-11
   2.760000     -1.4802498E-11
   2.820000     -1.3552138E-11
   2.880000     -6.0527833E-12
   2.940000      5.4275026E-12
   3.000000      1.6843001E-11
   3.060000      2.4055284E-11
   3.120000      2.4547234E-11
   3.180000      1.8350864E-11
   3.240000      7.7600495E-12
   3.300000     -3.9822642E-12
   3.360000     -1.4295391E-11
   3.420000     -2.2276996E-11
   3.480000     -2.8544351E-11
   3.540000     -3.3974715E-11
   3.600000     -3.8076629E-11
   3.660000     -3.8025558E-11
   3.720000     -2.9152101E-11
   3.780000     -6.9724396E-12
   3.840000      2.9959073E-11
   3.900000      7.7601807E-11
   3.960000      1.2554940E-10
   4.020000      1.5827969E-10
   4.080000      1.5825338E-10
   4.140000      1.0990717E-10
   4.200000      3.3666874E-12
   4.260000     -1.6303663E-10
   4.320000     -3.8184403E-10
   4.380000     -6.3706906E-10
   4.440000     -9.0600621E-10
   4.500000     -1.1619198E-09
   4.560000     -1.3773206E-09
   4.620000     -1.5274657E-09
   4.680000     -1.5935283E-09
   4.740000     -1.5647478E-09
   4.800000     -1.4390056E-09
   4.860000     -1.2217437E-09
   4.920000     -9.2380870E-10
   4.980000     -5.5926430E-10
   5.040000     -1.4418049E-10
   5.100000      3.0323244E-10
   5.160000      7.6170636E-10
   5.220000      1.2064751E-09
   5.280000      1.6105668E-09
   5.340000      1.9482627E-09
   5.400000      2.1998909E-09
   5.460000      2.3561002E-09
   5.520000      2.4196267E-09
   5.580000      2.4035349E-09
   5.640000      2.3265763E-09
   5.700000      2.2078190E-09
   5.760000      2.0632105E-09
   5.820000      1.9058153E-09
   5.880000      1.7495246E-09
   5.940000      1.6139895E-09
   6.000000      1.5275191E-09
   6.060000      1.5253739E-09
   6.120000      1.6430178E-09
   6.180000      1.9064954E-09
   6.240000      2.3238149E-09
   6.300000      2.8811102E-09
   6.360000      3.5454053E-09
   6.420000      4.2729766E-09
   6.480000      5.0199742E-09
   6.540000      5.7512786E-09
   6.600000      6.4447683E-09
   6.660000      7.0905055E-09
   6.720000      7.6865616E-09
   6.780000      8.2342515E-09
   6.840000      8.7350696E-09
   6.900000      9.1902193E-09
   6.960000      9.6021253E-09
   7.020000      9.9765343E-09
   7.080000      1.0323924E-08
   7.140000      1.0659511E-08
   7.200000      1.1001740E-08
   7.260000      1.1369469E-08
   7.320000      1.1778144E-08
   7.380000      1.2235548E-08
   7.440000      1.2738110E-08
   7.500000      1.3269157E-08
   7.560000      1.3800458E-08
   7.620000      1.4297556E-08
   7.680000      1.4727984E-08
   7.740000      1.5070041E-08
   7.800000      1.5319179E-08
   7.860000      1.5489476E-08
   7.920000      1.5609345E-08
   7.980000      1.5712574E-08
   8.040000      1.5827563E-08
   8.100000      1.5968341E-08
   8.160000      1.6130318E-08
   8.220000      1.6292068E-08
   8.280000      1.6422112E-08
   8.340000      1.6487878E-08
   8.400000      1.6463384E-08
   8.460000      1.6333187E-08
   8.520000      1.6092519E-08
   8.580000      1.5745700E-08
   8.640000      1.5305798E-08
   8.700000      1.4797084E-08
   8.760000      1.4258982E-08
   8.820000      1.3747702E-08
   8.880000      1.3331595E-08
   8.940000      1.3079352E-08
   9.000000      1.3044629E-08
   9.060000      1.3254092E-08
   9.120000      1.3705211E-08
   9.180000      1.4375491E-08
   9.240000      1.5238429E-08
   9.300000      1.6277511E-08
   9.360000      1.7490501E-08
   9.420000      1.8882027E-08
   9.480000      2.0449328E-08
   9.540000      2.2169926E-08
   9.600000      2.3998172E-08
   9.660000      2.5871859E-08
   9.720000      2.7723914E-08
   9.780000      2.9491812E-08
   9.840000      3.1120056E-08
   9.900000      3.2556461E-08
   9.960000      3.3747423E-08
   10.02000      3.4637605E-08
   10.08000      3.5176047E-08
   10.14000      3.5326099E-08
   10.20000      3.5074201E-08
   10.26000      3.4433601E-08
   10.32000      3.3442397E-08
   10.38000      3.2158226E-08
   10.44000      3.0652298E-08
   10.50000      2.9004161E-08
   10.56000      2.7296625E-08
   10.62000      2.5610060E-08
   10.68000      2.4016289E-08
   10.74000      2.2573865E-08
   10.80000      2.1326359E-08
   10.86000      2.0303824E-08
   10.92000      1.9525601E-08
   10.98000      1.9002220E-08
   11.04000      1.8735369E-08
   11.10000      1.8717120E-08
   11.16000      1.8930486E-08
   11.22000      1.9352223E-08
   11.28000      1.9956587E-08
   11.34000      2.0717380E-08
   11.40000      2.1606690E-08
   11.46000      2.2591383E-08
   11.52000      2.3630665E-08
   11.58000      2.4677492E-08
   11.64000      2.5683601E-08
   11.70000      2.6604763E-08
   11.76000      2.7402256E-08
   11.82000      2.8039628E-08
   11.88000      2.8478386E-08
   11.94000      2.8678459E-08
   12.00000      2.8606898E-08
   12.06000      2.8252265E-08
   12.12000      2.7636709E-08
   12.18000      2.6817267E-08
   12.24000      2.5873382E-08
   12.30000      2.4885813E-08
   12.36000      2.3917458E-08
   12.42000      2.3005247E-08
   12.48000      2.2165056E-08
   12.54000      2.1403451E-08
   12.60000      2.0726731E-08
   12.66000      2.0141083E-08
   12.72000      1.9645432E-08
   12.78000      1.9224609E-08
   12.84000      1.8850569E-08
   12.90000      1.8493573E-08
   12.96000      1.8137666E-08
   13.02000      1.7791084E-08
   13.08000      1.7484799E-08
   13.14000      1.7259486E-08
   13.20000      1.7147867E-08
   13.26000      1.7161316E-08
   13.32000      1.7286172E-08
   13.38000      1.7489302E-08
   13.44000      1.7728079E-08
   13.50000      1.7959557E-08
   13.56000      1.8146350E-08
   13.62000      1.8259659E-08
   13.68000      1.8281121E-08
   13.74000      1.8204016E-08
   13.80000      1.8033115E-08
   13.86000      1.7782298E-08
   13.92000      1.7470686E-08
   13.98000      1.7119415E-08
   14.04000      1.6750841E-08
   14.10000      1.6389784E-08
   14.16000      1.6063940E-08
   14.22000      1.5800293E-08
   14.28000      1.5617005E-08
   14.34000      1.5514244E-08
   14.40000      1.5469613E-08
   14.46000      1.5442302E-08
   14.52000      1.5385140E-08
   14.58000      1.5258919E-08
   14.64000      1.5041737E-08
   14.70000      1.4729384E-08
   14.76000      1.4328503E-08
   14.82000      1.3848535E-08
   14.88000      1.3298234E-08
   14.94000      1.2688061E-08
   15.00000      1.2034433E-08
   15.06000      1.1359814E-08
   15.12000      1.0685786E-08
   15.18000      1.0022247E-08
   15.24000      9.3603960E-09
   15.30000      8.6762730E-09
   15.36000      7.9453431E-09
   15.42000      7.1609372E-09
   15.48000      6.3455490E-09
   15.54000      5.5472329E-09
   15.60000      4.8218936E-09
   15.66000      4.2109209E-09
   15.72000      3.7266781E-09
   15.78000      3.3537899E-09
   15.84000      3.0648439E-09
   15.90000      2.8409215E-09
   15.96000      2.6853260E-09
   16.02000      2.6238509E-09
   16.08000      2.6931735E-09
   16.14000      2.9250213E-09
   16.20000      3.3341552E-09
   16.26000      3.9136765E-09
   16.32000      4.6357931E-09
   16.38000      5.4540261E-09
   16.44000      6.3050738E-09
   16.50000      7.1124666E-09
   16.56000      7.7958200E-09
   16.62000      8.2866629E-09
   16.68000      8.5462570E-09
   16.74000      8.5768530E-09
   16.80000      8.4191329E-09
   16.86000      8.1351956E-09
   16.92000      7.7844637E-09
   16.98000      7.4038207E-09
   17.04000      7.0005162E-09
   17.10000      6.5586194E-09
   17.16000      6.0522392E-09
   17.22000      5.4564162E-09
   17.28000      4.7504907E-09
   17.34000      3.9156371E-09
   17.40000      2.9327918E-09
   17.46000      1.7861481E-09
   17.52000      4.7186000E-10
   17.58000     -9.9390407E-10
   17.64000     -2.5745197E-09
   17.70000     -4.2226924E-09
   17.76000     -5.8964522E-09
   17.82000     -7.5731856E-09
   17.88000     -9.2547685E-09
   17.94000     -1.0962386E-08
   18.00000     -1.2725386E-08
   18.06000     -1.4570537E-08
   18.12000     -1.6515592E-08
   18.18000     -1.8566704E-08
   18.24000     -2.0716628E-08
   18.30000     -2.2941872E-08
   18.36000     -2.5200228E-08
   18.42000     -2.7432410E-08
   18.48000     -2.9570204E-08
   18.54000     -3.1549181E-08
   18.60000     -3.3320365E-08
   18.66000     -3.4855056E-08
   18.72000     -3.6141071E-08
   18.78000     -3.7174150E-08
   18.84000     -3.7951089E-08
   18.90000     -3.8469075E-08
   18.96000     -3.8730594E-08
   19.02000     -3.8748912E-08
   19.08000     -3.8548695E-08
   19.14000     -3.8160742E-08
   19.20000     -3.7614470E-08
   19.26000     -3.6934090E-08
   19.32000     -3.6141355E-08
   19.38000     -3.5262314E-08
   19.44000     -3.4331912E-08
   19.50000     -3.3391007E-08
   19.56000     -3.2475661E-08
   19.62000     -3.1604269E-08
   19.68000     -3.0769900E-08
   19.74000     -2.9942218E-08
   19.80000     -2.9077764E-08
   19.86000     -2.8133069E-08
   19.92000     -2.7075245E-08
   19.98000     -2.5887999E-08
   20.04000     -2.4574355E-08
   20.10000     -2.3157924E-08
   20.16000     -2.1682082E-08
   20.22000     -2.0204215E-08
   20.28000     -1.8782959E-08
   20.34000     -1.7460891E-08
   20.40000     -1.6250048E-08
   20.46000     -1.5128713E-08
   20.52000     -1.4053129E-08
   20.58000     -1.2979432E-08
   20.64000     -1.1884792E-08
   20.70000     -1.0777098E-08
   20.76000     -9.6895327E-09
   20.82000     -8.6656522E-09
   20.88000     -7.7455411E-09
   20.94000     -6.9610220E-09
   21.00000     -6.3398855E-09
   21.06000     -5.9116432E-09
   21.12000     -5.7060090E-09
   21.18000     -5.7410992E-09
   21.24000     -6.0069572E-09
   21.30000     -6.4551235E-09
   21.36000     -7.0027331E-09
   21.42000     -7.5514928E-09
   21.48000     -8.0132958E-09
   21.54000     -8.3306926E-09
   21.60000     -8.4838536E-09
   21.66000     -8.4832203E-09
   21.72000     -8.3539318E-09
   21.78000     -8.1204465E-09
   21.84000     -7.7974871E-09
   21.90000     -7.3889264E-09
   21.96000     -6.8926518E-09
   22.02000     -6.3078955E-09
   22.08000     -5.6417013E-09
   22.14000     -4.9118283E-09
   22.20000     -4.1442934E-09
   22.26000     -3.3654834E-09
   22.32000     -2.5915270E-09
   22.38000     -1.8202396E-09
   22.44000     -1.0311881E-09
   22.50000     -1.9590589E-10
   22.56000      7.0568695E-10
   22.62000      1.6714135E-09
   22.68000      2.6741327E-09
   22.74000      3.6728971E-09
   22.80000      4.6322794E-09
   22.86000      5.5387899E-09
   22.92000      6.4048051E-09
   22.98000      7.2581434E-09
   23.04000      8.1242346E-09
   23.10000      9.0118375E-09
   23.16000      9.9098676E-09
   23.22000      1.0794820E-08
   23.28000      1.1641437E-08
   23.34000      1.2428459E-08
   23.40000      1.3136689E-08
   23.46000      1.3743663E-08
   23.52000      1.4222334E-08
   23.58000      1.4547923E-08
   23.64000      1.4710015E-08
   23.70000      1.4721723E-08
   23.76000      1.4618592E-08
   23.82000      1.4446579E-08
   23.88000      1.4246140E-08
   23.94000      1.4042522E-08
   24.00000      1.3848409E-08
   24.06000      1.3676742E-08
   24.12000      1.3554499E-08
   24.18000      1.3527444E-08
   24.24000      1.3651609E-08
   24.30000      1.3975674E-08
   24.36000      1.4523843E-08
   24.42000      1.5288078E-08
   24.48000      1.6232564E-08
   24.54000      1.7306325E-08
   24.60000      1.8456470E-08
   24.66000      1.9636037E-08
   24.72000      2.0805425E-08
   24.78000      2.1930884E-08
   24.84000      2.2984688E-08
   24.90000      2.3949163E-08
   24.96000      2.4822517E-08
   25.02000      2.5621647E-08
   25.08000      2.6377577E-08
   25.14000      2.7122816E-08
   25.20000      2.7874664E-08
   25.26000      2.8621820E-08
   25.32000      2.9321413E-08
   25.38000      2.9909742E-08
   25.44000      3.0323925E-08
   25.50000      3.0526010E-08
   25.56000      3.0518976E-08
   25.62000      3.0346555E-08
   25.68000      3.0075881E-08
   25.74000      2.9770144E-08
   25.80000      2.9463839E-08
   25.86000      2.9152845E-08
   25.92000      2.8804497E-08
   25.98000      2.8382804E-08
   26.04000      2.7875746E-08
   26.10000      2.7309943E-08
   26.16000      2.6744273E-08
   26.22000      2.6244958E-08
   26.28000      2.5854547E-08
   26.34000      2.5570362E-08
   26.40000      2.5343098E-08
   26.46000      2.5095552E-08
   26.52000      2.4751689E-08
   26.58000      2.4262089E-08
   26.64000      2.3615419E-08
   26.70000      2.2833976E-08
   26.76000      2.1959314E-08
   26.82000      2.1037005E-08
   26.88000      2.0107096E-08
   26.94000      1.9201176E-08
   27.00000      1.8342742E-08
   27.06000      1.7547160E-08
   27.12000      1.6820351E-08
   27.18000      1.6158525E-08
   27.24000      1.5551809E-08
   27.30000      1.4991896E-08
   27.36000      1.4480054E-08
   27.42000      1.4030188E-08
   27.48000      1.3663812E-08
   27.54000      1.3398653E-08
   27.60000      1.3236891E-08
   27.66000      1.3159822E-08
   27.72000      1.3132356E-08
   27.78000      1.3115510E-08
   27.84000      1.3081086E-08
   27.90000      1.3022256E-08
   27.96000      1.2956409E-08
   28.02000      1.2920166E-08
   28.08000      1.2958774E-08
   28.14000      1.3112587E-08
   28.20000      1.3402994E-08
   28.26000      1.3820475E-08
   28.32000      1.4318416E-08
   28.38000      1.4816629E-08
   28.44000      1.5216676E-08
   28.50000      1.5426700E-08
   28.56000      1.5388602E-08
   28.62000      1.5097873E-08
   28.68000      1.4608354E-08
   28.74000      1.4019820E-08
   28.80000      1.3452808E-08
   28.86000      1.3019178E-08
   28.92000      1.2796948E-08
   28.98000      1.2814708E-08
   29.04000      1.3047309E-08
   29.10000      1.3422082E-08
   29.16000      1.3834145E-08
   29.22000      1.4168795E-08
   29.28000      1.4327385E-08
   29.34000      1.4250706E-08
   29.40000      1.3932467E-08
   29.46000      1.3417355E-08
   29.52000      1.2783347E-08
   29.58000      1.2114471E-08
   29.64000      1.1474574E-08
   29.70000      1.0891857E-08
   29.76000      1.0358626E-08
   29.82000      9.8435198E-09
   29.88000      9.3084545E-09
   29.94000      8.7223038E-09
   30.00000      8.0671629E-09
   30.06000      7.3381274E-09
   30.12000      6.5405268E-09
   30.18000      5.6879506E-09
   30.24000      4.8013629E-09
   30.30000      3.9069401E-09
   30.36000      3.0301759E-09
   30.42000      2.1866067E-09
   30.48000      1.3731642E-09
   30.54000      5.6585125E-10
   30.60000     -2.7258990E-10
   30.66000     -1.1763756E-09
   30.72000     -2.1583486E-09
   30.78000     -3.1985583E-09
   30.84000     -4.2464232E-09
   30.90000     -5.2370974E-09
   30.96000     -6.1159366E-09
   31.02000     -6.8608834E-09
   31.08000     -7.4932283E-09
   31.14000     -8.0720683E-09
   31.20000     -8.6745136E-09
   31.26000     -9.3691233E-09
   31.32000     -1.0192176E-08
   31.38000     -1.1134683E-08
   31.44000     -1.2143889E-08
   31.50000     -1.3138033E-08
   31.56000     -1.4029237E-08
   31.62000     -1.4747325E-08
   31.68000     -1.5257493E-08
   31.74000     -1.5566851E-08
   31.80000     -1.5718358E-08
   31.86000     -1.5774495E-08
   31.92000     -1.5796363E-08
   31.98000     -1.5825101E-08
   32.04000     -1.5871557E-08
   32.10000     -1.5916997E-08
   32.16000     -1.5923941E-08
   32.22000     -1.5852820E-08
   32.28000     -1.5678689E-08
   32.34000     -1.5402330E-08
   32.40000     -1.5051913E-08
   32.46000     -1.4674098E-08
   32.52000     -1.4316858E-08
   32.58000     -1.4009484E-08
   32.64000     -1.3747301E-08
   32.70000     -1.3488002E-08
   32.76000     -1.3162819E-08
   32.82000     -1.2699660E-08
   32.88000     -1.2049455E-08
   32.94000     -1.1204580E-08
   33.00000     -1.0201068E-08
   33.06000     -9.1036227E-09
   33.12000     -7.9803861E-09
   33.18000     -6.8787331E-09
   33.24000     -5.8118053E-09
   33.30000     -4.7591509E-09
   33.36000     -3.6778740E-09
   33.42000     -2.5172076E-09
   33.48000     -1.2308669E-09
   33.54000      2.1420189E-10
   33.60000      1.8308911E-09
   33.66000      3.6055612E-09
   33.72000      5.4943499E-09
   33.78000      7.4270301E-09
   33.84000      9.3217363E-09
   33.90000      1.1107866E-08
   33.96000      1.2747621E-08
   34.02000      1.4244445E-08
   34.08000      1.5631825E-08
   34.14000      1.6946840E-08
   34.20000      1.8202503E-08
   34.26000      1.9375136E-08
   34.32000      2.0415136E-08
   34.38000      2.1275806E-08
   34.44000      2.1943817E-08
   34.50000      2.2453213E-08
   34.56000      2.2874215E-08
   34.62000      2.3282666E-08
   34.68000      2.3726797E-08
   34.74000      2.4208800E-08
   34.80000      2.4689378E-08
   34.86000      2.5110085E-08
   34.92000      2.5419723E-08
   34.98000      2.5591312E-08
   35.04000      2.5624447E-08
   35.10000      2.5537400E-08
   35.16000      2.5357847E-08
   35.22000      2.5118291E-08
   35.28000      2.4855543E-08
   35.34000      2.4608701E-08
   35.40000      2.4411014E-08
   35.46000      2.4277170E-08
   35.52000      2.4193717E-08
   35.58000      2.4121130E-08
   35.64000      2.4010022E-08
   35.70000      2.3824565E-08
   35.76000      2.3559924E-08
   35.82000      2.3242423E-08
   35.88000      2.2910617E-08
   35.94000      2.2587072E-08
   36.00000      2.2257177E-08
   36.06000      2.1868257E-08
   36.12000      2.1351294E-08
   36.18000      2.0655142E-08
   36.24000      1.9776133E-08
   36.30000      1.8768395E-08
   36.36000      1.7730061E-08
   36.42000      1.6772121E-08
   36.48000      1.5983908E-08
   36.54000      1.5409094E-08
   36.60000      1.5039870E-08
   36.66000      1.4828575E-08
   36.72000      1.4709832E-08
   36.78000      1.4624082E-08
   36.84000      1.4535131E-08
   36.90000      1.4437961E-08
   36.96000      1.4356710E-08
   37.02000      1.4335072E-08
   37.08000      1.4422391E-08
   37.14000      1.4658792E-08
   37.20000      1.5062337E-08
   37.26000      1.5620842E-08
   37.32000      1.6290612E-08
   37.38000      1.7003572E-08
   37.44000      1.7682511E-08
   37.50000      1.8261291E-08
   37.56000      1.8703807E-08
   37.62000      1.9013813E-08
   37.68000      1.9229535E-08
   37.74000      1.9402604E-08
   37.80000      1.9568459E-08
   37.86000      1.9720947E-08
   37.92000      1.9803688E-08
   37.98000      1.9723792E-08
   38.04000      1.9382808E-08
   38.10000      1.8711042E-08
   38.16000      1.7689903E-08
   38.22000      1.6353548E-08
   38.28000      1.4772062E-08
   38.34000      1.3027146E-08
   38.40000      1.1192629E-08
   38.46000      9.3262695E-09
   38.52000      7.4707547E-09
   38.58000      5.6567129E-09
   38.64000      3.9022274E-09
   38.70000      2.2096376E-09
   38.76000      5.6594579E-10
   38.82000     -1.0470786E-09
   38.88000     -2.6335807E-09
   38.94000     -4.1639909E-09
   39.00000     -5.5679648E-09
   39.06000     -6.7484729E-09
   39.12000     -7.6147746E-09
   39.18000     -8.1207991E-09
   39.24000     -8.2907627E-09
   39.30000     -8.2188008E-09
   39.36000     -8.0413942E-09
   39.42000     -7.8939975E-09
   39.48000     -7.8699474E-09
   39.54000     -7.9976230E-09
   39.60000     -8.2427567E-09
   39.66000     -8.5319467E-09
   39.72000     -8.7858485E-09
   39.78000     -8.9490362E-09
   39.84000     -9.0073442E-09
   39.90000     -8.9899066E-09
   39.96000     -8.9587537E-09
   40.02000     -8.9918224E-09
   40.08000     -9.1651726E-09
   40.14000     -9.5383301E-09
   40.20000     -1.0144613E-08
   40.26000     -1.0987128E-08
   40.32000     -1.2040960E-08
   40.38000     -1.3262049E-08
   40.44000     -1.4602096E-08
   40.50000     -1.6026357E-08
   40.56000     -1.7528322E-08
   40.62000     -1.9134180E-08
   40.68000     -2.0892701E-08
   40.74000     -2.2852433E-08
   40.80000     -2.5035241E-08
   40.86000     -2.7419102E-08
   40.92000     -2.9940058E-08
   40.98000     -3.2514244E-08
   41.04000     -3.5069824E-08
   41.10000     -3.7572441E-08
   41.16000     -4.0030578E-08
   41.22000     -4.2478142E-08
   41.28000     -4.4944620E-08
   41.34000     -4.7430436E-08
   41.40000     -4.9901729E-08
   41.46000     -5.2306685E-08
   41.52000     -5.4602204E-08
   41.58000     -5.6773533E-08
   41.64000     -5.8834530E-08
   41.70000     -6.0809263E-08
   41.76000     -6.2708075E-08
   41.82000     -6.4514765E-08
   41.88000     -6.6193998E-08
   41.94000     -6.7714318E-08
   42.00000     -6.9071007E-08
   42.06000     -7.0292749E-08
   42.12000     -7.1425831E-08
   42.18000     -7.2504420E-08
   42.24000     -7.3524646E-08
   42.30000     -7.4438638E-08
   42.36000     -7.5173112E-08
   42.42000     -7.5662733E-08
   42.48000     -7.5880202E-08
   42.54000     -7.5847773E-08
   42.60000     -7.5625707E-08
   42.66000     -7.5285968E-08
   42.72000     -7.4885826E-08
   42.78000     -7.4453624E-08
   42.84000     -7.3990044E-08
   42.90000     -7.3479065E-08
   42.96000     -7.2899105E-08
   43.02000     -7.2227799E-08
   43.08000     -7.1440240E-08
   43.14000     -7.0506189E-08
   43.20000     -6.9392108E-08
   43.26000     -6.8070094E-08
   43.32000     -6.6530120E-08
   43.38000     -6.4788864E-08
   43.44000     -6.2889413E-08
   43.50000     -6.0890997E-08
   43.56000     -5.8852855E-08
   43.62000     -5.6818902E-08
   43.68000     -5.4809124E-08
   43.74000     -5.2819502E-08
   43.80000     -5.0828525E-08
   43.86000     -4.8805973E-08
   43.92000     -4.6720459E-08
   43.98000     -4.4544375E-08
   44.04000     -4.2257529E-08
   44.10000     -3.9851258E-08
   44.16000     -3.7333649E-08
   44.22000     -3.4733791E-08
   44.28000     -3.2101500E-08
   44.34000     -2.9499615E-08
   44.40000     -2.6989310E-08
   44.46000     -2.4613495E-08
   44.52000     -2.2385853E-08
   44.58000     -2.0291882E-08
   44.64000     -1.8302842E-08
   44.70000     -1.6396228E-08
   44.76000     -1.4571867E-08
   44.82000     -1.2853837E-08
   44.88000     -1.1275613E-08
   44.94000     -9.8557091E-09
   45.00000     -8.5776373E-09
   45.06000     -7.3871855E-09
   45.12000     -6.2113079E-09
   45.18000     -4.9909303E-09
   45.24000     -3.7114778E-09
   45.30000     -2.4151205E-09
   45.36000     -1.1878482E-09
   45.42000     -1.2750345E-10
   45.48000      6.9147049E-10
   45.54000      1.2399380E-09
   45.60000      1.5339370E-09
   45.66000      1.6156767E-09
   45.72000      1.5277304E-09
   45.78000      1.2938339E-09
   45.84000      9.1379787E-10
   45.90000      3.7129205E-10
   45.96000     -3.5280442E-10
   46.02000     -1.2692647E-09
   46.08000     -2.3752462E-09
   46.14000     -3.6537142E-09
   46.20000     -5.0743854E-09
   46.26000     -6.5946555E-09
   46.32000     -8.1620293E-09
   46.38000     -9.7208126E-09
   46.44000     -1.1223616E-08
   46.50000     -1.2644058E-08
   46.56000     -1.3984280E-08
   46.62000     -1.5272226E-08
   46.68000     -1.6548887E-08
   46.74000     -1.7851487E-08
   46.80000     -1.9201009E-08
   46.86000     -2.0599483E-08
   46.92000     -2.2036085E-08
   46.98000     -2.3495682E-08
   47.04000     -2.4962750E-08
   47.10000     -2.6418137E-08
   47.16000     -2.7832419E-08
   47.22000     -2.9163171E-08
   47.28000     -3.0361345E-08
   47.34000     -3.1385788E-08
   47.40000     -3.2219141E-08
   47.46000     -3.2876741E-08
   47.52000     -3.3404184E-08
   47.58000     -3.3865366E-08
   47.64000     -3.4327158E-08
   47.70000     -3.4846565E-08
   47.76000     -3.5462659E-08
   47.82000     -3.6192151E-08
   47.88000     -3.7027068E-08
   47.94000     -3.7935191E-08
   48.00000     -3.8866244E-08
   48.06000     -3.9765009E-08
   48.12000     -4.0588279E-08
   48.18000     -4.1317524E-08
   48.24000     -4.1959343E-08
   48.30000     -4.2531653E-08
   48.36000     -4.3042281E-08
   48.42000     -4.3472340E-08
   48.48000     -4.3774971E-08
   48.54000     -4.3891351E-08
   48.60000     -4.3775920E-08
   48.66000     -4.3417785E-08
   48.72000     -4.2848178E-08
   48.78000     -4.2131628E-08
   48.84000     -4.1346123E-08
   48.90000     -4.0560074E-08
   48.96000     -3.9812043E-08
   49.02000     -3.9096246E-08
   49.08000     -3.8355935E-08
   49.14000     -3.7487755E-08
   49.20000     -3.6359662E-08
   49.26000     -3.4840397E-08
   49.32000     -3.2831093E-08
   49.38000     -3.0284706E-08
   49.44000     -2.7201727E-08
   49.50000     -2.3601368E-08
   49.56000     -1.9480066E-08
   49.62000     -1.4775150E-08
   49.68000     -9.3469934E-09
   49.74000     -2.9807357E-09
   49.80000      4.6018465E-09
   49.86000      1.3731930E-08
   49.92000      2.4789589E-08
   49.98000      3.8202838E-08
   50.04000      5.4444754E-08
   50.10000      7.4030297E-08
   50.16000      9.7522843E-08
   50.22000      1.2556160E-07
   50.28000      1.5891084E-07
   50.34000      1.9851653E-07
   50.40000      2.4554834E-07
   50.46000      3.0141146E-07
   50.52000      3.6773332E-07
   50.58000      4.4634760E-07
   50.64000      5.3930376E-07
   50.70000      6.4891492E-07
   50.76000      7.7783488E-07
   50.82000      9.2914115E-07
   50.88000      1.1064025E-06
   50.94000      1.3137270E-06
   51.00000      1.5558049E-06
   51.06000      1.8379577E-06
   51.12000      2.1662056E-06
   51.18000      2.5473432E-06
   51.24000      2.9890155E-06
   51.30000      3.4997938E-06
   51.36000      4.0892683E-06
   51.42000      4.7681638E-06
   51.48000      5.5484952E-06
   51.54000      6.4437272E-06
   51.60000      7.4689201E-06
   51.66000      8.6408472E-06
   51.72000      9.9780782E-06
   51.78000      1.1501079E-05
   51.84000      1.3232334E-05
   51.90000      1.5196520E-05
   51.96000      1.7420678E-05
   52.02000      1.9934387E-05
   52.08000      2.2769878E-05
   52.14000      2.5962161E-05
   52.20000      2.9549134E-05
   52.26000      3.3571749E-05
   52.32000      3.8074180E-05
   52.38000      4.3104010E-05
   52.44000      4.8712300E-05
   52.50000      5.4953634E-05
   52.56000      6.1886101E-05
   52.62000      6.9571310E-05
   52.68000      7.8074430E-05
   52.74000      8.7464265E-05
   52.80000      9.7813281E-05
   52.86000      1.0919757E-04
   52.92000      1.2169664E-04
   52.98000      1.3539316E-04
   53.04000      1.5037270E-04
   53.10000      1.6672353E-04
   53.16000      1.8453630E-04
   53.22000      2.0390376E-04
   53.28000      2.2492050E-04
   53.34000      2.4768227E-04
   53.40000      2.7228543E-04
   53.46000      2.9882652E-04
   53.52000      3.2740142E-04
   53.58000      3.5810508E-04
   53.64000      3.9103063E-04
   53.70000      4.2626850E-04
   53.76000      4.6390595E-04
   53.82000      5.0402578E-04
   53.88000      5.4670568E-04
   53.94000      5.9201726E-04
   54.00000      6.4002536E-04
   54.06000      6.9078704E-04
   54.12000      7.4435089E-04
   54.18000      8.0075546E-04
   54.24000      8.6002890E-04
   54.30000      9.2218799E-04
   54.36000      9.8723744E-04
   54.42000      1.0551689E-03
   54.48000      1.1259608E-03
   54.54000      1.1995775E-03
   54.60000      1.2759678E-03
   54.66000      1.3550661E-03
   54.72000      1.4367911E-03
   54.78000      1.5210457E-03
   54.84000      1.6077170E-03
   54.90000      1.6966768E-03
   54.96000      1.7877814E-03
   55.02000      1.8808712E-03
   55.08000      1.9757720E-03
   55.14000      2.0722949E-03
   55.20000      2.1702375E-03
   55.26000      2.2693849E-03
   55.32000      2.3695105E-03
   55.38000      2.4703769E-03
   55.44000      2.5717374E-03
   55.50000      2.6733358E-03
   55.56000      2.7749105E-03