  -2.400000      0.0000000E+00
  -2.340000      0.0000000E+00
  -2.280000      0.0000000E+00
  -2.220000      0.0000000E+00
  -2.160000      0.0000000E+00
  -2.100000      0.0000000E+00
  -2.040000      0.0000000E+00
  -1.980000     -3.6940900E-22
  -1.920000     -3.5426070E-21
  -1.860000     -1.5495397E-20
  -1.800000     -3.5977617E-20
  -1.740000     -2.1216671E-20
  -1.680000      1.6127801E-19
  -1.620000      6.6992572E-19
  -1.560000      1.3475657E-18
  -1.500000      1.1621046E-18
  -1.440000     -1.8738480E-18
  -1.380000     -9.0745345E-18
  -1.320000     -1.7310395E-17
  -1.260000     -1.5633226E-17
  -1.200000      1.1586828E-17
  -1.140000      6.9500675E-17
  -1.080000      1.2968347E-16
  -1.020000      1.1959933E-16
 -0.9600000     -4.5769736E-17
 -0.9000000     -3.7874152E-16
 -0.8400000     -7.2056664E-16
 -0.7800000     -7.2713183E-16
 -0.7200000     -3.7370912E-17
 -0.6600000      1.3819092E-15
 -0.6000000      2.9088672E-15
 -0.5400000      3.2921790E-15
 -0.4800000      1.2807181E-15
 -0.4200000     -3.2777071E-15
 -0.3600000     -8.5283673E-15
 -0.3000000     -1.0814402E-14
 -0.2400000     -6.5169478E-15
 -0.1800000      5.0363004E-15
 -0.1200000      1.9372321E-14
 -5.9999999E-02  2.7526926E-14
  0.0000000E+00  2.0489056E-14
  5.9999999E-02 -4.1583062E-15
  0.1200000     -3.7412303E-14
  0.1800000     -6.0208959E-14
  0.2400000     -5.2534040E-14
  0.3000000     -6.8196994E-15
  0.3600000      6.2163240E-14
  0.4200000      1.1893694E-13
  0.4800000      1.2318284E-13
  0.5400000      5.3806521E-14
  0.6000000     -7.1952433E-14
  0.6600000     -1.9780960E-13
  0.7200000     -2.5126711E-13
  0.7800000     -1.8176456E-13
  0.8400000      5.0600359E-15
  0.9000000      2.3765712E-13
  0.9600000      4.0362557E-13
   1.020000      4.0191843E-13
   1.080000      1.9850293E-13
   1.140000     -1.4349023E-13
   1.200000     -4.7876980E-13
   1.260000     -6.3928756E-13
   1.320000     -5.1497625E-13
   1.380000     -1.1899286E-13
   1.440000      3.9737961E-13
   1.500000      7.9628415E-13
   1.560000      8.5787979E-13
   1.620000      4.9571377E-13
   1.680000     -1.7375656E-13
   1.740000     -8.5333205E-13
   1.800000     -1.1873494E-12
   1.860000     -9.4072384E-13
   1.920000     -1.4975597E-13
   1.980000      8.4511960E-13
   2.040000      1.5290825E-12
   2.100000      1.4669538E-12
   2.160000      5.6294070E-13
   2.220000     -8.2155973E-13
   2.280000     -1.9878992E-12
   2.340000     -2.2341491E-12
   2.400000     -1.2502508E-12
   2.460000      6.4139210E-13
   2.520000      2.5624719E-12
   2.580000      3.4780872E-12
   2.640000      2.7404459E-12
   2.700000      4.9212538E-13
   2.760000     -2.3126639E-12
   2.820000     -4.3246583E-12
   2.880000     -4.4729771E-12
   2.940000     -2.5559934E-12
   3.000000      5.7462249E-13
   3.060000      3.3683052E-12
   3.120000      4.3246838E-12
   3.180000      2.7793514E-12
   3.240000     -6.6987995E-13
   3.300000     -4.3313361E-12
   3.360000     -6.1369620E-12
   3.420000     -4.6018337E-12
   3.480000      3.9987802E-13
   3.540000      7.3941105E-12
   3.600000      1.3728630E-11
   3.660000      1.6513974E-11
   3.720000      1.3735240E-11
   3.780000      5.1198117E-12
   3.840000     -7.5680746E-12
   3.900000     -2.0935425E-11
   3.960000     -3.0955998E-11
   4.020000     -3.4226948E-11
   4.080000     -2.9052446E-11
   4.140000     -1.5958601E-11
   4.200000      2.5695329E-12
   4.260000      2.3058375E-11
   4.320000      4.2380505E-11
   4.380000      5.8957499E-11
   4.440000      7.3374001E-11
   4.500000      8.8173045E-11
   4.560000      1.0692313E-10
   4.620000      1.3292263E-10
   4.680000      1.6801743E-10
   4.740000      2.1191092E-10
   4.800000      2.6209743E-10
   4.860000      3.1427658E-10
   4.920000      3.6293107E-10
   4.980000      4.0175657E-10
   5.040000      4.2379925E-10
   5.100000      4.2141296E-10
   5.160000      3.8635800E-10
   5.220000      3.1042843E-10
   5.280000      1.8684766E-10
   5.340000      1.2349259E-11
   5.400000     -2.1053671E-10
   5.460000     -4.7177318E-10
   5.520000     -7.5350781E-10
   5.580000     -1.0317049E-09
   5.640000     -1.2796790E-09
   5.700000     -1.4728235E-09
   5.760000     -1.5933256E-09
   5.820000     -1.6335524E-09
   5.880000     -1.5971705E-09
   5.940000     -1.4977956E-09
   6.000000     -1.3558038E-09
   6.060000     -1.1945180E-09
   6.120000     -1.0370804E-09
   6.180000     -9.0487451E-10
   6.240000     -8.1753820E-10
   6.300000     -7.9377682E-10
   6.360000     -8.5171975E-10
   6.420000     -1.0077263E-09
   6.480000     -1.2733199E-09
   6.540000     -1.6509941E-09
   6.600000     -2.1304880E-09
   6.660000     -2.6873093E-09
   6.720000     -3.2846188E-09
   6.780000     -3.8783474E-09
   6.840000     -4.4241313E-09
   6.900000     -4.8840265E-09
   6.960000     -5.2312221E-09
   7.020000     -5.4520357E-09
   7.080000     -5.5457012E-09
   7.140000     -5.5231810E-09
   7.200000     -5.4060814E-09
   7.260000     -5.2258726E-09
   7.320000     -5.0226285E-09
   7.380000     -4.8420139E-09
   7.440000     -4.7296966E-09
   7.500000     -4.7235256E-09
   7.560000     -4.8451381E-09
   7.620000     -5.0934736E-09
   7.680000     -5.4425477E-09
   7.740000     -5.8448144E-09
   7.800000     -6.2398806E-09
   7.860000     -6.5667622E-09
   7.920000     -6.7767627E-09
   7.980000     -6.8437296E-09
   8.040000     -6.7689951E-09
   8.100000     -6.5796555E-09
   8.160000     -6.3207120E-09
   8.220000     -6.0434449E-09
   8.280000     -5.7936043E-09
   8.340000     -5.6030114E-09
   8.400000     -5.4868639E-09
   8.460000     -5.4468043E-09
   8.520000     -5.4775655E-09
   8.580000     -5.5737277E-09
   8.640000     -5.7333938E-09
   8.700000     -5.9572787E-09
   8.760000     -6.2440173E-09
   8.820000     -6.5843153E-09
   8.880000     -6.9570802E-09
   8.940000     -7.3297777E-09
   9.000000     -7.6634068E-09
   9.060000     -7.9206650E-09
   9.120000     -8.0747133E-09
   9.180000     -8.1158431E-09
   9.240000     -8.0541023E-09
   9.300000     -7.9171221E-09
   9.360000     -7.7437008E-09
   9.420000     -7.5747684E-09
   9.480000     -7.4440840E-09
   9.540000     -7.3711806E-09
   9.600000     -7.3585249E-09
   9.660000     -7.3935786E-09
   9.720000     -7.4548048E-09
   9.780000     -7.5192812E-09
   9.840000     -7.5690796E-09
   9.900000     -7.5943616E-09
   9.960000     -7.5927256E-09
   10.02000     -7.5660278E-09
   10.08000     -7.5167295E-09
   10.14000     -7.4454705E-09
   10.20000     -7.3503661E-09
   10.26000     -7.2273498E-09
   10.32000     -7.0704353E-09
   10.38000     -6.8712991E-09
   10.44000     -6.6184702E-09
   10.50000     -6.2970105E-09
   10.56000     -5.8893614E-09
   10.62000     -5.3772791E-09
   10.68000     -4.7440594E-09
   10.74000     -3.9761838E-09
   10.80000     -3.0641416E-09
   10.86000     -2.0028905E-09
   10.92000     -7.9269946E-10
   10.98000      5.5939831E-10
   11.04000      2.0381532E-09
   11.10000      3.6197318E-09
   11.16000      5.2731770E-09
   11.22000      6.9634263E-09
   11.28000      8.6547054E-09
   11.34000      1.0312910E-08
   11.40000      1.1906362E-08
   11.46000      1.3405385E-08
   11.52000      1.4781786E-08
   11.58000      1.6009174E-08
   11.64000      1.7064146E-08
   11.70000      1.7927785E-08
   11.76000      1.8586704E-08
   11.82000      1.9033465E-08
   11.88000      1.9266730E-08
   11.94000      1.9291539E-08
   12.00000      1.9119575E-08
   12.06000      1.8768956E-08
   12.12000      1.8263012E-08
   12.18000      1.7628446E-08
   12.24000      1.6893882E-08
   12.30000      1.6089686E-08
   12.36000      1.5248824E-08
   12.42000      1.4407117E-08
   12.48000      1.3600913E-08
   12.54000      1.2861630E-08
   12.60000      1.2209069E-08
   12.66000      1.1647232E-08
   12.72000      1.1165950E-08
   12.78000      1.0748711E-08
   12.84000      1.0383347E-08
   12.90000      1.0070101E-08
   12.96000      9.8227098E-09
   13.02000      9.6618402E-09
   13.08000      9.6044444E-09
   13.14000      9.6544719E-09
   13.20000      9.7991713E-09
   13.26000      1.0011792E-08
   13.32000      1.0258468E-08
   13.38000      1.0506035E-08
   13.44000      1.0728646E-08
   13.50000      1.0912676E-08
   13.56000      1.1060042E-08
   13.62000      1.1189185E-08
   13.68000      1.1332140E-08
   13.74000      1.1526544E-08
   13.80000      1.1803915E-08
   13.86000      1.2178341E-08
   13.92000      1.2640786E-08
   13.98000      1.3162184E-08
   14.04000      1.3704130E-08
   14.10000      1.4231996E-08
   14.16000      1.4724217E-08
   14.22000      1.5173971E-08
   14.28000      1.5583819E-08
   14.34000      1.5957383E-08
   14.40000      1.6292601E-08
   14.46000      1.6579083E-08
   14.52000      1.6799222E-08
   14.58000      1.6931235E-08
   14.64000      1.6952788E-08
   14.70000      1.6845027E-08
   14.76000      1.6597484E-08
   14.82000      1.6213070E-08
   14.88000      1.5710961E-08
   14.94000      1.5124574E-08
   15.00000      1.4493487E-08
   15.06000      1.3851354E-08
   15.12000      1.3214414E-08
   15.18000      1.2575579E-08
   15.24000      1.1906675E-08
   15.30000      1.1167711E-08
   15.36000      1.0319216E-08
   15.42000      9.3331289E-09
   15.48000      8.1992724E-09
   15.54000      6.9267494E-09
   15.60000      5.5411666E-09
   15.66000      4.0788817E-09
   15.72000      2.5791844E-09
   15.78000      1.0752523E-09
   15.84000     -4.1457970E-10
   15.90000     -1.8928321E-09
   15.96000     -3.3837129E-09
   16.02000     -4.9276343E-09
   16.08000     -6.5705965E-09
   16.14000     -8.3517619E-09
   16.20000     -1.0293313E-08
   16.26000     -1.2395551E-08
   16.32000     -1.4637888E-08
   16.38000     -1.6984078E-08
   16.44000     -1.9388894E-08
   16.50000     -2.1803931E-08
   16.56000     -2.4181723E-08
   16.62000     -2.6478848E-08
   16.68000     -2.8659285E-08
   16.74000     -3.0698590E-08
   16.80000     -3.2588080E-08
   16.86000     -3.4336971E-08
   16.92000     -3.5970533E-08
   16.98000     -3.7523581E-08
   17.04000     -3.9030898E-08
   17.10000     -4.0517957E-08
   17.16000     -4.1995442E-08
   17.22000     -4.3459661E-08
   17.28000     -4.4898048E-08
   17.34000     -4.6296659E-08
   17.40000     -4.7645774E-08
   17.46000     -4.8940951E-08
   17.52000     -5.0179498E-08
   17.58000     -5.1354693E-08
   17.64000     -5.2451188E-08
   17.70000     -5.3444129E-08
   17.76000     -5.4302646E-08
   17.82000     -5.4996395E-08
   17.88000     -5.5502586E-08
   17.94000     -5.5811213E-08
   18.00000     -5.5927078E-08
   18.06000     -5.5868313E-08
   18.12000     -5.5662102E-08
   18.18000     -5.5338717E-08
   18.24000     -5.4925007E-08
   18.30000     -5.4438672E-08
   18.36000     -5.3884431E-08
   18.42000     -5.3253142E-08
   18.48000     -5.2524616E-08
   18.54000     -5.1674178E-08
   18.60000     -5.0681972E-08
   18.66000     -4.9542841E-08
   18.72000     -4.8273520E-08
   18.78000     -4.6913975E-08
   18.84000     -4.5521148E-08
   18.90000     -4.4155893E-08
   18.96000     -4.2866969E-08
   19.02000     -4.1677477E-08
   19.08000     -4.0578723E-08
   19.14000     -3.9533688E-08
   19.20000     -3.8488540E-08
   19.26000     -3.7387853E-08
   19.32000     -3.6188595E-08
   19.38000     -3.4869295E-08
   19.44000     -3.3433260E-08
   19.50000     -3.1906470E-08
   19.56000     -3.0331531E-08
   19.62000     -2.8759013E-08
   19.68000     -2.7237583E-08
   19.74000     -2.5805026E-08
   19.80000     -2.4482821E-08
   19.86000     -2.3276302E-08
   19.92000     -2.2180405E-08
   19.98000     -2.1188159E-08
   20.04000     -2.0297406E-08
   20.10000     -1.9512139E-08
   20.16000     -1.8838023E-08
   20.22000     -1.8275237E-08
   20.28000     -1.7813427E-08
   20.34000     -1.7432098E-08
   20.40000     -1.7106258E-08
   20.46000     -1.6813919E-08
   20.52000     -1.6541275E-08
   20.58000     -1.6283268E-08
   20.64000     -1.6040323E-08
   20.70000     -1.5813916E-08
   20.76000     -1.5603487E-08
   20.82000     -1.5405373E-08
   20.88000     -1.5212928E-08
   20.94000     -1.5016720E-08
   21.00000     -1.4804873E-08
   21.06000     -1.4564353E-08
   21.12000     -1.4283970E-08
   21.18000     -1.3958264E-08
   21.24000     -1.3590362E-08
   21.30000     -1.3191937E-08
   21.36000     -1.2780204E-08
   21.42000     -1.2373683E-08
   21.48000     -1.1989087E-08
   21.54000     -1.1640293E-08
   21.60000     -1.1338289E-08
   21.66000     -1.1089935E-08
   21.72000     -1.0894618E-08
   21.78000     -1.0740261E-08
   21.84000     -1.0602085E-08
   21.90000     -1.0446739E-08
   21.96000     -1.0241455E-08
   22.02000     -9.9644195E-09
   22.08000     -9.6113446E-09
   22.14000     -9.1951069E-09
   22.20000     -8.7391872E-09
   22.26000     -8.2689171E-09
   22.32000     -7.8049665E-09
   22.38000     -7.3612147E-09
   22.44000     -6.9459793E-09
   22.50000     -6.5638677E-09
   22.56000     -6.2163612E-09
   22.62000     -5.9015042E-09
   22.68000     -5.6147358E-09
   22.74000     -5.3524292E-09
   22.80000     -5.1173901E-09
   22.86000     -4.9232418E-09
   22.92000     -4.7942033E-09
   22.98000     -4.7588120E-09
   23.04000     -4.8394524E-09
   23.10000     -5.0420526E-09
   23.16000     -5.3503890E-09
   23.22000     -5.7272422E-09
   23.28000     -6.1214549E-09
   23.34000     -6.4777184E-09
   23.40000     -6.7455432E-09
   23.46000     -6.8852670E-09
   23.52000     -6.8708474E-09
   23.58000     -6.6904855E-09
   23.64000     -6.3462351E-09
   23.70000     -5.8530358E-09
   23.76000     -5.2368043E-09
   23.82000     -4.5311248E-09
   23.88000     -3.7726888E-09
   23.94000     -2.9966336E-09
   24.00000     -2.2334370E-09
   24.06000     -1.5085793E-09
   24.12000     -8.4483620E-10
   24.18000     -2.6552086E-10
   24.24000      2.0372672E-10
   24.30000      5.3631954E-10
   24.36000      7.0912926E-10
   24.42000      7.0783540E-10
   24.48000      5.3037380E-10
   24.54000      1.8665357E-10
   24.60000     -3.0507136E-10
   24.66000     -9.2284874E-10
   24.72000     -1.6440254E-09
   24.78000     -2.4454625E-09
   24.84000     -3.3021306E-09
   24.90000     -4.1865791E-09
   24.96000     -5.0710769E-09
   25.02000     -5.9319278E-09
   25.08000     -6.7532682E-09
   25.14000     -7.5273068E-09
   25.20000     -8.2498977E-09
   25.26000     -8.9133483E-09
   25.32000     -9.5003312E-09
   25.38000     -9.9823181E-09
   25.44000     -1.0323393E-08
   25.50000     -1.0487384E-08
   25.56000     -1.0444963E-08
   25.62000     -1.0178312E-08
   25.68000     -9.6832045E-09
   25.74000     -8.9698142E-09
   25.80000     -8.0633669E-09
   25.86000     -7.0039698E-09
   25.92000     -5.8436060E-09
   25.98000     -4.6386703E-09
   26.04000     -3.4388270E-09
   26.10000     -2.2757416E-09
   26.16000     -1.1563817E-09
   26.22000     -6.4021621E-11
   26.28000      1.0334055E-09
   26.34000      2.1712421E-09
   26.40000      3.3771363E-09
   26.46000      4.6645789E-09
   26.52000      6.0316228E-09
   26.58000      7.4632025E-09
   26.64000      8.9348733E-09
   26.70000      1.0416571E-08
   26.76000      1.1876055E-08
   26.82000      1.3282013E-08
   26.88000      1.4606374E-08
   26.94000      1.5825016E-08
   27.00000      1.6916443E-08
   27.06000      1.7859209E-08
   27.12000      1.8629821E-08
   27.18000      1.9202954E-08
   27.24000      1.9554529E-08
   27.30000      1.9666748E-08
   27.36000      1.9533184E-08
   27.42000      1.9162231E-08
   27.48000      1.8577868E-08
   27.54000      1.7817159E-08
   27.60000      1.6923950E-08
   27.66000      1.5938523E-08
   27.72000      1.4884454E-08
   27.78000      1.3756473E-08
   27.84000      1.2515109E-08
   27.90000      1.1093134E-08
   27.96000      9.4143786E-09
   28.02000      7.4189574E-09
   28.08000      5.0842885E-09
   28.14000      2.4319176E-09
   28.20000     -4.8324345E-10
   28.26000     -3.5955692E-09
   28.32000     -6.8514074E-09
   28.38000     -1.0220735E-08
   28.44000     -1.3694054E-08
   28.50000     -1.7269846E-08
   28.56000     -2.0942755E-08
   28.62000     -2.4700283E-08
   28.68000     -2.8528218E-08
   28.74000     -3.2418079E-08
   28.80000     -3.6368395E-08
   28.86000     -4.0376925E-08
   28.92000     -4.4428493E-08
   28.98000     -4.8487550E-08
   29.04000     -5.2502116E-08
   29.10000     -5.6418116E-08
   29.16000     -6.0195831E-08
   29.22000     -6.3818291E-08
   29.28000     -6.7286670E-08
   29.34000     -7.0605772E-08
   29.40000     -7.3769314E-08
   29.46000     -7.6753906E-08
   29.52000     -7.9524945E-08
   29.58000     -8.2049944E-08
   29.64000     -8.4310827E-08
   29.70000     -8.6308056E-08
   29.76000     -8.8055131E-08
   29.82000     -8.9567365E-08
   29.88000     -9.0851238E-08
   29.94000     -9.1899047E-08
   30.00000     -9.2690037E-08
   30.06000     -9.3195666E-08
   30.12000     -9.3386113E-08
   30.18000     -9.3235499E-08
   30.24000     -9.2725401E-08
   30.30000     -9.1847106E-08
   30.36000     -9.0603578E-08
   30.42000     -8.9011351E-08
   30.48000     -8.7102094E-08
   30.54000     -8.4922434E-08
   30.60000     -8.2530576E-08
   30.66000     -7.9988922E-08
   30.72000     -7.7353548E-08
   30.78000     -7.4663795E-08
   30.84000     -7.1936356E-08
   30.90000     -6.9167037E-08
   30.96000     -6.6340320E-08
   31.02000     -6.3442108E-08
   31.08000     -6.0469468E-08
   31.14000     -5.7432473E-08
   31.20000     -5.4348003E-08
   31.26000     -5.1230881E-08
   31.32000     -4.8089092E-08
   31.38000     -4.4927280E-08
   31.44000     -4.1756881E-08
   31.50000     -3.8606409E-08
   31.56000     -3.5524938E-08
   31.62000     -3.2575972E-08
   31.68000     -2.9824889E-08
   31.74000     -2.7326594E-08
   31.80000     -2.5118977E-08
   31.86000     -2.3222906E-08
   31.92000     -2.1644988E-08
   31.98000     -2.0378121E-08
   32.04000     -1.9398406E-08
   32.10000     -1.8661874E-08
   32.16000     -1.8107249E-08
   32.22000     -1.7668906E-08
   32.28000     -1.7297836E-08
   32.34000     -1.6982264E-08
   32.40000     -1.6757204E-08
   32.46000     -1.6696175E-08
   32.52000     -1.6886576E-08
   32.58000     -1.7398355E-08
   32.64000     -1.8259318E-08
   32.70000     -1.9447413E-08
   32.76000     -2.0902231E-08
   32.82000     -2.2549164E-08
   32.88000     -2.4324526E-08
   32.94000     -2.6191072E-08
   33.00000     -2.8139540E-08
   33.06000     -3.0179464E-08
   33.12000     -3.2327030E-08
   33.18000     -3.4597235E-08
   33.24000     -3.7002465E-08
   33.30000     -3.9554266E-08
   33.36000     -4.2262734E-08
   33.42000     -4.5130452E-08
   33.48000     -4.8143143E-08
   33.54000     -5.1263324E-08
   33.60000     -5.4432650E-08
   33.66000     -5.7583744E-08
   33.72000     -6.0656014E-08
   33.78000     -6.3607139E-08
   33.84000     -6.6414664E-08
   33.90000     -6.9068562E-08
   33.96000     -7.1561566E-08
   34.02000     -7.3884706E-08
   34.08000     -7.6030666E-08
   34.14000     -7.8000738E-08
   34.20000     -7.9807712E-08
   34.26000     -8.1469786E-08
   34.32000     -8.2997190E-08
   34.38000     -8.4380083E-08
   34.44000     -8.5586414E-08
   34.50000     -8.6572662E-08
   34.56000     -8.7301970E-08
   34.62000     -8.7758686E-08
   34.68000     -8.7950532E-08
   34.74000     -8.7897028E-08
   34.80000     -8.7611795E-08
   34.86000     -8.7089795E-08
   34.92000     -8.6307459E-08
   34.98000     -8.5235676E-08
   35.04000     -8.3858232E-08
   35.10000     -8.2185799E-08
   35.16000     -8.0258616E-08
   35.22000     -7.8137262E-08
   35.28000     -7.5886426E-08
   35.34000     -7.3558525E-08
   35.40000     -7.1182683E-08
   35.46000     -6.8761864E-08
   35.52000     -6.6277266E-08
   35.58000     -6.3697868E-08
   35.64000     -6.0991596E-08
   35.70000     -5.8135246E-08
   35.76000     -5.5120907E-08
   35.82000     -5.1958214E-08
   35.88000     -4.8673201E-08
   35.94000     -4.5304958E-08
   36.00000     -4.1900815E-08
   36.06000     -3.8509913E-08
   36.12000     -3.5174935E-08
   36.18000     -3.1923356E-08
   36.24000     -2.8761740E-08
   36.30000     -2.5677327E-08
   36.36000     -2.2648615E-08
   36.42000     -1.9661554E-08
   36.48000     -1.6723236E-08
   36.54000     -1.3864664E-08
   36.60000     -1.1129427E-08
   36.66000     -8.5535588E-09
   36.72000     -6.1480443E-09
   36.78000     -3.8947605E-09
   36.84000     -1.7588340E-09
   36.90000      2.8980135E-10
   36.96000      2.2587292E-09
   37.02000      4.1298107E-09
   37.08000      5.8715210E-09
   37.14000      7.4580857E-09
   37.20000      8.8827772E-09
   37.26000      1.0157425E-08
   37.32000      1.1299798E-08
   37.38000      1.2318441E-08
   37.44000      1.3205478E-08
   37.50000      1.3941721E-08
   37.56000      1.4509884E-08
   37.62000      1.4906643E-08
   37.68000      1.5145755E-08
   37.74000      1.5250709E-08
   37.80000      1.5241836E-08
   37.86000      1.5125233E-08
   37.92000      1.4888627E-08
   37.98000      1.4504674E-08
   38.04000      1.3938631E-08
   38.10000      1.3156646E-08
   38.16000      1.2132485E-08
   38.22000      1.0852382E-08
   38.28000      9.3183861E-09
   38.34000      7.5500477E-09
   38.40000      5.5836367E-09
   38.46000      3.4682337E-09
   38.52000      1.2589133E-09
   38.58000     -9.9173514E-10
   38.64000     -3.2419532E-09
   38.70000     -5.4671112E-09
   38.76000     -7.6621145E-09
   38.82000     -9.8384350E-09
   38.88000     -1.2015477E-08
   38.94000     -1.4208268E-08
   39.00000     -1.6415992E-08
   39.06000     -1.8616790E-08
   39.12000     -2.0772093E-08
   39.18000     -2.2838895E-08
   39.24000     -2.4783526E-08
   39.30000     -2.6589245E-08
   39.36000     -2.8253803E-08
   39.42000     -2.9779953E-08
   39.48000     -3.1167112E-08
   39.54000     -3.2411926E-08
   39.60000     -3.3518859E-08
   39.66000     -3.4513739E-08
   39.72000     -3.5449272E-08
   39.78000     -3.6395292E-08
   39.84000     -3.7416015E-08
   39.90000     -3.8545569E-08
   39.96000     -3.9775102E-08
   40.02000     -4.1058403E-08
   40.08000     -4.2332296E-08
   40.14000     -4.3540190E-08
   40.20000     -4.4647077E-08
   40.26000     -4.5641187E-08
   40.32000     -4.6526061E-08
   40.38000     -4.7311040E-08
   40.44000     -4.8005749E-08
   40.50000     -4.8618464E-08
   40.56000     -4.9154416E-08
   40.62000     -4.9611426E-08
   40.68000     -4.9975267E-08
   40.74000     -5.0220780E-08
   40.80000     -5.0322935E-08
   40.86000     -5.0275155E-08
   40.92000     -5.0104973E-08
   40.98000     -4.9875542E-08
   41.04000     -4.9667875E-08
   41.10000     -4.9549467E-08
   41.16000     -4.9543555E-08
   41.22000     -4.9614073E-08
   41.28000     -4.9673847E-08
   41.34000     -4.9612456E-08
   41.40000     -4.9331778E-08
   41.46000     -4.8775561E-08
   41.52000     -4.7943985E-08
   41.58000     -4.6890960E-08
   41.64000     -4.5707377E-08
   41.70000     -4.4495852E-08
   41.76000     -4.3343011E-08
   41.82000     -4.2295575E-08
   41.88000     -4.1346539E-08
   41.94000     -4.0436642E-08
   42.00000     -3.9472411E-08
   42.06000     -3.8356408E-08
   42.12000     -3.7019998E-08
   42.18000     -3.5447449E-08
   42.24000     -3.3683190E-08
   42.30000     -3.1820566E-08
   42.36000     -2.9976650E-08
   42.42000     -2.8261441E-08
   42.48000     -2.6750270E-08
   42.54000     -2.5466544E-08
   42.60000     -2.4379201E-08
   42.66000     -2.3416188E-08
   42.72000     -2.2491164E-08
   42.78000     -2.1535884E-08
   42.84000     -2.0527281E-08
   42.90000     -1.9498454E-08
   42.96000     -1.8528370E-08
   43.02000     -1.7713777E-08
   43.08000     -1.7134862E-08
   43.14000     -1.6828473E-08
   43.20000     -1.6778435E-08
   43.26000     -1.6924016E-08
   43.32000     -1.7180293E-08
   43.38000     -1.7461696E-08
   43.44000     -1.7702376E-08
   43.50000     -1.7870869E-08
   43.56000     -1.7978051E-08
   43.62000     -1.8076395E-08
   43.68000     -1.8247151E-08
   43.74000     -1.8574511E-08
   43.80000     -1.9112321E-08
   43.86000     -1.9855920E-08
   43.92000     -2.0733692E-08
   43.98000     -2.1626187E-08
   44.04000     -2.2407782E-08
   44.10000     -2.2993770E-08
   44.16000     -2.3371859E-08
   44.22000     -2.3604276E-08
   44.28000     -2.3800903E-08
   44.34000     -2.4076932E-08
   44.40000     -2.4513739E-08
   44.46000     -2.5136984E-08
   44.52000     -2.5915998E-08
   44.58000     -2.6779363E-08
   44.64000     -2.7637725E-08
   44.70000     -2.8406243E-08
   44.76000     -2.9022541E-08
   44.82000     -2.9458420E-08
   44.88000     -2.9724056E-08
   44.94000     -2.9863504E-08
   45.00000     -2.9941734E-08
   45.06000     -3.0026321E-08
   45.12000     -3.0169623E-08
   45.18000     -3.0397558E-08
   45.24000     -3.0708577E-08
   45.30000     -3.1082287E-08
   45.36000     -3.1493599E-08
   45.42000     -3.1927019E-08
   45.48000     -3.2386421E-08
   45.54000     -3.2897457E-08
   45.60000     -3.3501820E-08
   45.66000     -3.4244337E-08
   45.72000     -3.5156294E-08
   45.78000     -3.6240237E-08
   45.84000     -3.7462243E-08
   45.90000     -3.8755680E-08
   45.96000     -4.0036284E-08
   46.02000     -4.1223398E-08
   46.08000     -4.2259728E-08
   46.14000     -4.3122800E-08
   46.20000     -4.3825800E-08
   46.26000     -4.4409784E-08
   46.32000     -4.4931916E-08
   46.38000     -4.5453458E-08
   46.44000     -4.6028859E-08
   46.50000     -4.6695632E-08
   46.56000     -4.7464994E-08
   46.62000     -4.8315588E-08
   46.68000     -4.9193840E-08
   46.74000     -5.0023392E-08
   46.80000     -5.0722328E-08
   46.86000     -5.1222720E-08
   46.92000     -5.1485014E-08
   46.98000     -5.1501722E-08
   47.04000     -5.1289838E-08
   47.10000     -5.0876572E-08
   47.16000     -5.0285902E-08
   47.22000     -4.9532101E-08
   47.28000     -4.8622322E-08
   47.34000     -4.7565134E-08
   47.40000     -4.6379110E-08
   47.46000     -4.5095781E-08
   47.52000     -4.3754827E-08
   47.58000     -4.2393594E-08
   47.64000     -4.1036017E-08
   47.70000     -3.9686135E-08
   47.76000     -3.8328793E-08
   47.82000     -3.6936783E-08
   47.88000     -3.5481332E-08
   47.94000     -3.3942563E-08
   48.00000     -3.2317722E-08
   48.06000     -3.0626261E-08
   48.12000     -2.8910719E-08
   48.18000     -2.7231932E-08
   48.24000     -2.5657295E-08
   48.30000     -2.4243281E-08
   48.36000     -2.3017396E-08
   48.42000     -2.1967404E-08
   48.48000     -2.1044345E-08
   48.54000     -2.0179938E-08
   48.60000     -1.9311228E-08
   48.66000     -1.8400872E-08
   48.72000     -1.7443382E-08
   48.78000     -1.6455672E-08
   48.84000     -1.5459062E-08
   48.90000     -1.4464129E-08
   48.96000     -1.3466541E-08
   49.02000     -1.2454128E-08
   49.08000     -1.1418543E-08
   49.14000     -1.0363651E-08
   49.20000     -9.3072527E-09
   49.26000     -8.2785157E-09
   49.32000     -7.3157804E-09
   49.38000     -6.4664341E-09
   49.44000     -5.7859619E-09
   49.50000     -5.3318381E-09
   49.56000     -5.1519105E-09
   49.62000     -5.2734315E-09
   49.68000     -5.7019047E-09
   49.74000     -6.4346763E-09
   49.80000     -7.4846991E-09
   49.86000     -8.9020080E-09
   49.92000     -1.0780772E-08
   49.98000     -1.3248907E-08
   50.04000     -1.6448968E-08
   50.10000     -2.0524572E-08
   50.16000     -2.5621663E-08
   50.22000     -3.1902363E-08
   50.28000     -3.9560007E-08
   50.34000     -4.8824610E-08
   50.40000     -5.9957884E-08
   50.46000     -7.3247790E-08
   50.52000     -8.9015373E-08
   50.58000     -1.0763809E-07
   50.64000     -1.2958058E-07
   50.70000     -1.5541696E-07
   50.76000     -1.8583364E-07
   50.82000     -2.2161687E-07
   50.88000     -2.6364077E-07
   50.94000     -3.1287348E-07
   51.00000     -3.7040621E-07
   51.06000     -4.3749432E-07
   51.12000     -5.1559238E-07
   51.18000     -6.0637120E-07
   51.24000     -7.1172138E-07
   51.30000     -8.3375619E-07
   51.36000     -9.7482985E-07
   51.42000     -1.1375715E-06
   51.48000     -1.3249249E-06
   51.54000     -1.5401789E-06
   51.60000     -1.7869895E-06
   51.66000     -2.0693990E-06
   51.72000     -2.3918735E-06
   51.78000     -2.7593592E-06
   51.84000     -3.1773504E-06
   51.90000     -3.6519434E-06
   51.96000     -4.1898629E-06
   52.02000     -4.7984640E-06
   52.08000     -5.4857405E-06
   52.14000     -6.2603481E-06
   52.20000     -7.1316681E-06
   52.26000     -8.1098751E-06
   52.32000     -9.2059945E-06
   52.38000     -1.0431918E-05
   52.44000     -1.1800403E-05
   52.50000     -1.3325062E-05
   52.56000     -1.5020380E-05
   52.62000     -1.6901755E-05
   52.68000     -1.8985555E-05
   52.74000     -2.1289121E-05
   52.80000     -2.3830762E-05
   52.86000     -2.6629674E-05
   52.92000     -2.9705890E-05
   52.98000     -3.3080250E-05
   53.04000     -3.6774378E-05
   53.10000     -4.0810650E-05
   53.16000     -4.5212102E-05
   53.22000     -5.0002331E-05
   53.28000     -5.5205310E-05
   53.34000     -6.0845232E-05
   53.40000     -6.6946450E-05
   53.46000     -7.3533367E-05
   53.52000     -8.0630401E-05
   53.58000     -8.8261746E-05
   53.64000     -9.6451186E-05
   53.70000     -1.0522173E-04
   53.76000     -1.1459534E-04
   53.82000     -1.2459279E-04
   53.88000     -1.3523344E-04
   53.94000     -1.4653520E-04
   54.00000     -1.5851411E-04
   54.06000     -1.7118423E-04
   54.12000     -1.8455714E-04
   54.18000     -1.9864182E-04
   54.24000     -2.1344429E-04
   54.30000     -2.2896753E-04
   54.36000     -2.4521130E-04
   54.42000     -2.6217196E-04
   54.48000     -2.7984206E-04
   54.54000     -2.9821016E-04
   54.60000     -3.1726062E-04
   54.66000     -3.3697364E-04
   54.72000     -3.5732504E-04
   54.78000     -3.7828652E-04
   54.84000     -3.9982537E-04
   54.90000     -4.2190461E-04
   54.96000     -4.4448269E-04
   55.02000     -4.6751360E-04
   55.08000     -4.9094722E-04
   55.14000     -5.1472930E-04
   55.20000     -5.3880224E-04
   55.26000     -5.6310464E-04
   55.32000     -5.8757194E-04
   55.38000     -6.1213656E-04
   55.44000     -6.3672796E-04
   55.50000     -6.6127331E-04
   55.56000     -6.8569841E-04