  -2.400000      0.0000000E+00
  -2.340000      0.0000000E+00
  -2.280000      0.0000000E+00
  -2.220000      0.0000000E+00
  -2.160000      0.0000000E+00
  -2.100000      0.0000000E+00
  -2.040000      0.0000000E+00
  -1.980000     -8.5040373E-23
  -1.920000     -8.8902680E-22
  -1.860000     -4.5047222E-21
  -1.800000     -1.4061424E-20
  -1.740000     -2.6971583E-20
  -1.680000     -1.7135277E-20
  -1.620000      8.6522065E-20
  -1.560000      3.9308928E-19
  -1.500000      9.6550403E-19
  -1.440000      1.6399771E-18
  -1.380000      1.8245816E-18
  -1.320000      4.6420590E-19
  -1.260000     -3.6267606E-18
  -1.200000     -1.1033589E-17
  -1.140000     -2.0865290E-17
  -1.080000     -3.0123188E-17
  -1.020000     -3.3452852E-17
 -0.9600000     -2.2930208E-17
 -0.9000000      1.2441634E-17
 -0.8400000      8.6353798E-17
 -0.7800000      2.0980805E-16
 -0.7200000      3.7458259E-16
 -0.6600000      5.2326244E-16
 -0.6000000      5.1792809E-16
 -0.5400000      1.4236913E-16
 -0.4800000     -8.1176234E-16
 -0.4200000     -2.3443907E-15
 -0.3600000     -3.9810282E-15
 -0.3000000     -4.6166569E-15
 -0.2400000     -2.7406465E-15
 -0.1800000      2.7507293E-15
 -0.1200000      1.1274286E-14
 -5.9999999E-02  1.9464558E-14
  0.0000000E+00  2.1346838E-14
  5.9999999E-02  1.0714812E-14
  0.1200000     -1.4424514E-14
  0.1800000     -4.7268589E-14
  0.2400000     -7.0952887E-14
  0.3000000     -6.3849133E-14
  0.3600000     -1.1754560E-14
  0.4200000      7.7730655E-14
  0.4800000      1.6778943E-13
  0.5400000      2.0117465E-13
  0.6000000      1.2769141E-13
  0.6600000     -5.9209128E-14
  0.7200000     -2.9744320E-13
  0.7800000     -4.6524546E-13
  0.8400000     -4.3299839E-13
  0.9000000     -1.4152960E-13
  0.9600000      3.3396463E-13
   1.020000      7.8140023E-13
   1.080000      9.3456308E-13
   1.140000      6.1771974E-13
   1.200000     -1.1925404E-13
   1.260000     -9.6341956E-13
   1.320000     -1.4521621E-12
   1.380000     -1.2109839E-12
   1.440000     -2.0374200E-13
   1.500000      1.1550346E-12
   1.560000      2.1306925E-12
   1.620000      2.0250247E-12
   1.680000      6.0103159E-13
   1.740000     -1.6600346E-12
   1.800000     -3.6593042E-12
   1.860000     -4.1602572E-12
   1.920000     -2.4545465E-12
   1.980000      1.1246353E-12
   2.040000      5.1580177E-12
   2.100000      7.6766154E-12
   2.160000      7.0904706E-12
   2.220000      3.0775471E-12
   2.280000     -3.0438900E-12
   2.340000     -8.7302639E-12
   2.400000     -1.1308772E-11
   2.460000     -9.2799787E-12
   2.520000     -3.1878632E-12
   2.580000      4.4345825E-12
   2.640000      1.0120392E-11
   2.700000      1.1102155E-11
   2.760000      6.7654623E-12
   2.820000     -8.2559399E-13
   2.880000     -7.6933199E-12
   2.940000     -9.7607191E-12
   3.000000     -4.9311375E-12
   3.060000      5.5602974E-12
   3.120000      1.7260032E-11
   3.180000      2.4172348E-11
   3.240000      2.1356500E-11
   3.300000      7.3142577E-12
   3.360000     -1.4941774E-11
   3.420000     -3.8693899E-11
   3.480000     -5.5904750E-11
   3.540000     -6.0147928E-11
   3.600000     -4.8791825E-11
   3.660000     -2.3518770E-11
   3.720000      1.0898267E-11
   3.780000      4.8748620E-11
   3.840000      8.5171190E-11
   3.900000      1.1647316E-10
   3.960000      1.3867199E-10
   4.020000      1.4496242E-10
   4.080000      1.2353049E-10
   4.140000      5.7193274E-11
   4.200000     -7.4316241E-11
   4.260000     -2.8968694E-10
   4.320000     -6.0029598E-10
   4.380000     -1.0052599E-09
   4.440000     -1.4889758E-09
   4.500000     -2.0220896E-09
   4.560000     -2.5657485E-09
   4.620000     -3.0779836E-09
   4.680000     -3.5204588E-09
   4.740000     -3.8637933E-09
   4.800000     -4.0902193E-09
   4.860000     -4.1933133E-09
   4.920000     -4.1756194E-09
   4.980000     -4.0457544E-09
   5.040000     -3.8167012E-09
   5.100000     -3.5063252E-09
   5.160000     -3.1398488E-09
   5.220000     -2.7526699E-09
   5.280000     -2.3911768E-09
   5.340000     -2.1095634E-09
   5.400000     -1.9621307E-09
   5.460000     -1.9925954E-09
   5.520000     -2.2236004E-09
   5.580000     -2.6500879E-09
   5.640000     -3.2391207E-09
   5.700000     -3.9364907E-09
   5.760000     -4.6779967E-09
   5.820000     -5.4016609E-09
   5.880000     -6.0571170E-09
   5.940000     -6.6098806E-09
   6.000000     -7.0405548E-09
   6.060000     -7.3410962E-09
   6.120000     -7.5112174E-09
   6.180000     -7.5572961E-09
   6.240000     -7.4943314E-09
   6.300000     -7.3492554E-09
   6.360000     -7.1625665E-09
   6.420000     -6.9854011E-09
   6.480000     -6.8710531E-09
   6.540000     -6.8626238E-09
   6.600000     -6.9808559E-09
   6.660000     -7.2169182E-09
   6.720000     -7.5335063E-09
   6.780000     -7.8745508E-09
   6.840000     -8.1804439E-09
   6.900000     -8.4034815E-09
   6.960000     -8.5183149E-09
   7.020000     -8.5243688E-09
   7.080000     -8.4405141E-09
   7.140000     -8.2951317E-09
   7.200000     -8.1159541E-09
   7.260000     -7.9234317E-09
   7.320000     -7.7292821E-09
   7.380000     -7.5395956E-09
   7.440000     -7.3601303E-09
   7.500000     -7.2008706E-09
   7.560000     -7.0774666E-09
   7.620000     -7.0085071E-09
   7.680000     -7.0092776E-09
   7.740000     -7.0842532E-09
   7.800000     -7.2214692E-09
   7.860000     -7.3917104E-09
   7.920000     -7.5539006E-09
   7.980000     -7.6656486E-09
   8.040000     -7.6955233E-09
   8.100000     -7.6325319E-09
   8.160000     -7.4891275E-09
   8.220000     -7.2965678E-09
   8.280000     -7.0944890E-09
   8.340000     -6.9185684E-09
   8.400000     -6.7903208E-09
   8.460000     -6.7115304E-09
   8.520000     -6.6636483E-09
   8.580000     -6.6109149E-09
   8.640000     -6.5056174E-09
   8.700000     -6.2944499E-09
   8.760000     -5.9256160E-09
   8.820000     -5.3564198E-09
   8.880000     -4.5605724E-09
   8.940000     -3.5338321E-09
   9.000000     -2.2964715E-09
   9.060000     -8.9162216E-10
   9.120000      6.2048394E-10
   9.180000      2.1714610E-09
   9.240000      3.6953918E-09
   9.300000      5.1392601E-09
   9.360000      6.4710588E-09
   9.420000      7.6834050E-09
   9.480000      8.7910488E-09
   9.540000      9.8221697E-09
   9.600000      1.0805542E-08
   9.660000      1.1757592E-08
   9.720000      1.2673931E-08
   9.780000      1.3528516E-08
   9.840000      1.4280703E-08
   9.900000      1.4887372E-08
   9.960000      1.5315701E-08
   10.02000      1.5552391E-08
   10.08000      1.5607101E-08
   10.14000      1.5509977E-08
   10.20000      1.5304865E-08
   10.26000      1.5040342E-08
   10.32000      1.4760846E-08
   10.38000      1.4499900E-08
   10.44000      1.4277151E-08
   10.50000      1.4099927E-08
   10.56000      1.3968459E-08
   10.62000      1.3882094E-08
   10.68000      1.3843030E-08
   10.74000      1.3855115E-08
   10.80000      1.3917973E-08
   10.86000      1.4019713E-08
   10.92000      1.4132911E-08
   10.98000      1.4217283E-08
   11.04000      1.4229084E-08
   11.10000      1.4133609E-08
   11.16000      1.3915508E-08
   11.22000      1.3582660E-08
   11.28000      1.3162501E-08
   11.34000      1.2692866E-08
   11.40000      1.2211033E-08
   11.46000      1.1744236E-08
   11.52000      1.1303425E-08
   11.58000      1.0880727E-08
   11.64000      1.0450661E-08
   11.70000      9.9753068E-09
   11.76000      9.4133847E-09
   11.82000      8.7319982E-09
   11.88000      7.9181275E-09
   11.94000      6.9858643E-09
   12.00000      5.9760081E-09
   12.06000      4.9471143E-09
   12.12000      3.9604360E-09
   12.18000      3.0638443E-09
   12.24000      2.2805249E-09
   12.30000      1.6065780E-09
   12.36000      1.0183011E-09
   12.42000      4.8622645E-10
   12.48000     -9.6402036E-12
   12.54000     -4.6937620E-10
   12.60000     -8.7148833E-10
   12.66000     -1.1802724E-09
   12.72000     -1.3584268E-09
   12.78000     -1.3789017E-09
   12.84000     -1.2306933E-09
   12.90000     -9.1681102E-10
   12.96000     -4.4712056E-10
   13.02000      1.6840267E-10
   13.08000      9.2110303E-10
   13.14000      1.7986271E-09
   13.20000      2.7769023E-09
   13.26000      3.8148897E-09
   13.32000      4.8563695E-09
   13.38000      5.8386145E-09
   13.44000      6.7035044E-09
   13.50000      7.4053479E-09
   13.56000      7.9122486E-09
   13.62000      8.2023268E-09
   13.68000      8.2592386E-09
   13.74000      8.0711029E-09
   13.80000      7.6334761E-09
   13.86000      6.9533059E-09
   13.92000      6.0496101E-09
   13.98000      4.9489510E-09
   14.04000      3.6778314E-09
   14.10000      2.2568232E-09
   14.16000      7.0052009E-10
   14.22000     -9.7627606E-10
   14.28000     -2.7498239E-09
   14.34000     -4.5816217E-09
   14.40000     -6.4193788E-09
   14.46000     -8.2049691E-09
   14.52000     -9.8861346E-09
   14.58000     -1.1427306E-08
   14.64000     -1.2815709E-08
   14.70000     -1.4060982E-08
   14.76000     -1.5188601E-08
   14.82000     -1.6229203E-08
   14.88000     -1.7207235E-08
   14.94000     -1.8133221E-08
   15.00000     -1.9003327E-08
   15.06000     -1.9807381E-08
   15.12000     -2.0542377E-08
   15.18000     -2.1224899E-08
   15.24000     -2.1895396E-08
   15.30000     -2.2610800E-08
   15.36000     -2.3428234E-08
   15.42000     -2.4387459E-08
   15.48000     -2.5500439E-08
   15.54000     -2.6751955E-08
   15.60000     -2.8108900E-08
   15.66000     -2.9531682E-08
   15.72000     -3.0981997E-08
   15.78000     -3.2425739E-08
   15.84000     -3.3834272E-08
   15.90000     -3.5188091E-08
   15.96000     -3.6483119E-08
   16.02000     -3.7735440E-08
   16.08000     -3.8978403E-08
   16.14000     -4.0249912E-08
   16.20000     -4.1574069E-08
   16.26000     -4.2946368E-08
   16.32000     -4.4330768E-08
   16.38000     -4.5670642E-08
   16.44000     -4.6908109E-08
   16.50000     -4.8001915E-08
   16.56000     -4.8936307E-08
   16.62000     -4.9719254E-08
   16.68000     -5.0374069E-08
   16.74000     -5.0930019E-08
   16.80000     -5.1414943E-08
   16.86000     -5.1849408E-08
   16.92000     -5.2240829E-08
   16.98000     -5.2578198E-08
   17.04000     -5.2830782E-08
   17.10000     -5.2954547E-08
   17.16000     -5.2906234E-08
   17.22000     -5.2659843E-08
   17.28000     -5.2217366E-08
   17.34000     -5.1608051E-08
   17.40000     -5.0876757E-08
   17.46000     -5.0068138E-08
   17.52000     -4.9214979E-08
   17.58000     -4.8335338E-08
   17.64000     -4.7436906E-08
   17.70000     -4.6523031E-08
   17.76000     -4.5595399E-08
   17.82000     -4.4652719E-08
   17.88000     -4.3688758E-08
   17.94000     -4.2693753E-08
   18.00000     -4.1660034E-08
   18.06000     -4.0588773E-08
   18.12000     -3.9493230E-08
   18.18000     -3.8396056E-08
   18.24000     -3.7322277E-08
   18.30000     -3.6292207E-08
   18.36000     -3.5317886E-08
   18.42000     -3.4403620E-08
   18.48000     -3.3548297E-08
   18.54000     -3.2746929E-08
   18.60000     -3.1991064E-08
   18.66000     -3.1269710E-08
   18.72000     -3.0572878E-08
   18.78000     -2.9897357E-08
   18.84000     -2.9251932E-08
   18.90000     -2.8658414E-08
   18.96000     -2.8147076E-08
   19.02000     -2.7748499E-08
   19.08000     -2.7485882E-08
   19.14000     -2.7371115E-08
   19.20000     -2.7404917E-08
   19.26000     -2.7578851E-08
   19.32000     -2.7876583E-08
   19.38000     -2.8273611E-08
   19.44000     -2.8736894E-08
   19.50000     -2.9226287E-08
   19.56000     -2.9698377E-08
   19.62000     -3.0111316E-08
   19.68000     -3.0428808E-08
   19.74000     -3.0622726E-08
   19.80000     -3.0675643E-08
   19.86000     -3.0584875E-08
   19.92000     -3.0367648E-08
   19.98000     -3.0064374E-08
   20.04000     -2.9736039E-08
   20.10000     -2.9453735E-08
   20.16000     -2.9282999E-08
   20.22000     -2.9268749E-08
   20.28000     -2.9426852E-08
   20.34000     -2.9744564E-08
   20.40000     -3.0187351E-08
   20.46000     -3.0706993E-08
   20.52000     -3.1247207E-08
   20.58000     -3.1746776E-08
   20.64000     -3.2143223E-08
   20.70000     -3.2380171E-08
   20.76000     -3.2418161E-08
   20.82000     -3.2244902E-08
   20.88000     -3.1879374E-08
   20.94000     -3.1366469E-08
   21.00000     -3.0763072E-08
   21.06000     -3.0120741E-08
   21.12000     -2.9471231E-08
   21.18000     -2.8819507E-08
   21.24000     -2.8145546E-08
   21.30000     -2.7413178E-08
   21.36000     -2.6582466E-08
   21.42000     -2.5621793E-08
   21.48000     -2.4516330E-08
   21.54000     -2.3270930E-08
   21.60000     -2.1907246E-08
   21.66000     -2.0457005E-08
   21.72000     -1.8954722E-08
   21.78000     -1.7432731E-08
   21.84000     -1.5919449E-08
   21.90000     -1.4439361E-08
   21.96000     -1.3012194E-08
   22.02000     -1.1650330E-08
   22.08000     -1.0356339E-08
   22.14000     -9.1242427E-09
   22.20000     -7.9465865E-09
   22.26000     -6.8251045E-09
   22.32000     -5.7785696E-09
   22.38000     -4.8410977E-09
   22.44000     -4.0490113E-09
   22.50000     -3.4218166E-09
   22.56000     -2.9478759E-09
   22.62000     -2.5839937E-09
   22.68000     -2.2704376E-09
   22.74000     -1.9536748E-09
   22.80000     -1.6044723E-09
   22.86000     -1.2222685E-09
   22.92000     -8.2577689E-10
   22.98000     -4.3838452E-10
   23.04000     -7.9090255E-11
   23.10000      2.3585831E-10
   23.16000      4.8458776E-10
   23.22000      6.3424127E-10
   23.28000      6.4645239E-10
   23.34000      4.9304988E-10
   23.40000      1.7266368E-10
   23.46000     -2.8353689E-10
   23.52000     -8.2268292E-10
   23.58000     -1.3926640E-09
   23.64000     -1.9632846E-09
   23.70000     -2.5335969E-09
   23.76000     -3.1215799E-09
   23.82000     -3.7435628E-09
   23.88000     -4.3970760E-09
   23.94000     -5.0580558E-09
   24.00000     -5.6935674E-09
   24.06000     -6.2810712E-09
   24.12000     -6.8213968E-09
   24.18000     -7.3372783E-09
   24.24000     -7.8589606E-09
   24.30000     -8.4064666E-09
   24.36000     -8.9793986E-09
   24.42000     -9.5593231E-09
   24.48000     -1.0121268E-08
   24.54000     -1.0645565E-08
   24.60000     -1.1122498E-08
   24.66000     -1.1548522E-08
   24.72000     -1.1919397E-08
   24.78000     -1.2227569E-08
   24.84000     -1.2467345E-08
   24.90000     -1.2644695E-08
   24.96000     -1.2783913E-08
   25.02000     -1.2924356E-08
   25.08000     -1.3106559E-08
   25.14000     -1.3354129E-08
   25.20000     -1.3661210E-08
   25.26000     -1.3992499E-08
   25.32000     -1.4295866E-08
   25.38000     -1.4520727E-08
   25.44000     -1.4633071E-08
   25.50000     -1.4621198E-08
   25.56000     -1.4492464E-08
   25.62000     -1.4266337E-08
   25.68000     -1.3969592E-08
   25.74000     -1.3635939E-08
   25.80000     -1.3307408E-08
   25.86000     -1.3032379E-08
   25.92000     -1.2856921E-08
   25.98000     -1.2810895E-08
   26.04000     -1.2894827E-08
   26.10000     -1.3074787E-08
   26.16000     -1.3289387E-08
   26.22000     -1.3467272E-08
   26.28000     -1.3548317E-08
   26.34000     -1.3500093E-08
   26.40000     -1.3323540E-08
   26.46000     -1.3047147E-08
   26.52000     -1.2714093E-08
   26.58000     -1.2369385E-08
   26.64000     -1.2052735E-08
   26.70000     -1.1798644E-08
   26.76000     -1.1640382E-08
   26.82000     -1.1611946E-08
   26.88000     -1.1743450E-08
   26.94000     -1.2050131E-08
   27.00000     -1.2520603E-08
   27.06000     -1.3112676E-08
   27.12000     -1.3762537E-08
   27.18000     -1.4406258E-08
   27.24000     -1.5004906E-08
   27.30000     -1.5561021E-08
   27.36000     -1.6117584E-08
   27.42000     -1.6739619E-08
   27.48000     -1.7488077E-08
   27.54000     -1.8399829E-08
   27.60000     -1.9483496E-08
   27.66000     -2.0730814E-08
   27.72000     -2.2133767E-08
   27.78000     -2.3694975E-08
   27.84000     -2.5424617E-08
   27.90000     -2.7327566E-08
   27.96000     -2.9392030E-08
   28.02000     -3.1590432E-08
   28.08000     -3.3894295E-08
   28.14000     -3.6294189E-08
   28.20000     -3.8810459E-08
   28.26000     -4.1485340E-08
   28.32000     -4.4358735E-08
   28.38000     -4.7441411E-08
   28.44000     -5.0701917E-08
   28.50000     -5.4075809E-08
   28.56000     -5.7492002E-08
   28.62000     -6.0900696E-08
   28.68000     -6.4286795E-08
   28.74000     -6.7662569E-08
   28.80000     -7.1046451E-08
   28.86000     -7.4443101E-08
   28.92000     -7.7837250E-08
   28.98000     -8.1203382E-08
   29.04000     -8.4521815E-08
   29.10000     -8.7787868E-08
   29.16000     -9.1006306E-08
   29.22000     -9.4174680E-08
   29.28000     -9.7267765E-08
   29.34000     -1.0023550E-07
   29.40000     -1.0301784E-07
   29.46000     -1.0556823E-07
   29.52000     -1.0787130E-07
   29.58000     -1.0994319E-07
   29.64000     -1.1181405E-07
   29.70000     -1.1350332E-07
   29.76000     -1.1500297E-07
   29.82000     -1.1627861E-07
   29.88000     -1.1728734E-07
   29.94000     -1.1800113E-07
   30.00000     -1.1842183E-07
   30.06000     -1.1857937E-07
   30.12000     -1.1851504E-07
   30.18000     -1.1825948E-07
   30.24000     -1.1781722E-07
   30.30000     -1.1716432E-07
   30.36000     -1.1625818E-07
   30.42000     -1.1505275E-07
   30.48000     -1.1351145E-07
   30.54000     -1.1161362E-07
   30.60000     -1.0935508E-07
   30.66000     -1.0674682E-07
   30.72000     -1.0381491E-07
   30.78000     -1.0060228E-07
   30.84000     -9.7169455E-08
   30.90000     -9.3590138E-08
   30.96000     -8.9939441E-08
   31.02000     -8.6276934E-08
   31.08000     -8.2631274E-08
   31.14000     -7.8994397E-08
   31.20000     -7.5330981E-08
   31.26000     -7.1601555E-08
   31.32000     -6.7790467E-08
   31.38000     -6.3925405E-08
   31.44000     -6.0078037E-08
   31.50000     -5.6343737E-08
   31.56000     -5.2809245E-08
   31.62000     -4.9523596E-08
   31.68000     -4.6486011E-08
   31.74000     -4.3655159E-08
   31.80000     -4.0972893E-08
   31.86000     -3.8389086E-08
   31.92000     -3.5876361E-08
   31.98000     -3.3432087E-08
   32.04000     -3.1073601E-08
   32.10000     -2.8835162E-08
   32.16000     -2.6769669E-08
   32.22000     -2.4950140E-08
   32.28000     -2.3461993E-08
   32.34000     -2.2381817E-08
   32.40000     -2.1748933E-08
   32.46000     -2.1545089E-08
   32.52000     -2.1697113E-08
   32.58000     -2.2106111E-08
   32.64000     -2.2691019E-08
   32.70000     -2.3424253E-08
   32.76000     -2.4340068E-08
   32.82000     -2.5511000E-08
   32.88000     -2.7005548E-08
   32.94000     -2.8850096E-08
   33.00000     -3.1014444E-08
   33.06000     -3.3425827E-08
   33.12000     -3.6000749E-08
   33.18000     -3.8676156E-08
   33.24000     -4.1425320E-08
   33.30000     -4.4254691E-08
   33.36000     -4.7188834E-08
   33.42000     -5.0254062E-08
   33.48000     -5.3468099E-08
   33.54000     -5.6836146E-08
   33.60000     -6.0349400E-08
   33.66000     -6.3982505E-08
   33.72000     -6.7690600E-08
   33.78000     -7.1409907E-08
   33.84000     -7.5065508E-08
   33.90000     -7.8585963E-08
   33.96000     -8.1919246E-08
   34.02000     -8.5042046E-08
   34.08000     -8.7956778E-08
   34.14000     -9.0676203E-08
   34.20000     -9.3202019E-08
   34.26000     -9.5507623E-08
   34.32000     -9.7533764E-08
   34.38000     -9.9200840E-08
   34.44000     -1.0043345E-07
   34.50000     -1.0118725E-07
   34.56000     -1.0146584E-07
   34.62000     -1.0131956E-07
   34.68000     -1.0082621E-07
   34.74000     -1.0006168E-07
   34.80000     -9.9073048E-08
   34.86000     -9.7865211E-08
   34.92000     -9.6404463E-08
   34.98000     -9.4634871E-08
   35.04000     -9.2498375E-08
   35.10000     -8.9950731E-08
   35.16000     -8.6970346E-08
   35.22000     -8.3562107E-08
   35.28000     -7.9759268E-08
   35.34000     -7.5623653E-08
   35.40000     -7.1240578E-08
   35.46000     -6.6704601E-08
   35.52000     -6.2097577E-08
   35.58000     -5.7466700E-08
   35.64000     -5.2814716E-08
   35.70000     -4.8110021E-08
   35.76000     -4.3314156E-08
   35.82000     -3.8413390E-08
   35.88000     -3.3437100E-08
   35.94000     -2.8452400E-08
   36.00000     -2.3538144E-08
   36.06000     -1.8753946E-08
   36.12000     -1.4122603E-08
   36.18000     -9.6357313E-09
   36.24000     -5.2776410E-09
   36.30000     -1.0511209E-09
   36.36000      3.0116019E-09
   36.42000      6.8591013E-09
   36.48000      1.0444416E-08
   36.54000      1.3745989E-08
   36.60000      1.6772431E-08
   36.66000      1.9549134E-08
   36.72000      2.2096879E-08
   36.78000      2.4417043E-08
   36.84000      2.6492229E-08
   36.90000      2.8299606E-08
   36.96000      2.9825433E-08
   37.02000      3.1069280E-08
   37.08000      3.2035175E-08
   37.14000      3.2717480E-08
   37.20000      3.3094384E-08
   37.26000      3.3136789E-08
   37.32000      3.2829504E-08
   37.38000      3.2191561E-08
   37.44000      3.1281139E-08
   37.50000      3.0179187E-08
   37.56000      2.8958624E-08
   37.62000      2.7655412E-08
   37.68000      2.6257206E-08
   37.74000      2.4715380E-08
   37.80000      2.2973278E-08
   37.86000      2.0995099E-08
   37.92000      1.8780879E-08
   37.98000      1.6361792E-08
   38.04000      1.3780995E-08
   38.10000      1.1071878E-08
   38.16000      8.2449017E-09
   38.22000      5.2878772E-09
   38.28000      2.1769275E-09
   38.34000     -1.1090350E-09
   38.40000     -4.5772310E-09
   38.46000     -8.2165847E-09
   38.52000     -1.1999068E-08
   38.58000     -1.5883730E-08
   38.64000     -1.9820703E-08
   38.70000     -2.3754499E-08
   38.76000     -2.7627712E-08
   38.82000     -3.1386762E-08
   38.88000     -3.4989927E-08
   38.94000     -3.8415532E-08
   39.00000     -4.1666290E-08
   39.06000     -4.4765788E-08
   39.12000     -4.7745917E-08
   39.18000     -5.0628518E-08
   39.24000     -5.3408485E-08
   39.30000     -5.6046627E-08
   39.36000     -5.8476935E-08
   39.42000     -6.0626057E-08
   39.48000     -6.2436499E-08
   39.54000     -6.3882659E-08
   39.60000     -6.4972582E-08
   39.66000     -6.5735954E-08
   39.72000     -6.6206034E-08
   39.78000     -6.6405583E-08
   39.84000     -6.6343219E-08
   39.90000     -6.6019659E-08
   39.96000     -6.5437710E-08
   40.02000     -6.4609253E-08
   40.08000     -6.3556016E-08
   40.14000     -6.2306185E-08
   40.20000     -6.0891303E-08
   40.26000     -5.9346327E-08
   40.32000     -5.7711556E-08
   40.38000     -5.6032722E-08
   40.44000     -5.4356178E-08
   40.50000     -5.2720097E-08
   40.56000     -5.1146280E-08
   40.62000     -4.9637769E-08
   40.68000     -4.8184273E-08
   40.74000     -4.6772833E-08
   40.80000     -4.5398000E-08
   40.86000     -4.4066567E-08
   40.92000     -4.2795257E-08
   40.98000     -4.1603876E-08
   41.04000     -4.0508073E-08
   41.10000     -3.9515122E-08
   41.16000     -3.8623778E-08
   41.22000     -3.7826990E-08
   41.28000     -3.7115552E-08
   41.34000     -3.6480937E-08
   41.40000     -3.5916180E-08
   41.46000     -3.5414530E-08
   41.52000     -3.4966405E-08
   41.58000     -3.4556361E-08
   41.64000     -3.4162596E-08
   41.70000     -3.3761065E-08
   41.76000     -3.3333755E-08
   41.82000     -3.2877757E-08
   41.88000     -3.2409652E-08
   41.94000     -3.1961122E-08
   42.00000     -3.1566049E-08
   42.06000     -3.1244539E-08
   42.12000     -3.0991885E-08
   42.18000     -3.0778565E-08
   42.24000     -3.0561662E-08
   42.30000     -3.0302171E-08
   42.36000     -2.9980143E-08
   42.42000     -2.9601637E-08
   42.48000     -2.9196670E-08
   42.54000     -2.8811664E-08
   42.60000     -2.8500985E-08
   42.66000     -2.8319779E-08
   42.72000     -2.8316977E-08
   42.78000     -2.8526385E-08
   42.84000     -2.8955977E-08
   42.90000     -2.9579631E-08
   42.96000     -3.0337592E-08
   43.02000     -3.1150105E-08
   43.08000     -3.1942250E-08
   43.14000     -3.2671178E-08
   43.20000     -3.3343468E-08
   43.26000     -3.4013159E-08
   43.32000     -3.4759204E-08
   43.38000     -3.5650981E-08
   43.44000     -3.6716347E-08
   43.50000     -3.7925833E-08
   43.56000     -3.9199016E-08
   43.62000     -4.0428947E-08
   43.68000     -4.1513189E-08
   43.74000     -4.2378687E-08
   43.80000     -4.2992941E-08
   43.86000     -4.3361506E-08
   43.92000     -4.3517481E-08
   43.98000     -4.3509505E-08
   44.04000     -4.3391367E-08
   44.10000     -4.3212101E-08
   44.16000     -4.3004540E-08
   44.22000     -4.2773088E-08
   44.28000     -4.2485986E-08
   44.34000     -4.2079318E-08
   44.40000     -4.1476135E-08
   44.46000     -4.0616165E-08
   44.52000     -3.9484107E-08
   44.58000     -3.8122657E-08
   44.64000     -3.6622790E-08
   44.70000     -3.5095002E-08
   44.76000     -3.3635107E-08
   44.82000     -3.2300477E-08
   44.88000     -3.1106413E-08
   44.94000     -3.0040724E-08
   45.00000     -2.9085490E-08
   45.06000     -2.8233138E-08
   45.12000     -2.7489856E-08
   45.18000     -2.6868703E-08
   45.24000     -2.6380892E-08
   45.30000     -2.6033044E-08
   45.36000     -2.5831774E-08
   45.42000     -2.5790094E-08
   45.48000     -2.5927738E-08
   45.54000     -2.6262041E-08
   45.60000     -2.6793694E-08
   45.66000     -2.7497382E-08
   45.72000     -2.8326042E-08
   45.78000     -2.9229607E-08
   45.84000     -3.0179127E-08
   45.90000     -3.1182179E-08
   45.96000     -3.2279015E-08
   46.02000     -3.3519612E-08
   46.08000     -3.4933610E-08
   46.14000     -3.6509928E-08
   46.20000     -3.8197978E-08
   46.26000     -3.9929905E-08
   46.32000     -4.1650939E-08
   46.38000     -4.3340499E-08
   46.44000     -4.5012762E-08
   46.50000     -4.6698041E-08
   46.56000     -4.8417906E-08
   46.62000     -5.0169717E-08
   46.68000     -5.1929220E-08
   46.74000     -5.3667488E-08
   46.80000     -5.5369430E-08
   46.86000     -5.7040715E-08
   46.92000     -5.8698291E-08
   46.98000     -6.0350871E-08
   47.04000     -6.1982227E-08
   47.10000     -6.3547937E-08
   47.16000     -6.4987184E-08
   47.22000     -6.6241782E-08
   47.28000     -6.7270676E-08
   47.34000     -6.8052522E-08
   47.40000     -6.8577513E-08
   47.46000     -6.8836691E-08
   47.52000     -6.8817748E-08
   47.58000     -6.8510658E-08
   47.64000     -6.7918315E-08
   47.70000     -6.7063041E-08
   47.76000     -6.5982185E-08
   47.82000     -6.4713419E-08
   47.88000     -6.3278527E-08
   47.94000     -6.1676602E-08
   48.00000     -5.9892791E-08
   48.06000     -5.7918800E-08
   48.12000     -5.5773285E-08
   48.18000     -5.3508483E-08
   48.24000     -5.1197009E-08
   48.30000     -4.8904454E-08
   48.36000     -4.6662656E-08
   48.42000     -4.4459302E-08
   48.48000     -4.2250516E-08
   48.54000     -3.9989850E-08
   48.60000     -3.7657546E-08
   48.66000     -3.5274319E-08
   48.72000     -3.2893762E-08
   48.78000     -3.0580342E-08
   48.84000     -2.8387586E-08
   48.90000     -2.6348467E-08
   48.96000     -2.4479810E-08
   49.02000     -2.2792518E-08
   49.08000     -2.1296628E-08
   49.14000     -1.9996611E-08
   49.20000     -1.8882284E-08
   49.26000     -1.7926231E-08
   49.32000     -1.7094676E-08
   49.38000     -1.6368322E-08
   49.44000     -1.5760589E-08
   49.50000     -1.5320609E-08
   49.56000     -1.5118127E-08
   49.62000     -1.5220072E-08
   49.68000     -1.5674958E-08
   49.74000     -1.6516152E-08
   49.80000     -1.7782089E-08
   49.86000     -1.9539977E-08
   49.92000     -2.1898048E-08
   49.98000     -2.5000313E-08
   50.04000     -2.9010755E-08
   50.10000     -3.4100786E-08
   50.16000     -4.0450150E-08
   50.22000     -4.8260734E-08
   50.28000     -5.7773299E-08
   50.34000     -6.9276496E-08
   50.40000     -8.3105142E-08
   50.46000     -9.9634704E-08
   50.52000     -1.1928276E-07
   50.58000     -1.4252380E-07
   50.64000     -1.6991382E-07
   50.70000     -2.0211496E-07
   50.76000     -2.3991069E-07
   50.82000     -2.8420942E-07
   50.88000     -3.3604314E-07
   50.94000     -3.9657033E-07
   51.00000     -4.6709027E-07
   51.06000     -5.4906940E-07
   51.12000     -6.4417532E-07
   51.18000     -7.5431268E-07
   51.24000     -8.8165757E-07
   51.30000     -1.0286867E-06
   51.36000     -1.1982002E-06
   51.42000     -1.3933389E-06
   51.48000     -1.6176002E-06
   51.54000     -1.8748590E-06
   51.60000     -2.1694036E-06
   51.66000     -2.5059865E-06
   51.72000     -2.8898880E-06
   51.78000     -3.3269755E-06
   51.84000     -3.8237467E-06
   51.90000     -4.3873533E-06
   51.96000     -5.0256103E-06
   52.02000     -5.7470183E-06
   52.08000     -6.5608010E-06
   52.14000     -7.4769619E-06
   52.20000     -8.5063457E-06
   52.26000     -9.6606900E-06
   52.32000     -1.0952655E-05
   52.38000     -1.2395844E-05
   52.44000     -1.4004812E-05
   52.50000     -1.5795098E-05
   52.56000     -1.7783257E-05
   52.62000     -1.9986888E-05
   52.68000     -2.2424627E-05
   52.74000     -2.5116118E-05
   52.80000     -2.8081949E-05
   52.86000     -3.1343588E-05
   52.92000     -3.4923349E-05
   52.98000     -3.8844377E-05
   53.04000     -4.3130640E-05
   53.10000     -4.7806883E-05
   53.16000     -5.2898526E-05
   53.22000     -5.8431509E-05
   53.28000     -6.4432119E-05
   53.34000     -7.0926784E-05
   53.40000     -7.7941942E-05
   53.46000     -8.5503874E-05
   53.52000     -9.3638519E-05
   53.58000     -1.0237132E-04
   53.64000     -1.1172695E-04
   53.70000     -1.2172909E-04
   53.76000     -1.3240021E-04
   53.82000     -1.4376132E-04
   53.88000     -1.5583179E-04
   53.94000     -1.6862899E-04
   54.00000     -1.8216809E-04
   54.06000     -1.9646168E-04
   54.12000     -2.1151948E-04
   54.18000     -2.2734803E-04
   54.24000     -2.4395050E-04
   54.30000     -2.6132647E-04
   54.36000     -2.7947186E-04
   54.42000     -2.9837855E-04
   54.48000     -3.1803446E-04
   54.54000     -3.3842301E-04
   54.60000     -3.5952323E-04
   54.66000     -3.8130928E-04
   54.72000     -4.0375069E-04
   54.78000     -4.2681245E-04
   54.84000     -4.5045486E-04
   54.90000     -4.7463365E-04
   54.96000     -4.9930008E-04
   55.02000     -5.2440085E-04
   55.08000     -5.4987834E-04
   55.14000     -5.7567121E-04
   55.20000     -6.0171448E-04
   55.26000     -6.2794040E-04
   55.32000     -6.5427815E-04
   55.38000     -6.8065443E-04
   55.44000     -7.0699333E-04
   55.50000     -7.3321699E-04
   55.56000     -7.5924653E-04