  -2.400000      0.0000000E+00
  -2.340000      0.0000000E+00
  -2.280000      0.0000000E+00
  -2.220000      0.0000000E+00
  -2.160000      0.0000000E+00
  -2.100000      0.0000000E+00
  -2.040000     -3.3670141E-22
  -1.980000     -9.1825560E-22
  -1.920000      6.5360407E-21
  -1.860000      5.2997562E-20
  -1.800000      1.8013648E-19
  -1.740000      3.3716585E-19
  -1.680000      1.8693704E-19
  -1.620000     -9.5481076E-19
  -1.560000     -3.6052985E-18
  -1.500000     -6.8021841E-18
  -1.440000     -6.7404433E-18
  -1.380000      2.6380107E-18
  -1.320000      2.5056848E-17
  -1.260000      5.3986432E-17
  -1.200000      6.7054331E-17
  -1.140000      3.1864843E-17
  -1.080000     -7.1457903E-17
  -1.020000     -2.1886077E-16
 -0.9600000     -3.2602642E-16
 -0.9000000     -2.7524701E-16
 -0.8400000      7.3777637E-18
 -0.7800000      4.6042350E-16
 -0.7200000      8.5513508E-16
 -0.6600000      8.8929142E-16
 -0.6000000      3.9916473E-16
 -0.5400000     -4.3030989E-16
 -0.4800000     -1.0465598E-15
 -0.4200000     -8.3069617E-16
 -0.3600000      3.6099695E-16
 -0.3000000      1.7526204E-15
 -0.2400000      1.7491694E-15
 -0.1800000     -1.1742769E-15
 -0.1200000     -7.0620521E-15
 -5.9999999E-02 -1.3374252E-14
  0.0000000E+00 -1.5217459E-14
  5.9999999E-02 -7.4625034E-15
  0.1200000      1.1788684E-14
  0.1800000      3.8105658E-14
  0.2400000      6.0207393E-14
  0.3000000      6.3434650E-14
  0.3600000      3.6656174E-14
  0.4200000     -2.0236893E-14
  0.4800000     -9.2344399E-14
  0.5400000     -1.5253631E-13
  0.6000000     -1.7129425E-13
  0.6600000     -1.3007300E-13
  0.7200000     -3.1965174E-14
  0.7800000      9.6275506E-14
  0.8400000      2.1317837E-13
  0.9000000      2.7928744E-13
  0.9600000      2.7392053E-13
   1.020000      2.0328013E-13
   1.080000      9.5074610E-14
   1.140000     -1.8090584E-14
   1.200000     -1.1751998E-13
   1.260000     -2.0794027E-13
   1.320000     -3.1020588E-13
   1.380000     -4.3886804E-13
   1.440000     -5.7621225E-13
   1.500000     -6.5941122E-13
   1.560000     -5.9376549E-13
   1.620000     -2.9304798E-13
   1.680000      2.6716034E-13
   1.740000      1.0078659E-12
   1.800000      1.7411920E-12
   1.860000      2.2126446E-12
   1.920000      2.1822106E-12
   1.980000      1.5164144E-12
   2.040000      2.5539569E-13
   2.100000     -1.3734563E-12
   2.160000     -3.0034651E-12
   2.220000     -4.2223798E-12
   2.280000     -4.6793207E-12
   2.340000     -4.1705055E-12
   2.400000     -2.6820109E-12
   2.460000     -3.8770026E-13
   2.520000      2.3832943E-12
   2.580000      5.1906769E-12
   2.640000      7.5281656E-12
   2.700000      8.8735720E-12
   2.760000      8.7573620E-12
   2.820000      6.8599102E-12
   2.880000      3.1303315E-12
   2.940000     -2.1038997E-12
   3.000000     -8.0842000E-12
   3.060000     -1.3671351E-11
   3.120000     -1.7521705E-11
   3.180000     -1.8371594E-11
   3.240000     -1.5370346E-11
   3.300000     -8.3747826E-12
   3.360000      1.8827507E-12
   3.420000      1.3812880E-11
   3.480000      2.5185251E-11
   3.540000      3.3499363E-11
   3.600000      3.6426341E-11
   3.660000      3.2222790E-11
   3.720000      2.0032153E-11
   3.780000      2.6152644E-14
   3.840000     -2.6617972E-11
   3.900000     -5.7875343E-11
   3.960000     -9.1123283E-11
   4.020000     -1.2344581E-10
   4.080000     -1.5196572E-10
   4.140000     -1.7418202E-10
   4.200000     -1.8827864E-10
   4.260000     -1.9335235E-10
   4.320000     -1.8950108E-10
   4.380000     -1.7773504E-10
   4.440000     -1.5972682E-10
   4.500000     -1.3748169E-10
   4.560000     -1.1305038E-10
   4.620000     -8.8394646E-11
   4.680000     -6.5443657E-11
   4.740000     -4.6273482E-11
   4.800000     -3.3257022E-11
   4.860000     -2.9014405E-11
   4.920000     -3.6066081E-11
   4.980000     -5.6225215E-11
   5.040000     -8.9906298E-11
   5.100000     -1.3560707E-10
   5.160000     -1.8979945E-10
   5.220000     -2.4734986E-10
   5.280000     -3.0241656E-10
   5.340000     -3.4961217E-10
   5.400000     -3.8512382E-10
   5.460000     -4.0748710E-10
   5.520000     -4.1780288E-10
   5.580000     -4.1934536E-10
   5.640000     -4.1668013E-10
   5.700000     -4.1454215E-10
   5.760000     -4.1677936E-10
   5.820000     -4.2562837E-10
   5.880000     -4.4146972E-10
   5.940000     -4.6305809E-10
   6.000000     -4.8809495E-10
   6.060000     -5.1394650E-10
   6.120000     -5.3832111E-10
   6.180000     -5.5977828E-10
   6.240000     -5.7800759E-10
   6.300000     -5.9385419E-10
   6.360000     -6.0908639E-10
   6.420000     -6.2592326E-10
   6.480000     -6.4638955E-10
   6.540000     -6.7164357E-10
   6.600000     -7.0148143E-10
   6.660000     -7.3420231E-10
   6.720000     -7.6691298E-10
   6.780000     -7.9617440E-10
   6.840000     -8.1874707E-10
   6.900000     -8.3214735E-10
   6.960000     -8.3482610E-10
   7.020000     -8.2596974E-10
   7.080000     -8.0509960E-10
   7.140000     -7.7172951E-10
   7.200000     -7.2527995E-10
   7.260000     -6.6530675E-10
   7.320000     -5.9194805E-10
   7.380000     -5.0641380E-10
   7.440000     -4.1135179E-10
   7.500000     -3.1101091E-10
   7.560000     -2.1121452E-10
   7.620000     -1.1922324E-10
   7.680000     -4.3585122E-11
   7.740000      5.9749584E-12
   7.800000      1.8655438E-11
   7.860000     -1.7208448E-11
   7.920000     -1.1364201E-10
   7.980000     -2.8211697E-10
   8.040000     -5.3227744E-10
   8.100000     -8.7060104E-10
   8.160000     -1.2994676E-09
   8.220000     -1.8170726E-09
   8.280000     -2.4183284E-09
   8.340000     -3.0964382E-09
   8.400000     -3.8444523E-09
   8.460000     -4.6560578E-09
   8.520000     -5.5251603E-09
   8.580000     -6.4444166E-09
   8.640000     -7.4033473E-09
   8.700000     -8.3868814E-09
   8.760000     -9.3749151E-09
   8.820000     -1.0343017E-08
   8.880000     -1.1263979E-08
   8.940000     -1.2109713E-08
   9.000000     -1.2853082E-08
   9.060000     -1.3469453E-08
   9.120000     -1.3937879E-08
   9.180000     -1.4241849E-08
   9.240000     -1.4369594E-08
   9.300000     -1.4313946E-08
   9.360000     -1.4071984E-08
   9.420000     -1.3644748E-08
   9.480000     -1.3037295E-08
   9.540000     -1.2259020E-08
   9.600000     -1.1323879E-08
   9.660000     -1.0250045E-08
   9.720000     -9.0587982E-09
   9.780000     -7.7728810E-09
   9.840000     -6.4149956E-09
   9.900000     -5.0070317E-09
   9.960000     -3.5701766E-09
   10.02000     -2.1254667E-09
   10.08000     -6.9398481E-10
   10.14000      7.0386474E-10
   10.20000      2.0499926E-09
   10.26000      3.3305134E-09
   10.32000      4.5370498E-09
   10.38000      5.6669003E-09
   10.44000      6.7221255E-09
   10.50000      7.7080999E-09
   10.56000      8.6321386E-09
   10.62000      9.5025401E-09
   10.68000      1.0327980E-08
   10.74000      1.1117035E-08
   10.80000      1.1877656E-08
   10.86000      1.2616660E-08
   10.92000      1.3339355E-08
   10.98000      1.4049291E-08
   11.04000      1.4747909E-08
   11.10000      1.5433859E-08
   11.16000      1.6101927E-08
   11.22000      1.6741978E-08
   11.28000      1.7338538E-08
   11.34000      1.7871567E-08
   11.40000      1.8318479E-08
   11.46000      1.8656893E-08
   11.52000      1.8867265E-08
   11.58000      1.8934609E-08
   11.64000      1.8849006E-08
   11.70000      1.8605089E-08
   11.76000      1.8201099E-08
   11.82000      1.7638158E-08
   11.88000      1.6920234E-08
   11.94000      1.6054882E-08
   12.00000      1.5054626E-08
   12.06000      1.3938468E-08
   12.12000      1.2732925E-08
   12.18000      1.1471964E-08
   12.24000      1.0195416E-08
   12.30000      8.9458476E-09
   12.36000      7.7643483E-09
   12.42000      6.6860011E-09
   12.48000      5.7359162E-09
   12.54000      4.9264925E-09
   12.60000      4.2562887E-09
   12.66000      3.7105747E-09
   12.72000      3.2634497E-09
   12.78000      2.8812610E-09
   12.84000      2.5269244E-09
   12.90000      2.1645501E-09
   12.96000      1.7636810E-09
   13.02000      1.3025105E-09
   13.08000      7.6969819E-10
   13.14000      1.6473418E-10
   13.20000     -5.0297583E-10
   13.26000     -1.2160851E-09
   13.32000     -1.9521871E-09
   13.38000     -2.6874334E-09
   13.44000     -3.4005254E-09
   13.50000     -4.0764103E-09
   13.56000     -4.7088546E-09
   13.62000     -5.3012368E-09
   13.68000     -5.8654339E-09
   13.74000     -6.4192718E-09
   13.80000     -6.9833663E-09
   13.86000     -7.5781177E-09
   13.92000     -8.2212406E-09
   13.98000     -8.9258574E-09
   14.04000     -9.6990416E-09
   14.10000     -1.0540882E-08
   14.16000     -1.1444315E-08
   14.22000     -1.2395984E-08
   14.28000     -1.3378116E-08
   14.34000     -1.4371038E-08
   14.40000     -1.5355806E-08
   14.46000     -1.6316536E-08
   14.52000     -1.7242312E-08
   14.58000     -1.8128688E-08
   14.64000     -1.8978673E-08
   14.70000     -1.9802815E-08
   14.76000     -2.0617849E-08
   14.82000     -2.1443681E-08
   14.88000     -2.2299217E-08
   14.94000     -2.3198073E-08
   15.00000     -2.4145542E-08
   15.06000     -2.5137570E-08
   15.12000     -2.6161681E-08
   15.18000     -2.7198997E-08
   15.24000     -2.8226379E-08
   15.30000     -2.9218032E-08
   15.36000     -3.0146765E-08
   15.42000     -3.0985365E-08
   15.48000     -3.1708545E-08
   15.54000     -3.2295368E-08
   15.60000     -3.2731517E-08
   15.66000     -3.3010785E-08
   15.72000     -3.3135375E-08
   15.78000     -3.3115146E-08
   15.84000     -3.2966167E-08
   15.90000     -3.2708897E-08
   15.96000     -3.2366046E-08
   16.02000     -3.1960106E-08
   16.08000     -3.1510709E-08
   16.14000     -3.1032332E-08
   16.20000     -3.0533133E-08
   16.26000     -3.0015439E-08
   16.32000     -2.9477752E-08
   16.38000     -2.8917544E-08
   16.44000     -2.8333716E-08
   16.50000     -2.7727861E-08
   16.56000     -2.7104194E-08
   16.62000     -2.6468511E-08
   16.68000     -2.5826882E-08
   16.74000     -2.5184610E-08
   16.80000     -2.4545560E-08
   16.86000     -2.3911825E-08
   16.92000     -2.3283697E-08
   16.98000     -2.2660045E-08
   17.04000     -2.2039302E-08
   17.10000     -2.1420894E-08
   17.16000     -2.0806656E-08
   17.22000     -2.0201512E-08
   17.28000     -1.9612939E-08
   17.34000     -1.9049390E-08
   17.40000     -1.8518357E-08
   17.46000     -1.8025077E-08
   17.52000     -1.7572329E-08
   17.58000     -1.7161177E-08
   17.64000     -1.6791757E-08
   17.70000     -1.6463398E-08
   17.76000     -1.6173761E-08
   17.82000     -1.5917626E-08
   17.88000     -1.5686346E-08
   17.94000     -1.5468748E-08
   18.00000     -1.5253567E-08
   18.06000     -1.5032654E-08
   18.12000     -1.4803812E-08
   18.18000     -1.4572326E-08
   18.24000     -1.4350905E-08
   18.30000     -1.4158299E-08
   18.36000     -1.4017142E-08
   18.42000     -1.3951439E-08
   18.48000     -1.3983896E-08
   18.54000     -1.4133160E-08
   18.60000     -1.4411201E-08
   18.66000     -1.4821262E-08
   18.72000     -1.5356846E-08
   18.78000     -1.6002030E-08
   18.84000     -1.6732949E-08
   18.90000     -1.7520042E-08
   18.96000     -1.8330446E-08
   19.02000     -1.9130175E-08
   19.08000     -1.9885833E-08
   19.14000     -2.0565921E-08
   19.20000     -2.1141769E-08
   19.26000     -2.1588312E-08
   19.32000     -2.1884919E-08
   19.38000     -2.2016778E-08
   19.44000     -2.1977101E-08
   19.50000     -2.1770242E-08
   19.56000     -2.1414996E-08
   19.62000     -2.0946869E-08
   19.68000     -2.0417762E-08
   19.74000     -1.9891894E-08
   19.80000     -1.9437945E-08
   19.86000     -1.9118508E-08
   19.92000     -1.8979144E-08
   19.98000     -1.9039577E-08
   20.04000     -1.9289356E-08
   20.10000     -1.9689232E-08
   20.16000     -2.0178362E-08
   20.22000     -2.0686098E-08
   20.28000     -2.1146016E-08
   20.34000     -2.1509267E-08
   20.40000     -2.1754072E-08
   20.46000     -2.1889010E-08
   20.52000     -2.1949017E-08
   20.58000     -2.1984963E-08
   20.64000     -2.2049440E-08
   20.70000     -2.2182611E-08
   20.76000     -2.2401895E-08
   20.82000     -2.2698110E-08
   20.88000     -2.3038703E-08
   20.94000     -2.3376602E-08
   21.00000     -2.3661626E-08
   21.06000     -2.3851040E-08
   21.12000     -2.3916419E-08
   21.18000     -2.3845500E-08
   21.24000     -2.3639492E-08
   21.30000     -2.3307678E-08
   21.36000     -2.2861899E-08
   21.42000     -2.2313341E-08
   21.48000     -2.1672900E-08
   21.54000     -2.0955030E-08
   21.60000     -2.0183361E-08
   21.66000     -1.9395367E-08
   21.72000     -1.8643298E-08
   21.78000     -1.7989599E-08
   21.84000     -1.7496827E-08
   21.90000     -1.7214287E-08
   21.96000     -1.7165135E-08
   22.02000     -1.7338055E-08
   22.08000     -1.7686530E-08
   22.14000     -1.8136403E-08
   22.20000     -1.8599819E-08
   22.26000     -1.8991694E-08
   22.32000     -1.9244240E-08
   22.38000     -1.9315966E-08
   22.44000     -1.9193463E-08
   22.50000     -1.8886505E-08
   22.56000     -1.8418671E-08
   22.62000     -1.7816662E-08
   22.68000     -1.7101373E-08
   22.74000     -1.6283138E-08
   22.80000     -1.5362206E-08
   22.86000     -1.4334020E-08
   22.92000     -1.3197336E-08
   22.98000     -1.1962125E-08
   23.04000     -1.0654071E-08
   23.10000     -9.3134060E-09
   23.16000     -7.9878495E-09
   23.22000     -6.7216654E-09
   23.28000     -5.5445968E-09
   23.34000     -4.4646420E-09
   23.40000     -3.4674674E-09
   23.46000     -2.5228386E-09
   23.52000     -1.5960743E-09
   23.58000     -6.6087308E-10
   23.64000      2.9040476E-10
   23.70000      1.2419836E-09
   23.76000      2.1567308E-09
   23.82000      2.9844818E-09
   23.88000      3.6745509E-09
   23.94000      4.1893342E-09
   24.00000      4.5155581E-09
   24.06000      4.6701025E-09
   24.12000      4.6985118E-09
   24.18000      4.6661870E-09
   24.24000      4.6443631E-09
   24.30000      4.6947197E-09
   24.36000      4.8570641E-09
   24.42000      5.1436877E-09
   24.48000      5.5418714E-09
   24.54000      6.0233591E-09
   24.60000      6.5573769E-09
   24.66000      7.1227735E-09
   24.72000      7.7153421E-09
   24.78000      8.3481044E-09
   24.84000      9.0446655E-09
   24.90000      9.8278594E-09
   24.96000      1.0707233E-08
   25.02000      1.1669233E-08
   25.08000      1.2673150E-08
   25.14000      1.3654374E-08
   25.20000      1.4534501E-08
   25.26000      1.5235960E-08
   25.32000      1.5697440E-08
   25.38000      1.5885925E-08
   25.44000      1.5801939E-08
   25.50000      1.5476260E-08
   25.56000      1.4958848E-08
   25.62000      1.4302984E-08
   25.68000      1.3549090E-08
   25.74000      1.2712825E-08
   25.80000      1.1780706E-08
   25.86000      1.0714126E-08
   25.92000      9.4601580E-09
   25.98000      7.9655855E-09
   26.04000      6.1901004E-09
   26.10000      4.1153321E-09
   26.16000      1.7481451E-09
   26.22000     -8.8146879E-10
   26.28000     -3.7262047E-09
   26.34000     -6.7287638E-09
   26.40000     -9.8288311E-09
   26.46000     -1.2968611E-08
   26.52000     -1.6096516E-08
   26.58000     -1.9169073E-08
   26.64000     -2.2151246E-08
   26.70000     -2.5015474E-08
   26.76000     -2.7739935E-08
   26.82000     -3.0306676E-08
   26.88000     -3.2700356E-08
   26.94000     -3.4908002E-08
   27.00000     -3.6919701E-08
   27.06000     -3.8729475E-08
   27.12000     -4.0335372E-08
   27.18000     -4.1738314E-08
   27.24000     -4.2939710E-08
   27.30000     -4.3938922E-08
   27.36000     -4.4731806E-08
   27.42000     -4.5311356E-08
   27.48000     -4.5670454E-08
   27.54000     -4.5805919E-08
   27.60000     -4.5722469E-08
   27.66000     -4.5435268E-08
   27.72000     -4.4970232E-08
   27.78000     -4.4362050E-08
   27.84000     -4.3650282E-08
   27.90000     -4.2874316E-08
   27.96000     -4.2067985E-08
   28.02000     -4.1254758E-08
   28.08000     -4.0444561E-08
   28.14000     -3.9633086E-08
   28.20000     -3.8804103E-08
   28.26000     -3.7934655E-08
   28.32000     -3.7002110E-08
   28.38000     -3.5991391E-08
   28.44000     -3.4900687E-08
   28.50000     -3.3744179E-08
   28.56000     -3.2551089E-08
   28.62000     -3.1361321E-08
   28.68000     -3.0218587E-08
   28.74000     -2.9162498E-08
   28.80000     -2.8221370E-08
   28.86000     -2.7407243E-08
   28.92000     -2.6714428E-08
   28.98000     -2.6121906E-08
   29.04000     -2.5599032E-08
   29.10000     -2.5113062E-08
   29.16000     -2.4636488E-08
   29.22000     -2.4152376E-08
   29.28000     -2.3656538E-08
   29.34000     -2.3156538E-08
   29.40000     -2.2668329E-08
   29.46000     -2.2211864E-08
   29.52000     -2.1806924E-08
   29.58000     -2.1469988E-08
   29.64000     -2.1212452E-08
   29.70000     -2.1040119E-08
   29.76000     -2.0953687E-08
   29.82000     -2.0949949E-08
   29.88000     -2.1023451E-08
   29.94000     -2.1168342E-08
   30.00000     -2.1380105E-08
   30.06000     -2.1656859E-08
   30.12000     -2.1999851E-08
   30.18000     -2.2412962E-08
   30.24000     -2.2901272E-08
   30.30000     -2.3469047E-08
   30.36000     -2.4117822E-08
   30.42000     -2.4845306E-08
   30.48000     -2.5645528E-08
   30.54000     -2.6510286E-08
   30.60000     -2.7431117E-08
   30.66000     -2.8400935E-08
   30.72000     -2.9414466E-08
   30.78000     -3.0467248E-08
   30.84000     -3.1553753E-08
   30.90000     -3.2665653E-08
   30.96000     -3.3791302E-08
   31.02000     -3.4916951E-08
   31.08000     -3.6029451E-08
   31.14000     -3.7119641E-08
   31.20000     -3.8185338E-08
   31.26000     -3.9233019E-08
   31.32000     -4.0277584E-08
   31.38000     -4.1339945E-08
   31.44000     -4.2442547E-08
   31.50000     -4.3603237E-08
   31.56000     -4.4828642E-08
   31.62000     -4.6108703E-08
   31.68000     -4.7414318E-08
   31.74000     -4.8699732E-08
   31.80000     -4.9909765E-08
   31.86000     -5.0990600E-08
   31.92000     -5.1901075E-08
   31.98000     -5.2621001E-08
   32.04000     -5.3153837E-08
   32.10000     -5.3522793E-08
   32.16000     -5.3761763E-08
   32.22000     -5.3904021E-08
   32.28000     -5.3972290E-08
   32.34000     -5.3973015E-08
   32.40000     -5.3896084E-08
   32.46000     -5.3719528E-08
   32.52000     -5.3417232E-08
   32.58000     -5.2967128E-08
   32.64000     -5.2357379E-08
   32.70000     -5.1589044E-08
   32.76000     -5.0674661E-08
   32.82000     -4.9633631E-08
   32.88000     -4.8485919E-08
   32.94000     -4.7246157E-08
   33.00000     -4.5920022E-08
   33.06000     -4.4503849E-08
   33.12000     -4.2987651E-08
   33.18000     -4.1360359E-08
   33.24000     -3.9615625E-08
   33.30000     -3.7756092E-08
   33.36000     -3.5794773E-08
   33.42000     -3.3752876E-08
   33.48000     -3.1654690E-08
   33.54000     -2.9521111E-08
   33.60000     -2.7363679E-08
   33.66000     -2.5181041E-08
   33.72000     -2.2958847E-08
   33.78000     -2.0673259E-08
   33.84000     -1.8297197E-08
   33.90000     -1.5807817E-08
   33.96000     -1.3193497E-08
   34.02000     -1.0458682E-08
   34.08000     -7.6255224E-09
   34.14000     -4.7318083E-09
   34.20000     -1.8255771E-09
   34.26000      1.0424778E-09
   34.32000      3.8270267E-09
   34.38000      6.4945112E-09
   34.44000      9.0261798E-09
   34.50000      1.1416860E-08
   34.56000      1.3669818E-08
   34.62000      1.5789320E-08
   34.68000      1.7773271E-08
   34.74000      1.9608343E-08
   34.80000      2.1269084E-08
   34.86000      2.2721203E-08
   34.92000      2.3927754E-08
   34.98000      2.4856080E-08
   35.04000      2.5483276E-08
   35.10000      2.5798593E-08
   35.16000      2.5802425E-08
   35.22000      2.5502590E-08
   35.28000      2.4909498E-08
   35.34000      2.4031882E-08
   35.40000      2.2874417E-08
   35.46000      2.1437872E-08
   35.52000      1.9721689E-08
   35.58000      1.7728178E-08
   35.64000      1.5467188E-08
   35.70000      1.2959855E-08
   35.76000      1.0240132E-08
   35.82000      7.3531408E-09
   35.88000      4.3501589E-09
   35.94000      1.2810224E-09
   36.00000     -1.8142451E-09
   36.06000     -4.9121889E-09
   36.12000     -8.0088176E-09
   36.18000     -1.1117427E-08
   36.24000     -1.4261744E-08
   36.30000     -1.7466368E-08
   36.36000     -2.0747340E-08
   36.42000     -2.4105528E-08
   36.48000     -2.7524417E-08
   36.54000     -3.0972306E-08
   36.60000     -3.4407680E-08
   36.66000     -3.7785924E-08
   36.72000     -4.1065547E-08
   36.78000     -4.4212836E-08
   36.84000     -4.7204239E-08
   36.90000     -5.0026330E-08
   36.96000     -5.2673489E-08
   37.02000     -5.5143804E-08
   37.08000     -5.7434136E-08
   37.14000     -5.9535800E-08
   37.20000     -6.1432402E-08
   37.26000     -6.3100686E-08
   37.32000     -6.4514431E-08
   37.38000     -6.5650148E-08
   37.44000     -6.6492760E-08
   37.50000     -6.7039622E-08
   37.56000     -6.7301904E-08
   37.62000     -6.7303510E-08
   37.68000     -6.7078169E-08
   37.74000     -6.6665450E-08
   37.80000     -6.6106210E-08
   37.86000     -6.5437632E-08
   37.92000     -6.4688258E-08
   37.98000     -6.3873941E-08
   38.04000     -6.2996008E-08
   38.10000     -6.2042844E-08
   38.16000     -6.0995021E-08
   38.22000     -5.9833063E-08
   38.28000     -5.8545290E-08
   38.34000     -5.7133263E-08
   38.40000     -5.5612780E-08
   38.46000     -5.4010048E-08
   38.52000     -5.2354210E-08
   38.58000     -5.0668696E-08
   38.64000     -4.8964075E-08
   38.70000     -4.7234607E-08
   38.76000     -4.5459537E-08
   38.82000     -4.3608768E-08
   38.88000     -4.1651383E-08
   38.94000     -3.9564469E-08
   39.00000     -3.7339770E-08
   39.06000     -3.4986002E-08
   39.12000     -3.2526032E-08
   39.18000     -2.9989810E-08
   39.24000     -2.7405333E-08
   39.30000     -2.4790799E-08
   39.36000     -2.2150807E-08
   39.42000     -1.9478202E-08
   39.48000     -1.6761255E-08
   39.54000     -1.3993971E-08
   39.60000     -1.1186151E-08
   39.66000     -8.3696658E-09
   39.72000     -5.5984692E-09
   39.78000     -2.9417493E-09
   39.84000     -4.7185944E-10
   39.90000      1.7494960E-09
   39.96000      3.6826153E-09
   40.02000      5.3150755E-09
   40.08000      6.6592474E-09
   40.14000      7.7429219E-09
   40.20000      8.5961895E-09
   40.26000      9.2388577E-09
   40.32000      9.6722861E-09
   40.38000      9.8778239E-09
   40.44000      9.8217994E-09
   40.50000      9.4650616E-09
   40.56000      8.7740615E-09
   40.62000      7.7304669E-09
   40.68000      6.3370273E-09
   40.74000      4.6184567E-09
   40.80000      2.6172604E-09
   40.86000      3.8549675E-10
   40.92000     -2.0255060E-09
   40.98000     -4.5747042E-09
   41.04000     -7.2372517E-09
   41.10000     -1.0004662E-08
   41.16000     -1.2878799E-08
   41.22000     -1.5861488E-08
   41.28000     -1.8943275E-08
   41.34000     -2.2095549E-08
   41.40000     -2.5269138E-08
   41.46000     -2.8400418E-08
   41.52000     -3.1423124E-08
   41.58000     -3.4282138E-08
   41.64000     -3.6944709E-08
   41.70000     -3.9405492E-08
   41.76000     -4.1683844E-08
   41.82000     -4.3814275E-08
   41.88000     -4.5833115E-08
   41.94000     -4.7765496E-08
   42.00000     -4.9616592E-08
   42.06000     -5.1369621E-08
   42.12000     -5.2991155E-08
   42.18000     -5.4441909E-08
   42.24000     -5.5689807E-08
   42.30000     -5.6721383E-08
   42.36000     -5.7548164E-08
   42.42000     -5.8206229E-08
   42.48000     -5.8748995E-08
   42.54000     -5.9235266E-08
   42.60000     -5.9715823E-08
   42.66000     -6.0222376E-08
   42.72000     -6.0761998E-08
   42.78000     -6.1318538E-08
   42.84000     -6.1860618E-08
   42.90000     -6.2353564E-08
   42.96000     -6.2771569E-08
   43.02000     -6.3106292E-08
   43.08000     -6.3369328E-08
   43.14000     -6.3588374E-08
   43.20000     -6.3798780E-08
   43.26000     -6.4033657E-08
   43.32000     -6.4315813E-08
   43.38000     -6.4653683E-08
   43.44000     -6.5041867E-08
   43.50000     -6.5465507E-08
   43.56000     -6.5906590E-08
   43.62000     -6.6350225E-08
   43.68000     -6.6789354E-08
   43.74000     -6.7226622E-08
   43.80000     -6.7673085E-08
   43.86000     -6.8144153E-08
   43.92000     -6.8653698E-08
   43.98000     -6.9208120E-08
   44.04000     -6.9802162E-08
   44.10000     -7.0418054E-08
   44.16000     -7.1028417E-08
   44.22000     -7.1602436E-08
   44.28000     -7.2113423E-08
   44.34000     -7.2545532E-08
   44.40000     -7.2897556E-08
   44.46000     -7.3182534E-08
   44.52000     -7.3423244E-08
   44.58000     -7.3644834E-08
   44.64000     -7.3866687E-08
   44.70000     -7.4095915E-08
   44.76000     -7.4324298E-08
   44.82000     -7.4529389E-08
   44.88000     -7.4679598E-08
   44.94000     -7.4741493E-08
   45.00000     -7.4687321E-08
   45.06000     -7.4500804E-08
   45.12000     -7.4180022E-08
   45.18000     -7.3736942E-08
   45.24000     -7.3194080E-08
   45.30000     -7.2579319E-08
   45.36000     -7.1919835E-08
   45.42000     -7.1236414E-08
   45.48000     -7.0539194E-08
   45.54000     -6.9825717E-08
   45.60000     -6.9082063E-08
   45.66000     -6.8286788E-08
   45.72000     -6.7416877E-08
   45.78000     -6.6453914E-08
   45.84000     -6.5388647E-08
   45.90000     -6.4222768E-08
   45.96000     -6.2967729E-08
   46.02000     -6.1641657E-08
   46.08000     -6.0265727E-08
   46.14000     -5.8861342E-08
   46.20000     -5.7448275E-08
   46.26000     -5.6043660E-08
   46.32000     -5.4661140E-08
   46.38000     -5.3310227E-08
   46.44000     -5.1996278E-08
   46.50000     -5.0721802E-08
   46.56000     -4.9489046E-08
   46.62000     -4.8302955E-08
   46.68000     -4.7173121E-08
   46.74000     -4.6113598E-08
   46.80000     -4.5140975E-08
   46.86000     -4.4272284E-08
   46.92000     -4.3525034E-08
   46.98000     -4.2920679E-08
   47.04000     -4.2490903E-08
   47.10000     -4.2284395E-08
   47.16000     -4.2371120E-08
   47.22000     -4.2842125E-08
   47.28000     -4.3804768E-08
   47.34000     -4.5375355E-08
   47.40000     -4.7671747E-08
   47.46000     -5.0808417E-08
   47.52000     -5.4895349E-08
   47.58000     -6.0041458E-08
   47.64000     -6.6362446E-08
   47.70000     -7.3992837E-08
   47.76000     -8.3100780E-08
   47.82000     -9.3903601E-08
   47.88000     -1.0668108E-07
   47.94000     -1.2178393E-07
   48.00000     -1.3963640E-07
   48.06000     -1.6073439E-07
   48.12000     -1.8564165E-07
   48.18000     -2.1498808E-07
   48.24000     -2.4947227E-07
   48.30000     -2.8986989E-07
   48.36000     -3.3704777E-07
   48.42000     -3.9198332E-07
   48.48000     -4.5578784E-07
   48.54000     -5.2973235E-07
   48.60000     -6.1527305E-07
   48.66000     -7.1407362E-07
   48.72000     -8.2802165E-07
   48.78000     -9.5924008E-07
   48.84000     -1.1100966E-06
   48.90000     -1.2832141E-06
   48.96000     -1.4814874E-06
   49.02000     -1.7081043E-06
   49.08000     -1.9665729E-06
   49.14000     -2.2607480E-06
   49.20000     -2.5948564E-06
   49.26000     -2.9735238E-06
   49.32000     -3.4017996E-06
   49.38000     -3.8851845E-06
   49.44000     -4.4296557E-06
   49.50000     -5.0416884E-06
   49.56000     -5.7282687E-06
   49.62000     -6.4969022E-06
   49.68000     -7.3556180E-06
   49.74000     -8.3129744E-06
   49.80000     -9.3780664E-06
   49.86000     -1.0560540E-05
   49.92000     -1.1870593E-05
   49.98000     -1.3318982E-05
   50.04000     -1.4917001E-05
   50.10000     -1.6676464E-05
   50.16000     -1.8609660E-05
   50.22000     -2.0729331E-05
   50.28000     -2.3048588E-05
   50.34000     -2.5580883E-05
   50.40000     -2.8339913E-05
   50.46000     -3.1339558E-05
   50.52000     -3.4593806E-05
   50.58000     -3.8116665E-05
   50.64000     -4.1922081E-05
   50.70000     -4.6023837E-05
   50.76000     -5.0435418E-05
   50.82000     -5.5169894E-05
   50.88000     -6.0239767E-05
   50.94000     -6.5656823E-05
   51.00000     -7.1431976E-05
   51.06000     -7.7575176E-05
   51.12000     -8.4095183E-05
   51.18000     -9.0999463E-05
   51.24000     -9.8294004E-05
   51.30000     -1.0598317E-04
   51.36000     -1.1406954E-04
   51.42000     -1.2255379E-04
   51.48000     -1.3143459E-04
   51.54000     -1.4070838E-04
   51.60000     -1.5036938E-04
   51.66000     -1.6040943E-04
   51.72000     -1.7081785E-04
   51.78000     -1.8158145E-04
   51.84000     -1.9268446E-04
   51.90000     -2.0410851E-04
   51.96000     -2.1583270E-04
   52.02000     -2.2783355E-04
   52.08000     -2.4008515E-04
   52.14000     -2.5255914E-04
   52.20000     -2.6522498E-04
   52.26000     -2.7804973E-04
   52.32000     -2.9099867E-04
   52.38000     -3.0403509E-04
   52.44000     -3.1712087E-04
   52.50000     -3.3021657E-04
   52.56000     -3.4328166E-04
   52.62000     -3.5627489E-04
   52.68000     -3.6915464E-04
   52.74000     -3.8187904E-04
   52.80000     -3.9440661E-04
   52.86000     -4.0669643E-04
   52.92000     -4.1870854E-04
   52.98000     -4.3040427E-04
   53.04000     -4.4174673E-04
   53.10000     -4.5270089E-04
   53.16000     -4.6323394E-04
   53.22000     -4.7331589E-04
   53.28000     -4.8291960E-04
   53.34000     -4.9202144E-04
   53.40000     -5.0060143E-04
   53.46000     -5.0864328E-04
   53.52000     -5.1613455E-04
   53.58000     -5.2306667E-04
   53.64000     -5.2943529E-04
   53.70000     -5.3524011E-04
   53.76000     -5.4048520E-04
   53.82000     -5.4517877E-04
   53.88000     -5.4933340E-04
   53.94000     -5.5296556E-04
   54.00000     -5.5609562E-04
   54.06000     -5.5874733E-04
   54.12000     -5.6094793E-04
   54.18000     -5.6272768E-04
   54.24000     -5.6411949E-04
   54.30000     -5.6515861E-04
   54.36000     -5.6588254E-04
   54.42000     -5.6632992E-04
   54.48000     -5.6654087E-04
   54.54000     -5.6655600E-04
   54.60000     -5.6641601E-04
   54.66000     -5.6616124E-04
   54.72000     -5.6583143E-04
   54.78000     -5.6546490E-04
   54.84000     -5.6509860E-04
   54.90000     -5.6476728E-04
   54.96000     -5.6450325E-04
   55.02000     -5.6433631E-04
   55.08000     -5.6429277E-04
   55.14000     -5.6439568E-04
   55.20000     -5.6466443E-04
   55.26000     -5.6511443E-04
   55.32000     -5.6575728E-04
   55.38000     -5.6660053E-04
   55.44000     -5.6764751E-04
   55.50000     -5.6889752E-04
   55.56000     -5.7034561E-04