  -2.400000      0.0000000E+00
  -2.340000      0.0000000E+00
  -2.280000      0.0000000E+00
  -2.220000      0.0000000E+00
  -2.160000      0.0000000E+00
  -2.100000      0.0000000E+00
  -2.040000     -4.9473567E-21
  -1.980000     -3.8464448E-20
  -1.920000     -1.3501495E-19
  -1.860000     -2.3218192E-19
  -1.800000      5.6358865E-20
  -1.740000      1.5163732E-18
  -1.680000      4.6152670E-18
  -1.620000      7.5119382E-18
  -1.560000      3.7324486E-18
  -1.500000     -1.7103668E-17
  -1.440000     -6.0835236E-17
  -1.380000     -1.1143333E-16
  -1.320000     -1.1393674E-16
  -1.260000      2.0373904E-17
  -1.200000      3.6158584E-16
  -1.140000      8.5833332E-16
  -1.080000      1.2314039E-15
  -1.020000      9.6631890E-16
 -0.9600000     -4.8131599E-16
 -0.9000000     -3.2394354E-15
 -0.8400000     -6.4931377E-15
 -0.7800000     -8.2508844E-15
 -0.7200000     -5.8444536E-15
 -0.6600000      2.6382395E-15
 -0.6000000      1.6371416E-14
 -0.5400000      3.0343204E-14
 -0.4800000      3.5869945E-14
 -0.4200000      2.4003960E-14
 -0.3600000     -8.7292895E-15
 -0.3000000     -5.4817059E-14
 -0.2400000     -9.4347314E-14
 -0.1800000     -1.0092951E-13
 -0.1200000     -5.4950656E-14
 -5.9999999E-02  4.0737856E-14
  0.0000000E+00  1.5167885E-13
  5.9999999E-02  2.1826932E-13
  0.1200000      1.8104432E-13
  0.1800000      1.7427532E-14
  0.2400000     -2.2792209E-13
  0.3000000     -4.4068427E-13
  0.3600000     -4.7554495E-13
  0.4200000     -2.2931234E-13
  0.4800000      2.8149640E-13
  0.5400000      8.8237647E-13
  0.6000000      1.2781940E-12
  0.6600000      1.1711211E-12
  0.7200000      4.1967111E-13
  0.7800000     -8.3601772E-13
  0.8400000     -2.1606421E-12
  0.9000000     -2.9599840E-12
  0.9600000     -2.7333019E-12
   1.020000     -1.3372533E-12
   1.080000      8.7337342E-13
   1.140000      3.1259791E-12
   1.200000      4.5313232E-12
   1.260000      4.4876555E-12
   1.320000      2.9936800E-12
   1.380000      6.9151076E-13
   1.440000     -1.4234711E-12
   1.500000     -2.5178156E-12
   1.560000     -2.4094878E-12
   1.620000     -1.7498147E-12
   1.680000     -1.7337235E-12
   1.740000     -3.4034746E-12
   1.800000     -6.8490834E-12
   1.860000     -1.0730539E-11
   1.920000     -1.2468993E-11
   1.980000     -9.1829348E-12
   2.040000      9.1298497E-13
   2.100000      1.7210140E-11
   2.160000      3.6129693E-11
   2.220000      5.1665953E-11
   2.280000      5.7017991E-11
   2.340000      4.6819250E-11
   2.400000      1.9190540E-11
   2.460000     -2.3131575E-11
   2.520000     -7.3002264E-11
   2.580000     -1.2031867E-10
   2.640000     -1.5417108E-10
   2.700000     -1.6495991E-10
   2.760000     -1.4588657E-10
   2.820000     -9.3626072E-11
   2.880000     -8.4437067E-12
   2.940000      1.0570810E-10
   3.000000      2.4062993E-10
   3.060000      3.8274051E-10
   3.120000      5.1177240E-10
   3.180000      6.0011046E-10
   3.240000      6.1366007E-10
   3.300000      5.1478954E-10
   3.360000      2.6722796E-10
   3.420000     -1.5793189E-10
   3.480000     -7.7648959E-10
   3.540000     -1.5870937E-09
   3.600000     -2.5699309E-09
   3.660000     -3.6884322E-09
   3.720000     -4.8934545E-09
   3.780000     -6.1288028E-09
   3.840000     -7.3367703E-09
   3.900000     -8.4626723E-09
   3.960000     -9.4579384E-09
   4.020000     -1.0282016E-08
   4.080000     -1.0903747E-08
   4.140000     -1.1302978E-08
   4.200000     -1.1472766E-08
   4.260000     -1.1421899E-08
   4.320000     -1.1176858E-08
   4.380000     -1.0781975E-08
   4.440000     -1.0296741E-08
   4.500000     -9.7898276E-09
   4.560000     -9.3304555E-09
   4.620000     -8.9786090E-09
   4.680000     -8.7762713E-09
   4.740000     -8.7417336E-09
   4.800000     -8.8683416E-09
   4.860000     -9.1278416E-09
   4.920000     -9.4772235E-09
   4.980000     -9.8671302E-09
   5.040000     -1.0249674E-08
   5.100000     -1.0584071E-08
   5.160000     -1.0839524E-08
   5.220000     -1.0995834E-08
   5.280000     -1.1042879E-08
   5.340000     -1.0980089E-08
   5.400000     -1.0816428E-08
   5.460000     -1.0570507E-08
   5.520000     -1.0269822E-08
   5.580000     -9.9480344E-09
   5.640000     -9.6398676E-09
   5.700000     -9.3742862E-09
   5.760000     -9.1676426E-09
   5.820000     -9.0189518E-09
   5.880000     -8.9090317E-09
   5.940000     -8.8041245E-09
   6.000000     -8.6631351E-09
   6.060000     -8.4464595E-09
   6.120000     -8.1239326E-09
   6.180000     -7.6799251E-09
   6.240000     -7.1147204E-09
   6.300000     -6.4426202E-09
   6.360000     -5.6880576E-09
   6.420000     -4.8812221E-09
   6.480000     -4.0541677E-09
   6.540000     -3.2375815E-09
   6.600000     -2.4577287E-09
   6.660000     -1.7329629E-09
   6.720000     -1.0697084E-09
   6.780000     -4.5865292E-10
   6.840000      1.2734738E-10
   6.900000      7.3199924E-10
   6.960000      1.4099397E-09
   7.020000      2.2170790E-09
   7.080000      3.1988123E-09
   7.140000      4.3791428E-09
   7.200000      5.7539742E-09
   7.260000      7.2909114E-09
   7.320000      8.9360723E-09
   7.380000      1.0626271E-08
   7.440000      1.2303196E-08
   7.500000      1.3925511E-08
   7.560000      1.5475447E-08
   7.620000      1.6958172E-08
   7.680000      1.8394594E-08
   7.740000      1.9810289E-08
   7.800000      2.1224404E-08
   7.860000      2.2642256E-08
   7.920000      2.4053847E-08
   7.980000      2.5438391E-08
   8.040000      2.6772787E-08
   8.100000      2.8040617E-08
   8.160000      2.9238132E-08
   8.220000      3.0374920E-08
   8.280000      3.1468961E-08
   8.340000      3.2537894E-08
   8.400000      3.3589746E-08
   8.460000      3.4616612E-08
   8.520000      3.5593594E-08
   8.580000      3.6483506E-08
   8.640000      3.7245716E-08
   8.700000      3.7846181E-08
   8.760000      3.8265441E-08
   8.820000      3.8502360E-08
   8.880000      3.8573010E-08
   8.940000      3.8505746E-08
   9.000000      3.8334619E-08
   9.060000      3.8093265E-08
   9.120000      3.7810821E-08
   9.180000      3.7510091E-08
   9.240000      3.7207645E-08
   9.300000      3.6914837E-08
   9.360000      3.6639204E-08
   9.420000      3.6385977E-08
   9.480000      3.6159751E-08
   9.540000      3.5966366E-08
   9.600000      3.5814562E-08
   9.660000      3.5716766E-08
   9.720000      3.5688338E-08
   9.780000      3.5745028E-08
   9.840000      3.5899266E-08
   9.900000      3.6156475E-08
   9.960000      3.6512798E-08
   10.02000      3.6955164E-08
   10.08000      3.7463717E-08
   10.14000      3.8015717E-08
   10.20000      3.8589477E-08
   10.26000      3.9167084E-08
   10.32000      3.9735173E-08
   10.38000      4.0284032E-08
   10.44000      4.0805780E-08
   10.50000      4.1292658E-08
   10.56000      4.1736040E-08
   10.62000      4.2126402E-08
   10.68000      4.2453944E-08
   10.74000      4.2709352E-08
   10.80000      4.2884377E-08
   10.86000      4.2972054E-08
   10.92000      4.2966796E-08
   10.98000      4.2864485E-08
   11.04000      4.2662752E-08
   11.10000      4.2361215E-08
   11.16000      4.1961414E-08
   11.22000      4.1466020E-08
   11.28000      4.0877236E-08
   11.34000      4.0194649E-08
   11.40000      3.9413255E-08
   11.46000      3.8522739E-08
   11.52000      3.7508769E-08
   11.58000      3.6356706E-08
   11.64000      3.5056978E-08
   11.70000      3.3610689E-08
   11.76000      3.2033366E-08
   11.82000      3.0355100E-08
   11.88000      2.8616402E-08
   11.94000      2.6860590E-08
   12.00000      2.5124853E-08
   12.06000      2.3432873E-08
   12.12000      2.1791360E-08
   12.18000      2.0191536E-08
   12.24000      1.8614836E-08
   12.30000      1.7040678E-08
   12.36000      1.5453690E-08
   12.42000      1.3848222E-08
   12.48000      1.2229263E-08
   12.54000      1.0610141E-08
   12.60000      9.0083576E-09
   12.66000      7.4410544E-09
   12.72000      5.9213132E-09
   12.78000      4.4558095E-09
   12.84000      3.0438607E-09
   12.90000      1.6776510E-09
   12.96000      3.4341896E-10
   13.02000     -9.7652919E-10
   13.08000     -2.3011388E-09
   13.14000     -3.6475614E-09
   13.20000     -5.0282294E-09
   13.26000     -6.4486345E-09
   13.32000     -7.9062827E-09
   13.38000     -9.3910275E-09
   13.44000     -1.0886642E-08
   13.50000     -1.2373225E-08
   13.56000     -1.3829951E-08
   13.62000     -1.5237717E-08
   13.68000     -1.6581430E-08
   13.74000     -1.7851740E-08
   13.80000     -1.9046135E-08
   13.86000     -2.0169240E-08
   13.92000     -2.1232148E-08
   13.98000     -2.2250708E-08
   14.04000     -2.3242917E-08
   14.10000     -2.4225738E-08
   14.16000     -2.5212019E-08
   14.22000     -2.6208085E-08
   14.28000     -2.7212527E-08
   14.34000     -2.8216322E-08
   14.40000     -2.9204067E-08
   14.46000     -3.0156006E-08
   14.52000     -3.1050391E-08
   14.58000     -3.1865977E-08
   14.64000     -3.2584420E-08
   14.70000     -3.3192588E-08
   14.76000     -3.3684319E-08
   14.82000     -3.4061348E-08
   14.88000     -3.4332750E-08
   14.94000     -3.4512819E-08
   15.00000     -3.4617539E-08
   15.06000     -3.4660619E-08
   15.12000     -3.4650281E-08
   15.18000     -3.4587842E-08
   15.24000     -3.4468759E-08
   15.30000     -3.4285659E-08
   15.36000     -3.4032382E-08
   15.42000     -3.3707632E-08
   15.48000     -3.3317139E-08
   15.54000     -3.2873711E-08
   15.60000     -3.2395455E-08
   15.66000     -3.1902747E-08
   15.72000     -3.1414636E-08
   15.78000     -3.0945440E-08
   15.84000     -3.0501898E-08
   15.90000     -3.0081583E-08
   15.96000     -2.9673076E-08
   16.02000     -2.9258565E-08
   16.08000     -2.8818821E-08
   16.14000     -2.8339734E-08
   16.20000     -2.7818505E-08
   16.26000     -2.7267278E-08
   16.32000     -2.6712334E-08
   16.38000     -2.6188451E-08
   16.44000     -2.5729886E-08
   16.50000     -2.5360796E-08
   16.56000     -2.5088360E-08
   16.62000     -2.4900833E-08
   16.68000     -2.4771005E-08
   16.74000     -2.4663569E-08
   16.80000     -2.4543832E-08
   16.86000     -2.4385104E-08
   16.92000     -2.4173055E-08
   16.98000     -2.3906608E-08
   17.04000     -2.3595947E-08
   17.10000     -2.3258670E-08
   17.16000     -2.2915147E-08
   17.22000     -2.2583837E-08
   17.28000     -2.2277176E-08
   17.34000     -2.1998657E-08
   17.40000     -2.1741535E-08
   17.46000     -2.1489463E-08
   17.52000     -2.1218749E-08
   17.58000     -2.0901496E-08
   17.64000     -2.0508578E-08
   17.70000     -2.0011731E-08
   17.76000     -1.9384595E-08
   17.82000     -1.8603313E-08
   17.88000     -1.7647578E-08
   17.94000     -1.6502879E-08
   18.00000     -1.5163899E-08
   18.06000     -1.3638296E-08
   18.12000     -1.1949576E-08
   18.18000     -1.0137779E-08
   18.24000     -8.2573495E-09
   18.30000     -6.3723307E-09
   18.36000     -4.5497712E-09
   18.42000     -2.8526788E-09
   18.48000     -1.3339095E-09
   18.54000     -3.2156597E-11
   18.60000      1.0293076E-09
   18.66000      1.8411672E-09
   18.72000      2.4046853E-09
   18.78000      2.7278764E-09
   18.84000      2.8228473E-09
   18.90000      2.7054485E-09
   18.96000      2.3972000E-09
   19.02000      1.9281416E-09
   19.08000      1.3384244E-09
   19.14000      6.7670852E-10
   19.20000     -5.1368124E-12
   19.26000     -6.5957900E-10
   19.32000     -1.2502055E-09
   19.38000     -1.7545991E-09
   19.44000     -2.1616302E-09
   19.50000     -2.4640447E-09
   19.56000     -2.6495635E-09
   19.62000     -2.6946358E-09
   19.68000     -2.5639766E-09
   19.74000     -2.2164626E-09
   19.80000     -1.6151767E-09
   19.86000     -7.3769185E-10
   19.92000      4.1713855E-10
   19.98000      1.8277800E-09
   20.04000      3.4534748E-09
   20.10000      5.2402820E-09
   20.16000      7.1271531E-09
   20.22000      9.0505887E-09
   20.28000      1.0948013E-08
   20.34000      1.2761056E-08
   20.40000      1.4439736E-08
   20.46000      1.5947419E-08
   20.52000      1.7265121E-08
   20.58000      1.8393203E-08
   20.64000      1.9349239E-08
   20.70000      2.0162382E-08
   20.76000      2.0866146E-08
   20.82000      2.1491973E-08
   20.88000      2.2065322E-08
   20.94000      2.2604450E-08
   21.00000      2.3120663E-08
   21.06000      2.3618449E-08
   21.12000      2.4094659E-08
   21.18000      2.4537282E-08
   21.24000      2.4925351E-08
   21.30000      2.5231499E-08
   21.36000      2.5427427E-08
   21.42000      2.5490998E-08
   21.48000      2.5412621E-08
   21.54000      2.5198709E-08
   21.60000      2.4871250E-08
   21.66000      2.4464182E-08
   21.72000      2.4018272E-08
   21.78000      2.3576250E-08
   21.84000      2.3178984E-08
   21.90000      2.2862370E-08
   21.96000      2.2654140E-08
   22.02000      2.2570264E-08
   22.08000      2.2611720E-08
   22.14000      2.2763338E-08
   22.20000      2.2996277E-08
   22.26000      2.3274550E-08
   22.32000      2.3564029E-08
   22.38000      2.3841000E-08
   22.44000      2.4097156E-08
   22.50000      2.4339210E-08
   22.56000      2.4583594E-08
   22.62000      2.4848589E-08
   22.68000      2.5146992E-08
   22.74000      2.5481624E-08
   22.80000      2.5844308E-08
   22.86000      2.6217318E-08
   22.92000      2.6575815E-08
   22.98000      2.6890286E-08
   23.04000      2.7129140E-08
   23.10000      2.7262240E-08
   23.16000      2.7265664E-08
   23.22000      2.7126736E-08
   23.28000      2.6847069E-08
   23.34000      2.6441217E-08
   23.40000      2.5929999E-08
   23.46000      2.5330127E-08
   23.52000      2.4643988E-08
   23.58000      2.3854311E-08
   23.64000      2.2926745E-08
   23.70000      2.1820284E-08
   23.76000      2.0502007E-08
   23.82000      1.8960602E-08
   23.88000      1.7213567E-08
   23.94000      1.5305426E-08
   24.00000      1.3297889E-08
   24.06000      1.1255661E-08
   24.12000      9.2327346E-09
   24.18000      7.2630888E-09
   24.24000      5.3576232E-09
   24.30000      3.5067715E-09
   24.36000      1.6868033E-09
   24.42000     -1.3257072E-10
   24.48000     -1.9811273E-09
   24.54000     -3.8826231E-09
   24.60000     -5.8513177E-09
   24.66000     -7.8908045E-09
   24.72000     -9.9954116E-09
   24.78000     -1.2154119E-08
   24.84000     -1.4356313E-08
   24.90000     -1.6597800E-08
   24.96000     -1.8885020E-08
   25.02000     -2.1235680E-08
   25.08000     -2.3675243E-08
   25.14000     -2.6230317E-08
   25.20000     -2.8921360E-08
   25.26000     -3.1757342E-08
   25.32000     -3.4734175E-08
   25.38000     -3.7836987E-08
   25.44000     -4.1044888E-08
   25.50000     -4.4336140E-08
   25.56000     -4.7691945E-08
   25.62000     -5.1098219E-08
   25.68000     -5.4545374E-08
   25.74000     -5.8026803E-08
   25.80000     -6.1536333E-08
   25.86000     -6.5064889E-08
   25.92000     -6.8596606E-08
   25.98000     -7.2105450E-08
   26.04000     -7.5554027E-08
   26.10000     -7.8896257E-08
   26.16000     -8.2084426E-08
   26.22000     -8.5078966E-08
   26.28000     -8.7857657E-08
   26.34000     -9.0420087E-08
   26.40000     -9.2784632E-08
   26.46000     -9.4978411E-08
   26.52000     -9.7023481E-08
   26.58000     -9.8924595E-08
   26.64000     -1.0066331E-07
   26.70000     -1.0220047E-07
   26.76000     -1.0348563E-07
   26.82000     -1.0446954E-07
   26.88000     -1.0511474E-07
   26.94000     -1.0540123E-07
   27.00000     -1.0532662E-07
   27.06000     -1.0490231E-07
   27.12000     -1.0414817E-07
   27.18000     -1.0308799E-07
   27.24000     -1.0174576E-07
   27.30000     -1.0014293E-07
   27.36000     -9.8295978E-08
   27.42000     -9.6215146E-08
   27.48000     -9.3905697E-08
   27.54000     -9.1372762E-08
   27.60000     -8.8629371E-08
   27.66000     -8.5704968E-08
   27.72000     -8.2649983E-08
   27.78000     -7.9532853E-08
   27.84000     -7.6428513E-08
   27.90000     -7.3401189E-08
   27.96000     -7.0487843E-08
   28.02000     -6.7689037E-08
   28.08000     -6.4971495E-08
   28.14000     -6.2282417E-08
   28.20000     -5.9570343E-08
   28.26000     -5.6805433E-08
   28.32000     -5.3992082E-08
   28.38000     -5.1170517E-08
   28.44000     -4.8407959E-08
   28.50000     -4.5783320E-08
   28.56000     -4.3370580E-08
   28.62000     -4.1225064E-08
   28.68000     -3.9375067E-08
   28.74000     -3.7819504E-08
   28.80000     -3.6531368E-08
   28.86000     -3.5466272E-08
   28.92000     -3.4574750E-08
   28.98000     -3.3816136E-08
   29.04000     -3.3170355E-08
   29.10000     -3.2643857E-08
   29.16000     -3.2266701E-08
   29.22000     -3.2080798E-08
   29.28000     -3.2122774E-08
   29.34000     -3.2407439E-08
   29.40000     -3.2918305E-08
   29.46000     -3.3609023E-08
   29.52000     -3.4415308E-08
   29.58000     -3.5272780E-08
   29.64000     -3.6133777E-08
   29.70000     -3.6976875E-08
   29.76000     -3.7806224E-08
   29.82000     -3.8641840E-08
   29.88000     -3.9505501E-08
   29.94000     -4.0407865E-08
   30.00000     -4.1341220E-08
   30.06000     -4.2279442E-08
   30.12000     -4.3184134E-08
   30.18000     -4.4014062E-08
   30.24000     -4.4734893E-08
   30.30000     -4.5326907E-08
   30.36000     -4.5789264E-08
   30.42000     -4.6140283E-08
   30.48000     -4.6413245E-08
   30.54000     -4.6648019E-08
   30.60000     -4.6879485E-08
   30.66000     -4.7125287E-08
   30.72000     -4.7376524E-08
   30.78000     -4.7595211E-08
   30.84000     -4.7720746E-08
   30.90000     -4.7684789E-08
   30.96000     -4.7430596E-08
   31.02000     -4.6930680E-08
   31.08000     -4.6196611E-08
   31.14000     -4.5277265E-08
   31.20000     -4.4245724E-08
   31.26000     -4.3179256E-08
   31.32000     -4.2139078E-08
   31.38000     -4.1156706E-08
   31.44000     -4.0231040E-08
   31.50000     -3.9336609E-08
   31.56000     -3.8439396E-08
   31.62000     -3.7514379E-08
   31.68000     -3.6558493E-08
   31.74000     -3.5594745E-08
   31.80000     -3.4666275E-08
   31.86000     -3.3822737E-08
   31.92000     -3.3103731E-08
   31.98000     -3.2524927E-08
   32.04000     -3.2071160E-08
   32.10000     -3.1698459E-08
   32.16000     -3.1343891E-08
   32.22000     -3.0939876E-08
   32.28000     -3.0428716E-08
   32.34000     -2.9773599E-08
   32.40000     -2.8963782E-08
   32.46000     -2.8013483E-08
   32.52000     -2.6955405E-08
   32.58000     -2.5830834E-08
   32.64000     -2.4678602E-08
   32.70000     -2.3525498E-08
   32.76000     -2.2380464E-08
   32.82000     -2.1234374E-08
   32.88000     -2.0065816E-08
   32.94000     -1.8851456E-08
   33.00000     -1.7577760E-08
   33.06000     -1.6249839E-08
   33.12000     -1.4893882E-08
   33.18000     -1.3551771E-08
   33.24000     -1.2269561E-08
   33.30000     -1.1083982E-08
   33.36000     -1.0011962E-08
   33.42000     -9.0469161E-09
   33.48000     -8.1626634E-09
   33.54000     -7.3229374E-09
   33.60000     -6.4925758E-09
   33.66000     -5.6466027E-09
   33.72000     -4.7750217E-09
   33.78000     -3.8832249E-09
   33.84000     -2.9893177E-09
   33.90000     -2.1198172E-09
   33.96000     -1.3045015E-09
   34.02000     -5.7054350E-10
   34.08000      6.3772675E-11
   34.14000      5.9447497E-10
   34.20000      1.0342057E-09
   34.26000      1.4092547E-09
   34.32000      1.7508797E-09
   34.38000      2.0832254E-09
   34.44000      2.4124207E-09
   34.50000      2.7216984E-09
   34.56000      2.9750524E-09
   34.62000      3.1279939E-09
   34.68000      3.1404792E-09
   34.74000      2.9860581E-09
   34.80000      2.6534599E-09
   34.86000      2.1410123E-09
   34.92000      1.4480847E-09
   34.98000      5.6895733E-10
   35.04000     -5.0753068E-10
   35.10000     -1.7931562E-09
   35.16000     -3.2942413E-09
   35.22000     -5.0088702E-09
   35.28000     -6.9294575E-09
   35.34000     -9.0488710E-09
   35.40000     -1.1365649E-08
   35.46000     -1.3884223E-08
   35.52000     -1.6609269E-08
   35.58000     -1.9537250E-08
   35.64000     -2.2650243E-08
   35.70000     -2.5915828E-08
   35.76000     -2.9292890E-08
   35.82000     -3.2739216E-08
   35.88000     -3.6215518E-08
   35.94000     -3.9682902E-08
   36.00000     -4.3095405E-08
   36.06000     -4.6393314E-08
   36.12000     -4.9503321E-08
   36.18000     -5.2348106E-08
   36.24000     -5.4862184E-08
   36.30000     -5.7006506E-08
   36.36000     -5.8774162E-08
   36.42000     -6.0183744E-08
   36.48000     -6.1263606E-08
   36.54000     -6.2035120E-08
   36.60000     -6.2503688E-08
   36.66000     -6.2661762E-08
   36.72000     -6.2501378E-08
   36.78000     -6.2028704E-08
   36.84000     -6.1272026E-08
   36.90000     -6.0278715E-08
   36.96000     -5.9103044E-08
   37.02000     -5.7791681E-08
   37.08000     -5.6374432E-08
   37.14000     -5.4864472E-08
   37.20000     -5.3266461E-08
   37.26000     -5.1587030E-08
   37.32000     -4.9841393E-08
   37.38000     -4.8053273E-08
   37.44000     -4.6249760E-08
   37.50000     -4.4455547E-08
   37.56000     -4.2690523E-08
   37.62000     -4.0971209E-08
   37.68000     -3.9313278E-08
   37.74000     -3.7731230E-08
   37.80000     -3.6233672E-08
   37.86000     -3.4816736E-08
   37.92000     -3.3460786E-08
   37.98000     -3.2134825E-08
   38.04000     -3.0808430E-08
   38.10000     -2.9465760E-08
   38.16000     -2.8113497E-08
   38.22000     -2.6776824E-08
   38.28000     -2.5483839E-08
   38.34000     -2.4245596E-08
   38.40000     -2.3042100E-08
   38.46000     -2.1822004E-08
   38.52000     -2.0516763E-08
   38.58000     -1.9062535E-08
   38.64000     -1.7419602E-08
   38.70000     -1.5581165E-08
   38.76000     -1.3569658E-08
   38.82000     -1.1425119E-08
   38.88000     -9.1930605E-09
   38.94000     -6.9173365E-09
   39.00000     -4.6386370E-09
   39.06000     -2.3950653E-09
   39.12000     -2.2049289E-10
   39.18000      1.8606388E-09
   39.24000      3.8392156E-09
   39.30000      5.7230083E-09
   39.36000      7.5305868E-09
   39.42000      9.2790264E-09
   39.48000      1.0971454E-08
   39.54000      1.2591697E-08
   39.60000      1.4109933E-08
   39.66000      1.5496960E-08
   39.72000      1.6739369E-08
   39.78000      1.7846784E-08
   39.84000      1.8846437E-08
   39.90000      1.9767493E-08
   39.96000      2.0623345E-08
   40.02000      2.1401556E-08
   40.08000      2.2066784E-08
   40.14000      2.2574822E-08
   40.20000      2.2889820E-08
   40.26000      2.2995300E-08
   40.32000      2.2893559E-08
   40.38000      2.2594985E-08
   40.44000      2.2104514E-08
   40.50000      2.1413674E-08
   40.56000      2.0502821E-08
   40.62000      1.9351779E-08
   40.68000      1.7952106E-08
   40.74000      1.6313503E-08
   40.80000      1.4460735E-08
   40.86000      1.2423234E-08
   40.92000      1.0223835E-08
   40.98000      7.8730649E-09
   41.04000      5.3716516E-09
   41.10000      2.7187206E-09
   41.16000     -8.0074912E-11
   41.22000     -3.0096123E-09
   41.28000     -6.0488929E-09
   41.34000     -9.1781374E-09
   41.40000     -1.2384287E-08
   41.46000     -1.5661277E-08
   41.52000     -1.9005228E-08
   41.58000     -2.2408303E-08
   41.64000     -2.5855686E-08
   41.70000     -2.9327806E-08
   41.76000     -3.2805808E-08
   41.82000     -3.6275544E-08
   41.88000     -3.9725922E-08
   41.94000     -4.3141089E-08
   42.00000     -4.6490708E-08
   42.06000     -4.9724985E-08
   42.12000     -5.2779548E-08
   42.18000     -5.5590075E-08
   42.24000     -5.8110857E-08
   42.30000     -6.0328169E-08
   42.36000     -6.2261449E-08
   42.42000     -6.3950715E-08
   42.48000     -6.5435941E-08
   42.54000     -6.6737826E-08
   42.60000     -6.7848767E-08
   42.66000     -6.8737315E-08
   42.72000     -6.9362891E-08
   42.78000     -6.9692895E-08
   42.84000     -6.9714339E-08
   42.90000     -6.9435920E-08
   42.96000     -6.8881882E-08
   43.02000     -6.8082436E-08
   43.08000     -6.7065898E-08
   43.14000     -6.5855154E-08
   43.20000     -6.4467898E-08
   43.26000     -6.2918453E-08
   43.32000     -6.1219339E-08
   43.38000     -5.9383098E-08
   43.44000     -5.7425734E-08
   43.50000     -5.5372468E-08
   43.56000     -5.3264198E-08
   43.62000     -5.1160352E-08
   43.68000     -4.9133998E-08
   43.74000     -4.7257718E-08
   43.80000     -4.5583761E-08
   43.86000     -4.4126132E-08
   43.92000     -4.2852900E-08
   43.98000     -4.1693490E-08
   44.04000     -4.0559417E-08
   44.10000     -3.9370761E-08
   44.16000     -3.8078376E-08
   44.22000     -3.6673867E-08
   44.28000     -3.5185288E-08
   44.34000     -3.3662335E-08
   44.40000     -3.2158574E-08
   44.46000     -3.0717530E-08
   44.52000     -2.9366076E-08
   44.58000     -2.8114385E-08
   44.64000     -2.6959404E-08
   44.70000     -2.5889065E-08
   44.76000     -2.4886370E-08
   44.82000     -2.3933978E-08
   44.88000     -2.3019862E-08
   44.94000     -2.2142851E-08
   45.00000     -2.1315170E-08
   45.06000     -2.0559183E-08
   45.12000     -1.9898078E-08
   45.18000     -1.9343975E-08
   45.24000     -1.8889537E-08
   45.30000     -1.8508493E-08
   45.36000     -1.8166407E-08
   45.42000     -1.7837388E-08
   45.48000     -1.7518516E-08
   45.54000     -1.7234031E-08
   45.60000     -1.7025933E-08
   45.66000     -1.6934381E-08
   45.72000     -1.6976568E-08
   45.78000     -1.7133535E-08
   45.84000     -1.7350661E-08
   45.90000     -1.7550997E-08
   45.96000     -1.7655180E-08
   46.02000     -1.7599785E-08
   46.08000     -1.7348279E-08
   46.14000     -1.6893406E-08
   46.20000     -1.6253646E-08
   46.26000     -1.5467727E-08
   46.32000     -1.4589420E-08
   46.38000     -1.3682259E-08
   46.44000     -1.2812625E-08
   46.50000     -1.2040814E-08
   46.56000     -1.1412430E-08
   46.62000     -1.0954487E-08
   46.68000     -1.0679662E-08
   46.74000     -1.0598375E-08
   46.80000     -1.0733481E-08
   46.86000     -1.1129766E-08
   46.92000     -1.1852134E-08
   46.98000     -1.2972060E-08
   47.04000     -1.4548619E-08
   47.10000     -1.6614282E-08
   47.16000     -1.9174184E-08
   47.22000     -2.2221187E-08
   47.28000     -2.5761125E-08
   47.34000     -2.9837462E-08
   47.40000     -3.4544989E-08
   47.46000     -4.0027924E-08
   47.52000     -4.6465630E-08
   47.58000     -5.4054855E-08
   47.64000     -6.2998289E-08
   47.70000     -7.3504850E-08
   47.76000     -8.5800913E-08
   47.82000     -1.0014674E-07
   47.88000     -1.1685149E-07
   47.94000     -1.3628349E-07
   48.00000     -1.5887710E-07
   48.06000     -1.8514072E-07
   48.12000     -2.1567006E-07
   48.18000     -2.5116671E-07
   48.24000     -2.9245868E-07
   48.30000     -3.4051618E-07
   48.36000     -3.9645997E-07
   48.42000     -4.6156237E-07
   48.48000     -5.3724818E-07
   48.54000     -6.2510264E-07
   48.60000     -7.2689107E-07
   48.66000     -8.4458810E-07
   48.72000     -9.8041085E-07
   48.78000     -1.1368465E-06
   48.84000     -1.3166730E-06
   48.90000     -1.5229731E-06
   48.96000     -1.7591518E-06
   49.02000     -2.0289649E-06
   49.08000     -2.3365565E-06
   49.14000     -2.6865080E-06
   49.20000     -3.0838769E-06
   49.26000     -3.5342309E-06
   49.32000     -4.0436662E-06
   49.38000     -4.6188184E-06
   49.44000     -5.2668806E-06
   49.50000     -5.9956224E-06
   49.56000     -6.8134241E-06
   49.62000     -7.7293089E-06
   49.68000     -8.7529734E-06
   49.74000     -9.8948049E-06
   49.80000     -1.1165890E-05
   49.86000     -1.2578011E-05
   49.92000     -1.4143641E-05
   49.98000     -1.5875938E-05
   50.04000     -1.7788723E-05
   50.10000     -1.9896479E-05
   50.16000     -2.2214304E-05
   50.22000     -2.4757874E-05
   50.28000     -2.7543392E-05
   50.34000     -3.0587529E-05
   50.40000     -3.3907345E-05
   50.46000     -3.7520233E-05
   50.52000     -4.1443836E-05
   50.58000     -4.5695953E-05
   50.64000     -5.0294435E-05
   50.70000     -5.5257056E-05
   50.76000     -6.0601371E-05
   50.82000     -6.6344568E-05
   50.88000     -7.2503288E-05
   50.94000     -7.9093465E-05
   51.00000     -8.6130167E-05
   51.06000     -9.3627466E-05
   51.12000     -1.0159826E-04
   51.18000     -1.1005402E-04
   51.24000     -1.1900476E-04
   51.30000     -1.2845872E-04
   51.36000     -1.3842221E-04
   51.42000     -1.4889949E-04
   51.48000     -1.5989256E-04
   51.54000     -1.7140109E-04
   51.60000     -1.8342223E-04
   51.66000     -1.9595052E-04
   51.72000     -2.0897774E-04
   51.78000     -2.2249283E-04
   51.84000     -2.3648192E-04
   51.90000     -2.5092813E-04
   51.96000     -2.6581166E-04
   52.02000     -2.8110985E-04
   52.08000     -2.9679717E-04
   52.14000     -3.1284528E-04
   52.20000     -3.2922326E-04
   52.26000     -3.4589766E-04
   52.32000     -3.6283268E-04
   52.38000     -3.7999038E-04
   52.44000     -3.9733091E-04
   52.50000     -4.1481291E-04
   52.56000     -4.3239369E-04
   52.62000     -4.5002945E-04
   52.68000     -4.6767571E-04
   52.74000     -4.8528766E-04
   52.80000     -5.0282042E-04
   52.86000     -5.2022975E-04
   52.92000     -5.3747202E-04
   52.98000     -5.5450515E-04
   53.04000     -5.7128846E-04
   53.10000     -5.8778346E-04
   53.16000     -6.0395396E-04
   53.22000     -6.1976648E-04
   53.28000     -6.3519081E-04
   53.34000     -6.5019983E-04
   53.40000     -6.6477008E-04
   53.46000     -6.7888229E-04
   53.52000     -6.9252111E-04
   53.58000     -7.0567563E-04
   53.64000     -7.1833935E-04
   53.70000     -7.3051028E-04
   53.76000     -7.4219104E-04
   53.82000     -7.5338886E-04
   53.88000     -7.6411502E-04
   53.94000     -7.7438541E-04
   54.00000     -7.8421988E-04
   54.06000     -7.9364236E-04
   54.12000     -8.0268033E-04
   54.18000     -8.1136462E-04
   54.24000     -8.1972935E-04
   54.30000     -8.2781125E-04
   54.36000     -8.3564920E-04
   54.42000     -8.4328401E-04
   54.48000     -8.5075735E-04
   54.54000     -8.5811171E-04
   54.60000     -8.6538988E-04
   54.66000     -8.7263447E-04
   54.72000     -8.7988743E-04
   54.78000     -8.8718982E-04
   54.84000     -8.9458085E-04
   54.90000     -9.0209721E-04
   54.96000     -9.0977299E-04
   55.02000     -9.1763900E-04
   55.08000     -9.2572276E-04
   55.14000     -9.3404821E-04
   55.20000     -9.4263518E-04
   55.26000     -9.5149898E-04
   55.32000     -9.6065050E-04
   55.38000     -9.7009545E-04
   55.44000     -9.7983493E-04
   55.50000     -9.8986470E-04
   55.56000     -1.0001763E-03