  -2.400000      0.0000000E+00
  -2.340000      0.0000000E+00
  -2.280000      0.0000000E+00
  -2.220000      0.0000000E+00
  -2.160000      0.0000000E+00
  -2.100000      0.0000000E+00
  -2.040000     -3.9237183E-21
  -1.980000     -1.9527930E-20
  -1.920000     -1.6407715E-21
  -1.860000      3.0575491E-19
  -1.800000      1.4493296E-18
  -1.740000      3.7238914E-18
  -1.680000      5.5659341E-18
  -1.620000      1.7616201E-18
  -1.560000     -1.5481529E-17
  -1.500000     -4.8986433E-17
  -1.440000     -8.3339552E-17
  -1.380000     -7.6198210E-17
  -1.320000      2.7604082E-17
  -1.260000      2.4695246E-16
  -1.200000      4.9621916E-16
  -1.140000      5.5396754E-16
  -1.080000      1.4369600E-16
  -1.020000     -8.4112807E-16
 -0.9600000     -2.0520686E-15
 -0.9000000     -2.5630177E-15
 -0.8400000     -1.1761028E-15
 -0.7800000      2.7437989E-15
 -0.7200000      8.1948888E-15
 -0.6600000      1.1950005E-14
 -0.6000000      9.3259937E-15
 -0.5400000     -3.2813715E-15
 -0.4800000     -2.4796580E-14
 -0.4200000     -4.6789422E-14
 -0.3600000     -5.4316008E-14
 -0.3000000     -3.1907833E-14
 -0.2400000      2.6361515E-14
 -0.1800000      1.0726243E-13
 -0.1200000      1.7594455E-13
 -5.9999999E-02  1.8601204E-13
  0.0000000E+00  1.0193205E-13
  5.9999999E-02 -7.4571432E-14
  0.1200000     -2.8888521E-13
  0.1800000     -4.4302840E-13
  0.2400000     -4.3495269E-13
  0.3000000     -2.1551731E-13
  0.3600000      1.6465888E-13
  0.4200000      5.5050018E-13
  0.4800000      7.3776293E-13
  0.5400000      5.7577988E-13
  0.6000000      7.1936306E-14
  0.6600000     -5.6418531E-13
  0.7200000     -9.8284900E-13
  0.7800000     -8.5898465E-13
  0.8400000     -9.3745825E-14
  0.9000000      1.0553119E-12
  0.9600000      2.0136841E-12
   1.020000      2.1263841E-12
   1.080000      1.0118740E-12
   1.140000     -1.1360570E-12
   1.200000     -3.4841750E-12
   1.260000     -4.8335507E-12
   1.320000     -4.1679108E-12
   1.380000     -1.2462940E-12
   1.440000      3.0683537E-12
   1.500000      6.9797241E-12
   1.560000      8.4475473E-12
   1.620000      6.1474519E-12
   1.680000      2.6659003E-13
   1.740000     -7.2908901E-12
   1.800000     -1.3483886E-11
   1.860000     -1.5330895E-11
   1.920000     -1.1227566E-11
   1.980000     -1.7753927E-12
   2.040000      1.0306337E-11
   2.100000      2.1197533E-11
   2.160000      2.7478542E-11
   2.220000      2.7407226E-11
   2.280000      2.1348720E-11
   2.340000      1.1154270E-11
   2.400000     -1.1538086E-12
   2.460000     -1.4620557E-11
   2.520000     -2.9721649E-11
   2.580000     -4.7467651E-11
   2.640000     -6.7551957E-11
   2.700000     -8.6471282E-11
   2.760000     -9.6777440E-11
   2.820000     -8.8285282E-11
   2.880000     -5.1262907E-11
   2.940000      1.9294523E-11
   3.000000      1.1983363E-10
   3.060000      2.3639735E-10
   3.120000      3.4567368E-10
   3.180000      4.1881498E-10
   3.240000      4.2691459E-10
   3.300000      3.4650197E-10
   3.360000      1.6355946E-10
   3.420000     -1.2472343E-10
   3.480000     -5.1031090E-10
   3.540000     -9.7593345E-10
   3.600000     -1.4968906E-09
   3.660000     -2.0423478E-09
   3.720000     -2.5761340E-09
   3.780000     -3.0576972E-09
   3.840000     -3.4441350E-09
   3.900000     -3.6939096E-09
   3.960000     -3.7721275E-09
   4.020000     -3.6563839E-09
   4.080000     -3.3415684E-09
   4.140000     -2.8419962E-09
   4.200000     -2.1898026E-09
   4.260000     -1.4296037E-09
   4.320000     -6.1057698E-10
   4.380000      2.2203411E-10
   4.440000      1.0337760E-09
   4.500000      1.8045018E-09
   4.560000      2.5279567E-09
   4.620000      3.2081389E-09
   4.680000      3.8541721E-09
   4.740000      4.4757695E-09
   4.800000      5.0809046E-09
   4.860000      5.6761547E-09
   4.920000      6.2688907E-09
   4.980000      6.8695463E-09
   5.040000      7.4921482E-09
   5.100000      8.1521128E-09
   5.160000      8.8617833E-09
   5.220000      9.6254622E-09
   5.280000      1.0436334E-08
   5.340000      1.1277042E-08
   5.400000      1.2124152E-08
   5.460000      1.2954946E-08
   5.520000      1.3753662E-08
   5.580000      1.4514468E-08
   5.640000      1.5239726E-08
   5.700000      1.5934456E-08
   5.760000      1.6599760E-08
   5.820000      1.7228695E-08
   5.880000      1.7807153E-08
   5.940000      1.8319882E-08
   6.000000      1.8759268E-08
   6.060000      1.9132765E-08
   6.120000      1.9465134E-08
   6.180000      1.9793506E-08
   6.240000      2.0156540E-08
   6.300000      2.0581364E-08
   6.360000      2.1073310E-08
   6.420000      2.1612395E-08
   6.480000      2.2157929E-08
   6.540000      2.2659615E-08
   6.600000      2.3071141E-08
   6.660000      2.3361757E-08
   6.720000      2.3522469E-08
   6.780000      2.3565823E-08
   6.840000      2.3520558E-08
   6.900000      2.3423860E-08
   6.960000      2.3313985E-08
   7.020000      2.3225137E-08
   7.080000      2.3184969E-08
   7.140000      2.3214017E-08
   7.200000      2.3325967E-08
   7.260000      2.3527864E-08
   7.320000      2.3820133E-08
   7.380000      2.4196753E-08
   7.440000      2.4646177E-08
   7.500000      2.5153319E-08
   7.560000      2.5702480E-08
   7.620000      2.6280579E-08
   7.680000      2.6879917E-08
   7.740000      2.7499652E-08
   7.800000      2.8145466E-08
   7.860000      2.8827273E-08
   7.920000      2.9555324E-08
   7.980000      3.0335517E-08
   8.040000      3.1165214E-08
   8.100000      3.2031046E-08
   8.160000      3.2909938E-08
   8.220000      3.3773617E-08
   8.280000      3.4595786E-08
   8.340000      3.5359605E-08
   8.400000      3.6062747E-08
   8.460000      3.6717740E-08
   8.520000      3.7346972E-08
   8.580000      3.7973951E-08
   8.640000      3.8614125E-08
   8.700000      3.9268794E-08
   8.760000      3.9924345E-08
   8.820000      4.0556344E-08
   8.880000      4.1135927E-08
   8.940000      4.1634696E-08
   9.000000      4.2025732E-08
   9.060000      4.2280600E-08
   9.120000      4.2365134E-08
   9.180000      4.2237808E-08
   9.240000      4.1853472E-08
   9.300000      4.1172367E-08
   9.360000      4.0171056E-08
   9.420000      3.8850313E-08
   9.480000      3.7235861E-08
   9.540000      3.5371070E-08
   9.600000      3.3304485E-08
   9.660000      3.1077548E-08
   9.720000      2.8717658E-08
   9.780000      2.6238945E-08
   9.840000      2.3649346E-08
   9.900000      2.0959515E-08
   9.960000      1.8188709E-08
   10.02000      1.5364840E-08
   10.08000      1.2519337E-08
   10.14000      9.6803765E-09
   10.20000      6.8687540E-09
   10.26000      4.0989487E-09
   10.32000      1.3847599E-09
   10.38000     -1.2540080E-09
   10.44000     -3.7882226E-09
   10.50000     -6.1823093E-09
   10.56000     -8.4029281E-09
   10.62000     -1.0429816E-08
   10.68000     -1.2263621E-08
   10.74000     -1.3926656E-08
   10.80000     -1.5455585E-08
   10.86000     -1.6888677E-08
   10.92000     -1.8252702E-08
   10.98000     -1.9554461E-08
   11.04000     -2.0779808E-08
   11.10000     -2.1899595E-08
   11.16000     -2.2879338E-08
   11.22000     -2.3688401E-08
   11.28000     -2.4305722E-08
   11.34000     -2.4721286E-08
   11.40000     -2.4934776E-08
   11.46000     -2.4953604E-08
   11.52000     -2.4791868E-08
   11.58000     -2.4470285E-08
   11.64000     -2.4015756E-08
   11.70000     -2.3459183E-08
   11.76000     -2.2831106E-08
   11.82000     -2.2156309E-08
   11.88000     -2.1449589E-08
   11.94000     -2.0714674E-08
   12.00000     -1.9946928E-08
   12.06000     -1.9138719E-08
   12.12000     -1.8285231E-08
   12.18000     -1.7388507E-08
   12.24000     -1.6458769E-08
   12.30000     -1.5513407E-08
   12.36000     -1.4574958E-08
   12.42000     -1.3669097E-08
   12.48000     -1.2822843E-08
   12.54000     -1.2062265E-08
   12.60000     -1.1409043E-08
   12.66000     -1.0876208E-08
   12.72000     -1.0464608E-08
   12.78000     -1.0162204E-08
   12.84000     -9.9474429E-09
   12.90000     -9.7959374E-09
   12.96000     -9.6876782E-09
   13.02000     -9.6112549E-09
   13.08000     -9.5628678E-09
   13.14000     -9.5407486E-09
   13.20000     -9.5384172E-09
   13.26000     -9.5412727E-09
   13.32000     -9.5294856E-09
   13.38000     -9.4865991E-09
   13.44000     -9.4096571E-09
   13.50000     -9.3150732E-09
   13.56000     -9.2360057E-09
   13.62000     -9.2110843E-09
   13.68000     -9.2688097E-09
   13.74000     -9.4145340E-09
   13.80000     -9.6260173E-09
   13.86000     -9.8597299E-09
   13.92000     -1.0065103E-08
   13.98000     -1.0200479E-08
   14.04000     -1.0244108E-08
   14.10000     -1.0196356E-08
   14.16000     -1.0073573E-08
   14.22000     -9.8977804E-09
   14.28000     -9.6875468E-09
   14.34000     -9.4538191E-09
   14.40000     -9.2012122E-09
   14.46000     -8.9321208E-09
   14.52000     -8.6497254E-09
   14.58000     -8.3571257E-09
   14.64000     -8.0526563E-09
   14.70000     -7.7242968E-09
   14.76000     -7.3473663E-09
   14.82000     -6.8885040E-09
   14.88000     -6.3158208E-09
   14.94000     -5.6116529E-09
   15.00000     -4.7823572E-09
   15.06000     -3.8602943E-09
   15.12000     -2.8963860E-09
   15.18000     -1.9459010E-09
   15.24000     -1.0533078E-09
   15.30000     -2.4253424E-10
   15.36000      4.8357213E-10
   15.42000      1.1351118E-09
   15.48000      1.7227964E-09
   15.54000      2.2475262E-09
   15.60000      2.6966176E-09
   15.66000      3.0478657E-09
   15.72000      3.2788094E-09
   15.78000      3.3764089E-09
   15.84000      3.3427152E-09
   15.90000      3.1945526E-09
   15.96000      2.9582485E-09
   16.02000      2.6624423E-09
   16.08000      2.3322015E-09
   16.14000      1.9863002E-09
   16.20000      1.6376203E-09
   16.26000      1.2952882E-09
   16.32000      9.6689035E-10
   16.38000      6.5975148E-10
   16.44000      3.8119510E-10
   16.50000      1.3830187E-10
   16.56000     -6.2238652E-11
   16.62000     -2.1390825E-10
   16.68000     -3.0984523E-10
   16.74000     -3.4230754E-10
   16.80000     -3.0239883E-10
   16.86000     -1.8032270E-10
   16.92000      3.3597115E-11
   16.98000      3.4697784E-10
   17.04000      7.6264639E-10
   17.10000      1.2757235E-09
   17.16000      1.8716044E-09
   17.22000      2.5260378E-09
   17.28000      3.2080296E-09
   17.34000      3.8852561E-09
   17.40000      4.5305120E-09
   17.46000      5.1269988E-09
   17.52000      5.6704348E-09
   17.58000      6.1670300E-09
   17.64000      6.6279706E-09
   17.70000      7.0623933E-09
   17.76000      7.4714253E-09
   17.82000      7.8454114E-09
   17.88000      8.1651956E-09
   17.94000      8.4068326E-09
   18.00000      8.5480192E-09
   18.06000      8.5741707E-09
   18.12000      8.4825551E-09
   18.18000      8.2838856E-09
   18.24000      8.0017486E-09
   18.30000      7.6708044E-09
   18.36000      7.3346311E-09
   18.42000      7.0434987E-09
   18.48000      6.8516397E-09
   18.54000      6.8132313E-09
   18.60000      6.9765997E-09
   18.66000      7.3771425E-09
   18.72000      8.0306171E-09
   18.78000      8.9292174E-09
   18.84000      1.0042587E-08
   18.90000      1.1324474E-08
   18.96000      1.2723542E-08
   19.02000      1.4194913E-08
   19.08000      1.5708181E-08
   19.14000      1.7248750E-08
   19.20000      1.8811900E-08
   19.26000      2.0392205E-08
   19.32000      2.1973138E-08
   19.38000      2.3521849E-08
   19.44000      2.4991978E-08
   19.50000      2.6333625E-08
   19.56000      2.7506163E-08
   19.62000      2.8487991E-08
   19.68000      2.9278477E-08
   19.74000      2.9890888E-08
   19.80000      3.0339390E-08
   19.86000      3.0626172E-08
   19.92000      3.0735016E-08
   19.98000      3.0634851E-08
   20.04000      3.0292373E-08
   20.10000      2.9688580E-08
   20.16000      2.8832364E-08
   20.22000      2.7765324E-08
   20.28000      2.6555986E-08
   20.34000      2.5285962E-08
   20.40000      2.4033765E-08
   20.46000      2.2862345E-08
   20.52000      2.1814062E-08
   20.58000      2.0913033E-08
   20.64000      2.0171491E-08
   20.70000      1.9595502E-08
   20.76000      1.9186752E-08
   20.82000      1.8939986E-08
   20.88000      1.8838637E-08
   20.94000      1.8852466E-08
   21.00000      1.8940080E-08
   21.06000      1.9056445E-08
   21.12000      1.9162684E-08
   21.18000      1.9233807E-08
   21.24000      1.9260961E-08
   21.30000      1.9247313E-08
   21.36000      1.9199947E-08
   21.42000      1.9121984E-08
   21.48000      1.9008915E-08
   21.54000      1.8850699E-08
   21.60000      1.8638101E-08
   21.66000      1.8369473E-08
   21.72000      1.8054090E-08
   21.78000      1.7710006E-08
   21.84000      1.7357452E-08
   21.90000      1.7011082E-08
   21.96000      1.6675040E-08
   22.02000      1.6343426E-08
   22.08000      1.6006227E-08
   22.14000      1.5658239E-08
   22.20000      1.5307267E-08
   22.26000      1.4978143E-08
   22.32000      1.4710684E-08
   22.38000      1.4551752E-08
   22.44000      1.4543498E-08
   22.50000      1.4711066E-08
   22.56000      1.5053431E-08
   22.62000      1.5540449E-08
   22.68000      1.6117777E-08
   22.74000      1.6718953E-08
   22.80000      1.7281462E-08
   22.86000      1.7761629E-08
   22.92000      1.8142849E-08
   22.98000      1.8433635E-08
   23.04000      1.8655681E-08
   23.10000      1.8826482E-08
   23.16000      1.8943862E-08
   23.22000      1.8979545E-08
   23.28000      1.8885391E-08
   23.34000      1.8610358E-08
   23.40000      1.8121153E-08
   23.46000      1.7417598E-08
   23.52000      1.6535678E-08
   23.58000      1.5536894E-08
   23.64000      1.4488774E-08
   23.70000      1.3445460E-08
   23.76000      1.2437123E-08
   23.82000      1.1472361E-08
   23.88000      1.0551279E-08
   23.94000      9.6816049E-09
   24.00000      8.8888630E-09
   24.06000      8.2149576E-09
   24.12000      7.7057818E-09
   24.18000      7.3944237E-09
   24.24000      7.2890529E-09
   24.30000      7.3722117E-09
   24.36000      7.6122308E-09
   24.42000      7.9809341E-09
   24.48000      8.4682403E-09
   24.54000      9.0856123E-09
   24.60000      9.8560040E-09
   24.66000      1.0795040E-08
   24.72000      1.1892961E-08
   24.78000      1.3106722E-08
   24.84000      1.4366685E-08
   24.90000      1.5595006E-08
   24.96000      1.6726986E-08
   25.02000      1.7725288E-08
   25.08000      1.8580771E-08
   25.14000      1.9300515E-08
   25.20000      1.9890123E-08
   25.26000      2.0339845E-08
   25.32000      2.0621735E-08
   25.38000      2.0699021E-08
   25.44000      2.0542533E-08
   25.50000      2.0145652E-08
   25.56000      1.9530297E-08
   25.62000      1.8741186E-08
   25.68000      1.7831360E-08
   25.74000      1.6845716E-08
   25.80000      1.5809542E-08
   25.86000      1.4725988E-08
   25.92000      1.3582099E-08
   25.98000      1.2359632E-08
   26.04000      1.1045846E-08
   26.10000      9.6406438E-09
   26.16000      8.1587688E-09
   26.22000      6.6276571E-09
   26.28000      5.0824842E-09
   26.34000      3.5599312E-09
   26.40000      2.0919950E-09
   26.46000      7.0117234E-10
   26.52000     -6.0153782E-10
   26.58000     -1.8148054E-09
   26.64000     -2.9415825E-09
   26.70000     -3.9823154E-09
   26.76000     -4.9302638E-09
   26.82000     -5.7720975E-09
   26.88000     -6.4945604E-09
   26.94000     -7.0944113E-09
   27.00000     -7.5861841E-09
   27.06000     -8.0022442E-09
   27.12000     -8.3829406E-09
   27.18000     -8.7598737E-09
   27.24000     -9.1398151E-09
   27.30000     -9.4977608E-09
   27.36000     -9.7840633E-09
   27.42000     -9.9438564E-09
   27.48000     -9.9404494E-09
   27.54000     -9.7715978E-09
   27.60000     -9.4703569E-09
   27.66000     -9.0894954E-09
   27.72000     -8.6766665E-09
   27.78000     -8.2523659E-09
   27.84000     -7.8015958E-09
   27.90000     -7.2833597E-09
   27.96000     -6.6532153E-09
   28.02000     -5.8875140E-09
   28.08000     -4.9972209E-09
   28.14000     -4.0246566E-09
   28.20000     -3.0252849E-09
   28.26000     -2.0442028E-09
   28.32000     -1.0994256E-09
   28.38000     -1.8017536E-10
   28.44000      7.3959605E-10
   28.50000      1.6801033E-09
   28.56000      2.6383737E-09
   28.62000      3.5837433E-09
   28.68000      4.4684532E-09
   28.74000      5.2478573E-09
   28.80000      5.9000631E-09
   28.86000      6.4353984E-09
   28.92000      6.8913817E-09
   28.98000      7.3159758E-09
   29.04000      7.7473015E-09
   29.10000      8.1991782E-09
   29.16000      8.6586711E-09
   29.22000      9.0960119E-09
   29.28000      9.4817985E-09
   29.34000      9.8034771E-09
   29.40000      1.0073945E-08
   29.46000      1.0328800E-08
   29.52000      1.0613624E-08
   29.58000      1.0966711E-08
   29.64000      1.1404342E-08
   29.70000      1.1914564E-08
   29.76000      1.2462097E-08
   29.82000      1.3002558E-08
   29.88000      1.3500464E-08
   29.94000      1.3943740E-08
   30.00000      1.4348704E-08
   30.06000      1.4753165E-08
   30.12000      1.5200296E-08
   30.18000      1.5719811E-08
   30.24000      1.6314383E-08
   30.30000      1.6956925E-08
   30.36000      1.7599703E-08
   30.42000      1.8190995E-08
   30.48000      1.8691923E-08
   30.54000      1.9086446E-08
   30.60000      1.9381067E-08
   30.66000      1.9595806E-08
   30.72000      1.9751768E-08
   30.78000      1.9861560E-08
   30.84000      1.9926478E-08
   30.90000      1.9940449E-08
   30.96000      1.9897200E-08
   31.02000      1.9795920E-08
   31.08000      1.9642158E-08
   31.14000      1.9443775E-08
   31.20000      1.9204634E-08
   31.26000      1.8919957E-08
   31.32000      1.8576117E-08
   31.38000      1.8155296E-08
   31.44000      1.7642908E-08
   31.50000      1.7034438E-08
   31.56000      1.6338959E-08
   31.62000      1.5578223E-08
   31.68000      1.4782254E-08
   31.74000      1.3983509E-08
   31.80000      1.3211783E-08
   31.86000      1.2491142E-08
   31.92000      1.1839139E-08
   31.98000      1.1267790E-08
   32.04000      1.0785497E-08
   32.10000      1.0399066E-08
   32.16000      1.0115015E-08
   32.22000      9.9393205E-09
   32.28000      9.8749142E-09
   32.34000      9.9169242E-09
   32.40000      1.0046926E-08
   32.46000      1.0228726E-08
   32.52000      1.0408680E-08
   32.58000      1.0522427E-08
   32.64000      1.0507320E-08
   32.70000      1.0316745E-08
   32.76000      9.9307025E-09
   32.82000      9.3578434E-09
   32.88000      8.6277145E-09
   32.94000      7.7768467E-09
   33.00000      6.8358288E-09
   33.06000      5.8245146E-09
   33.12000      4.7584803E-09
   33.18000      3.6635444E-09
   33.24000      2.5900184E-09
   33.30000      1.6173366E-09
   33.36000      8.4393881E-10
   33.42000      3.6476885E-10
   33.48000      2.4558297E-10
   33.54000      5.0563176E-10
   33.60000      1.1165379E-09
   33.66000      2.0172224E-09
   33.72000      3.1366885E-09
   33.78000      4.4127977E-09
   33.84000      5.7978995E-09
   33.90000      7.2498416E-09
   33.96000      8.7152339E-09
   34.02000      1.0116284E-08
   34.08000      1.1350615E-08
   34.14000      1.2306353E-08
   34.20000      1.2886403E-08
   34.26000      1.3030776E-08
   34.32000      1.2726754E-08
   34.38000      1.2002868E-08
   34.44000      1.0910693E-08
   34.50000      9.5039008E-09
   34.56000      7.8243909E-09
   34.62000      5.9005902E-09
   34.68000      3.7562944E-09
   34.74000      1.4232788E-09
   34.80000     -1.0500546E-09
   34.86000     -3.5985206E-09
   34.92000     -6.1478569E-09
   34.98000     -8.6256611E-09
   35.04000     -1.0970104E-08
   35.10000     -1.3133381E-08
   35.16000     -1.5080539E-08
   35.22000     -1.6786780E-08
   35.28000     -1.8236161E-08
   35.34000     -1.9422080E-08
   35.40000     -2.0347230E-08
   35.46000     -2.1019884E-08
   35.52000     -2.1445576E-08
   35.58000     -2.1617041E-08
   35.64000     -2.1508360E-08
   35.70000     -2.1078904E-08
   35.76000     -2.0288347E-08
   35.82000     -1.9117691E-08
   35.88000     -1.7586586E-08
   35.94000     -1.5757347E-08
   36.00000     -1.3721777E-08
   36.06000     -1.1575586E-08
   36.12000     -9.3923038E-09
   36.18000     -7.2096826E-09
   36.24000     -5.0357292E-09
   36.30000     -2.8713434E-09
   36.36000     -7.3750639E-10
   36.42000      1.3078086E-09
   36.48000      3.1726703E-09
   36.54000      4.7533693E-09
   36.60000      5.9649441E-09
   36.66000      6.7651817E-09
   36.72000      7.1612511E-09
   36.78000      7.1977784E-09
   36.84000      6.9348576E-09
   36.90000      6.4287726E-09
   36.96000      5.7249907E-09
   37.02000      4.8644839E-09
   37.08000      3.8960497E-09
   37.14000      2.8838754E-09
   37.20000      1.9030824E-09
   37.26000      1.0239318E-09
   37.32000      2.9290867E-10
   37.38000     -2.7857261E-10
   37.44000     -7.1100337E-10
   37.50000     -1.0402765E-09
   37.56000     -1.2962986E-09
   37.62000     -1.4877153E-09
   37.68000     -1.6001990E-09
   37.74000     -1.6083048E-09
   37.80000     -1.4938454E-09
   37.86000     -1.2608586E-09
   37.92000     -9.3974384E-10
   37.98000     -5.7929023E-10
   38.04000     -2.3145369E-10
   38.10000      6.3414524E-11
   38.16000      2.8470734E-10
   38.22000      4.3132573E-10
   38.28000      5.1582677E-10
   38.34000      5.5764454E-10
   38.40000      5.7878058E-10
   38.46000      6.0218730E-10
   38.52000      6.5045042E-10
   38.58000      7.4217099E-10
   38.64000      8.8576402E-10
   38.70000      1.0735082E-09
   38.76000      1.2802343E-09
   38.82000      1.4695563E-09
   38.88000      1.6065314E-09
   38.94000      1.6714217E-09
   39.00000      1.6675233E-09
   39.06000      1.6183183E-09
   39.12000      1.5546050E-09
   39.18000      1.4978795E-09
   39.24000      1.4487784E-09
   39.30000      1.3871304E-09
   39.36000      1.2840768E-09
   39.42000      1.1200412E-09
   39.48000      8.9889279E-10
   39.54000      6.5052802E-10
   39.60000      4.2036452E-10
   39.66000      2.5146882E-10
   39.72000      1.6908726E-10
   39.78000      1.7585450E-10
   39.84000      2.5973992E-10
   39.90000      4.0939407E-10
   39.96000      6.2729605E-10
   40.02000      9.3248764E-10
   40.08000      1.3509488E-09
   40.14000      1.8991835E-09
   40.20000      2.5709042E-09
   40.26000      3.3352354E-09
   40.32000      4.1483390E-09
   40.38000      4.9724886E-09
   40.44000      5.7920029E-09
   40.50000      6.6167321E-09
   40.56000      7.4704483E-09
   40.62000      8.3697582E-09
   40.68000      9.3044843E-09
   40.74000      1.0229945E-08
   40.80000      1.1075514E-08
   40.86000      1.1765600E-08
   40.92000      1.2243171E-08
   40.98000      1.2485057E-08
   41.04000      1.2502747E-08
   41.10000      1.2329495E-08
   41.16000      1.2000682E-08
   41.22000      1.1536637E-08
   41.28000      1.0935003E-08
   41.34000      1.0174883E-08
   41.40000      9.2299421E-09
   41.46000      8.0845624E-09
   41.52000      6.7468515E-09
   41.58000      5.2541389E-09
   41.64000      3.6694110E-09
   41.70000      2.0698614E-09
   41.76000      5.3081883E-10
   41.82000     -8.9041724E-10
   41.88000     -2.1660369E-09
   41.94000     -3.3006182E-09
   42.00000     -4.3239958E-09
   42.06000     -5.2759801E-09
   42.12000     -6.1881185E-09
   42.18000     -7.0693877E-09
   42.24000     -7.9017228E-09
   42.30000     -8.6475653E-09
   42.36000     -9.2665546E-09
   42.42000     -9.7343120E-09
   42.48000     -1.0055039E-08
   42.54000     -1.0262257E-08
   42.60000     -1.0407347E-08
   42.66000     -1.0541197E-08
   42.72000     -1.0697502E-08
   42.78000     -1.0885352E-08
   42.84000     -1.1094112E-08
   42.90000     -1.1307455E-08
   42.96000     -1.1518816E-08
   43.02000     -1.1740045E-08
   43.08000     -1.1998674E-08
   43.14000     -1.2325384E-08
   43.20000     -1.2738473E-08
   43.26000     -1.3233678E-08
   43.32000     -1.3784748E-08
   43.38000     -1.4354343E-08
   43.44000     -1.4909434E-08
   43.50000     -1.5433292E-08
   43.56000     -1.5928624E-08
   43.62000     -1.6411553E-08
   43.68000     -1.6901211E-08
   43.74000     -1.7411478E-08
   43.80000     -1.7949217E-08
   43.86000     -1.8518760E-08
   43.92000     -1.9128347E-08
   43.98000     -1.9793298E-08
   44.04000     -2.0533193E-08
   44.10000     -2.1364610E-08
   44.16000     -2.2294012E-08
   44.22000     -2.3315357E-08
   44.28000     -2.4414000E-08
   44.34000     -2.5574503E-08
   44.40000     -2.6787653E-08
   44.46000     -2.8052707E-08
   44.52000     -2.9374139E-08
   44.58000     -3.0755526E-08
   44.64000     -3.2194752E-08
   44.70000     -3.3683399E-08
   44.76000     -3.5210238E-08
   44.82000     -3.6765922E-08
   44.88000     -3.8345576E-08
   44.94000     -3.9947626E-08
   45.00000     -4.1570146E-08
   45.06000     -4.3207653E-08
   45.12000     -4.4851042E-08
   45.18000     -4.6490758E-08
   45.24000     -4.8120519E-08
   45.30000     -4.9738123E-08
   45.36000     -5.1341061E-08
   45.42000     -5.2918558E-08
   45.48000     -5.4444492E-08
   45.54000     -5.5876658E-08
   45.60000     -5.7165039E-08
   45.66000     -5.8266870E-08
   45.72000     -5.9161906E-08
   45.78000     -5.9859730E-08
   45.84000     -6.0394427E-08
   45.90000     -6.0807899E-08
   45.96000     -6.1129533E-08
   46.02000     -6.1362243E-08
   46.08000     -6.1482169E-08
   46.14000     -6.1452390E-08
   46.20000     -6.1243014E-08
   46.26000     -6.0846801E-08
   46.32000     -6.0281380E-08
   46.38000     -5.9576578E-08
   46.44000     -5.8753496E-08
   46.50000     -5.7806599E-08
   46.56000     -5.6698152E-08
   46.62000     -5.5367227E-08
   46.68000     -5.3747058E-08
   46.74000     -5.1779843E-08
   46.80000     -4.9419320E-08
   46.86000     -4.6618528E-08
   46.92000     -4.3307999E-08
   46.98000     -3.9374878E-08
   47.04000     -3.4652206E-08
   47.10000     -2.8921809E-08
   47.16000     -2.1926494E-08
   47.22000     -1.3382419E-08
   47.28000     -2.9826237E-09
   47.34000      9.6123980E-09
   47.40000      2.4794764E-08
   47.46000      4.3033030E-08
   47.52000      6.4892689E-08
   47.58000      9.1049934E-08
   47.64000      1.2230078E-07
   47.70000      1.5957127E-07
   47.76000      2.0393466E-07
   47.82000      2.5663800E-07
   47.88000      3.1913535E-07
   47.94000      3.9312246E-07
   48.00000      4.8056791E-07
   48.06000      5.8374036E-07
   48.12000      7.0523674E-07
   48.18000      8.4801769E-07
   48.24000      1.0154573E-06
   48.30000      1.2114060E-06
   48.36000      1.4402615E-06
   48.42000      1.7070399E-06
   48.48000      2.0174409E-06
   48.54000      2.3779103E-06
   48.60000      2.7957039E-06
   48.66000      3.2789678E-06
   48.72000      3.8368348E-06
   48.78000      4.4795379E-06
   48.84000      5.2185333E-06
   48.90000      6.0666189E-06
   48.96000      7.0380433E-06
   49.02000      8.1486114E-06
   49.08000      9.4157822E-06
   49.14000      1.0858781E-05
   49.20000      1.2498714E-05
   49.26000      1.4358701E-05
   49.32000      1.6464010E-05
   49.38000      1.8842178E-05
   49.44000      2.1523150E-05
   49.50000      2.4539368E-05
   49.56000      2.7925884E-05
   49.62000      3.1720447E-05
   49.68000      3.5963600E-05
   49.74000      4.0698720E-05
   49.80000      4.5972087E-05
   49.86000      5.1832896E-05
   49.92000      5.8333248E-05
   49.98000      6.5528133E-05
   50.04000      7.3475363E-05
   50.10000      8.2235485E-05
   50.16000      9.1871691E-05
   50.22000      1.0244963E-04
   50.28000      1.1403726E-04
   50.34000      1.2670457E-04
   50.40000      1.4052331E-04
   50.46000      1.5556654E-04
   50.52000      1.7190837E-04
   50.58000      1.8962342E-04
   50.64000      2.0878643E-04
   50.70000      2.2947171E-04
   50.76000      2.5175264E-04
   50.82000      2.7570096E-04
   50.88000      3.0138620E-04
   50.94000      3.2887503E-04
   51.00000      3.5823032E-04
   51.06000      3.8951062E-04
   51.12000      4.2276914E-04
   51.18000      4.5805317E-04
   51.24000      4.9540307E-04
   51.30000      5.3485192E-04
   51.36000      5.7642430E-04
   51.42000      6.2013592E-04
   51.48000      6.6599261E-04
   51.54000      7.1398972E-04
   51.60000      7.6411164E-04
   51.66000      8.1633113E-04
   51.72000      8.7060878E-04
   51.78000      9.2689268E-04
   51.84000      9.8511821E-04
   51.90000      1.0452077E-03
   51.96000      1.1070706E-03
   52.02000      1.1706030E-03
   52.08000      1.2356887E-03
   52.14000      1.3021986E-03
   52.20000      1.3699920E-03
   52.26000      1.4389164E-03
   52.32000      1.5088092E-03
   52.38000      1.5794974E-03
   52.44000      1.6507992E-03
   52.50000      1.7225252E-03
   52.56000      1.7944797E-03
   52.62000      1.8664617E-03
   52.68000      1.9382663E-03
   52.74000      2.0096872E-03
   52.80000      2.0805174E-03
   52.86000      2.1505510E-03
   52.92000      2.2195850E-03
   52.98000      2.2874221E-03
   53.04000      2.3538696E-03
   53.10000      2.4187437E-03
   53.16000      2.4818701E-03
   53.22000      2.5430862E-03
   53.28000      2.6022426E-03
   53.34000      2.6592037E-03
   53.40000      2.7138495E-03
   53.46000      2.7660762E-03
   53.52000      2.8157982E-03
   53.58000      2.8629475E-03
   53.64000      2.9074764E-03
   53.70000      2.9493559E-03
   53.76000      2.9885767E-03
   53.82000      3.0251495E-03
   53.88000      3.0591034E-03
   53.94000      3.0904869E-03
   54.00000      3.1193662E-03
   54.06000      3.1458258E-03
   54.12000      3.1699657E-03
   54.18000      3.1919016E-03
   54.24000      3.2117630E-03
   54.30000      3.2296909E-03
   54.36000      3.2458364E-03
   54.42000      3.2603596E-03
   54.48000      3.2734270E-03
   54.54000      3.2852085E-03
   54.60000      3.2958775E-03
   54.66000      3.3056070E-03
   54.72000      3.3145698E-03
   54.78000      3.3229343E-03
   54.84000      3.3308628E-03
   54.90000      3.3385109E-03
   54.96000      3.3460234E-03
   55.02000      3.3535343E-03
   55.08000      3.3611653E-03
   55.14000      3.3690245E-03
   55.20000      3.3772043E-03
   55.26000      3.3857822E-03
   55.32000      3.3948189E-03
   55.38000      3.4043565E-03
   55.44000      3.4144213E-03
   55.50000      3.4250203E-03
   55.56000      3.4361435E-03