  -2.400000      0.0000000E+00
  -2.340000      0.0000000E+00
  -2.280000      0.0000000E+00
  -2.220000      0.0000000E+00
  -2.160000      0.0000000E+00
  -2.100000      0.0000000E+00
  -2.040000      0.0000000E+00
  -1.980000      0.0000000E+00
  -1.920000      0.0000000E+00
  -1.860000      0.0000000E+00
  -1.800000      2.5821334E-31
  -1.740000      1.2271361E-29
  -1.680000      1.5157071E-28
  -1.620000      1.0017788E-27
  -1.560000      4.2264667E-27
  -1.500000      1.1646342E-26
  -1.440000      1.6865068E-26
  -1.380000     -1.8200240E-26
  -1.320000     -1.9203799E-25
  -1.260000     -6.3032067E-25
  -1.200000     -1.2468073E-24
  -1.140000     -1.1901543E-24
  -1.080000      1.7434122E-24
  -1.020000      1.0607651E-23
 -0.9600000      2.5847728E-23
 -0.9000000      3.7978752E-23
 -0.8400000      2.0077766E-23
 -0.7800000     -6.8401902E-23
 -0.7200000     -2.5010518E-22
 -0.6600000     -4.6471112E-22
 -0.6000000     -5.0116164E-22
 -0.5400000     -1.1764661E-23
 -0.4800000      1.2818231E-21
 -0.4200000      3.1571971E-21
 -0.3600000      4.4255286E-21
 -0.3000000      2.9221692E-21
 -0.2400000     -3.4369148E-21
 -0.1800000     -1.4343543E-20
 -0.1200000     -2.4476308E-20
 -5.9999999E-02 -2.2957417E-20
  0.0000000E+00  2.1653543E-21
  5.9999999E-02  5.3322024E-20
  0.1200000      1.1054889E-19
  0.1800000      1.2641571E-19
  0.2400000      4.1587090E-20
  0.3000000     -1.7283271E-19
  0.3600000     -4.5874501E-19
  0.4200000     -6.3740584E-19
  0.4800000     -4.4922478E-19
  0.5400000      3.0153124E-19
  0.6000000      1.5279315E-18
  0.6600000      2.6857924E-18
  0.7200000      2.8210695E-18
  0.7800000      9.7771518E-19
  0.8400000     -3.0758058E-18
  0.9000000     -8.1234397E-18
  0.9600000     -1.1334583E-17
   1.020000     -9.1726215E-18
   1.080000      5.5283215E-19
   1.140000      1.6226250E-17
   1.200000      3.1078760E-17
   1.260000      3.4639799E-17
   1.320000      1.7717185E-17
   1.380000     -2.0439701E-17
   1.440000     -6.6508034E-17
   1.500000     -9.3850933E-17
   1.560000     -7.2927876E-17
   1.620000      1.0180308E-17
   1.680000      1.3512959E-16
   1.740000      2.4115367E-16
   1.800000      2.4457677E-16
   1.860000      8.1482849E-17
   1.920000     -2.3886271E-16
   1.980000     -5.9899772E-16
   2.040000     -7.8915275E-16
   2.100000     -5.9053814E-16
   2.160000      9.2095715E-17
   2.220000      1.1069007E-15
   2.280000      2.0215394E-15
   2.340000      2.2442348E-15
   2.400000      1.2990336E-15
   2.460000     -8.3878195E-16
   2.520000     -3.5198884E-15
   2.580000     -5.4925271E-15
   2.640000     -5.3544976E-15
   2.700000     -2.2842437E-15
   2.760000      3.2551131E-15
   2.820000      9.2533420E-15
   2.880000      1.2656991E-14
   2.940000      1.0652008E-14
   3.000000      2.2994408E-15
   3.060000     -1.0259204E-14
   3.120000     -2.1853587E-14
   3.180000     -2.6011542E-14
   3.240000     -1.7994136E-14
   3.300000      2.0774637E-15
   3.360000      2.7676427E-14
   3.420000      4.7260010E-14
   3.480000      4.8782057E-14
   3.540000      2.5880157E-14
   3.600000     -1.7059011E-14
   3.660000     -6.3989368E-14
   3.720000     -9.2151879E-14
   3.780000     -8.1950004E-14
   3.840000     -2.7952221E-14
   3.900000      5.4423764E-14
   3.960000      1.3119281E-13
   4.020000      1.6224000E-13
   4.080000      1.2012886E-13
   4.140000      7.2382286E-15
   4.200000     -1.3794798E-13
   4.260000     -2.5124258E-13
   4.320000     -2.6857271E-13
   4.380000     -1.5782350E-13
   4.440000      5.7852669E-14
   4.500000      2.9877373E-13
   4.560000      4.5495362E-13
   4.620000      4.3276727E-13
   4.680000      2.0345758E-13
   4.740000     -1.6976869E-13
   4.800000     -5.4341785E-13
   4.860000     -7.4598655E-13
   4.920000     -6.5334256E-13
   4.980000     -2.5537374E-13
   5.040000      3.1939829E-13
   5.100000      8.4019456E-13
   5.160000      1.0643934E-12
   5.220000      8.4815087E-13
   5.280000      2.2831227E-13
   5.340000     -5.6746594E-13
   5.400000     -1.1982273E-12
   5.460000     -1.3517696E-12
   5.520000     -8.9425787E-13
   5.580000      4.1617043E-14
   5.640000      1.0802454E-12
   5.700000      1.7437507E-12
   5.760000      1.6610256E-12
   5.820000      7.5763473E-13
   5.880000     -6.6451369E-13
   5.940000     -2.0107037E-12
   6.000000     -2.6253268E-12
   6.060000     -2.0871263E-12
   6.120000     -4.4189335E-13
   6.180000      1.7423476E-12
   6.240000      3.5483302E-12
   6.300000      4.0660062E-12
   6.360000      2.8001223E-12
   6.420000     -4.3381877E-14
   6.480000     -3.5334561E-12
   6.540000     -6.2973207E-12
   6.600000     -7.0289191E-12
   6.660000     -5.0346684E-12
   6.720000     -5.9277469E-13
   6.780000      5.0413883E-12
   6.840000      1.0018224E-11
   6.900000      1.2539915E-11
   6.960000      1.1524583E-11
   7.020000      7.0193421E-12
   7.080000      1.8263818E-13
   7.140000     -7.1698324E-12
   7.200000     -1.3272204E-11
   7.260000     -1.7062988E-11
   7.320000     -1.8486390E-11
   7.380000     -1.8281010E-11
   7.440000     -1.7324529E-11
   7.500000     -1.5824552E-11
   7.560000     -1.2761272E-11
   7.620000     -5.9332292E-12
   7.680000      7.2634134E-12
   7.740000      2.8503269E-11
   7.800000      5.7108630E-11
   7.860000      8.9120489E-11
   7.920000      1.1734920E-10
   7.980000      1.3258139E-10
   8.040000      1.2570719E-10
   8.100000      9.0173834E-11
   8.160000      2.4017449E-11
   8.220000     -6.9147674E-11
   8.280000     -1.8042795E-10
   8.340000     -2.9700187E-10
   8.400000     -4.0389825E-10
   8.460000     -4.8545101E-10
   8.520000     -5.2589333E-10
   8.580000     -5.0903176E-10
   8.640000     -4.1749140E-10
   8.700000     -2.3239262E-10
   8.760000      6.5679226E-11
   8.820000      4.9397281E-10
   8.880000      1.0634097E-09
   8.940000      1.7739619E-09
   9.000000      2.6109950E-09
   9.060000      3.5439316E-09
   9.120000      4.5279771E-09
   9.180000      5.5087148E-09
   9.240000      6.4284618E-09
   9.300000      7.2327451E-09
   9.360000      7.8753244E-09
   9.420000      8.3208649E-09
   9.480000      8.5453378E-09
   9.540000      8.5351131E-09
   9.600000      8.2861140E-09
   9.660000      7.8041218E-09
   9.720000      7.1064612E-09
   9.780000      6.2242620E-09
   9.840000      5.2036797E-09
   9.900000      4.1044208E-09
   9.960000      2.9946181E-09
   10.02000      1.9424575E-09
   10.08000      1.0063579E-09
   10.14000      2.2638962E-10
   10.20000     -3.8042147E-10
   10.26000     -8.1935075E-10
   10.32000     -1.1119704E-09
   10.38000     -1.2868434E-09
   10.44000     -1.3699786E-09
   10.50000     -1.3781005E-09
   10.56000     -1.3166396E-09
   10.62000     -1.1824978E-09
   10.68000     -9.6983344E-10
   10.74000     -6.7606448E-10
   10.80000     -3.0543848E-10
   10.86000      1.3118724E-10
   10.92000      6.1984068E-10
   10.98000      1.1480407E-09
   11.04000      1.7076797E-09
   11.10000      2.2940123E-09
   11.16000      2.9003644E-09
   11.22000      3.5103607E-09
   11.28000      4.0911075E-09
   11.34000      4.5910644E-09
   11.40000      4.9450377E-09
   11.46000      5.0861901E-09
   11.52000      4.9621680E-09
   11.58000      4.5504671E-09
   11.64000      3.8678980E-09
   11.70000      2.9706297E-09
   11.76000      1.9443194E-09
   11.82000      8.8711755E-10
   11.88000     -1.0935804E-10
   11.94000     -9.7553776E-10
   12.00000     -1.6719249E-09
   12.06000     -2.1886020E-09
   12.12000     -2.5382967E-09
   12.18000     -2.7471254E-09
   12.24000     -2.8472766E-09
   12.30000     -2.8741702E-09
   12.36000     -2.8678451E-09
   12.42000     -2.8757470E-09
   12.48000     -2.9529639E-09
   12.54000     -3.1568483E-09
   12.60000     -3.5355829E-09
   12.66000     -4.1135024E-09
   12.72000     -4.8783892E-09
   12.78000     -5.7763430E-09
   12.84000     -6.7178076E-09
   12.90000     -7.5945437E-09
   12.96000     -8.3032381E-09
   13.02000     -8.7686898E-09
   13.08000     -8.9592724E-09
   13.14000     -8.8899501E-09
   13.20000     -8.6124325E-09
   13.26000     -8.1965759E-09
   13.32000     -7.7100362E-09
   13.38000     -7.2032678E-09
   13.44000     -6.7043948E-09
   13.50000     -6.2241692E-09
   13.56000     -5.7671348E-09
   13.62000     -5.3427773E-09
   13.68000     -4.9708953E-09
   13.74000     -4.6783737E-09
   13.80000     -4.4886868E-09
   13.86000     -4.4090278E-09
   13.92000     -4.4213682E-09
   13.98000     -4.4824069E-09
   14.04000     -4.5337418E-09
   14.10000     -4.5192214E-09
   14.16000     -4.4031534E-09
   14.22000     -4.1822266E-09
   14.28000     -3.8861168E-09
   14.34000     -3.5659578E-09
   14.40000     -3.2745702E-09
   14.46000     -3.0456391E-09
   14.52000     -2.8795977E-09
   14.58000     -2.7415681E-09
   14.64000     -2.5722160E-09
   14.70000     -2.3075790E-09
   14.76000     -1.9006565E-09
   14.82000     -1.3370657E-09
   14.88000     -6.3950917E-10
   14.94000      1.3988589E-10
   15.00000      9.3581665E-10
   15.06000      1.6882362E-09
   15.12000      2.3563529E-09
   15.18000      2.9239569E-09
   15.24000      3.3956709E-09
   15.30000      3.7873771E-09
   15.36000      4.1160026E-09
   15.42000      4.3934154E-09
   15.48000      4.6266813E-09
   15.54000      4.8236126E-09
   15.60000      4.9998921E-09
   15.66000      5.1832307E-09
   15.72000      5.4113092E-09
   15.78000      5.7230682E-09
   15.84000      6.1459571E-09
   15.90000      6.6837815E-09
   15.96000      7.3098692E-09
   16.02000      7.9684970E-09
   16.08000      8.5845366E-09
   16.14000      9.0783709E-09
   16.20000      9.3813846E-09
   16.26000      9.4474242E-09
   16.32000      9.2574055E-09
   16.38000      8.8168992E-09
   16.44000      8.1490814E-09
   16.50000      7.2867277E-09
   16.56000      6.2666841E-09
   16.62000      5.1285514E-09
   16.68000      3.9170409E-09
   16.74000      2.6855453E-09
   16.80000      1.4977705E-09
   16.86000      4.2502438E-10
   16.92000     -4.6135670E-10
   16.98000     -1.1007599E-09
   17.04000     -1.4539515E-09
   17.10000     -1.5100503E-09
   17.16000     -1.2873314E-09
   17.22000     -8.2744078E-10
   17.28000     -1.8482228E-10
   17.34000      5.8532618E-10
   17.40000      1.4370055E-09
   17.46000      2.3387532E-09
   17.52000      3.2736822E-09
   17.58000      4.2354027E-09
   17.64000      5.2221747E-09
   17.70000      6.2317120E-09
   17.76000      7.2581545E-09
   17.82000      8.2913791E-09
   17.88000      9.3176498E-09
   17.94000      1.0320240E-08
   18.00000      1.1279037E-08
   18.06000      1.2169192E-08
   18.12000      1.2959867E-08
   18.18000      1.3614615E-08
   18.24000      1.4094623E-08
   18.30000      1.4364978E-08
   18.36000      1.4402877E-08
   18.42000      1.4205630E-08
   18.48000      1.3796053E-08
   18.54000      1.3223399E-08
   18.60000      1.2559163E-08
   18.66000      1.1888512E-08
   18.72000      1.1299200E-08
   18.78000      1.0870247E-08
   18.84000      1.0662523E-08
   18.90000      1.0712589E-08
   18.96000      1.1030358E-08
   19.02000      1.1600397E-08
   19.08000      1.2386262E-08
   19.14000      1.3337057E-08
   19.20000      1.4395261E-08
   19.26000      1.5504728E-08
   19.32000      1.6617626E-08
   19.38000      1.7699067E-08
   19.44000      1.8728629E-08
   19.50000      1.9698662E-08
   19.56000      2.0610303E-08
   19.62000      2.1468894E-08
   19.68000      2.2280613E-08
   19.74000      2.3051552E-08
   19.80000      2.3789227E-08
   19.86000      2.4505184E-08
   19.92000      2.5216668E-08
   19.98000      2.5945505E-08
   20.04000      2.6713691E-08
   20.10000      2.7536784E-08
   20.16000      2.8417578E-08
   20.22000      2.9342869E-08
   20.28000      3.0285133E-08
   20.34000      3.1208923E-08
   20.40000      3.2079878E-08
   20.46000      3.2872702E-08
   20.52000      3.3574665E-08
   20.58000      3.4182705E-08
   20.64000      3.4694537E-08
   20.70000      3.5096718E-08
   20.76000      3.5354155E-08
   20.82000      3.5405566E-08
   20.88000      3.5167865E-08
   20.94000      3.4549867E-08
   21.00000      3.3472574E-08
   21.06000      3.1891084E-08
   21.12000      2.9812021E-08
   21.18000      2.7301081E-08
   21.24000      2.4477856E-08
   21.30000      2.1498300E-08
   21.36000      1.8528960E-08
   21.42000      1.5719531E-08
   21.48000      1.3180994E-08
   21.54000      1.0975021E-08
   21.60000      9.1168841E-09
   21.66000      7.5898825E-09
   21.72000      6.3656120E-09
   21.78000      5.4227369E-09
   21.84000      4.7577133E-09
   21.90000      4.3840989E-09
   21.96000      4.3214521E-09
   22.02000      4.5787503E-09
   22.08000      5.1392695E-09
   22.14000      5.9532010E-09
   22.20000      6.9412245E-09
   22.26000      8.0079836E-09
   22.32000      9.0606731E-09
   22.38000      1.0026122E-08
   22.44000      1.0860552E-08
   22.50000      1.1549192E-08
   22.56000      1.2096899E-08
   22.62000      1.2514232E-08
   22.68000      1.2804882E-08
   22.74000      1.2959406E-08
   22.80000      1.2957466E-08
   22.86000      1.2777235E-08
   22.92000      1.2407943E-08
   22.98000      1.1860410E-08
   23.04000      1.1171410E-08
   23.10000      1.0400169E-08
   23.16000      9.6182262E-09
   23.22000      8.8962535E-09
   23.28000      8.2922158E-09
   23.34000      7.8444664E-09
   23.40000      7.5713524E-09
   23.46000      7.4764426E-09
   23.52000      7.5566371E-09
   23.58000      7.8097226E-09
   23.64000      8.2385450E-09
   23.70000      8.8505612E-09
   23.76000      9.6533652E-09
   23.82000      1.0648189E-08
   23.88000      1.1823894E-08
   23.94000      1.3153541E-08
   24.00000      1.4594516E-08
   24.06000      1.6091914E-08
   24.12000      1.7583956E-08
   24.18000      1.9007699E-08
   24.24000      2.0303602E-08
   24.30000      2.1418050E-08
   24.36000      2.2303803E-08
   24.42000      2.2919094E-08
   24.48000      2.3226471E-08
   24.54000      2.3192632E-08
   24.60000      2.2789918E-08
   24.66000      2.1999481E-08
   24.72000      2.0815202E-08
   24.78000      1.9246828E-08
   24.84000      1.7320792E-08
   24.90000      1.5077694E-08
   24.96000      1.2566684E-08
   25.02000      9.8381392E-09
   25.08000      6.9370074E-09
   25.14000      3.8990766E-09
   25.20000      7.5151896E-10
   25.26000     -2.4825197E-09
   25.32000     -5.7771494E-09
   25.38000     -9.0975769E-09
   25.44000     -1.2397249E-08
   25.50000     -1.5619799E-08
   25.56000     -1.8705565E-08
   25.62000     -2.1600775E-08
   25.68000     -2.4266651E-08
   25.74000     -2.6685791E-08
   25.80000     -2.8864264E-08
   25.86000     -3.0829224E-08
   25.92000     -3.2623124E-08
   25.98000     -3.4296168E-08
   26.04000     -3.5898704E-08
   26.10000     -3.7474798E-08
   26.16000     -3.9057657E-08
   26.22000     -4.0667253E-08
   26.28000     -4.2310084E-08
   26.34000     -4.3980812E-08
   26.40000     -4.5665097E-08
   26.46000     -4.7342674E-08
   26.52000     -4.8989662E-08
   26.58000     -5.0579512E-08
   26.64000     -5.2082921E-08
   26.70000     -5.3467740E-08
   26.76000     -5.4700291E-08
   26.82000     -5.5748909E-08
   26.88000     -5.6589300E-08
   26.94000     -5.7209856E-08
   27.00000     -5.7614500E-08
   27.06000     -5.7821211E-08
   27.12000     -5.7856123E-08
   27.18000     -5.7745073E-08
   27.24000     -5.7505744E-08
   27.30000     -5.7143478E-08
   27.36000     -5.6652169E-08
   27.42000     -5.6019545E-08
   27.48000     -5.5234260E-08
   27.54000     -5.4291835E-08
   27.60000     -5.3197077E-08
   27.66000     -5.1962601E-08
   27.72000     -5.0604392E-08
   27.78000     -4.9136595E-08
   27.84000     -4.7567514E-08
   27.90000     -4.5898194E-08
   27.96000     -4.4123958E-08
   28.02000     -4.2238369E-08
   28.08000     -4.0238540E-08
   28.14000     -3.8130374E-08
   28.20000     -3.5932150E-08
   28.26000     -3.3675239E-08
   28.32000     -3.1401196E-08
   28.38000     -2.9155755E-08
   28.44000     -2.6981102E-08
   28.50000     -2.4908791E-08
   28.56000     -2.2955630E-08
   28.62000     -2.1123972E-08
   28.68000     -1.9406437E-08
   28.74000     -1.7793427E-08
   28.80000     -1.6280886E-08
   28.86000     -1.4875591E-08
   28.92000     -1.3596217E-08
   28.98000     -1.2469803E-08
   29.04000     -1.1524855E-08
   29.10000     -1.0783355E-08
   29.16000     -1.0254258E-08
   29.22000     -9.9305595E-09
   29.28000     -9.7907842E-09
   29.34000     -9.8042570E-09
   29.40000     -9.9382484E-09
   29.46000     -1.0164427E-08
   29.52000     -1.0462491E-08
   29.58000     -1.0819971E-08
   29.64000     -1.1228875E-08
   29.70000     -1.1681172E-08
   29.76000     -1.2165457E-08
   29.82000     -1.2666497E-08
   29.88000     -1.3167779E-08
   29.94000     -1.3655639E-08
   30.00000     -1.4122659E-08
   30.06000     -1.4568299E-08
   30.12000     -1.4996221E-08
   30.18000     -1.5409316E-08
   30.24000     -1.5804886E-08
   30.30000     -1.6172464E-08
   30.36000     -1.6495731E-08
   30.42000     -1.6758115E-08
   30.48000     -1.6949832E-08
   30.54000     -1.7073134E-08
   30.60000     -1.7142895E-08
   30.66000     -1.7181272E-08
   30.72000     -1.7207592E-08
   30.78000     -1.7226860E-08
   30.84000     -1.7221444E-08
   30.90000     -1.7149970E-08
   30.96000     -1.6955164E-08
   31.02000     -1.6578971E-08
   31.08000     -1.5980193E-08
   31.14000     -1.5148201E-08
   31.20000     -1.4107239E-08
   31.26000     -1.2909091E-08
   31.32000     -1.1616544E-08
   31.38000     -1.0283991E-08
   31.44000     -8.9430543E-09
   31.50000     -7.5992892E-09
   31.56000     -6.2413910E-09
   31.62000     -4.8588800E-09
   31.68000     -3.4603251E-09
   31.74000     -2.0836548E-09
   31.80000     -7.9334361E-10
   31.86000      3.3512743E-10
   31.92000      1.2376240E-09
   31.98000      1.8816686E-09
   32.04000      2.2767399E-09
   32.10000      2.4708544E-09
   32.16000      2.5353624E-09
   32.22000      2.5443863E-09
   32.28000      2.5568183E-09
   32.34000      2.6068661E-09
   32.40000      2.7049605E-09
   32.46000      2.8464417E-09
   32.52000      3.0227947E-09
   32.58000      3.2301812E-09
   32.64000      3.4722876E-09
   32.70000      3.7577061E-09
   32.76000      4.0946091E-09
   32.82000      4.4863051E-09
   32.88000      4.9302225E-09
   32.94000      5.4206821E-09
   33.00000      5.9536096E-09
   33.06000      6.5301786E-09
   33.12000      7.1568076E-09
   33.18000      7.8407218E-09
   33.24000      8.5827256E-09
   33.30000      9.3707051E-09
   33.36000      1.0177760E-08
   33.42000      1.0967284E-08
   33.48000      1.1704228E-08
   33.54000      1.2368426E-08
   33.60000      1.2963998E-08
   33.66000      1.3519472E-08
   33.72000      1.4076821E-08
   33.78000      1.4672532E-08
   33.84000      1.5318017E-08
   33.90000      1.5987993E-08
   33.96000      1.6622733E-08
   34.02000      1.7144504E-08
   34.08000      1.7482252E-08
   34.14000      1.7594708E-08
   34.20000      1.7482545E-08
   34.26000      1.7184641E-08
   34.32000      1.6760268E-08
   34.38000      1.6264776E-08
   34.44000      1.5728785E-08
   34.50000      1.5149022E-08
   34.56000      1.4493880E-08
   34.62000      1.3720735E-08
   34.68000      1.2797536E-08
   34.74000      1.1719936E-08
   34.80000      1.0517309E-08
   34.86000      9.2455359E-09
   34.92000      7.9695113E-09
   34.98000      6.7422126E-09
   35.04000      5.5883986E-09
   35.10000      4.4991979E-09
   35.16000      3.4396164E-09
   35.22000      2.3658073E-09
   35.28000      1.2448848E-09
   35.34000      6.8847393E-11
   35.40000     -1.1434470E-09
   35.46000     -2.3571569E-09
   35.52000     -3.5402803E-09
   35.58000     -4.6817243E-09
   35.64000     -5.8000085E-09
   35.70000     -6.9381305E-09
   35.76000     -8.1464782E-09
   35.82000     -9.4613473E-09
   35.88000     -1.0888802E-08
   35.94000     -1.2401275E-08
   36.00000     -1.3948502E-08
   36.06000     -1.5477799E-08
   36.12000     -1.6954539E-08
   36.18000     -1.8373770E-08
   36.24000     -1.9758186E-08
   36.30000     -2.1143869E-08
   36.36000     -2.2560743E-08
   36.42000     -2.4016611E-08
   36.48000     -2.5491570E-08
   36.54000     -2.6944619E-08
   36.60000     -2.8328532E-08
   36.66000     -2.9605722E-08
   36.72000     -3.0757828E-08
   36.78000     -3.1785373E-08
   36.84000     -3.2698807E-08
   36.90000     -3.3506655E-08
   36.96000     -3.4207467E-08
   37.02000     -3.4790226E-08
   37.08000     -3.5243186E-08
   37.14000     -3.5566387E-08
   37.20000     -3.5780861E-08
   37.26000     -3.5928814E-08
   37.32000     -3.6063387E-08
   37.38000     -3.6231793E-08
   37.44000     -3.6459443E-08
   37.50000     -3.6742506E-08
   37.56000     -3.7052871E-08
   37.62000     -3.7353768E-08
   37.68000     -3.7619184E-08
   37.74000     -3.7848277E-08
   37.80000     -3.8067935E-08
   37.86000     -3.8321868E-08
   37.92000     -3.8650697E-08
   37.98000     -3.9071363E-08
   38.04000     -3.9564924E-08
   38.10000     -4.0078156E-08
   38.16000     -4.0538929E-08
   38.22000     -4.0879637E-08
   38.28000     -4.1059973E-08
   38.34000     -4.1080732E-08
   38.40000     -4.0983956E-08
   38.46000     -4.0839989E-08
   38.52000     -4.0726672E-08
   38.58000     -4.0708272E-08
   38.64000     -4.0821110E-08
   38.70000     -4.1069615E-08
   38.76000     -4.1432454E-08
   38.82000     -4.1874575E-08
   38.88000     -4.2359797E-08
   38.94000     -4.2859099E-08
   39.00000     -4.3352646E-08
   39.06000     -4.3826603E-08
   39.12000     -4.4268127E-08
   39.18000     -4.4662194E-08
   39.24000     -4.4992770E-08
   39.30000     -4.5248100E-08
   39.36000     -4.5427559E-08
   39.42000     -4.5546294E-08
   39.48000     -4.5634451E-08
   39.54000     -4.5729948E-08
   39.60000     -4.5866592E-08
   39.66000     -4.6061611E-08
   39.72000     -4.6307385E-08
   39.78000     -4.6570793E-08
   39.84000     -4.6800753E-08
   39.90000     -4.6941349E-08
   39.96000     -4.6945541E-08
   40.02000     -4.6784454E-08
   40.08000     -4.6449212E-08
   40.14000     -4.5945594E-08
   40.20000     -4.5284935E-08
   40.26000     -4.4476071E-08
   40.32000     -4.3522093E-08
   40.38000     -4.2422858E-08
   40.44000     -4.1181018E-08
   40.50000     -3.9807567E-08
   40.56000     -3.8323339E-08
   40.62000     -3.6755345E-08
   40.68000     -3.5129943E-08
   40.74000     -3.3466559E-08
   40.80000     -3.1775592E-08
   40.86000     -3.0061592E-08
   40.92000     -2.8330097E-08
   40.98000     -2.6594391E-08
   41.04000     -2.4878650E-08
   41.10000     -2.3215838E-08
   41.16000     -2.1641393E-08
   41.22000     -2.0185782E-08
   41.28000     -1.8869063E-08
   41.34000     -1.7699266E-08
   41.40000     -1.6674150E-08
   41.46000     -1.5784277E-08
   41.52000     -1.5015045E-08
   41.58000     -1.4346430E-08
   41.64000     -1.3751003E-08
   41.70000     -1.3192341E-08
   41.76000     -1.2626300E-08
   41.82000     -1.2006716E-08
   41.88000     -1.1295098E-08
   41.94000     -1.0471761E-08
   42.00000     -9.5444621E-09
   42.06000     -8.5507530E-09
   42.12000     -7.5519813E-09
   42.18000     -6.6197807E-09
   42.24000     -5.8187974E-09
   42.30000     -5.1910725E-09
   42.36000     -4.7471405E-09
   42.42000     -4.4663828E-09
   42.48000     -4.3056105E-09
   42.54000     -4.2117314E-09
   42.60000     -4.1331969E-09
   42.66000     -4.0262083E-09
   42.72000     -3.8547343E-09
   42.78000     -3.5866443E-09
   42.84000     -3.1900314E-09
   42.90000     -2.6332427E-09
   42.96000     -1.8896524E-09
   43.02000     -9.4520625E-10
   43.08000      1.9513539E-10
   43.14000      1.5057499E-09
   43.20000      2.9451124E-09
   43.26000      4.4656745E-09
   43.32000      6.0252976E-09
   43.38000      7.5960376E-09
   43.44000      9.1671666E-09
   43.50000      1.0741600E-08
   43.56000      1.2327305E-08
   43.62000      1.3926929E-08
   43.68000      1.5529432E-08
   43.74000      1.7106746E-08
   43.80000      1.8616882E-08
   43.86000      2.0012791E-08
   43.92000      2.1254321E-08
   43.98000      2.2319387E-08
   44.04000      2.3210546E-08
   44.10000      2.3954602E-08
   44.16000      2.4595380E-08
   44.22000      2.5182372E-08
   44.28000      2.5759636E-08
   44.34000      2.6359210E-08
   44.40000      2.7001533E-08
   44.46000      2.7702658E-08
   44.52000      2.8485541E-08
   44.58000      2.9391579E-08
   44.64000      3.0488909E-08
   44.70000      3.1875768E-08
   44.76000      3.3679179E-08
   44.82000      3.6050835E-08
   44.88000      3.9162799E-08
   44.94000      4.3205297E-08
   45.00000      4.8388124E-08
   45.06000      5.4945854E-08
   45.12000      6.3146210E-08
   45.18000      7.3299951E-08
   45.24000      8.5771013E-08
   45.30000      1.0098600E-07
   45.36000      1.1944344E-07
   45.42000      1.4172431E-07
   45.48000      1.6850569E-07
   45.54000      2.0057870E-07
   45.60000      2.3887080E-07
   45.66000      2.8447090E-07
   45.72000      3.3865572E-07
   45.78000      4.0291633E-07
   45.84000      4.7898470E-07
   45.90000      5.6886341E-07
   45.96000      6.7485900E-07
   46.02000      7.9962143E-07
   46.08000      9.4618918E-07
   46.14000      1.1180391E-06
   46.20000      1.3191395E-06
   46.26000      1.5540065E-06
   46.32000      1.8277652E-06
   46.38000      2.1462172E-06
   46.44000      2.5159152E-06
   46.50000      2.9442426E-06
   46.56000      3.4395014E-06
   46.62000      4.0109994E-06
   46.68000      4.6691448E-06
   46.74000      5.4255370E-06
   46.80000      6.2930708E-06
   46.86000      7.2860344E-06
   46.92000      8.4202211E-06
   46.98000      9.7130451E-06
   47.04000      1.1183661E-05
   47.10000      1.2853070E-05
   47.16000      1.4744255E-05
   47.22000      1.6882273E-05
   47.28000      1.9294381E-05
   47.34000      2.2010121E-05
   47.40000      2.5061434E-05
   47.46000      2.8482733E-05
   47.52000      3.2310985E-05
   47.58000      3.6585767E-05
   47.64000      4.1349318E-05
   47.70000      4.6646550E-05
   47.76000      5.2525040E-05
   47.82000      5.9034985E-05
   47.88000      6.6229128E-05
   47.94000      7.4162665E-05
   48.00000      8.2893137E-05
   48.06000      9.2480288E-05
   48.12000      1.0298586E-04
   48.18000      1.1447339E-04
   48.24000      1.2700794E-04
   48.30000      1.4065573E-04
   48.36000      1.5548381E-04
   48.42000      1.7155959E-04
   48.48000      1.8895036E-04
   48.54000      2.0772281E-04
   48.60000      2.2794242E-04
   48.66000      2.4967297E-04
   48.72000      2.7297586E-04
   48.78000      2.9790954E-04
   48.84000      3.2452872E-04
   48.90000      3.5288374E-04
   48.96000      3.8301983E-04
   49.02000      4.1497621E-04
   49.08000      4.4878555E-04
   49.14000      4.8447319E-04
   49.20000      5.2205619E-04
   49.26000      5.6154298E-04
   49.32000      6.0293259E-04
   49.38000      6.4621412E-04
   49.44000      6.9136609E-04
   49.50000      7.3835597E-04
   49.56000      7.8713987E-04
   49.62000      8.3766208E-04
   49.68000      8.8985503E-04
   49.74000      9.4363891E-04
   49.80000      9.9892216E-04
   49.86000      1.0556012E-03
   49.92000      1.1135609E-03
   49.98000      1.1726752E-03
   50.04000      1.2328073E-03
   50.10000      1.2938107E-03
   50.16000      1.3555293E-03
   50.22000      1.4177993E-03
   50.28000      1.4804492E-03
   50.34000      1.5433026E-03
   50.40000      1.6061780E-03
   50.46000      1.6688915E-03
   50.52000      1.7312574E-03
   50.58000      1.7930900E-03
   50.64000      1.8542055E-03
   50.70000      1.9144237E-03
   50.76000      1.9735692E-03
   50.82000      2.0314734E-03
   50.88000      2.0879772E-03
   50.94000      2.1429304E-03
   51.00000      2.1961953E-03
   51.06000      2.2476478E-03
   51.12000      2.2971781E-03
   51.18000      2.3446924E-03
   51.24000      2.3901130E-03
   51.30000      2.4333815E-03
   51.36000      2.4744568E-03
   51.42000      2.5133183E-03
   51.48000      2.5499642E-03
   51.54000      2.5844120E-03
   51.60000      2.6166984E-03
   51.66000      2.6468795E-03
   51.72000      2.6750290E-03
   51.78000      2.7012394E-03
   51.84000      2.7256187E-03
   51.90000      2.7482910E-03
   51.96000      2.7693929E-03
   52.02000      2.7890734E-03
   52.08000      2.8074922E-03
   52.14000      2.8248164E-03
   52.20000      2.8412195E-03
   52.26000      2.8568795E-03
   52.32000      2.8719758E-03
   52.38000      2.8866867E-03
   52.44000      2.9011881E-03
   52.50000      2.9156508E-03
   52.56000      2.9302381E-03
   52.62000      2.9451034E-03
   52.68000      2.9603897E-03
   52.74000      2.9762259E-03
   52.80000      2.9927269E-03
   52.86000      3.0099910E-03
   52.92000      3.0280983E-03
   52.98000      3.0471105E-03
   53.04000      3.0670697E-03
   53.10000      3.0879984E-03
   53.16000      3.1098977E-03
   53.22000      3.1327498E-03
   53.28000      3.1565165E-03
   53.34000      3.1811402E-03
   53.40000      3.2065455E-03
   53.46000      3.2326386E-03
   53.52000      3.2593091E-03
   53.58000      3.2864320E-03
   53.64000      3.3138695E-03
   53.70000      3.3414718E-03
   53.76000      3.3690808E-03
   53.82000      3.3965318E-03
   53.88000      3.4236547E-03
   53.94000      3.4502763E-03
   54.00000      3.4762237E-03
   54.06000      3.5013244E-03
   54.12000      3.5254105E-03
   54.18000      3.5483202E-03
   54.24000      3.5698991E-03
   54.30000      3.5900048E-03
   54.36000      3.6085055E-03
   54.42000      3.6252828E-03
   54.48000      3.6402326E-03
   54.54000      3.6532669E-03
   54.60000      3.6643133E-03
   54.66000      3.6733171E-03
   54.72000      3.6802420E-03
   54.78000      3.6850681E-03
   54.84000      3.6877943E-03
   54.90000      3.6884365E-03
   54.96000      3.6870267E-03
   55.02000      3.6836129E-03
   55.08000      3.6782583E-03
   55.14000      3.6710394E-03
   55.20000      3.6620449E-03
   55.26000      3.6513743E-03
   55.32000      3.6391357E-03
   55.38000      3.6254451E-03
   55.44000      3.6104228E-03
   55.50000      3.5941941E-03
   55.56000      3.5768850E-03