  -2.400000      0.0000000E+00
  -2.340000      0.0000000E+00
  -2.280000      0.0000000E+00
  -2.220000      0.0000000E+00
  -2.160000      0.0000000E+00
  -2.100000      0.0000000E+00
  -2.040000      0.0000000E+00
  -1.980000      0.0000000E+00
  -1.920000      0.0000000E+00
  -1.860000      0.0000000E+00
  -1.800000      1.2738169E-30
  -1.740000      1.7808519E-29
  -1.680000      1.1506527E-28
  -1.620000      4.1774754E-28
  -1.560000      6.5711853E-28
  -1.500000     -1.8041151E-27
  -1.440000     -1.5898188E-26
  -1.380000     -5.7263191E-26
  -1.320000     -1.2595166E-25
  -1.260000     -1.3330721E-25
  -1.200000      2.1106775E-25
  -1.140000      1.3992672E-24
  -1.080000      3.6472964E-24
  -1.020000      5.5741168E-24
 -0.9600000      2.4269318E-24
 -0.9000000     -1.3907938E-23
 -0.8400000     -4.8863808E-23
 -0.7800000     -8.9873042E-23
 -0.7200000     -8.6853990E-23
 -0.6600000      4.9971177E-23
 -0.6000000      3.9896965E-22
 -0.5400000      8.9828755E-22
 -0.4800000      1.1784207E-21
 -0.4200000      5.0694772E-22
 -0.3600000     -1.9142747E-21
 -0.3000000     -6.1309137E-21
 -0.2400000     -1.0290966E-20
 -0.1800000     -9.9786982E-21
 -0.1200000      6.6988927E-22
 -5.9999999E-02  2.5043253E-20
  0.0000000E+00  5.7910495E-20
  5.9999999E-02  8.0408735E-20
  0.1200000      6.1915464E-20
  0.1800000     -2.6001531E-20
  0.2400000     -1.8411236E-19
  0.3000000     -3.5947641E-19
  0.3600000     -4.3964179E-19
  0.4200000     -2.8839536E-19
  0.4800000      1.7235769E-19
  0.5400000      8.6310703E-19
  0.6000000      1.4926258E-18
  0.6600000      1.6212507E-18
  0.7200000      8.7255426E-19
  0.7800000     -7.6778522E-19
  0.8400000     -2.7319259E-18
  0.9000000     -3.9391354E-18
  0.9600000     -3.2774164E-18
   1.020000     -3.8672141E-19
   1.080000      3.6589602E-18
   1.140000      6.3393621E-18
   1.200000      4.7567608E-18
   1.260000     -2.3568719E-18
   1.320000     -1.2612577E-17
   1.380000     -1.9398977E-17
   1.440000     -1.4089700E-17
   1.500000      8.8642825E-18
   1.560000      4.5808697E-17
   1.620000      8.0374526E-17
   1.680000      8.6546233E-17
   1.740000      4.0101802E-17
   1.800000     -6.4329744E-17
   1.860000     -1.9853383E-16
   1.920000     -2.9903527E-16
   1.980000     -2.8661041E-16
   2.040000     -1.0602849E-16
   2.100000      2.2800790E-16
   2.160000      6.0361971E-16
   2.220000      8.2896939E-16
   2.280000      7.0527309E-16
   2.340000      1.3881737E-16
   2.400000     -7.5590613E-16
   2.460000     -1.6265129E-15
   2.520000     -1.9768220E-15
   2.580000     -1.3847986E-15
   2.640000      2.2769124E-16
   2.700000      2.4059117E-15
   2.760000      4.1952030E-15
   2.820000      4.4670934E-15
   2.880000      2.4708449E-15
   2.940000     -1.6117806E-15
   3.000000     -6.4171157E-15
   3.060000     -9.7067409E-15
   3.120000     -9.2611262E-15
   3.180000     -4.0721511E-15
   3.240000      4.7194186E-15
   3.300000      1.3741008E-14
   3.360000      1.8483501E-14
   3.420000      1.5350854E-14
   3.480000      3.8423058E-15
   3.540000     -1.2282154E-14
   3.600000     -2.5791637E-14
   3.660000     -2.8873717E-14
   3.720000     -1.7159288E-14
   3.780000      6.9774199E-15
   3.840000      3.3831092E-14
   3.900000      4.9550641E-14
   3.960000      4.2401724E-14
   4.020000      9.5671346E-15
   4.080000     -3.8999975E-14
   4.140000     -8.2460311E-14
   4.200000     -9.7136553E-14
   4.260000     -6.7990955E-14
   4.320000      1.6495771E-15
   4.380000      8.7566449E-14
   4.440000      1.5221917E-13
   4.500000      1.6069257E-13
   4.560000      9.8608581E-14
   4.620000     -1.6734486E-14
   4.680000     -1.3900056E-13
   4.740000     -2.1056008E-13
   4.800000     -1.8922637E-13
   4.860000     -7.2163168E-14
   4.920000      9.5600536E-14
   4.980000      2.3513575E-13
   5.040000      2.6714424E-13
   5.100000      1.5187424E-13
   5.160000     -8.3208254E-14
   5.220000     -3.4377246E-13
   5.280000     -5.0173217E-13
   5.340000     -4.5074456E-13
   5.400000     -1.6131328E-13
   5.460000      2.9065121E-13
   5.520000      7.3937812E-13
   5.580000      9.8839361E-13
   5.640000      8.9253301E-13
   5.700000      4.2882657E-13
   5.760000     -2.7690870E-13
   5.820000     -9.8483754E-13
   5.880000     -1.4286498E-12
   5.940000     -1.4228394E-12
   6.000000     -9.4470102E-13
   6.060000     -1.5315973E-13
   6.120000      6.6869318E-13
   6.180000      1.2277157E-12
   6.240000      1.3451133E-12
   6.300000      1.0365454E-12
   6.360000      5.0882242E-13
   6.420000      6.8180643E-14
   6.480000     -2.5781172E-14
   6.540000      3.0079826E-13
   6.600000      8.6774733E-13
   6.660000      1.2821432E-12
   6.720000      1.0841791E-12
   6.780000     -5.2270136E-14
   6.840000     -2.1411822E-12
   6.900000     -4.8013117E-12
   6.960000     -7.3079277E-12
   7.020000     -8.7678857E-12
   7.080000     -8.3599317E-12
   7.140000     -5.5602029E-12
   7.200000     -2.8549800E-13
   7.260000      7.0717512E-12
   7.320000      1.5692902E-11
   7.380000      2.4410146E-11
   7.440000      3.1758009E-11
   7.500000      3.5988407E-11
   7.560000      3.5101148E-11
   7.620000      2.6991631E-11
   7.680000      9.8211318E-12
   7.740000     -1.7346062E-11
   7.800000     -5.3710755E-11
   7.860000     -9.5918669E-11
   7.920000     -1.3755691E-10
   7.980000     -1.6928456E-10
   8.040000     -1.7981633E-10
   8.100000     -1.5778219E-10
   8.160000     -9.4243037E-11
   8.220000      1.4573709E-11
   8.280000      1.6487420E-10
   8.340000      3.4376985E-10
   8.400000      5.2899934E-10
   8.460000      6.9003159E-10
   8.520000      7.9041368E-10
   8.580000      7.9102003E-10
   8.640000      6.5376093E-10
   8.700000      3.4532416E-10
   8.760000     -1.5937543E-10
   8.820000     -8.7424290E-10
   8.880000     -1.7996684E-09
   8.940000     -2.9209171E-09
   9.000000     -4.2073984E-09
   9.060000     -5.6130292E-09
   9.120000     -7.0779183E-09
   9.180000     -8.5315213E-09
   9.240000     -9.8972066E-09
   9.300000     -1.1097927E-08
   9.360000     -1.2062435E-08
   9.420000     -1.2731303E-08
   9.480000     -1.3062015E-08
   9.540000     -1.3032572E-08
   9.600000     -1.2643296E-08
   9.660000     -1.1916839E-08
   9.720000     -1.0896591E-08
   9.780000     -9.6437667E-09
   9.840000     -8.2333473E-09
   9.900000     -6.7489854E-09
   9.960000     -5.2768816E-09
   10.02000     -3.8988035E-09
   10.08000     -2.6847127E-09
   10.14000     -1.6858628E-09
   10.20000     -9.2956931E-10
   10.26000     -4.1686488E-10
   10.32000     -1.2389285E-10
   10.38000     -7.1270576E-12
   10.44000     -1.1573647E-11
   10.50000     -8.0294556E-11
   10.56000     -1.6320589E-10
   10.62000     -2.2331628E-10
   10.68000     -2.3933985E-10
   10.74000     -2.0469446E-10
   10.80000     -1.2390451E-10
   10.86000     -8.0182180E-12
   10.92000      1.2937035E-10
   10.98000      2.7449026E-10
   11.04000      4.1404263E-10
   11.10000      5.3484850E-10
   11.16000      6.2365113E-10
   11.22000      6.6810163E-10
   11.28000      6.5933708E-10
   11.34000      5.9569938E-10
   11.40000      4.8640508E-10
   11.46000      3.5365971E-10
   11.52000      2.3196498E-10
   11.58000      1.6412009E-10
   11.64000      1.9441682E-10
   11.70000      3.6043080E-10
   11.76000      6.8531852E-10
   11.82000      1.1724876E-09
   11.88000      1.8039419E-09
   11.94000      2.5427176E-09
   12.00000      3.3388836E-09
   12.06000      4.1378501E-09
   12.12000      4.8893423E-09
   12.18000      5.5553988E-09
   12.24000      6.1160383E-09
   12.30000      6.5717014E-09
   12.36000      6.9420705E-09
   12.42000      7.2613999E-09
   12.48000      7.5709758E-09
   12.54000      7.9098639E-09
   12.60000      8.3055367E-09
   12.66000      8.7663077E-09
   12.72000      9.2774872E-09
   12.78000      9.8026938E-09
   12.84000      1.0290783E-08
   12.90000      1.0687457E-08
   12.96000      1.0949162E-08
   13.02000      1.1055831E-08
   13.08000      1.1018788E-08
   13.14000      1.0880954E-08
   13.20000      1.0708455E-08
   13.26000      1.0575150E-08
   13.32000      1.0543952E-08
   13.38000      1.0650202E-08
   13.44000      1.0892077E-08
   13.50000      1.1231280E-08
   13.56000      1.1604110E-08
   13.62000      1.1939803E-08
   13.68000      1.2180625E-08
   13.74000      1.2297496E-08
   13.80000      1.2296370E-08
   13.86000      1.2213556E-08
   13.92000      1.2101790E-08
   13.98000      1.2011847E-08
   14.04000      1.1975799E-08
   14.10000      1.1997254E-08
   14.16000      1.2051385E-08
   14.22000      1.2094204E-08
   14.28000      1.2077517E-08
   14.34000      1.1964351E-08
   14.40000      1.1739839E-08
   14.46000      1.1414387E-08
   14.52000      1.1018697E-08
   14.58000      1.0592832E-08
   14.64000      1.0173183E-08
   14.70000      9.7814601E-09
   14.76000      9.4187111E-09
   14.82000      9.0655607E-09
   14.88000      8.6878691E-09
   14.94000      8.2456584E-09
   15.00000      7.7026492E-09
   15.06000      7.0340760E-09
   15.12000      6.2313523E-09
   15.18000      5.3031450E-09
   15.24000      4.2732853E-09
   15.30000      3.1764187E-09
   15.36000      2.0524857E-09
   15.42000      9.4107122E-10
   15.48000     -1.2352197E-10
   15.54000     -1.1158444E-09
   15.60000     -2.0211728E-09
   15.66000     -2.8356453E-09
   15.72000     -3.5649212E-09
   15.78000     -4.2218713E-09
   15.84000     -4.8238959E-09
   15.90000     -5.3903921E-09
   15.96000     -5.9406737E-09
   16.02000     -6.4923467E-09
   16.08000     -7.0598842E-09
   16.14000     -7.6530533E-09
   16.20000     -8.2749319E-09
   16.26000     -8.9196011E-09
   16.32000     -9.5700274E-09
   16.38000     -1.0197078E-08
   16.44000     -1.0760806E-08
   16.50000     -1.1214917E-08
   16.56000     -1.1514623E-08
   16.62000     -1.1626909E-08
   16.68000     -1.1541064E-08
   16.74000     -1.1276357E-08
   16.80000     -1.0883719E-08
   16.86000     -1.0439342E-08
   16.92000     -1.0030215E-08
   16.98000     -9.7342534E-09
   17.04000     -9.5999795E-09
   17.10000     -9.6317274E-09
   17.16000     -9.7854693E-09
   17.22000     -9.9775876E-09
   17.28000     -1.0105014E-08
   17.34000     -1.0071379E-08
   17.40000     -9.8115525E-09
   17.46000     -9.3071222E-09
   17.52000     -8.5881258E-09
   17.58000     -7.7207210E-09
   17.64000     -6.7851178E-09
   17.70000     -5.8512137E-09
   17.76000     -4.9599547E-09
   17.82000     -4.1162767E-09
   17.88000     -3.2953198E-09
   17.94000     -2.4589892E-09
   18.00000     -1.5764473E-09
   18.06000     -6.4094358E-10
   18.12000      3.2311925E-10
   18.18000      1.2654255E-09
   18.24000      2.1254511E-09
   18.30000      2.8531080E-09
   18.36000      3.4270446E-09
   18.42000      3.8640615E-09
   18.48000      4.2160386E-09
   18.54000      4.5549307E-09
   18.60000      4.9503579E-09
   18.66000      5.4467981E-09
   18.72000      6.0476277E-09
   18.78000      6.7111752E-09
   18.84000      7.3602990E-09
   18.90000      7.9028979E-09
   18.96000      8.2574827E-09
   19.02000      8.3764391E-09
   19.08000      8.2602458E-09
   19.14000      7.9585361E-09
   19.20000      7.5576043E-09
   19.26000      7.1578832E-09
   19.32000      6.8477335E-09
   19.38000      6.6809793E-09
   19.44000      6.6645063E-09
   19.50000      6.7592740E-09
   19.56000      6.8941550E-09
   19.62000      6.9882438E-09
   19.68000      6.9748660E-09
   19.74000      6.8202128E-09
   19.80000      6.5313750E-09
   19.86000      6.1519576E-09
   19.92000      5.7472862E-09
   19.98000      5.3842686E-09
   20.04000      5.1123310E-09
   20.10000      4.9511044E-09
   20.16000      4.8880806E-09
   20.22000      4.8860462E-09
   20.28000      4.8969726E-09
   20.34000      4.8771271E-09
   20.40000      4.7981650E-09
   20.46000      4.6507935E-09
   20.52000      4.4405977E-09
   20.58000      4.1786619E-09
   20.64000      3.8715480E-09
   20.70000      3.5152596E-09
   20.76000      3.0960390E-09
   20.82000      2.5978966E-09
   20.88000      2.0138833E-09
   20.94000      1.3563969E-09
   21.00000      6.6196837E-10
   21.06000     -1.2114713E-11
   21.12000     -5.9901301E-10
   21.18000     -1.0381287E-09
   21.24000     -1.2904160E-09
   21.30000     -1.3480368E-09
   21.36000     -1.2348529E-09
   21.42000     -9.9716702E-10
   21.48000     -6.8737904E-10
   21.54000     -3.4575118E-10
   21.60000      1.3612216E-11
   21.66000      4.0759096E-10
   21.72000      8.7761698E-10
   21.78000      1.4737102E-09
   21.84000      2.2340783E-09
   21.90000      3.1670608E-09
   21.96000      4.2415342E-09
   22.02000      5.3890550E-09
   22.08000      6.5170531E-09
   22.14000      7.5287190E-09
   22.20000      8.3432248E-09
   22.26000      8.9101571E-09
   22.32000      9.2143440E-09
   22.38000      9.2706145E-09
   22.44000      9.1112033E-09
   22.50000      8.7704386E-09
   22.56000      8.2715470E-09
   22.62000      7.6190654E-09
   22.68000      6.7980901E-09
   22.74000      5.7793987E-09
   22.80000      4.5279620E-09
   22.86000      3.0119902E-09
   22.92000      1.2102924E-09
   22.98000     -8.8308466E-10
   23.04000     -3.2567744E-09
   23.10000     -5.8817227E-09
   23.16000     -8.7116989E-09
   23.22000     -1.1684408E-08
   23.28000     -1.4723609E-08
   23.34000     -1.7743018E-08
   23.40000     -2.0652635E-08
   23.46000     -2.3367285E-08
   23.52000     -2.5816261E-08
   23.58000     -2.7951973E-08
   23.64000     -2.9755338E-08
   23.70000     -3.1236034E-08
   23.76000     -3.2427049E-08
   23.82000     -3.3374473E-08
   23.88000     -3.4125108E-08
   23.94000     -3.4715342E-08
   24.00000     -3.5164621E-08
   24.06000     -3.5475743E-08
   24.12000     -3.5642035E-08
   24.18000     -3.5659102E-08
   24.24000     -3.5537216E-08
   24.30000     -3.5309569E-08
   24.36000     -3.5033018E-08
   24.42000     -3.4780125E-08
   24.48000     -3.4624367E-08
   24.54000     -3.4622865E-08
   24.60000     -3.4802142E-08
   24.66000     -3.5151608E-08
   24.72000     -3.5627099E-08
   24.78000     -3.6163861E-08
   24.84000     -3.6695212E-08
   24.90000     -3.7171652E-08
   24.96000     -3.7574829E-08
   25.02000     -3.7922426E-08
   25.08000     -3.8262439E-08
   25.14000     -3.8658211E-08
   25.20000     -3.9168167E-08
   25.26000     -3.9825540E-08
   25.32000     -4.0623757E-08
   25.38000     -4.1511637E-08
   25.44000     -4.2400359E-08
   25.50000     -4.3180666E-08
   25.56000     -4.3745992E-08
   25.62000     -4.4015099E-08
   25.68000     -4.3947743E-08
   25.74000     -4.3548926E-08
   25.80000     -4.2860815E-08
   25.86000     -4.1945636E-08
   25.92000     -4.0865672E-08
   25.98000     -3.9667491E-08
   26.04000     -3.8375529E-08
   26.10000     -3.6996347E-08
   26.16000     -3.5530764E-08
   26.22000     -3.3987842E-08
   26.28000     -3.2394425E-08
   26.34000     -3.0795821E-08
   26.40000     -2.9247095E-08
   26.46000     -2.7798336E-08
   26.52000     -2.6479720E-08
   26.58000     -2.5292394E-08
   26.64000     -2.4209124E-08
   26.70000     -2.3185008E-08
   26.76000     -2.2175030E-08
   26.82000     -2.1152548E-08
   26.88000     -2.0122377E-08
   26.94000     -1.9123613E-08
   27.00000     -1.8220691E-08
   27.06000     -1.7484933E-08
   27.12000     -1.6972219E-08
   27.18000     -1.6703867E-08
   27.24000     -1.6657046E-08
   27.30000     -1.6768167E-08
   27.36000     -1.6948533E-08
   27.42000     -1.7107595E-08
   27.48000     -1.7176683E-08
   27.54000     -1.7125981E-08
   27.60000     -1.6969651E-08
   27.66000     -1.6757783E-08
   27.72000     -1.6558003E-08
   27.78000     -1.6432658E-08
   27.84000     -1.6418868E-08
   27.90000     -1.6517735E-08
   27.96000     -1.6696090E-08
   28.02000     -1.6900048E-08
   28.08000     -1.7075816E-08
   28.14000     -1.7190628E-08
   28.20000     -1.7246474E-08
   28.26000     -1.7281767E-08
   28.32000     -1.7360023E-08
   28.38000     -1.7549342E-08
   28.44000     -1.7899561E-08
   28.50000     -1.8424839E-08
   28.56000     -1.9097453E-08
   28.62000     -1.9854705E-08
   28.68000     -2.0616486E-08
   28.74000     -2.1307631E-08
   28.80000     -2.1877845E-08
   28.86000     -2.2313078E-08
   28.92000     -2.2634909E-08
   28.98000     -2.2888379E-08
   29.04000     -2.3122150E-08
   29.10000     -2.3367413E-08
   29.16000     -2.3622480E-08
   29.22000     -2.3848555E-08
   29.28000     -2.3978753E-08
   29.34000     -2.3938224E-08
   29.40000     -2.3669315E-08
   29.46000     -2.3153664E-08
   29.52000     -2.2423659E-08
   29.58000     -2.1559121E-08
   29.64000     -2.0669651E-08
   29.70000     -1.9868018E-08
   29.76000     -1.9242544E-08
   29.82000     -1.8836710E-08
   29.88000     -1.8641545E-08
   29.94000     -1.8602202E-08
   30.00000     -1.8635772E-08
   30.06000     -1.8654445E-08
   30.12000     -1.8587006E-08
   30.18000     -1.8392823E-08
   30.24000     -1.8065341E-08
   30.30000     -1.7625393E-08
   30.36000     -1.7107906E-08
   30.42000     -1.6547206E-08
   30.48000     -1.5966041E-08
   30.54000     -1.5371606E-08
   30.60000     -1.4758847E-08
   30.66000     -1.4118501E-08
   30.72000     -1.3445771E-08
   30.78000     -1.2745724E-08
   30.84000     -1.2033424E-08
   30.90000     -1.1329384E-08
   30.96000     -1.0652968E-08
   31.02000     -1.0017075E-08
   31.08000     -9.4264925E-09
   31.14000     -8.8803995E-09
   31.20000     -8.3776008E-09
   31.26000     -7.9219697E-09
   31.32000     -7.5257649E-09
   31.38000     -7.2095356E-09
   31.44000     -6.9987762E-09
   31.50000     -6.9185626E-09
   31.56000     -6.9878912E-09
   31.62000     -7.2152329E-09
   31.68000     -7.5962365E-09
   31.74000     -8.1138580E-09
   31.80000     -8.7406136E-09
   31.86000     -9.4422790E-09
   31.92000     -1.0182180E-08
   31.98000     -1.0925230E-08
   32.04000     -1.1641067E-08
   32.10000     -1.2305995E-08
   32.16000     -1.2903851E-08
   32.22000     -1.3426188E-08
   32.28000     -1.3872238E-08
   32.34000     -1.4248874E-08
   32.40000     -1.4570338E-08
   32.46000     -1.4857165E-08
   32.52000     -1.5133596E-08
   32.58000     -1.5423117E-08
   32.64000     -1.5742501E-08
   32.70000     -1.6095610E-08
   32.76000     -1.6468894E-08
   32.82000     -1.6830619E-08
   32.88000     -1.7135129E-08
   32.94000     -1.7332072E-08
   33.00000     -1.7378742E-08
   33.06000     -1.7252368E-08
   33.12000     -1.6958632E-08
   33.18000     -1.6533523E-08
   33.24000     -1.6037543E-08
   33.30000     -1.5543606E-08
   33.36000     -1.5122083E-08
   33.42000     -1.4827294E-08
   33.48000     -1.4689238E-08
   33.54000     -1.4712640E-08
   33.60000     -1.4882961E-08
   33.66000     -1.5177088E-08
   33.72000     -1.5575120E-08
   33.78000     -1.6069642E-08
   33.84000     -1.6669844E-08
   33.90000     -1.7399294E-08
   33.96000     -1.8288031E-08
   34.02000     -1.9361121E-08
   34.08000     -2.0626945E-08
   34.14000     -2.2068717E-08
   34.20000     -2.3642130E-08
   34.26000     -2.5280510E-08
   34.32000     -2.6906736E-08
   34.38000     -2.8449167E-08
   34.44000     -2.9857407E-08
   34.50000     -3.1113576E-08
   34.56000     -3.2235882E-08
   34.62000     -3.3273380E-08
   34.68000     -3.4293198E-08
   34.74000     -3.5363513E-08
   34.80000     -3.6536793E-08
   34.86000     -3.7837584E-08
   34.92000     -3.9258062E-08
   34.98000     -4.0762458E-08
   35.04000     -4.2298925E-08
   35.10000     -4.3815277E-08
   35.16000     -4.5273715E-08
   35.22000     -4.6659821E-08
   35.28000     -4.7982891E-08
   35.34000     -4.9267626E-08
   35.40000     -5.0540148E-08
   35.46000     -5.1813434E-08
   35.52000     -5.3077535E-08
   35.58000     -5.4298127E-08
   35.64000     -5.5424128E-08
   35.70000     -5.6401820E-08
   35.76000     -5.7190906E-08
   35.82000     -5.7777161E-08
   35.88000     -5.8177690E-08
   35.94000     -5.8437088E-08
   36.00000     -5.8615537E-08
   36.06000     -5.8772390E-08
   36.12000     -5.8950029E-08
   36.18000     -5.9162737E-08
   36.24000     -5.9393933E-08
   36.30000     -5.9602360E-08
   36.36000     -5.9735036E-08
   36.42000     -5.9742483E-08
   36.48000     -5.9591251E-08
   36.54000     -5.9269688E-08
   36.60000     -5.8785712E-08
   36.66000     -5.8158228E-08
   36.72000     -5.7406041E-08
   36.78000     -5.6538777E-08
   36.84000     -5.5553098E-08
   36.90000     -5.4435048E-08
   36.96000     -5.3167366E-08
   37.02000     -5.1738652E-08
   37.08000     -5.0151339E-08
   37.14000     -4.8426109E-08
   37.20000     -4.6601780E-08
   37.26000     -4.4731191E-08
   37.32000     -4.2874323E-08
   37.38000     -4.1090480E-08
   37.44000     -3.9431004E-08
   37.50000     -3.7933692E-08
   37.56000     -3.6619589E-08
   37.62000     -3.5492320E-08
   37.68000     -3.4539713E-08
   37.74000     -3.3737429E-08
   37.80000     -3.3053979E-08
   37.86000     -3.2456580E-08
   37.92000     -3.1917089E-08
   37.98000     -3.1417176E-08
   38.04000     -3.0951774E-08
   38.10000     -3.0529840E-08
   38.16000     -3.0171780E-08
   38.22000     -2.9903706E-08
   38.28000     -2.9749499E-08
   38.34000     -2.9722678E-08
   38.40000     -2.9820555E-08
   38.46000     -3.0022875E-08
   38.52000     -3.0296004E-08
   38.58000     -3.0601935E-08
   38.64000     -3.0909561E-08
   38.70000     -3.1204447E-08
   38.76000     -3.1493602E-08
   38.82000     -3.1803221E-08
   38.88000     -3.2169861E-08
   38.94000     -3.2627913E-08
   39.00000     -3.3197793E-08
   39.06000     -3.3878937E-08
   39.12000     -3.4650032E-08
   39.18000     -3.5476109E-08
   39.24000     -3.6319847E-08
   39.30000     -3.7152883E-08
   39.36000     -3.7963375E-08
   39.42000     -3.8757346E-08
   39.48000     -3.9553740E-08
   39.54000     -4.0375173E-08
   39.60000     -4.1237705E-08
   39.66000     -4.2143117E-08
   39.72000     -4.3076291E-08
   39.78000     -4.4008491E-08
   39.84000     -4.4905313E-08
   39.90000     -4.5736552E-08
   39.96000     -4.6484296E-08
   40.02000     -4.7146404E-08
   40.08000     -4.7733934E-08
   40.14000     -4.8263441E-08
   40.20000     -4.8747076E-08
   40.26000     -4.9184241E-08
   40.32000     -4.9558238E-08
   40.38000     -4.9839436E-08
   40.44000     -4.9994252E-08
   40.50000     -4.9996885E-08
   40.56000     -4.9839805E-08
   40.62000     -4.9538993E-08
   40.68000     -4.9131774E-08
   40.74000     -4.8667566E-08
   40.80000     -4.8194256E-08
   40.86000     -4.7744763E-08
   40.92000     -4.7328566E-08
   40.98000     -4.6931259E-08
   41.04000     -4.6522615E-08
   41.10000     -4.6070493E-08
   41.16000     -4.5555499E-08
   41.22000     -4.4981014E-08
   41.28000     -4.4374659E-08
   41.34000     -4.3780233E-08
   41.40000     -4.3242988E-08
   41.46000     -4.2793292E-08
   41.52000     -4.2434770E-08
   41.58000     -4.2141412E-08
   41.64000     -4.1865150E-08
   41.70000     -4.1551754E-08
   41.76000     -4.1159922E-08
   41.82000     -4.0677083E-08
   41.88000     -4.0126306E-08
   41.94000     -3.9561410E-08
   42.00000     -3.9051287E-08
   42.06000     -3.8658033E-08
   42.12000     -3.8415941E-08
   42.18000     -3.8318280E-08
   42.24000     -3.8316475E-08
   42.30000     -3.8332164E-08
   42.36000     -3.8278422E-08
   42.42000     -3.8083318E-08
   42.48000     -3.7708400E-08
   42.54000     -3.7156461E-08
   42.60000     -3.6466830E-08
   42.66000     -3.5700431E-08
   42.72000     -3.4920273E-08
   42.78000     -3.4174175E-08
   42.84000     -3.3485410E-08
   42.90000     -3.2853869E-08
   42.96000     -3.2266531E-08
   43.02000     -3.1712439E-08
   43.08000     -3.1195889E-08
   43.14000     -3.0741877E-08
   43.20000     -3.0390929E-08
   43.26000     -3.0184363E-08
   43.32000     -3.0145163E-08
   43.38000     -3.0261688E-08
   43.44000     -3.0481218E-08
   43.50000     -3.0717100E-08
   43.56000     -3.0868737E-08
   43.62000     -3.0848692E-08
   43.68000     -3.0608348E-08
   43.74000     -3.0153366E-08
   43.80000     -2.9543125E-08
   43.86000     -2.8873563E-08
   43.92000     -2.8248353E-08
   43.98000     -2.7747598E-08
   44.04000     -2.7404374E-08
   44.10000     -2.7197029E-08
   44.16000     -2.7059940E-08
   44.22000     -2.6909136E-08
   44.28000     -2.6674142E-08
   44.34000     -2.6325289E-08
   44.40000     -2.5887616E-08
   44.46000     -2.5437139E-08
   44.52000     -2.5081381E-08
   44.58000     -2.4931143E-08
   44.64000     -2.5072980E-08
   44.70000     -2.5551172E-08
   44.76000     -2.6364656E-08
   44.82000     -2.7479540E-08
   44.88000     -2.8853123E-08
   44.94000     -3.0461802E-08
   45.00000     -3.2324110E-08
   45.06000     -3.4511363E-08
   45.12000     -3.7142161E-08
   45.18000     -4.0362163E-08
   45.24000     -4.4315787E-08
   45.30000     -4.9119745E-08
   45.36000     -5.4848527E-08
   45.42000     -6.1538572E-08
   45.48000     -6.9211666E-08
   45.54000     -7.7911778E-08
   45.60000     -8.7744624E-08
   45.66000     -9.8908430E-08
   45.72000     -1.1170714E-07
   45.78000     -1.2654311E-07
   45.84000     -1.4389320E-07
   45.90000     -1.6427764E-07
   45.96000     -1.8823313E-07
   46.02000     -2.1630116E-07
   46.08000     -2.4903721E-07
   46.14000     -2.8704048E-07
   46.20000     -3.3099786E-07
   46.26000     -3.8173150E-07
   46.32000     -4.4023912E-07
   46.38000     -5.0771894E-07
   46.44000     -5.8557714E-07
   46.50000     -6.7542021E-07
   46.56000     -7.7904213E-07
   46.62000     -8.9841393E-07
   46.68000     -1.0356846E-06
   46.74000     -1.1931977E-06
   46.80000     -1.3735231E-06
   46.86000     -1.5794992E-06
   46.92000     -1.8142798E-06
   46.98000     -2.0813768E-06
   47.04000     -2.3846928E-06
   47.10000     -2.7285414E-06
   47.16000     -3.1176539E-06
   47.22000     -3.5571827E-06
   47.28000     -4.0526993E-06
   47.34000     -4.6102045E-06
   47.40000     -5.2361488E-06
   47.46000     -5.9374579E-06
   47.52000     -6.7215706E-06
   47.58000     -7.5964676E-06
   47.64000     -8.5706906E-06
   47.70000     -9.6533440E-06
   47.76000     -1.0854081E-05
   47.82000     -1.2183078E-05
   47.88000     -1.3651003E-05
   47.94000     -1.5268979E-05
   48.00000     -1.7048547E-05
   48.06000     -1.9001644E-05
   48.12000     -2.1140568E-05
   48.18000     -2.3477944E-05
   48.24000     -2.6026675E-05
   48.30000     -2.8799892E-05
   48.36000     -3.1810861E-05
   48.42000     -3.5072917E-05
   48.48000     -3.8599330E-05
   48.54000     -4.2403211E-05
   48.60000     -4.6497382E-05
   48.66000     -5.0894243E-05
   48.72000     -5.5605648E-05
   48.78000     -6.0642778E-05
   48.84000     -6.6016008E-05
   48.90000     -7.1734728E-05
   48.96000     -7.7807279E-05
   49.02000     -8.4240739E-05
   49.08000     -9.1040798E-05
   49.14000     -9.8211625E-05
   49.20000     -1.0575574E-04
   49.26000     -1.1367381E-04
   49.32000     -1.2196455E-04
   49.38000     -1.3062464E-04
   49.44000     -1.3964859E-04
   49.50000     -1.4902861E-04
   49.56000     -1.5875463E-04
   49.62000     -1.6881411E-04
   49.68000     -1.7919209E-04
   49.74000     -1.8987122E-04
   49.80000     -2.0083168E-04
   49.86000     -2.1205128E-04
   49.92000     -2.2350547E-04
   49.98000     -2.3516754E-04
   50.04000     -2.4700855E-04
   50.10000     -2.5899775E-04
   50.16000     -2.7110241E-04
   50.22000     -2.8328836E-04
   50.28000     -2.9551997E-04
   50.34000     -3.0776052E-04
   50.40000     -3.1997252E-04
   50.46000     -3.3211784E-04
   50.52000     -3.4415818E-04
   50.58000     -3.5605542E-04
   50.64000     -3.6777189E-04
   50.70000     -3.7927070E-04
   50.76000     -3.9051607E-04
   50.82000     -4.0147372E-04
   50.88000     -4.1211114E-04
   50.94000     -4.2239792E-04
   51.00000     -4.3230623E-04
   51.06000     -4.4181081E-04
   51.12000     -4.5088949E-04
   51.18000     -4.5952343E-04
   51.24000     -4.6769739E-04
   51.30000     -4.7539981E-04
   51.36000     -4.8262300E-04
   51.42000     -4.8936316E-04
   51.48000     -4.9562065E-04
   51.54000     -5.0139945E-04
   51.60000     -5.0670758E-04
   51.66000     -5.1155686E-04
   51.72000     -5.1596283E-04
   51.78000     -5.1994465E-04
   51.84000     -5.2352471E-04
   51.90000     -5.2672869E-04
   51.96000     -5.2958471E-04
   52.02000     -5.3212355E-04
   52.08000     -5.3437770E-04
   52.14000     -5.3638173E-04
   52.20000     -5.3817115E-04
   52.26000     -5.3978199E-04
   52.32000     -5.4125080E-04
   52.38000     -5.4261356E-04
   52.44000     -5.4390583E-04
   52.50000     -5.4516213E-04
   52.56000     -5.4641534E-04
   52.62000     -5.4769649E-04
   52.68000     -5.4903422E-04
   52.74000     -5.5045419E-04
   52.80000     -5.5197900E-04
   52.86000     -5.5362773E-04
   52.92000     -5.5541575E-04
   52.98000     -5.5735471E-04
   53.04000     -5.5945251E-04
   53.10000     -5.6171307E-04
   53.16000     -5.6413613E-04
   53.22000     -5.6671747E-04
   53.28000     -5.6944857E-04
   53.34000     -5.7231711E-04
   53.40000     -5.7530694E-04
   53.46000     -5.7839847E-04
   53.52000     -5.8156898E-04
   53.58000     -5.8479293E-04
   53.64000     -5.8804220E-04
   53.70000     -5.9128652E-04
   53.76000     -5.9449399E-04
   53.82000     -5.9763179E-04
   53.88000     -6.0066622E-04
   53.94000     -6.0356339E-04
   54.00000     -6.0628966E-04
   54.06000     -6.0881168E-04
   54.12000     -6.1109744E-04
   54.18000     -6.1311614E-04
   54.24000     -6.1483908E-04
   54.30000     -6.1623991E-04
   54.36000     -6.1729492E-04
   54.42000     -6.1798340E-04
   54.48000     -6.1828783E-04
   54.54000     -6.1819406E-04
   54.60000     -6.1769149E-04
   54.66000     -6.1677321E-04
   54.72000     -6.1543600E-04
   54.78000     -6.1368046E-04
   54.84000     -6.1151094E-04
   54.90000     -6.0893508E-04
   54.96000     -6.0596404E-04
   55.02000     -6.0261210E-04
   55.08000     -5.9889647E-04
   55.14000     -5.9483718E-04
   55.20000     -5.9045653E-04
   55.26000     -5.8577897E-04
   55.32000     -5.8083056E-04
   55.38000     -5.7563855E-04
   55.44000     -5.7023106E-04
   55.50000     -5.6463655E-04
   55.56000     -5.5888365E-04