  -2.400000      0.0000000E+00
  -2.340000      0.0000000E+00
  -2.280000      0.0000000E+00
  -2.220000      0.0000000E+00
  -2.160000      0.0000000E+00
  -2.100000      0.0000000E+00
  -2.040000      0.0000000E+00
  -1.980000      0.0000000E+00
  -1.920000      0.0000000E+00
  -1.860000      0.0000000E+00
  -1.800000      5.7491824E-32
  -1.740000      2.5863789E-30
  -1.680000      3.0211205E-29
  -1.620000      1.8487633E-28
  -1.560000      6.8937853E-28
  -1.500000      1.4559961E-27
  -1.440000      1.1324440E-28
  -1.380000     -1.1878555E-26
  -1.320000     -4.9983105E-26
  -1.260000     -1.1788636E-25
  -1.200000     -1.4768484E-25
  -1.140000      8.9277897E-26
  -1.080000      9.8473990E-25
  -1.020000      2.7575432E-24
 -0.9600000      4.5578486E-24
 -0.9000000      3.2947815E-24
 -0.8400000     -6.4532751E-24
 -0.7800000     -2.9102638E-23
 -0.7200000     -5.9735325E-23
 -0.6600000     -7.3525535E-23
 -0.6000000     -2.3070892E-23
 -0.5400000      1.4091459E-22
 -0.4800000      4.1627973E-22
 -0.4200000      6.7916471E-22
 -0.3600000      6.5028134E-22
 -0.3000000     -2.4500877E-23
 -0.2400000     -1.5299343E-21
 -0.1800000     -3.5283571E-21
 -0.1200000     -4.9026854E-21
 -5.9999999E-02 -3.8996537E-21
  0.0000000E+00  1.0974042E-21
  5.9999999E-02  1.0246302E-20
  0.1200000      2.0907098E-20
  0.1800000      2.7169817E-20
  0.2400000      2.1103062E-20
  0.3000000     -3.9487728E-21
  0.3600000     -4.8567839E-20
  0.4200000     -1.0242159E-19
  0.4800000     -1.4154176E-19
  0.5400000     -1.3036980E-19
  0.6000000     -3.1402552E-20
  0.6600000      1.7552250E-19
  0.7200000      4.6557163E-19
  0.7800000      7.4140260E-19
  0.8400000      8.2444595E-19
  0.9000000      4.9080756E-19
  0.9600000     -4.2841527E-19
   1.020000     -1.8909810E-18
   1.080000     -3.4889974E-18
   1.140000     -4.4020703E-18
   1.200000     -3.5743521E-18
   1.260000     -1.6717170E-19
   1.320000      5.8058037E-18
   1.380000      1.2928741E-17
   1.440000      1.8291265E-17
   1.500000      1.8153620E-17
   1.560000      9.3827444E-18
   1.620000     -8.7430567E-18
   1.680000     -3.3106637E-17
   1.740000     -5.6496568E-17
   1.800000     -6.8972232E-17
   1.860000     -6.0676305E-17
   1.920000     -2.5334393E-17
   1.980000      3.6555467E-17
   2.040000      1.1564105E-16
   2.100000      1.9315762E-16
   2.160000      2.4218477E-16
   2.220000      2.3138060E-16
   2.280000      1.3237280E-16
   2.340000     -6.8293024E-17
   2.400000     -3.5379989E-16
   2.460000     -6.6333421E-16
   2.520000     -8.8910338E-16
   2.580000     -8.9435753E-16
   2.640000     -5.5774377E-16
   2.700000      1.6252836E-16
   2.760000      1.1665687E-15
   2.820000      2.1858274E-15
   2.880000      2.8225721E-15
   2.940000      2.6671653E-15
   3.000000      1.4695993E-15
   3.060000     -6.9484183E-16
   3.120000     -3.3450790E-15
   3.180000     -5.6636257E-15
   3.240000     -6.7290885E-15
   3.300000     -5.8520901E-15
   3.360000     -2.8919316E-15
   3.420000      1.5872502E-15
   3.480000      6.4165185E-15
   3.540000      1.0173413E-14
   3.600000      1.1663795E-14
   3.660000      1.0338854E-14
   3.720000      6.4635009E-15
   3.780000      9.5838115E-16
   3.840000     -5.0037480E-15
   3.900000     -1.0433642E-14
   3.960000     -1.4750936E-14
   4.020000     -1.7667056E-14
   4.080000     -1.8803293E-14
   4.140000     -1.7325447E-14
   4.200000     -1.1947057E-14
   4.260000     -1.5118399E-15
   4.320000      1.3960034E-14
   4.380000      3.2243542E-14
   4.440000      4.8577092E-14
   4.500000      5.6565003E-14
   4.560000      5.0348502E-14
   4.620000      2.7390706E-14
   4.680000     -9.3253194E-15
   4.740000     -5.0951000E-14
   4.800000     -8.4962500E-14
   4.860000     -9.9481235E-14
   4.920000     -8.8168527E-14
   4.980000     -5.3508626E-14
   5.040000     -6.6288494E-15
   5.100000      3.6855715E-14
   5.160000      6.3612323E-14
   5.220000      6.9049062E-14
   5.280000      6.0132041E-14
   5.340000      5.2429754E-14
   5.400000      6.1772019E-14
   5.460000      9.3762624E-14
   5.520000      1.3622748E-13
   5.580000      1.5941019E-13
   5.640000      1.2604089E-13
   5.700000      9.0811715E-15
   5.760000     -1.8933509E-13
   5.820000     -4.2651267E-13
   5.880000     -6.2291405E-13
   5.940000     -6.8369973E-13
   6.000000     -5.3365184E-13
   6.060000     -1.5417894E-13
   6.120000      3.9250770E-13
   6.180000      9.6511688E-13
   6.240000      1.3763284E-12
   6.300000      1.4511407E-12
   6.360000      1.0931509E-12
   6.420000      3.3485533E-13
   6.480000     -6.5013240E-13
   6.540000     -1.5841422E-12
   6.600000     -2.1658029E-12
   6.660000     -2.1702156E-12
   6.720000     -1.5346522E-12
   6.780000     -3.9663642E-13
   6.840000      9.3448784E-13
   6.900000      2.0682076E-12
   6.960000      2.6575597E-12
   7.020000      2.5147477E-12
   7.080000      1.6751467E-12
   7.140000      3.8455437E-13
   7.200000     -9.8704931E-13
   7.260000     -2.0733378E-12
   7.320000     -2.6319585E-12
   7.380000     -2.6103247E-12
   7.440000     -2.1316050E-12
   7.500000     -1.4090821E-12
   7.560000     -6.2862335E-13
   7.620000      1.4517467E-13
   7.680000      9.9170401E-13
   7.740000      2.0688935E-12
   7.800000      3.4835349E-12
   7.860000      5.1553557E-12
   7.920000      6.7435983E-12
   7.980000      7.6850817E-12
   8.040000      7.3481369E-12
   8.100000      5.2550598E-12
   8.160000      1.2894988E-12
   8.220000     -4.1974584E-12
   8.280000     -1.0433400E-11
   8.340000     -1.6412595E-11
   8.400000     -2.1153503E-11
   8.460000     -2.3918248E-11
   8.520000     -2.4296357E-11
   8.580000     -2.2109394E-11
   8.640000     -1.7172302E-11
   8.700000     -9.0184795E-12
   8.760000      3.2723058E-12
   8.820000      2.1029407E-11
   8.880000      4.5692984E-11
   8.940000      7.8326901E-11
   9.000000      1.1909559E-10
   9.060000      1.6689521E-10
   9.120000      2.1929827E-10
   9.180000      2.7287719E-10
   9.240000      3.2384648E-10
   9.300000      3.6885053E-10
   9.360000      4.0566653E-10
   9.420000      4.3361151E-10
   9.480000      4.5353638E-10
   9.540000      4.6742216E-10
   9.600000      4.7771964E-10
   9.660000      4.8664278E-10
   9.720000      4.9561577E-10
   9.780000      5.0499532E-10
   9.840000      5.1406762E-10
   9.900000      5.2122712E-10
   9.960000      5.2420340E-10
   10.02000      5.2024779E-10
   10.08000      5.0628984E-10
   10.14000      4.7917958E-10
   10.20000      4.3618320E-10
   10.26000      3.7585998E-10
   10.32000      2.9931646E-10
   10.38000      2.1165068E-10
   10.44000      1.2324168E-10
   10.50000      5.0468997E-11
   10.56000      1.5507165E-11
   10.62000      4.5019218E-11
   10.68000      1.6781622E-10
   10.74000      4.1177969E-10
   10.80000      8.0048690E-10
   10.86000      1.3500029E-09
   10.92000      2.0662141E-09
   10.98000      2.9429326E-09
   11.04000      3.9608583E-09
   11.10000      5.0874021E-09
   11.16000      6.2773742E-09
   11.22000      7.4745747E-09
   11.28000      8.6143883E-09
   11.34000      9.6274357E-09
   11.40000      1.0444253E-08
   11.46000      1.1000731E-08
   11.52000      1.1243830E-08
   11.58000      1.1136864E-08
   11.64000      1.0663599E-08
   11.70000      9.8304627E-09
   11.76000      8.6664773E-09
   11.82000      7.2208670E-09
   11.88000      5.5586709E-09
   11.94000      3.7550207E-09
   12.00000      1.8888500E-09
   12.06000      3.6790924E-11
   12.12000     -1.7321473E-09
   12.18000     -3.3607315E-09
   12.24000     -4.8062754E-09
   12.30000     -6.0419394E-09
   12.36000     -7.0565203E-09
   12.42000     -7.8527416E-09
   12.48000     -8.4441618E-09
   12.54000     -8.8509893E-09
   12.60000     -9.0953396E-09
   12.66000     -9.1966612E-09
   12.72000     -9.1681667E-09
   12.78000     -9.0149852E-09
   12.84000     -8.7344354E-09
   12.90000     -8.3183833E-09
   12.96000     -7.7571656E-09
   13.02000     -7.0442341E-09
   13.08000     -6.1805383E-09
   13.14000     -5.1777906E-09
   13.20000     -4.0600514E-09
   13.26000     -2.8634635E-09
   13.32000     -1.6343209E-09
   13.38000     -4.2588119E-10
   13.44000      7.0556538E-10
   13.50000      1.7049256E-09
   13.56000      2.5225142E-09
   13.62000      3.1180922E-09
   13.68000      3.4646717E-09
   13.74000      3.5520038E-09
   13.80000      3.3895371E-09
   13.86000      3.0083716E-09
   13.92000      2.4615139E-09
   13.98000      1.8216332E-09
   14.04000      1.1756931E-09
   14.10000      6.1635541E-10
   14.16000      2.3084126E-10
   14.22000      8.8808620E-11
   14.28000      2.3147965E-10
   14.34000      6.6444206E-10
   14.40000      1.3561081E-09
   14.46000      2.2427689E-09
   14.52000      3.2397771E-09
   14.58000      4.2569712E-09
   14.64000      5.2154085E-09
   14.70000      6.0620540E-09
   14.76000      6.7793744E-09
   14.82000      7.3877859E-09
   14.88000      7.9403195E-09
   14.94000      8.5105212E-09
   15.00000      9.1760892E-09
   15.06000      1.0001816E-08
   15.12000      1.1025748E-08
   15.18000      1.2251875E-08
   15.24000      1.3651217E-08
   15.30000      1.5171048E-08
   15.36000      1.6749761E-08
   15.42000      1.8333129E-08
   15.48000      1.9887217E-08
   15.54000      2.1403968E-08
   15.60000      2.2897693E-08
   15.66000      2.4393554E-08
   15.72000      2.5911772E-08
   15.78000      2.7452838E-08
   15.84000      2.8988895E-08
   15.90000      3.0464616E-08
   15.96000      3.1807961E-08
   16.02000      3.2948019E-08
   16.08000      3.3834837E-08
   16.14000      3.4455265E-08
   16.20000      3.4840014E-08
   16.26000      3.5059365E-08
   16.32000      3.5208430E-08
   16.38000      3.5385550E-08
   16.44000      3.5669476E-08
   16.50000      3.6101294E-08
   16.56000      3.6675747E-08
   16.62000      3.7344304E-08
   16.68000      3.8029022E-08
   16.74000      3.8643655E-08
   16.80000      3.9116333E-08
   16.86000      3.9407780E-08
   16.92000      3.9520131E-08
   16.98000      3.9493980E-08
   17.04000      3.9394482E-08
   17.10000      3.9290477E-08
   17.16000      3.9232567E-08
   17.22000      3.9236522E-08
   17.28000      3.9276621E-08
   17.34000      3.9290828E-08
   17.40000      3.9196010E-08
   17.46000      3.8908578E-08
   17.52000      3.8364416E-08
   17.58000      3.7532502E-08
   17.64000      3.6418651E-08
   17.70000      3.5059010E-08
   17.76000      3.3505973E-08
   17.82000      3.1811201E-08
   17.88000      3.0010984E-08
   17.94000      2.8118130E-08
   18.00000      2.6122182E-08
   18.06000      2.3997229E-08
   18.12000      2.1714264E-08
   18.18000      1.9253857E-08
   18.24000      1.6615141E-08
   18.30000      1.3818583E-08
   18.36000      1.0902201E-08
   18.42000      7.9132985E-09
   18.48000      4.8992694E-09
   18.54000      1.9013497E-09
   18.60000     -1.0460341E-09
   18.66000     -3.9100581E-09
   18.72000     -6.6508767E-09
   18.78000     -9.2140038E-09
   18.84000     -1.1528473E-08
   18.90000     -1.3513870E-08
   18.96000     -1.5096056E-08
   19.02000     -1.6227604E-08
   19.08000     -1.6906165E-08
   19.14000     -1.7183533E-08
   19.20000     -1.7160335E-08
   19.26000     -1.6965854E-08
   19.32000     -1.6727666E-08
   19.38000     -1.6539873E-08
   19.44000     -1.6440094E-08
   19.50000     -1.6403215E-08
   19.56000     -1.6354891E-08
   19.62000     -1.6201437E-08
   19.68000     -1.5867107E-08
   19.74000     -1.5326927E-08
   19.80000     -1.4624153E-08
   19.86000     -1.3865954E-08
   19.92000     -1.3197868E-08
   19.98000     -1.2764408E-08
   20.04000     -1.2668092E-08
   20.10000     -1.2940016E-08
   20.16000     -1.3531825E-08
   20.22000     -1.4332253E-08
   20.28000     -1.5203435E-08
   20.34000     -1.6025714E-08
   20.40000     -1.6736466E-08
   20.46000     -1.7350164E-08
   20.52000     -1.7952619E-08
   20.58000     -1.8670669E-08
   20.64000     -1.9626601E-08
   20.70000     -2.0891909E-08
   20.76000     -2.2455628E-08
   20.82000     -2.4218236E-08
   20.88000     -2.6014265E-08
   20.94000     -2.7657505E-08
   21.00000     -2.8995366E-08
   21.06000     -2.9955448E-08
   21.12000     -3.0569471E-08
   21.18000     -3.0966309E-08
   21.24000     -3.1335500E-08
   21.30000     -3.1871672E-08
   21.36000     -3.2716635E-08
   21.42000     -3.3916656E-08
   21.48000     -3.5408025E-08
   21.54000     -3.7035377E-08
   21.60000     -3.8597243E-08
   21.66000     -3.9904897E-08
   21.72000     -4.0836554E-08
   21.78000     -4.1370242E-08
   21.84000     -4.1585352E-08
   21.90000     -4.1632305E-08
   21.96000     -4.1679630E-08
   22.02000     -4.1854683E-08
   22.08000     -4.2196422E-08
   22.14000     -4.2634920E-08
   22.20000     -4.3004341E-08
   22.26000     -4.3086079E-08
   22.32000     -4.2669399E-08
   22.38000     -4.1612033E-08
   22.44000     -3.9882970E-08
   22.50000     -3.7575372E-08
   22.56000     -3.4886277E-08
   22.62000     -3.2069643E-08
   22.68000     -2.9376658E-08
   22.74000     -2.7000429E-08
   22.80000     -2.5040142E-08
   22.86000     -2.3493335E-08
   22.92000     -2.2276279E-08
   22.98000     -2.1264269E-08
   23.04000     -2.0338192E-08
   23.10000     -1.9422902E-08
   23.16000     -1.8506423E-08
   23.22000     -1.7635704E-08
   23.28000     -1.6892344E-08
   23.34000     -1.6357790E-08
   23.40000     -1.6080351E-08
   23.46000     -1.6055028E-08
   23.52000     -1.6222391E-08
   23.58000     -1.6486190E-08
   23.64000     -1.6743158E-08
   23.70000     -1.6914750E-08
   23.76000     -1.6970201E-08
   23.82000     -1.6933555E-08
   23.88000     -1.6872894E-08
   23.94000     -1.6876017E-08
   24.00000     -1.7021366E-08
   24.06000     -1.7354397E-08
   24.12000     -1.7877563E-08
   24.18000     -1.8557071E-08
   24.24000     -1.9343613E-08
   24.30000     -2.0199137E-08
   24.36000     -2.1119559E-08
   24.42000     -2.2144635E-08
   24.48000     -2.3350784E-08
   24.54000     -2.4828756E-08
   24.60000     -2.6653394E-08
   24.66000     -2.8855712E-08
   24.72000     -3.1406685E-08
   24.78000     -3.4218257E-08
   24.84000     -3.7161403E-08
   24.90000     -4.0095436E-08
   24.96000     -4.2899501E-08
   25.02000     -4.5496705E-08
   25.08000     -4.7864180E-08
   25.14000     -5.0027008E-08
   25.20000     -5.2038931E-08
   25.26000     -5.3956587E-08
   25.32000     -5.5815491E-08
   25.38000     -5.7614745E-08
   25.44000     -5.9314480E-08
   25.50000     -6.0845707E-08
   25.56000     -6.2128883E-08
   25.62000     -6.3094994E-08
   25.68000     -6.3703013E-08
   25.74000     -6.3948953E-08
   25.80000     -6.3864711E-08
   25.86000     -6.3507827E-08
   25.92000     -6.2945865E-08
   25.98000     -6.2239870E-08
   26.04000     -6.1431692E-08
   26.10000     -6.0538149E-08
   26.16000     -5.9553251E-08
   26.22000     -5.8457470E-08
   26.28000     -5.7231329E-08
   26.34000     -5.5869585E-08
   26.40000     -5.4392018E-08
   26.46000     -5.2847881E-08
   26.52000     -5.1312341E-08
   26.58000     -4.9875567E-08
   26.64000     -4.8626880E-08
   26.70000     -4.7637979E-08
   26.76000     -4.6949520E-08
   26.82000     -4.6564573E-08
   26.88000     -4.6450541E-08
   26.94000     -4.6548777E-08
   27.00000     -4.6789015E-08
   27.06000     -4.7104201E-08
   27.12000     -4.7441713E-08
   27.18000     -4.7767962E-08
   27.24000     -4.8065857E-08
   27.30000     -4.8326793E-08
   27.36000     -4.8540585E-08
   27.42000     -4.8687117E-08
   27.48000     -4.8732797E-08
   27.54000     -4.8632973E-08
   27.60000     -4.8339533E-08
   27.66000     -4.7811255E-08
   27.72000     -4.7023832E-08
   27.78000     -4.5976776E-08
   27.84000     -4.4695661E-08
   27.90000     -4.3229392E-08
   27.96000     -4.1643510E-08
   28.02000     -4.0011212E-08
   28.08000     -3.8403908E-08
   28.14000     -3.6882987E-08
   28.20000     -3.5493994E-08
   28.26000     -3.4263966E-08
   28.32000     -3.3202102E-08
   28.38000     -3.2303415E-08
   28.44000     -3.1554521E-08
   28.50000     -3.0940267E-08
   28.56000     -3.0449709E-08
   28.62000     -3.0080042E-08
   28.68000     -2.9837658E-08
   28.74000     -2.9736039E-08
   28.80000     -2.9791048E-08
   28.86000     -3.0014725E-08
   28.92000     -3.0409140E-08
   28.98000     -3.0961814E-08
   29.04000     -3.1644010E-08
   29.10000     -3.2412490E-08
   29.16000     -3.3214711E-08
   29.22000     -3.3996574E-08
   29.28000     -3.4711213E-08
   29.34000     -3.5326963E-08
   29.40000     -3.5832763E-08
   29.46000     -3.6239523E-08
   29.52000     -3.6576900E-08
   29.58000     -3.6885726E-08
   29.64000     -3.7207524E-08
   29.70000     -3.7573070E-08
   29.76000     -3.7992763E-08
   29.82000     -3.8451272E-08
   29.88000     -3.8908340E-08
   29.94000     -3.9306226E-08
   30.00000     -3.9582751E-08
   30.06000     -3.9686977E-08
   30.12000     -3.9593807E-08
   30.18000     -3.9313306E-08
   30.24000     -3.8891820E-08
   30.30000     -3.8403766E-08
   30.36000     -3.7935518E-08
   30.42000     -3.7565126E-08
   30.48000     -3.7342957E-08
   30.54000     -3.7278674E-08
   30.60000     -3.7338378E-08
   30.66000     -3.7453340E-08
   30.72000     -3.7538314E-08
   30.78000     -3.7514596E-08
   30.84000     -3.7331045E-08
   30.90000     -3.6976619E-08
   30.96000     -3.6480053E-08
   31.02000     -3.5896484E-08
   31.08000     -3.5284923E-08
   31.14000     -3.4684025E-08
   31.20000     -3.4094434E-08
   31.26000     -3.3474326E-08
   31.32000     -3.2750286E-08
   31.38000     -3.1840631E-08
   31.44000     -3.0683701E-08
   31.50000     -2.9261672E-08
   31.56000     -2.7611573E-08
   31.62000     -2.5819144E-08
   31.68000     -2.3996721E-08
   31.74000     -2.2251669E-08
   31.80000     -2.0655088E-08
   31.86000     -1.9220909E-08
   31.92000     -1.7902426E-08
   31.98000     -1.6608086E-08
   32.04000     -1.5232146E-08
   32.10000     -1.3690932E-08
   32.16000     -1.1953214E-08
   32.22000     -1.0054714E-08
   32.28000     -8.0915754E-09
   32.34000     -6.1943517E-09
   32.40000     -4.4905066E-09
   32.46000     -3.0673462E-09
   32.52000     -1.9473918E-09
   32.58000     -1.0842430E-09
   32.64000     -3.8032502E-10
   32.70000      2.7925140E-10
   32.76000      9.8775510E-10
   32.82000      1.7854950E-09
   32.88000      2.6462197E-09
   32.94000      3.4855758E-09
   33.00000      4.1887382E-09
   33.06000      4.6480726E-09
   33.12000      4.7984523E-09
   33.18000      4.6386197E-09
   33.24000      4.2316000E-09
   33.30000      3.6840266E-09
   33.36000      3.1111813E-09
   33.42000      2.5991984E-09
   33.48000      2.1767554E-09
   33.54000      1.8054223E-09
   33.60000      1.3917315E-09
   33.66000      8.1705626E-10
   33.72000     -2.4213773E-11
   33.78000     -1.1901748E-09
   33.84000     -2.6712497E-09
   33.90000     -4.3904502E-09
   33.96000     -6.2238183E-09
   34.02000     -8.0346334E-09
   34.08000     -9.7108632E-09
   34.14000     -1.1194472E-08
   34.20000     -1.2493818E-08
   34.26000     -1.3675821E-08
   34.32000     -1.4840995E-08
   34.38000     -1.6089912E-08
   34.44000     -1.7492246E-08
   34.50000     -1.9068329E-08
   34.56000     -2.0788542E-08
   34.62000     -2.2589509E-08
   34.68000     -2.4400270E-08
   34.74000     -2.6168347E-08
   34.80000     -2.7876224E-08
   34.86000     -2.9542575E-08
   34.92000     -3.1208383E-08
   34.98000     -3.2913466E-08
   35.04000     -3.4672372E-08
   35.10000     -3.6458619E-08
   35.16000     -3.8203449E-08
   35.22000     -3.9810093E-08
   35.28000     -4.1179327E-08
   35.34000     -4.2237893E-08
   35.40000     -4.2960167E-08
   35.46000     -4.3375216E-08
   35.52000     -4.3556348E-08
   35.58000     -4.3596202E-08
   35.64000     -4.3575774E-08
   35.70000     -4.3538350E-08
   35.76000     -4.3477769E-08
   35.82000     -4.3345281E-08
   35.88000     -4.3072365E-08
   35.94000     -4.2600707E-08
   36.00000     -4.1907661E-08
   36.06000     -4.1017408E-08
   36.12000     -3.9993424E-08
   36.18000     -3.8915061E-08
   36.24000     -3.7847240E-08
   36.30000     -3.6814590E-08
   36.36000     -3.5789771E-08
   36.42000     -3.4700474E-08
   36.48000     -3.3453002E-08
   36.54000     -3.1964664E-08
   36.60000     -3.0194386E-08
   36.66000     -2.8161459E-08
   36.72000     -2.5946296E-08
   36.78000     -2.3672623E-08
   36.84000     -2.1476268E-08
   36.90000     -1.9469891E-08
   36.96000     -1.7714218E-08
   37.02000     -1.6204369E-08
   37.08000     -1.4875242E-08
   37.14000     -1.3623975E-08
   37.20000     -1.2342410E-08
   37.26000     -1.0949520E-08
   37.32000     -9.4143164E-09
   37.38000     -7.7630888E-09
   37.44000     -6.0700867E-09
   37.50000     -4.4358059E-09
   37.56000     -2.9604257E-09
   37.62000     -1.7206817E-09
   37.68000     -7.5650808E-10
   37.74000     -7.0113346E-11
   37.80000      3.6400999E-10
   37.86000      5.8291955E-10
   37.92000      6.1911082E-10
   37.98000      4.8990989E-10
   38.04000      1.9522979E-10
   38.10000     -2.7689775E-10
   38.16000     -9.4059993E-10
   38.22000     -1.8032199E-09
   38.28000     -2.8613589E-09
   38.34000     -4.1035397E-09
   38.40000     -5.5178937E-09
   38.46000     -7.1008470E-09
   38.52000     -8.8622336E-09
   38.58000     -1.0823791E-08
   38.64000     -1.3010918E-08
   38.70000     -1.5440483E-08
   38.76000     -1.8109183E-08
   38.82000     -2.0986823E-08
   38.88000     -2.4017144E-08
   38.94000     -2.7126235E-08
   39.00000     -3.0236045E-08
   39.06000     -3.3279058E-08
   39.12000     -3.6209670E-08
   39.18000     -3.9008910E-08
   39.24000     -4.1680845E-08
   39.30000     -4.4241705E-08
   39.36000     -4.6704958E-08
   39.42000     -4.9067388E-08
   39.48000     -5.1301317E-08
   39.54000     -5.3356278E-08
   39.60000     -5.5170517E-08
   39.66000     -5.6688979E-08
   39.72000     -5.7881678E-08
   39.78000     -5.8755795E-08
   39.84000     -5.9356566E-08
   39.90000     -5.9755685E-08
   39.96000     -6.0030359E-08
   40.02000     -6.0239564E-08
   40.08000     -6.0405306E-08
   40.14000     -6.0505549E-08
   40.20000     -6.0482044E-08
   40.26000     -6.0261328E-08
   40.32000     -5.9782941E-08
   40.38000     -5.9026107E-08
   40.44000     -5.8025684E-08
   40.50000     -5.6871173E-08
   40.56000     -5.5687597E-08
   40.62000     -5.4602957E-08
   40.68000     -5.3711698E-08
   40.74000     -5.3045699E-08
   40.80000     -5.2562399E-08
   40.86000     -5.2154682E-08
   40.92000     -5.1680310E-08
   40.98000     -5.1002356E-08
   41.04000     -5.0028437E-08
   41.10000     -4.8736876E-08
   41.16000     -4.7181864E-08
   41.22000     -4.5476316E-08
   41.28000     -4.3757996E-08
   41.34000     -4.2149455E-08
   41.40000     -4.0724085E-08
   41.46000     -3.9488217E-08
   41.52000     -3.8383998E-08
   41.58000     -3.7311310E-08
   41.64000     -3.6161151E-08
   41.70000     -3.4849936E-08
   41.76000     -3.3344413E-08
   41.82000     -3.1670343E-08
   41.88000     -2.9903603E-08
   41.94000     -2.8147486E-08
   42.00000     -2.6504027E-08
   42.06000     -2.5048195E-08
   42.12000     -2.3812406E-08
   42.18000     -2.2785049E-08
   42.24000     -2.1922318E-08
   42.30000     -2.1168734E-08
   42.36000     -2.0479328E-08
   42.42000     -1.9836529E-08
   42.48000     -1.9256850E-08
   42.54000     -1.8786064E-08
   42.60000     -1.8485329E-08
   42.66000     -1.8413500E-08
   42.72000     -1.8611692E-08
   42.78000     -1.9094896E-08
   42.84000     -1.9852536E-08
   42.90000     -2.0856577E-08
   42.96000     -2.2073204E-08
   43.02000     -2.3473302E-08
   43.08000     -2.5037972E-08
   43.14000     -2.6757723E-08
   43.20000     -2.8626742E-08
   43.26000     -3.0635590E-08
   43.32000     -3.2766142E-08
   43.38000     -3.4991405E-08
   43.44000     -3.7280540E-08
   43.50000     -3.9606924E-08
   43.56000     -4.1955580E-08
   43.62000     -4.4326100E-08
   43.68000     -4.6728836E-08
   43.74000     -4.9174790E-08
   43.80000     -5.1662280E-08
   43.86000     -5.4165326E-08
   43.92000     -5.6628689E-08
   43.98000     -5.8972702E-08
   44.04000     -6.1107926E-08
   44.10000     -6.2956111E-08
   44.16000     -6.4471465E-08
   44.22000     -6.5655470E-08
   44.28000     -6.6559949E-08
   44.34000     -6.7276737E-08
   44.40000     -6.7916197E-08
   44.46000     -6.8580881E-08
   44.52000     -6.9342185E-08
   44.58000     -7.0227088E-08
   44.64000     -7.1218935E-08
   44.70000     -7.2271874E-08
   44.76000     -7.3334178E-08
   44.82000     -7.4373446E-08
   44.88000     -7.5396180E-08
   44.94000     -7.6456963E-08
   45.00000     -7.7655521E-08
   45.06000     -7.9124199E-08
   45.12000     -8.1010590E-08
   45.18000     -8.3461430E-08
   45.24000     -8.6612488E-08
   45.30000     -9.0587079E-08
   45.36000     -9.5503161E-08
   45.42000     -1.0148626E-07
   45.48000     -1.0868438E-07
   45.54000     -1.1728106E-07
   45.60000     -1.2750426E-07
   45.66000     -1.3963043E-07
   45.72000     -1.5398534E-07
   45.78000     -1.7094399E-07
   45.84000     -1.9093254E-07
   45.90000     -2.1443364E-07
   45.96000     -2.4199653E-07
   46.02000     -2.7425105E-07
   46.08000     -3.1192440E-07
   46.14000     -3.5585913E-07
   46.20000     -4.0703063E-07
   46.26000     -4.6656274E-07
   46.32000     -5.3574115E-07
   46.38000     -6.1602617E-07
   46.44000     -7.0906532E-07
   46.50000     -8.1671016E-07
   46.56000     -9.4103694E-07
   46.62000     -1.0843718E-06
   46.68000     -1.2493186E-06
   46.74000     -1.4387875E-06
   46.80000     -1.6560205E-06
   46.86000     -1.9046154E-06
   46.92000     -2.1885483E-06
   46.98000     -2.5121990E-06
   47.04000     -2.8803784E-06
   47.10000     -3.2983633E-06
   47.16000     -3.7719312E-06
   47.22000     -4.3073974E-06
   47.28000     -4.9116434E-06
   47.34000     -5.5921455E-06
   47.40000     -6.3569901E-06
   47.46000     -7.2148878E-06
   47.52000     -8.1751832E-06
   47.58000     -9.2478704E-06
   47.64000     -1.0443606E-05
   47.70000     -1.1773732E-05
   47.76000     -1.3250294E-05
   47.82000     -1.4886053E-05
   47.88000     -1.6694485E-05
   47.94000     -1.8689769E-05
   48.00000     -2.0886731E-05
   48.06000     -2.3300812E-05
   48.12000     -2.5947980E-05
   48.18000     -2.8844654E-05
   48.24000     -3.2007632E-05
   48.30000     -3.5454013E-05
   48.36000     -3.9201139E-05
   48.42000     -4.3266489E-05
   48.48000     -4.7667610E-05
   48.54000     -5.2421994E-05
   48.60000     -5.7546928E-05
   48.66000     -6.3059364E-05
   48.72000     -6.8975714E-05
   48.78000     -7.5311691E-05
   48.84000     -8.2082101E-05
   48.90000     -8.9300629E-05
   48.96000     -9.6979740E-05
   49.02000     -1.0513041E-04
   49.08000     -1.1376206E-04
   49.14000     -1.2288229E-04
   49.20000     -1.3249680E-04
   49.26000     -1.4260910E-04
   49.32000     -1.5322036E-04
   49.38000     -1.6432931E-04
   49.44000     -1.7593196E-04
   49.50000     -1.8802154E-04
   49.56000     -2.0058843E-04
   49.62000     -2.1362001E-04
   49.68000     -2.2710061E-04
   49.74000     -2.4101153E-04
   49.80000     -2.5533096E-04
   49.86000     -2.7003404E-04
   49.92000     -2.8509280E-04
   49.98000     -3.0047624E-04
   50.04000     -3.1615054E-04
   50.10000     -3.3207916E-04
   50.16000     -3.4822297E-04
   50.22000     -3.6454049E-04
   50.28000     -3.8098835E-04
   50.34000     -3.9752142E-04
   50.40000     -4.1409323E-04
   50.46000     -4.3065628E-04
   50.52000     -4.4716240E-04
   50.58000     -4.6356316E-04
   50.64000     -4.7981011E-04
   50.70000     -4.9585535E-04
   50.76000     -5.1165180E-04
   50.82000     -5.2715384E-04
   50.88000     -5.4231763E-04
   50.94000     -5.5710162E-04
   51.00000     -5.7146710E-04
   51.06000     -5.8537815E-04
   51.12000     -5.9880246E-04
   51.18000     -6.1171176E-04
   51.24000     -6.2408170E-04
   51.30000     -6.3589221E-04
   51.36000     -6.4712804E-04
   51.42000     -6.5777847E-04
   51.48000     -6.6783762E-04
   51.54000     -6.7730463E-04
   51.60000     -6.8618346E-04
   51.66000     -6.9448311E-04
   51.72000     -7.0221763E-04
   51.78000     -7.0940575E-04
   51.84000     -7.1607070E-04
   51.90000     -7.2224007E-04
   51.96000     -7.2794501E-04
   52.02000     -7.3322008E-04
   52.08000     -7.3810294E-04
   52.14000     -7.4263377E-04
   52.20000     -7.4685481E-04
   52.26000     -7.5081002E-04
   52.32000     -7.5454434E-04
   52.38000     -7.5810309E-04
   52.44000     -7.6153170E-04
   52.50000     -7.6487468E-04
   52.56000     -7.6817535E-04
   52.62000     -7.7147520E-04
   52.68000     -7.7481341E-04
   52.74000     -7.7822647E-04
   52.80000     -7.8174757E-04
   52.86000     -7.8540621E-04
   52.92000     -7.8922778E-04
   52.98000     -7.9323346E-04
   53.04000     -7.9743960E-04
   53.10000     -8.0185791E-04
   53.16000     -8.0649502E-04
   53.22000     -8.1135269E-04
   53.28000     -8.1642764E-04
   53.34000     -8.2171179E-04
   53.40000     -8.2719239E-04
   53.46000     -8.3285198E-04
   53.52000     -8.3866908E-04
   53.58000     -8.4461831E-04
   53.64000     -8.5067109E-04
   53.70000     -8.5679576E-04
   53.76000     -8.6295808E-04
   53.82000     -8.6912175E-04
   53.88000     -8.7524857E-04
   53.94000     -8.8129949E-04
   54.00000     -8.8723481E-04
   54.06000     -8.9301489E-04
   54.12000     -8.9860108E-04
   54.18000     -9.0395613E-04
   54.24000     -9.0904470E-04
   54.30000     -9.1383408E-04
   54.36000     -9.1829401E-04
   54.42000     -9.2239748E-04
   54.48000     -9.2612085E-04
   54.54000     -9.2944421E-04
   54.60000     -9.3235186E-04
   54.66000     -9.3483215E-04
   54.72000     -9.3687780E-04
   54.78000     -9.3848584E-04
   54.84000     -9.3965762E-04
   54.90000     -9.4039884E-04
   54.96000     -9.4071962E-04
   55.02000     -9.4063417E-04
   55.08000     -9.4016059E-04
   55.14000     -9.3932048E-04
   55.20000     -9.3813834E-04
   55.26000     -9.3664101E-04
   55.32000     -9.3485753E-04
   55.38000     -9.3281869E-04
   55.44000     -9.3055674E-04
   55.50000     -9.2810468E-04
   55.56000     -9.2549616E-04