  -2.400000      0.0000000E+00
  -2.340000      0.0000000E+00
  -2.280000      0.0000000E+00
  -2.220000      0.0000000E+00
  -2.160000      0.0000000E+00
  -2.100000      0.0000000E+00
  -2.040000      0.0000000E+00
  -1.980000      0.0000000E+00
  -1.920000      0.0000000E+00
  -1.860000      0.0000000E+00
  -1.800000     -1.0830578E-30
  -1.740000     -1.4124108E-29
  -1.680000     -8.6381346E-29
  -1.620000     -3.0765929E-28
  -1.560000     -5.6890964E-28
  -1.500000      3.8020630E-28
  -1.440000      6.5370700E-27
  -1.380000      2.4350167E-26
  -1.320000      5.3708485E-26
  -1.260000      6.3681622E-26
  -1.200000     -3.5767471E-26
  -1.140000     -3.7354299E-25
  -1.080000     -9.6250724E-25
  -1.020000     -1.3860360E-24
 -0.9600000     -5.5156592E-25
 -0.9000000      2.8980584E-24
 -0.8400000      8.8588622E-24
 -0.7800000      1.2974780E-23
 -0.7200000      5.1810412E-24
 -0.6600000     -2.5823002E-23
 -0.6000000     -7.8493263E-23
 -0.5400000     -1.1856275E-22
 -0.4800000     -7.0622634E-23
 -0.4200000      1.5151271E-22
 -0.3600000      5.5879938E-22
 -0.3000000      9.7244744E-22
 -0.2400000      9.7353938E-22
 -0.1800000      4.5588783E-23
 -0.1200000     -2.0270277E-21
 -5.9999999E-02 -4.6439705E-21
  0.0000000E+00 -6.1538057E-21
  5.9999999E-02 -4.3887473E-21
  0.1200000      1.8619914E-21
  0.1800000      1.1049908E-20
  0.2400000      1.8187315E-20
  0.3000000      1.6847747E-20
  0.3600000      4.0509603E-21
  0.4200000     -1.4434122E-20
  0.4800000     -2.3258419E-20
  0.5400000     -5.6339389E-21
  0.6000000      4.0098107E-20
  0.6600000      8.4544915E-20
  0.7200000      6.7775399E-20
  0.7800000     -7.0498032E-20
  0.8400000     -3.3407054E-19
  0.9000000     -6.1507946E-19
  0.9600000     -6.8802479E-19
   1.020000     -2.9367812E-19
   1.080000      6.8969870E-19
   1.140000      2.0578616E-18
   1.200000      3.1989359E-18
   1.260000      3.2367253E-18
   1.320000      1.4259253E-18
   1.380000     -2.3258224E-18
   1.440000     -7.0702403E-18
   1.500000     -1.0851396E-17
   1.560000     -1.1304719E-17
   1.620000     -6.6951862E-18
   1.680000      3.0088891E-18
   1.740000      1.5551566E-17
   1.800000      2.6687633E-17
   1.860000      3.1406089E-17
   1.920000      2.5715713E-17
   1.980000      8.3721092E-18
   2.040000     -1.8064374E-17
   2.100000     -4.7212253E-17
   2.160000     -6.9960733E-17
   2.220000     -7.6521658E-17
   2.280000     -5.9192390E-17
   2.340000     -1.5463754E-17
   2.400000      4.9183107E-17
   2.460000      1.1989452E-16
   2.520000      1.7387567E-16
   2.580000      1.8569317E-16
   2.640000      1.3619211E-16
   2.700000      2.2695886E-17
   2.760000     -1.3377386E-16
   2.820000     -2.8899750E-16
   2.880000     -3.8652014E-16
   2.940000     -3.7743955E-16
   3.000000     -2.4221868E-16
   3.060000     -4.5094442E-18
   3.120000      2.7171374E-16
   3.180000      5.0376342E-16
   3.240000      6.2285610E-16
   3.300000      6.0195138E-16
   3.360000      4.6230354E-16
   3.420000      2.5169518E-16
   3.480000      4.3835882E-18
   3.540000     -2.9122517E-16
   3.600000     -6.8746322E-16
   3.660000     -1.2211307E-15
   3.720000     -1.8250087E-15
   3.780000     -2.2599292E-15
   3.840000     -2.1326953E-15
   3.900000     -1.0390272E-15
   3.960000      1.1926695E-15
   4.020000      4.2557781E-15
   4.080000      7.2613373E-15
   4.140000      8.8944016E-15
   4.200000      7.8500278E-15
   4.260000      3.4268897E-15
   4.320000     -3.9584450E-15
   4.380000     -1.2594562E-14
   4.440000     -1.9791530E-14
   4.500000     -2.2653972E-14
   4.560000     -1.9074997E-14
   4.620000     -8.6030883E-15
   4.680000      7.1371496E-15
   4.740000      2.4636014E-14
   4.800000      3.9263514E-14
   4.860000      4.6404005E-14
   4.920000      4.2678843E-14
   4.980000      2.6978865E-14
   5.040000      1.0716383E-15
   5.100000     -3.0399484E-14
   5.160000     -6.0631919E-14
   5.220000     -8.2064055E-14
   5.280000     -8.8207280E-14
   5.340000     -7.5423581E-14
   5.400000     -4.4052462E-14
   5.460000      1.5582865E-15
   5.520000      5.4138748E-14
   5.580000      1.0519516E-13
   5.640000      1.4649733E-13
   5.700000      1.7068722E-13
   5.760000      1.7098837E-13
   5.820000      1.4081597E-13
   5.880000      7.4542606E-14
   5.940000     -2.9691978E-14
   6.000000     -1.6546350E-13
   6.060000     -3.1374052E-13
   6.120000     -4.4166553E-13
   6.180000     -5.0698475E-13
   6.240000     -4.6871583E-13
   6.300000     -3.0173655E-13
   6.360000     -1.0427449E-14
   6.420000      3.6431673E-13
   6.480000      7.4876720E-13
   6.540000      1.0511477E-12
   6.600000      1.1837487E-12
   6.660000      1.0857136E-12
   6.720000      7.3961497E-13
   6.780000      1.7746316E-13
   6.840000     -5.2420091E-13
   6.900000     -1.2569457E-12
   6.960000     -1.8962601E-12
   7.020000     -2.3171491E-12
   7.080000     -2.4087880E-12
   7.140000     -2.0896605E-12
   7.200000     -1.3245740E-12
   7.260000     -1.4244643E-13
   7.320000      1.3498242E-12
   7.380000      2.9643041E-12
   7.440000      4.4456149E-12
   7.500000      5.5024761E-12
   7.560000      5.8524878E-12
   7.620000      5.2710167E-12
   7.680000      3.6346421E-12
   7.740000      9.5328465E-13
   7.800000     -2.6095740E-12
   7.860000     -6.7260190E-12
   7.920000     -1.0901217E-11
   7.980000     -1.4484357E-11
   8.040000     -1.6704761E-11
   8.100000     -1.6747156E-11
   8.160000     -1.3874070E-11
   8.220000     -7.5890249E-12
   8.280000      2.1840175E-12
   8.340000      1.4944488E-11
   8.400000      2.9527245E-11
   8.460000      4.4120083E-11
   8.520000      5.6404409E-11
   8.580000      6.3810492E-11
   8.640000      6.3852132E-11
   8.700000      5.4484764E-11
   8.760000      3.4420973E-11
   8.820000      3.3393332E-12
   8.880000     -3.8061079E-11
   8.940000     -8.8181171E-11
   9.000000     -1.4480241E-10
   9.060000     -2.0547680E-10
   9.120000     -2.6794691E-10
   9.180000     -3.3050640E-10
   9.240000     -3.9222234E-10
   9.300000     -4.5297224E-10
   9.360000     -5.1329496E-10
   9.420000     -5.7409594E-10
   9.480000     -6.3627853E-10
   9.540000     -7.0037576E-10
   9.600000     -7.6624296E-10
   9.660000     -8.3284180E-10
   9.720000     -8.9812507E-10
   9.780000     -9.5902386E-10
   9.840000     -1.0115510E-09
   9.900000     -1.0510529E-09
   9.960000     -1.0726514E-09
   10.02000     -1.0718962E-09
   10.08000     -1.0456001E-09
   10.14000     -9.9275832E-10
   10.20000     -9.1539393E-10
   10.26000     -8.1914314E-10
   10.32000     -7.1342054E-10
   10.38000     -6.1107491E-10
   10.44000     -5.2753862E-10
   10.50000     -4.7956289E-10
   10.56000     -4.8369436E-10
   10.62000     -5.5468496E-10
   10.68000     -7.0404321E-10
   10.74000     -9.3894781E-10
   10.80000     -1.2617455E-09
   10.86000     -1.6702242E-09
   10.92000     -2.1587601E-09
   10.98000     -2.7202729E-09
   11.04000     -3.3487020E-09
   11.10000     -4.0414911E-09
   11.16000     -4.8014406E-09
   11.22000     -5.6373071E-09
   11.28000     -6.5627357E-09
   11.34000     -7.5934787E-09
   11.40000     -8.7432692E-09
   11.46000     -1.0019090E-08
   11.52000     -1.1416791E-08
   11.58000     -1.2917973E-08
   11.64000     -1.4488901E-08
   11.70000     -1.6081760E-08
   11.76000     -1.7638250E-08
   11.82000     -1.9095017E-08
   11.88000     -2.0390184E-08
   11.94000     -2.1470047E-08
   12.00000     -2.2295017E-08
   12.06000     -2.2844045E-08
   12.12000     -2.3117003E-08
   12.18000     -2.3134849E-08
   12.24000     -2.2937655E-08
   12.30000     -2.2580824E-08
   12.36000     -2.2129882E-08
   12.42000     -2.1654261E-08
   12.48000     -2.1220472E-08
   12.54000     -2.0885178E-08
   12.60000     -2.0688699E-08
   12.66000     -2.0649752E-08
   12.72000     -2.0762347E-08
   12.78000     -2.0995595E-08
   12.84000     -2.1297017E-08
   12.90000     -2.1599190E-08
   12.96000     -2.1829022E-08
   13.02000     -2.1918249E-08
   13.08000     -2.1813403E-08
   13.14000     -2.1483617E-08
   13.20000     -2.0924933E-08
   13.26000     -2.0160590E-08
   13.32000     -1.9237428E-08
   13.38000     -1.8219206E-08
   13.44000     -1.7178019E-08
   13.50000     -1.6185206E-08
   13.56000     -1.5303030E-08
   13.62000     -1.4578173E-08
   13.68000     -1.4037822E-08
   13.74000     -1.3688614E-08
   13.80000     -1.3518340E-08
   13.86000     -1.3499864E-08
   13.92000     -1.3596392E-08
   13.98000     -1.3767106E-08
   14.04000     -1.3972277E-08
   14.10000     -1.4177201E-08
   14.16000     -1.4354744E-08
   14.22000     -1.4486623E-08
   14.28000     -1.4563778E-08
   14.34000     -1.4586267E-08
   14.40000     -1.4562946E-08
   14.46000     -1.4510865E-08
   14.52000     -1.4454157E-08
   14.58000     -1.4421875E-08
   14.64000     -1.4444460E-08
   14.70000     -1.4548749E-08
   14.76000     -1.4752056E-08
   14.82000     -1.5056450E-08
   14.88000     -1.5444746E-08
   14.94000     -1.5879847E-08
   15.00000     -1.6308451E-08
   15.06000     -1.6669256E-08
   15.12000     -1.6904357E-08
   15.18000     -1.6971509E-08
   15.24000     -1.6854178E-08
   15.30000     -1.6566609E-08
   15.36000     -1.6152166E-08
   15.42000     -1.5674955E-08
   15.48000     -1.5206592E-08
   15.54000     -1.4811431E-08
   15.60000     -1.4534042E-08
   15.66000     -1.4392249E-08
   15.72000     -1.4377382E-08
   15.78000     -1.4461328E-08
   15.84000     -1.4607910E-08
   15.90000     -1.4784840E-08
   15.96000     -1.4972356E-08
   16.02000     -1.5165796E-08
   16.08000     -1.5371478E-08
   16.14000     -1.5597504E-08
   16.20000     -1.5843021E-08
   16.26000     -1.6090036E-08
   16.32000     -1.6301186E-08
   16.38000     -1.6424922E-08
   16.44000     -1.6407014E-08
   16.50000     -1.6205147E-08
   16.56000     -1.5802021E-08
   16.62000     -1.5212583E-08
   16.68000     -1.4482421E-08
   16.74000     -1.3676925E-08
   16.80000     -1.2863546E-08
   16.86000     -1.2091721E-08
   16.92000     -1.1376267E-08
   16.98000     -1.0689392E-08
   17.04000     -9.9645341E-09
   17.10000     -9.1119370E-09
   17.16000     -8.0424742E-09
   17.22000     -6.6935537E-09
   17.28000     -5.0499804E-09
   17.34000     -3.1537832E-09
   17.40000     -1.0999678E-09
   17.46000      9.8089792E-10
   17.52000      2.9486851E-09
   17.58000      4.6813802E-09
   17.64000      6.0972036E-09
   17.70000      7.1657054E-09
   17.76000      7.9055607E-09
   17.82000      8.3705283E-09
   17.88000      8.6282341E-09
   17.94000      8.7382510E-09
   18.00000      8.7359551E-09
   18.06000      8.6266843E-09
   18.12000      8.3915328E-09
   18.18000      8.0023392E-09
   18.24000      7.4403741E-09
   18.30000      6.7118813E-09
   18.36000      5.8544680E-09
   18.42000      4.9314153E-09
   18.48000      4.0151322E-09
   18.54000      3.1649907E-09
   18.60000      2.4070390E-09
   18.66000      1.7228579E-09
   18.72000      1.0519936E-09
   18.78000      3.0801617E-10
   18.84000     -5.9626887E-10
   18.90000     -1.7219947E-09
   18.96000     -3.0840093E-09
   19.02000     -4.6435482E-09
   19.08000     -6.3162746E-09
   19.14000     -7.9935898E-09
   19.20000     -9.5712798E-09
   19.26000     -1.0977399E-08
   19.32000     -1.2191589E-08
   19.38000     -1.3250452E-08
   19.44000     -1.4237573E-08
   19.50000     -1.5261090E-08
   19.56000     -1.6425066E-08
   19.62000     -1.7802455E-08
   19.68000     -1.9416648E-08
   19.74000     -2.1235964E-08
   19.80000     -2.3181711E-08
   19.86000     -2.5146800E-08
   19.92000     -2.7019464E-08
   19.98000     -2.8705786E-08
   20.04000     -3.0145706E-08
   20.10000     -3.1319320E-08
   20.16000     -3.2243005E-08
   20.22000     -3.2957427E-08
   20.28000     -3.3511334E-08
   20.34000     -3.3945661E-08
   20.40000     -3.4282106E-08
   20.46000     -3.4518852E-08
   20.52000     -3.4634073E-08
   20.58000     -3.4595665E-08
   20.64000     -3.4373997E-08
   20.70000     -3.3953732E-08
   20.76000     -3.3341188E-08
   20.82000     -3.2564987E-08
   20.88000     -3.1669892E-08
   20.94000     -3.0705557E-08
   21.00000     -2.9713506E-08
   21.06000     -2.8716112E-08
   21.12000     -2.7711057E-08
   21.18000     -2.6673199E-08
   21.24000     -2.5563786E-08
   21.30000     -2.4344738E-08
   21.36000     -2.2994035E-08
   21.42000     -2.1517463E-08
   21.48000     -1.9952735E-08
   21.54000     -1.8363988E-08
   21.60000     -1.6827579E-08
   21.66000     -1.5412994E-08
   21.72000     -1.4164577E-08
   21.78000     -1.3090004E-08
   21.84000     -1.2159636E-08
   21.90000     -1.1317666E-08
   21.96000     -1.0502200E-08
   22.02000     -9.6683195E-09
   22.08000     -8.8068850E-09
   22.14000     -7.9527593E-09
   22.20000     -7.1792425E-09
   22.26000     -6.5797301E-09
   22.32000     -6.2417604E-09
   22.38000     -6.2212209E-09
   22.44000     -6.5246644E-09
   22.50000     -7.1052964E-09
   22.56000     -7.8740241E-09
   22.62000     -8.7222878E-09
   22.68000     -9.5498400E-09
   22.74000     -1.0289235E-08
   22.80000     -1.0919936E-08
   22.86000     -1.1468233E-08
   22.92000     -1.1993417E-08
   22.98000     -1.2564694E-08
   23.04000     -1.3235924E-08
   23.10000     -1.4025815E-08
   23.16000     -1.4909528E-08
   23.22000     -1.5824263E-08
   23.28000     -1.6687110E-08
   23.34000     -1.7419676E-08
   23.40000     -1.7971653E-08
   23.46000     -1.8335758E-08
   23.52000     -1.8548983E-08
   23.58000     -1.8679575E-08
   23.64000     -1.8803854E-08
   23.70000     -1.8980330E-08
   23.76000     -1.9229626E-08
   23.82000     -1.9526718E-08
   23.88000     -1.9808096E-08
   23.94000     -1.9991596E-08
   24.00000     -2.0002691E-08
   24.06000     -1.9799131E-08
   24.12000     -1.9386292E-08
   24.18000     -1.8818561E-08
   24.24000     -1.8186219E-08
   24.30000     -1.7591653E-08
   24.36000     -1.7121948E-08
   24.42000     -1.6826027E-08
   24.48000     -1.6703162E-08
   24.54000     -1.6706236E-08
   24.60000     -1.6758518E-08
   24.66000     -1.6778522E-08
   24.72000     -1.6705027E-08
   24.78000     -1.6514498E-08
   24.84000     -1.6225739E-08
   24.90000     -1.5890949E-08
   24.96000     -1.5576719E-08
   25.02000     -1.5341570E-08
   25.08000     -1.5217406E-08
   25.14000     -1.5200655E-08
   25.20000     -1.5255457E-08
   25.26000     -1.5327322E-08
   25.32000     -1.5362437E-08
   25.38000     -1.5326220E-08
   25.44000     -1.5215264E-08
   25.50000     -1.5059136E-08
   25.56000     -1.4911931E-08
   25.62000     -1.4836613E-08
   25.68000     -1.4887328E-08
   25.74000     -1.5095107E-08
   25.80000     -1.5461042E-08
   25.86000     -1.5958399E-08
   25.92000     -1.6542533E-08
   25.98000     -1.7165304E-08
   26.04000     -1.7789837E-08
   26.10000     -1.8401641E-08
   26.16000     -1.9013333E-08
   26.22000     -1.9661911E-08
   26.28000     -2.0399359E-08
   26.34000     -2.1279082E-08
   26.40000     -2.2341696E-08
   26.46000     -2.3603942E-08
   26.52000     -2.5053581E-08
   26.58000     -2.6651483E-08
   26.64000     -2.8339899E-08
   26.70000     -3.0054245E-08
   26.76000     -3.1734924E-08
   26.82000     -3.3336114E-08
   26.88000     -3.4829817E-08
   26.94000     -3.6205080E-08
   27.00000     -3.7463487E-08
   27.06000     -3.8612686E-08
   27.12000     -3.9659596E-08
   27.18000     -4.0604732E-08
   27.24000     -4.1438653E-08
   27.30000     -4.2141338E-08
   27.36000     -4.2684899E-08
   27.42000     -4.3039421E-08
   27.48000     -4.3180808E-08
   27.54000     -4.3098748E-08
   27.60000     -4.2802501E-08
   27.66000     -4.2322633E-08
   27.72000     -4.1707658E-08
   27.78000     -4.1016190E-08
   27.84000     -4.0306222E-08
   27.90000     -3.9624176E-08
   27.96000     -3.8996319E-08
   28.02000     -3.8424883E-08
   28.08000     -3.7890025E-08
   28.14000     -3.7357506E-08
   28.20000     -3.6790425E-08
   28.26000     -3.6162234E-08
   28.32000     -3.5467416E-08
   28.38000     -3.4726703E-08
   28.44000     -3.3984950E-08
   28.50000     -3.3301713E-08
   28.56000     -3.2736892E-08
   28.62000     -3.2335393E-08
   28.68000     -3.2115118E-08
   28.74000     -3.2061891E-08
   28.80000     -3.2133002E-08
   28.86000     -3.2268549E-08
   28.92000     -3.2407613E-08
   28.98000     -3.2504797E-08
   29.04000     -3.2542495E-08
   29.10000     -3.2535379E-08
   29.16000     -3.2525751E-08
   29.22000     -3.2571197E-08
   29.28000     -3.2728284E-08
   29.34000     -3.3037292E-08
   29.40000     -3.3512691E-08
   29.46000     -3.4142161E-08
   29.52000     -3.4894079E-08
   29.58000     -3.5730668E-08
   29.64000     -3.6622186E-08
   29.70000     -3.7557388E-08
   29.76000     -3.8546769E-08
   29.82000     -3.9617753E-08
   29.88000     -4.0803332E-08
   29.94000     -4.2128001E-08
   30.00000     -4.3595396E-08
   30.06000     -4.5181729E-08
   30.12000     -4.6837361E-08
   30.18000     -4.8496513E-08
   30.24000     -5.0092659E-08
   30.30000     -5.1575395E-08
   30.36000     -5.2923806E-08
   30.42000     -5.4152281E-08
   30.48000     -5.5306600E-08
   30.54000     -5.6451050E-08
   30.60000     -5.7649910E-08
   30.66000     -5.8948284E-08
   30.72000     -6.0357479E-08
   30.78000     -6.1848851E-08
   30.84000     -6.3357639E-08
   30.90000     -6.4795536E-08
   30.96000     -6.6068878E-08
   31.02000     -6.7097652E-08
   31.08000     -6.7830989E-08
   31.14000     -6.8255659E-08
   31.20000     -6.8395948E-08
   31.26000     -6.8305376E-08
   31.32000     -6.8052763E-08
   31.38000     -6.7706203E-08
   31.44000     -6.7318901E-08
   31.50000     -6.6920187E-08
   31.56000     -6.6513408E-08
   31.62000     -6.6080588E-08
   31.68000     -6.5591699E-08
   31.74000     -6.5015648E-08
   31.80000     -6.4329669E-08
   31.86000     -6.3524745E-08
   31.92000     -6.2606425E-08
   31.98000     -6.1591436E-08
   32.04000     -6.0502110E-08
   32.10000     -5.9360303E-08
   32.16000     -5.8182732E-08
   32.22000     -5.6978212E-08
   32.28000     -5.5747066E-08
   32.34000     -5.4482197E-08
   32.40000     -5.3171355E-08
   32.46000     -5.1800150E-08
   32.52000     -5.0355499E-08
   32.58000     -4.8829211E-08
   32.64000     -4.7221143E-08
   32.70000     -4.5541476E-08
   32.76000     -4.3811479E-08
   32.82000     -4.2062446E-08
   32.88000     -4.0332811E-08
   32.94000     -3.8663760E-08
   33.00000     -3.7094058E-08
   33.06000     -3.5654988E-08
   33.12000     -3.4366451E-08
   33.18000     -3.3235033E-08
   33.24000     -3.2254498E-08
   33.30000     -3.1408582E-08
   33.36000     -3.0675327E-08
   33.42000     -3.0031906E-08
   33.48000     -2.9458835E-08
   33.54000     -2.8942999E-08
   33.60000     -2.8479386E-08
   33.66000     -2.8071739E-08
   33.72000     -2.7732318E-08
   33.78000     -2.7480521E-08
   33.84000     -2.7339880E-08
   33.90000     -2.7333094E-08
   33.96000     -2.7475489E-08
   34.02000     -2.7768440E-08
   34.08000     -2.8194952E-08
   34.14000     -2.8719537E-08
   34.20000     -2.9293364E-08
   34.26000     -2.9863894E-08
   34.32000     -3.0386502E-08
   34.38000     -3.0834759E-08
   34.44000     -3.1206515E-08
   34.50000     -3.1524081E-08
   34.56000     -3.1828655E-08
   34.62000     -3.2170526E-08
   34.68000     -3.2597345E-08
   34.74000     -3.3142957E-08
   34.80000     -3.3818974E-08
   34.86000     -3.4610817E-08
   34.92000     -3.5479150E-08
   34.98000     -3.6366860E-08
   35.04000     -3.7210295E-08
   35.10000     -3.7952418E-08
   35.16000     -3.8554557E-08
   35.22000     -3.9003577E-08
   35.28000     -3.9312454E-08
   35.34000     -3.9514148E-08
   35.40000     -3.9650864E-08
   35.46000     -3.9762146E-08
   35.52000     -3.9875566E-08
   35.58000     -4.0002561E-08
   35.64000     -4.0140083E-08
   35.70000     -4.0276745E-08
   35.76000     -4.0400781E-08
   35.82000     -4.0506830E-08
   35.88000     -4.0599264E-08
   35.94000     -4.0691287E-08
   36.00000     -4.0800174E-08
   36.06000     -4.0940417E-08
   36.12000     -4.1116895E-08
   36.18000     -4.1320199E-08
   36.24000     -4.1525681E-08
   36.30000     -4.1696957E-08
   36.36000     -4.1793324E-08
   36.42000     -4.1779536E-08
   36.48000     -4.1635275E-08
   36.54000     -4.1361453E-08
   36.60000     -4.0981018E-08
   36.66000     -4.0533354E-08
   36.72000     -4.0063593E-08
   36.78000     -3.9609748E-08
   36.84000     -3.9191860E-08
   36.90000     -3.8806679E-08
   36.96000     -3.8429668E-08
   37.02000     -3.8023781E-08
   37.08000     -3.7552020E-08
   37.14000     -3.6989739E-08
   37.20000     -3.6332942E-08
   37.26000     -3.5600195E-08
   37.32000     -3.4828027E-08
   37.38000     -3.4061497E-08
   37.44000     -3.3342868E-08
   37.50000     -3.2701593E-08
   37.56000     -3.2148151E-08
   37.62000     -3.1673192E-08
   37.68000     -3.1251894E-08
   37.74000     -3.0852068E-08
   37.80000     -3.0443520E-08
   37.86000     -3.0005914E-08
   37.92000     -2.9532892E-08
   37.98000     -2.9031478E-08
   38.04000     -2.8517530E-08
   38.10000     -2.8009097E-08
   38.16000     -2.7520253E-08
   38.22000     -2.7057304E-08
   38.28000     -2.6618247E-08
   38.34000     -2.6194943E-08
   38.40000     -2.5776703E-08
   38.46000     -2.5353884E-08
   38.52000     -2.4920530E-08
   38.58000     -2.4475758E-08
   38.64000     -2.4024089E-08
   38.70000     -2.3574961E-08
   38.76000     -2.3141521E-08
   38.82000     -2.2738773E-08
   38.88000     -2.2381206E-08
   38.94000     -2.2080359E-08
   39.00000     -2.1842977E-08
   39.06000     -2.1670399E-08
   39.12000     -2.1559455E-08
   39.18000     -2.1504617E-08
   39.24000     -2.1500739E-08
   39.30000     -2.1545526E-08
   39.36000     -2.1641005E-08
   39.42000     -2.1793564E-08
   39.48000     -2.2012518E-08
   39.54000     -2.2307381E-08
   39.60000     -2.2684352E-08
   39.66000     -2.3142793E-08
   39.72000     -2.3672625E-08
   39.78000     -2.4253692E-08
   39.84000     -2.4857846E-08
   39.90000     -2.5453947E-08
   39.96000     -2.6015044E-08
   40.02000     -2.6526257E-08
   40.08000     -2.6991227E-08
   40.14000     -2.7435101E-08
   40.20000     -2.7902544E-08
   40.26000     -2.8450550E-08
   40.32000     -2.9137199E-08
   40.38000     -3.0008920E-08
   40.44000     -3.1089606E-08
   40.50000     -3.2374878E-08
   40.56000     -3.3833587E-08
   40.62000     -3.5416775E-08
   40.68000     -3.7071953E-08
   40.74000     -3.8758834E-08
   40.80000     -4.0461881E-08
   40.86000     -4.2195818E-08
   40.92000     -4.4002242E-08
   40.98000     -4.5937863E-08
   41.04000     -4.8057601E-08
   41.10000     -5.0397048E-08
   41.16000     -5.2959138E-08
   41.22000     -5.5708856E-08
   41.28000     -5.8577555E-08
   41.34000     -6.1475866E-08
   41.40000     -6.4311727E-08
   41.46000     -6.7008322E-08
   41.52000     -6.9516844E-08
   41.58000     -7.1820125E-08
   41.64000     -7.3926522E-08
   41.70000     -7.5856057E-08
   41.76000     -7.7623987E-08
   41.82000     -7.9227178E-08
   41.88000     -8.0638259E-08
   41.94000     -8.1809318E-08
   42.00000     -8.2684274E-08
   42.06000     -8.3216044E-08
   42.12000     -8.3383590E-08
   42.18000     -8.3203751E-08
   42.24000     -8.2734566E-08
   42.30000     -8.2068354E-08
   42.36000     -8.1316031E-08
   42.42000     -8.0585764E-08
   42.48000     -7.9961268E-08
   42.54000     -7.9485332E-08
   42.60000     -7.9153331E-08
   42.66000     -7.8919122E-08
   42.72000     -7.8711963E-08
   42.78000     -7.8459941E-08
   42.84000     -7.8112890E-08
   42.90000     -7.7658058E-08
   42.96000     -7.7123758E-08
   43.02000     -7.6570274E-08
   43.08000     -7.6071068E-08
   43.14000     -7.5690274E-08
   43.20000     -7.5463007E-08
   43.26000     -7.5383902E-08
   43.32000     -7.5406419E-08
   43.38000     -7.5452256E-08
   43.44000     -7.5427778E-08
   43.50000     -7.5242717E-08
   43.56000     -7.4826573E-08
   43.62000     -7.4139081E-08
   43.68000     -7.3172941E-08
   43.74000     -7.1949380E-08
   43.80000     -7.0508293E-08
   43.86000     -6.8896398E-08
   43.92000     -6.7156584E-08
   43.98000     -6.5321267E-08
   44.04000     -6.3410972E-08
   44.10000     -6.1437888E-08
   44.16000     -5.9412656E-08
   44.22000     -5.7351627E-08
   44.28000     -5.5281859E-08
   44.34000     -5.3241823E-08
   44.40000     -5.1277393E-08
   44.46000     -4.9434156E-08
   44.52000     -4.7748589E-08
   44.58000     -4.6240832E-08
   44.64000     -4.4911548E-08
   44.70000     -4.3743714E-08
   44.76000     -4.2708848E-08
   44.82000     -4.1775728E-08
   44.88000     -4.0919030E-08
   44.94000     -4.0125681E-08
   45.00000     -3.9397186E-08
   45.06000     -3.8747604E-08
   45.12000     -3.8197797E-08
   45.18000     -3.7767599E-08
   45.24000     -3.7468173E-08
   45.30000     -3.7296829E-08
   45.36000     -3.7236024E-08
   45.42000     -3.7256957E-08
   45.48000     -3.7326807E-08
   45.54000     -3.7417397E-08
   45.60000     -3.7512553E-08
   45.66000     -3.7612093E-08
   45.72000     -3.7731638E-08
   45.78000     -3.7898715E-08
   45.84000     -3.8146769E-08
   45.90000     -3.8508887E-08
   45.96000     -3.9012733E-08
   46.02000     -3.9677531E-08
   46.08000     -4.0513385E-08
   46.14000     -4.1522821E-08
   46.20000     -4.2703824E-08
   46.26000     -4.4053149E-08
   46.32000     -4.5568314E-08
   46.38000     -4.7246733E-08
   46.44000     -4.9081528E-08
   46.50000     -5.1055213E-08
   46.56000     -5.3133999E-08
   46.62000     -5.5266113E-08
   46.68000     -5.7386654E-08
   46.74000     -5.9428999E-08
   46.80000     -6.1340053E-08
   46.86000     -6.3094625E-08
   46.92000     -6.4703961E-08
   46.98000     -6.6215250E-08
   47.04000     -6.7702175E-08
   47.10000     -6.9249381E-08
   47.16000     -7.0936046E-08
   47.22000     -7.2823738E-08
   47.28000     -7.4952574E-08
   47.34000     -7.7346868E-08
   47.40000     -8.0028826E-08
   47.46000     -8.3036355E-08
   47.52000     -8.6439968E-08
   47.58000     -9.0354078E-08
   47.64000     -9.4939779E-08
   47.70000     -1.0039884E-07
   47.76000     -1.0696179E-07
   47.82000     -1.1487469E-07
   47.88000     -1.2439020E-07
   47.94000     -1.3576719E-07
   48.00000     -1.4928057E-07
   48.06000     -1.6524014E-07
   48.12000     -1.8401485E-07
   48.18000     -2.0605724E-07
   48.24000     -2.3192381E-07
   48.30000     -2.6228872E-07
   48.36000     -2.9795092E-07
   48.42000     -3.3983696E-07
   48.48000     -3.8900362E-07
   48.54000     -4.4664387E-07
   48.60000     -5.1409910E-07
   48.66000     -5.9287794E-07
   48.72000     -6.8468114E-07
   48.78000     -7.9142978E-07
   48.84000     -9.1529387E-07
   48.90000     -1.0587202E-06
   48.96000     -1.2244569E-06
   49.02000     -1.4155765E-06
   49.08000     -1.6354977E-06
   49.14000     -1.8880093E-06
   49.20000     -2.1772967E-06
   49.26000     -2.5079751E-06
   49.32000     -2.8851262E-06
   49.38000     -3.3143401E-06
   49.44000     -3.8017583E-06
   49.50000     -4.3541177E-06
   49.56000     -4.9787868E-06
   49.62000     -5.6837989E-06
   49.68000     -6.4778769E-06
   49.74000     -7.3704591E-06
   49.80000     -8.3717132E-06
   49.86000     -9.4925517E-06
   49.92000     -1.0744657E-05
   49.98000     -1.2140486E-05
   50.04000     -1.3693301E-05
   50.10000     -1.5417165E-05
   50.16000     -1.7326953E-05
   50.22000     -1.9438325E-05
   50.28000     -2.1767719E-05
   50.34000     -2.4332292E-05
   50.40000     -2.7149885E-05
   50.46000     -3.0238962E-05
   50.52000     -3.3618548E-05
   50.58000     -3.7308149E-05
   50.64000     -4.1327668E-05
   50.70000     -4.5697303E-05
   50.76000     -5.0437437E-05
   50.82000     -5.5568489E-05
   50.88000     -6.1110790E-05
   50.94000     -6.7084409E-05
   51.00000     -7.3508934E-05
   51.06000     -8.0403399E-05
   51.12000     -8.7785964E-05
   51.18000     -9.5673771E-05
   51.24000     -1.0408277E-04
   51.30000     -1.1302745E-04
   51.36000     -1.2252067E-04
   51.42000     -1.3257342E-04
   51.48000     -1.4319470E-04
   51.54000     -1.5439118E-04
   51.60000     -1.6616707E-04
   51.66000     -1.7852384E-04
   51.72000     -1.9146012E-04
   51.78000     -2.0497138E-04
   51.84000     -2.1904988E-04
   51.90000     -2.3368462E-04
   51.96000     -2.4886103E-04
   52.02000     -2.6456104E-04
   52.08000     -2.8076305E-04
   52.14000     -2.9744190E-04
   52.20000     -3.1456893E-04
   52.26000     -3.3211199E-04
   52.32000     -3.5003558E-04
   52.38000     -3.6830088E-04
   52.44000     -3.8686598E-04
   52.50000     -4.0568603E-04
   52.56000     -4.2471351E-04
   52.62000     -4.4389861E-04
   52.68000     -4.6318964E-04
   52.74000     -4.8253324E-04
   52.80000     -5.0187495E-04
   52.86000     -5.2115932E-04
   52.92000     -5.4033066E-04
   52.98000     -5.5933319E-04
   53.04000     -5.7811197E-04
   53.10000     -5.9661304E-04
   53.16000     -6.1478408E-04
   53.22000     -6.3257467E-04
   53.28000     -6.4993702E-04
   53.34000     -6.6682638E-04
   53.40000     -6.8320124E-04
   53.46000     -6.9902401E-04
   53.52000     -7.1426126E-04
   53.58000     -7.2888401E-04
   53.64000     -7.4286835E-04
   53.70000     -7.5619528E-04
   53.76000     -7.6885126E-04
   53.82000     -7.8082783E-04
   53.88000     -7.9212198E-04
   53.94000     -8.0273621E-04
   54.00000     -8.1267813E-04
   54.06000     -8.2196086E-04
   54.12000     -8.3060242E-04
   54.18000     -8.3862548E-04
   54.24000     -8.4605708E-04
   54.30000     -8.5292861E-04
   54.36000     -8.5927459E-04
   54.42000     -8.6513278E-04
   54.48000     -8.7054371E-04
   54.54000     -8.7554951E-04
   54.60000     -8.8019390E-04
   54.66000     -8.8452146E-04
   54.72000     -8.8857714E-04
   54.78000     -8.9240534E-04
   54.84000     -8.9604937E-04
   54.90000     -8.9955091E-04
   54.96000     -9.0294937E-04
   55.02000     -9.0628123E-04
   55.08000     -9.0958003E-04
   55.14000     -9.1287558E-04
   55.20000     -9.1619365E-04
   55.26000     -9.1955549E-04
   55.32000     -9.2297758E-04
   55.38000     -9.2647166E-04
   55.44000     -9.3004439E-04
   55.50000     -9.3369756E-04
   55.56000     -9.3742769E-04