  -2.400000      0.0000000E+00
  -2.340000      0.0000000E+00
  -2.280000      0.0000000E+00
  -2.220000      0.0000000E+00
  -2.160000      0.0000000E+00
  -2.100000      0.0000000E+00
  -2.040000      0.0000000E+00
  -1.980000      0.0000000E+00
  -1.920000      0.0000000E+00
  -1.860000      0.0000000E+00
  -1.800000     -4.9925062E-30
  -1.740000     -6.1671461E-29
  -1.680000     -3.5366410E-28
  -1.620000     -1.1587036E-27
  -1.560000     -1.8282897E-27
  -1.500000      2.3362659E-27
  -1.440000      2.3554598E-26
  -1.380000      7.4871171E-26
  -1.320000      1.3410760E-25
  -1.260000      7.4415764E-26
  -1.200000     -3.7359873E-25
  -1.140000     -1.4560157E-24
  -1.080000     -2.8384201E-24
  -1.020000     -2.7749845E-24
 -0.9600000      2.1443294E-24
 -0.9000000      1.5055425E-23
 -0.8400000      3.3418193E-23
 -0.7800000      4.1656125E-23
 -0.7200000      8.5774661E-24
 -0.6600000     -9.9103535E-23
 -0.6000000     -2.7844841E-22
 -0.5400000     -4.3503076E-22
 -0.4800000     -3.4887642E-22
 -0.4200000      2.7109411E-22
 -0.3600000      1.5803327E-21
 -0.3000000      3.2484617E-21
 -0.2400000      4.1284560E-21
 -0.1800000      2.2922516E-21
 -0.1200000     -4.1465934E-21
 -5.9999999E-02 -1.5241528E-20
  0.0000000E+00 -2.6963661E-20
  5.9999999E-02 -3.0020766E-20
  0.1200000     -1.2016563E-20
  0.1800000      3.5310024E-20
  0.2400000      1.0473753E-19
  0.3000000      1.6376151E-19
  0.3600000      1.5636344E-19
  0.4200000      2.6104752E-20
  0.4800000     -2.3885225E-19
  0.5400000     -5.5639079E-19
  0.6000000     -7.3371034E-19
  0.6600000     -5.2486404E-19
  0.7200000      2.2223662E-19
  0.7800000      1.3747319E-18
  0.8400000      2.3960418E-18
  0.9000000      2.4467395E-18
  0.9600000      7.8855914E-19
   1.020000     -2.5999108E-18
   1.080000     -6.5117577E-18
   1.140000     -8.5529044E-18
   1.200000     -6.0643659E-18
   1.260000      2.1845598E-18
   1.320000      1.4264723E-17
   1.380000      2.4506900E-17
   1.440000      2.5132463E-17
   1.500000      1.0211230E-17
   1.560000     -1.9458842E-17
   1.620000     -5.3299985E-17
   1.680000     -7.2648719E-17
   1.740000     -5.8435652E-17
   1.800000     -2.8250687E-18
   1.860000      8.0653240E-17
   1.920000      1.5544435E-16
   1.980000      1.7354223E-16
   2.040000      9.9015273E-17
   2.100000     -6.5520381E-17
   2.160000     -2.6389560E-16
   2.220000     -3.9629257E-16
   2.280000     -3.5833885E-16
   2.340000     -9.8600419E-17
   2.400000      3.3086544E-16
   2.460000      7.6190889E-16
   2.520000      9.5713272E-16
   2.580000      7.1283752E-16
   2.640000     -1.7281600E-17
   2.700000     -1.0372999E-15
   2.760000     -1.9232876E-15
   2.820000     -2.1648925E-15
   2.880000     -1.4038704E-15
   2.940000      3.2407552E-16
   3.000000      2.4726380E-15
   3.060000      4.0991359E-15
   3.120000      4.2268219E-15
   3.180000      2.3438126E-15
   3.240000     -1.1844820E-15
   3.300000     -5.0393111E-15
   3.360000     -7.3568149E-15
   3.420000     -6.5514462E-15
   3.480000     -2.2369073E-15
   3.540000      4.2246865E-15
   3.600000      9.9542338E-15
   3.660000      1.1672343E-14
   3.720000      7.3540671E-15
   3.780000     -2.3183648E-15
   3.840000     -1.3545371E-14
   3.900000     -2.0555186E-14
   3.960000     -1.8124516E-14
   4.020000     -4.5163098E-15
   4.080000      1.6592876E-14
   4.140000      3.6459283E-14
   4.200000      4.4296083E-14
   4.260000      3.2114760E-14
   4.320000     -5.8441811E-16
   4.380000     -4.4597772E-14
   4.440000     -8.2885813E-14
   4.500000     -9.6492218E-14
   4.560000     -7.2568375E-14
   4.620000     -1.1243999E-14
   4.680000      7.1908903E-14
   4.740000      1.4956023E-13
   4.800000      1.9169006E-13
   4.860000      1.7682085E-13
   4.920000      1.0092997E-13
   4.980000     -1.9807967E-14
   5.040000     -1.5388057E-13
   5.100000     -2.6508841E-13
   5.160000     -3.2455478E-13
   5.220000     -3.1894935E-13
   5.280000     -2.5147863E-13
   5.340000     -1.3569965E-13
   5.400000      1.4041775E-14
   5.460000      1.8961468E-13
   5.520000      3.8841830E-13
   5.580000      6.0364739E-13
   5.640000      8.0946469E-13
   5.700000      9.4946295E-13
   5.760000      9.3790654E-13
   5.820000      6.7974830E-13
   5.880000      1.0797967E-13
   5.940000     -7.7192029E-13
   6.000000     -1.8471518E-12
   6.060000     -2.8899827E-12
   6.120000     -3.5888597E-12
   6.180000     -3.6179087E-12
   6.240000     -2.7307128E-12
   6.300000     -8.5346357E-13
   6.360000      1.8509406E-12
   6.420000      4.9706853E-12
   6.480000      7.8943241E-12
   6.540000      9.9145718E-12
   6.600000      1.0365301E-11
   6.660000      8.7628906E-12
   6.720000      4.9243157E-12
   6.780000     -9.5735008E-13
   6.840000     -8.2883353E-12
   6.900000     -1.6099998E-11
   6.960000     -2.3121371E-11
   7.020000     -2.7897020E-11
   7.080000     -2.8952892E-11
   7.140000     -2.5013255E-11
   7.200000     -1.5263710E-11
   7.260000      3.6254699E-13
   7.320000      2.0921426E-11
   7.380000      4.4284677E-11
   7.440000      6.7131870E-11
   7.500000      8.5170468E-11
   7.560000      9.3612153E-11
   7.620000      8.7881993E-11
   7.680000      6.4480754E-11
   7.740000      2.1874075E-11
   7.800000     -3.8740653E-11
   7.860000     -1.1293255E-10
   7.920000     -1.9290763E-10
   7.980000     -2.6780336E-10
   8.040000     -3.2439768E-10
   8.100000     -3.4816813E-10
   8.160000     -3.2459724E-10
   8.220000     -2.4060126E-10
   8.280000     -8.5953716E-11
   8.340000      1.4541851E-10
   8.400000      4.5438259E-10
   8.460000      8.3589813E-10
   8.520000      1.2787656E-09
   8.580000      1.7659054E-09
   8.640000      2.2752153E-09
   8.700000      2.7809981E-09
   8.760000      3.2558793E-09
   8.820000      3.6730554E-09
   8.880000      4.0086356E-09
   8.940000      4.2438062E-09
   9.000000      4.3665476E-09
   9.060000      4.3726773E-09
   9.120000      4.2660995E-09
   9.180000      4.0582222E-09
   9.240000      3.7666235E-09
   9.300000      3.4131138E-09
   9.360000      3.0213803E-09
   9.420000      2.6144322E-09
   9.480000      2.2120785E-09
   9.540000      1.8286856E-09
   9.600000      1.4714903E-09
   9.660000      1.1397322E-09
   9.720000      8.2483292E-10
   9.780000      5.1172561E-10
   9.840000      1.8126951E-10
   9.900000     -1.8653563E-10
   9.960000     -6.0901251E-10
   10.02000     -1.0975377E-09
   10.08000     -1.6551261E-09
   10.14000     -2.2753066E-09
   10.20000     -2.9424765E-09
   10.26000     -3.6336334E-09
   10.32000     -4.3211226E-09
   10.38000     -4.9758824E-09
   10.44000     -5.5706493E-09
   10.50000     -6.0826699E-09
   10.56000     -6.4956560E-09
   10.62000     -6.8008830E-09
   10.68000     -6.9974915E-09
   10.74000     -7.0921020E-09
   10.80000     -7.0978605E-09
   10.86000     -7.0329906E-09
   10.92000     -6.9188983E-09
   10.98000     -6.7779022E-09
   11.04000     -6.6307329E-09
   11.10000     -6.4940524E-09
   11.16000     -6.3783427E-09
   11.22000     -6.2865331E-09
   11.28000     -6.2136780E-09
   11.34000     -6.1478169E-09
   11.40000     -6.0719119E-09
   11.46000     -5.9665419E-09
   11.52000     -5.8128435E-09
   11.58000     -5.5951555E-09
   11.64000     -5.3029177E-09
   11.70000     -4.9315889E-09
   11.76000     -4.4825827E-09
   11.82000     -3.9624739E-09
   11.88000     -3.3818111E-09
   11.94000     -2.7538598E-09
   12.00000     -2.0934499E-09
   12.06000     -1.4159044E-09
   12.12000     -7.3589296E-10
   12.18000     -6.6033054E-11
   12.24000      5.8478239E-10
   12.30000      1.2131079E-09
   12.36000      1.8222357E-09
   12.42000      2.4224585E-09
   12.48000      3.0298235E-09
   12.54000      3.6632595E-09
   12.60000      4.3404804E-09
   12.66000      5.0735856E-09
   12.72000      5.8655756E-09
   12.78000      6.7089432E-09
   12.84000      7.5870297E-09
   12.90000      8.4780805E-09
   12.96000      9.3610568E-09
   13.02000      1.0221634E-08
   13.08000      1.1056588E-08
   13.14000      1.1875119E-08
   13.20000      1.2696521E-08
   13.26000      1.3544681E-08
   13.32000      1.4440877E-08
   13.38000      1.5396951E-08
   13.44000      1.6410828E-08
   13.50000      1.7465743E-08
   13.56000      1.8533406E-08
   13.62000      1.9580307E-08
   13.68000      2.0575420E-08
   13.74000      2.1497298E-08
   13.80000      2.2338781E-08
   13.86000      2.3108162E-08
   13.92000      2.3826603E-08
   13.98000      2.4522469E-08
   14.04000      2.5223933E-08
   14.10000      2.5951618E-08
   14.16000      2.6713023E-08
   14.22000      2.7500134E-08
   14.28000      2.8290883E-08
   14.34000      2.9054229E-08
   14.40000      2.9757681E-08
   14.46000      3.0375350E-08
   14.52000      3.0894423E-08
   14.58000      3.1318187E-08
   14.64000      3.1664722E-08
   14.70000      3.1961456E-08
   14.76000      3.2236997E-08
   14.82000      3.2512514E-08
   14.88000      3.2795043E-08
   14.94000      3.3074745E-08
   15.00000      3.3327062E-08
   15.06000      3.3519420E-08
   15.12000      3.3620850E-08
   15.18000      3.3611965E-08
   15.24000      3.3492562E-08
   15.30000      3.3284522E-08
   15.36000      3.3028847E-08
   15.42000      3.2777386E-08
   15.48000      3.2581070E-08
   15.54000      3.2477814E-08
   15.60000      3.2483157E-08
   15.66000      3.2586193E-08
   15.72000      3.2751718E-08
   15.78000      3.2927893E-08
   15.84000      3.3057141E-08
   15.90000      3.3087325E-08
   15.96000      3.2980413E-08
   16.02000      3.2716901E-08
   16.08000      3.2295553E-08
   16.14000      3.1729616E-08
   16.20000      3.1041420E-08
   16.26000      3.0257240E-08
   16.32000      2.9403905E-08
   16.38000      2.8507340E-08
   16.44000      2.7592343E-08
   16.50000      2.6682301E-08
   16.56000      2.5797737E-08
   16.62000      2.4953350E-08
   16.68000      2.4154255E-08
   16.74000      2.3392998E-08
   16.80000      2.2649010E-08
   16.86000      2.1891690E-08
   16.92000      2.1086938E-08
   16.98000      2.0205757E-08
   17.04000      1.9232507E-08
   17.10000      1.8170265E-08
   17.16000      1.7041515E-08
   17.22000      1.5883604E-08
   17.28000      1.4740070E-08
   17.34000      1.3650022E-08
   17.40000      1.2638291E-08
   17.46000      1.1708883E-08
   17.52000      1.0843306E-08
   17.58000      1.0004102E-08
   17.64000      9.1426324E-09
   17.70000      8.2091702E-09
   17.76000      7.1629058E-09
   17.82000      5.9795560E-09
   17.88000      4.6549897E-09
   17.94000      3.2042984E-09
   18.00000      1.6568937E-09
   18.06000      4.9140393E-11
   18.12000     -1.5834549E-09
   18.18000     -3.2125198E-09
   18.24000     -4.8201363E-09
   18.30000     -6.3987118E-09
   18.36000     -7.9479250E-09
   18.42000     -9.4701411E-09
   18.48000     -1.0966136E-08
   18.54000     -1.2432846E-08
   18.60000     -1.3864152E-08
   18.66000     -1.5254601E-08
   18.72000     -1.6604748E-08
   18.78000     -1.7925975E-08
   18.84000     -1.9242449E-08
   18.90000     -2.0588617E-08
   18.96000     -2.2002027E-08
   19.02000     -2.3512960E-08
   19.08000     -2.5133730E-08
   19.14000     -2.6851028E-08
   19.20000     -2.8624129E-08
   19.26000     -3.0390261E-08
   19.32000     -3.2076301E-08
   19.38000     -3.3614128E-08
   19.44000     -3.4955669E-08
   19.50000     -3.6083581E-08
   19.56000     -3.7014605E-08
   19.62000     -3.7794443E-08
   19.68000     -3.8485421E-08
   19.74000     -3.9150120E-08
   19.80000     -3.9835403E-08
   19.86000     -4.0561087E-08
   19.92000     -4.1316433E-08
   19.98000     -4.2065128E-08
   20.04000     -4.2757293E-08
   20.10000     -4.3344787E-08
   20.16000     -4.3795417E-08
   20.22000     -4.4102027E-08
   20.28000     -4.4284235E-08
   20.34000     -4.4382752E-08
   20.40000     -4.4448321E-08
   20.46000     -4.4528708E-08
   20.52000     -4.4657273E-08
   20.58000     -4.4845827E-08
   20.64000     -4.5083041E-08
   20.70000     -4.5338069E-08
   20.76000     -4.5567774E-08
   20.82000     -4.5725564E-08
   20.88000     -4.5769610E-08
   20.94000     -4.5669051E-08
   21.00000     -4.5407344E-08
   21.06000     -4.4982659E-08
   21.12000     -4.4405791E-08
   21.18000     -4.3696470E-08
   21.24000     -4.2878902E-08
   21.30000     -4.1977721E-08
   21.36000     -4.1015188E-08
   21.42000     -4.0010352E-08
   21.48000     -3.8980374E-08
   21.54000     -3.7943490E-08
   21.60000     -3.6922607E-08
   21.66000     -3.5947998E-08
   21.72000     -3.5057678E-08
   21.78000     -3.4294739E-08
   21.84000     -3.3701703E-08
   21.90000     -3.3313171E-08
   21.96000     -3.3148535E-08
   22.02000     -3.3206682E-08
   22.08000     -3.3464101E-08
   22.14000     -3.3876844E-08
   22.20000     -3.4385810E-08
   22.26000     -3.4924199E-08
   22.32000     -3.5425558E-08
   22.38000     -3.5831000E-08
   22.44000     -3.6094512E-08
   22.50000     -3.6185774E-08
   22.56000     -3.6090476E-08
   22.62000     -3.5808512E-08
   22.68000     -3.5350773E-08
   22.74000     -3.4735265E-08
   22.80000     -3.3983138E-08
   22.86000     -3.3115100E-08
   22.92000     -3.2148272E-08
   22.98000     -3.1093720E-08
   23.04000     -2.9954922E-08
   23.10000     -2.8727600E-08
   23.16000     -2.7401432E-08
   23.22000     -2.5963843E-08
   23.28000     -2.4405439E-08
   23.34000     -2.2725938E-08
   23.40000     -2.0939023E-08
   23.46000     -1.9074607E-08
   23.52000     -1.7177671E-08
   23.58000     -1.5303822E-08
   23.64000     -1.3512778E-08
   23.70000     -1.1861419E-08
   23.76000     -1.0398107E-08
   23.82000     -9.1592494E-09
   23.88000     -8.1682057E-09
   23.94000     -7.4358857E-09
   24.00000     -6.9619399E-09
   24.06000     -6.7356063E-09
   24.12000     -6.7357981E-09
   24.18000     -6.9307835E-09
   24.24000     -7.2783664E-09
   24.30000     -7.7277056E-09
   24.36000     -8.2235276E-09
   24.42000     -8.7126688E-09
   24.48000     -9.1518562E-09
   24.54000     -9.5148556E-09
   24.60000     -9.7969037E-09
   24.66000     -1.0014883E-08
   24.72000     -1.0202880E-08
   24.78000     -1.0404151E-08
   24.84000     -1.0661582E-08
   24.90000     -1.1009127E-08
   24.96000     -1.1466246E-08
   25.02000     -1.2036325E-08
   25.08000     -1.2708743E-08
   25.14000     -1.3463229E-08
   25.20000     -1.4274603E-08
   25.26000     -1.5116200E-08
   25.32000     -1.5960921E-08
   25.38000     -1.6779905E-08
   25.44000     -1.7539877E-08
   25.50000     -1.8200875E-08
   25.56000     -1.8716259E-08
   25.62000     -1.9036264E-08
   25.68000     -1.9115232E-08
   25.74000     -1.8921151E-08
   25.80000     -1.8444958E-08
   25.86000     -1.7706574E-08
   25.92000     -1.6755251E-08
   25.98000     -1.5663295E-08
   26.04000     -1.4514220E-08
   26.10000     -1.3388145E-08
   26.16000     -1.2348132E-08
   26.22000     -1.1430942E-08
   26.28000     -1.0644343E-08
   26.34000     -9.9712114E-09
   26.40000     -9.3787929E-09
   26.46000     -8.8301846E-09
   26.52000     -8.2947116E-09
   26.58000     -7.7545002E-09
   26.64000     -7.2059394E-09
   26.70000     -6.6563777E-09
   26.76000     -6.1179630E-09
   26.82000     -5.6013478E-09
   26.88000     -5.1118634E-09
   26.94000     -4.6496780E-09
   27.00000     -4.2137995E-09
   27.06000     -3.8081276E-09
   27.12000     -3.4468119E-09
   27.18000     -3.1562670E-09
   27.24000     -2.9723881E-09
   27.30000     -2.9333427E-09
   27.36000     -3.0700418E-09
   27.42000     -3.3974006E-09
   27.48000     -3.9093742E-09
   27.54000     -4.5795692E-09
   27.60000     -5.3674136E-09
   27.66000     -6.2280967E-09
   27.72000     -7.1233357E-09
   27.78000     -8.0298284E-09
   27.84000     -8.9430614E-09
   27.90000     -9.8756070E-09
   27.96000     -1.0850683E-08
   28.02000     -1.1893105E-08
   28.08000     -1.3020351E-08
   28.14000     -1.4236239E-08
   28.20000     -1.5528776E-08
   28.26000     -1.6872395E-08
   28.32000     -1.8233514E-08
   28.38000     -1.9577486E-08
   28.44000     -2.0874783E-08
   28.50000     -2.2104711E-08
   28.56000     -2.3255922E-08
   28.62000     -2.4324029E-08
   28.68000     -2.5307722E-08
   28.74000     -2.6205141E-08
   28.80000     -2.7012169E-08
   28.86000     -2.7723511E-08
   28.92000     -2.8336316E-08
   28.98000     -2.8855000E-08
   29.04000     -2.9295377E-08
   29.10000     -2.9686230E-08
   29.16000     -3.0067326E-08
   29.22000     -3.0483999E-08
   29.28000     -3.0979582E-08
   29.34000     -3.1587618E-08
   29.40000     -3.2325914E-08
   29.46000     -3.3193931E-08
   29.52000     -3.4174022E-08
   29.58000     -3.5236308E-08
   29.64000     -3.6345863E-08
   29.70000     -3.7470432E-08
   29.76000     -3.8586716E-08
   29.82000     -3.9683588E-08
   29.88000     -4.0761325E-08
   29.94000     -4.1827199E-08
   30.00000     -4.2888857E-08
   30.06000     -4.3947839E-08
   30.12000     -4.4995481E-08
   30.18000     -4.6012701E-08
   30.24000     -4.6973817E-08
   30.30000     -4.7853042E-08
   30.36000     -4.8631684E-08
   30.42000     -4.9303697E-08
   30.48000     -4.9878185E-08
   30.54000     -5.0378354E-08
   30.60000     -5.0837357E-08
   30.66000     -5.1292286E-08
   30.72000     -5.1777736E-08
   30.78000     -5.2320459E-08
   30.84000     -5.2936166E-08
   30.90000     -5.3629091E-08
   30.96000     -5.4394203E-08
   31.02000     -5.5221033E-08
   31.08000     -5.6097583E-08
   31.14000     -5.7012752E-08
   31.20000     -5.7956317E-08
   31.26000     -5.8916608E-08
   31.32000     -5.9877173E-08
   31.38000     -6.0814294E-08
   31.44000     -6.1696902E-08
   31.50000     -6.2489555E-08
   31.56000     -6.3157742E-08
   31.62000     -6.3673923E-08
   31.68000     -6.4022338E-08
   31.74000     -6.4200975E-08
   31.80000     -6.4220025E-08
   31.86000     -6.4097279E-08
   31.92000     -6.3851559E-08
   31.98000     -6.3496252E-08
   32.04000     -6.3034825E-08
   32.10000     -6.2459961E-08
   32.16000     -6.1757113E-08
   32.22000     -6.0911816E-08
   32.28000     -5.9918619E-08
   32.34000     -5.8788824E-08
   32.40000     -5.7553937E-08
   32.46000     -5.6263112E-08
   32.52000     -5.4974798E-08
   32.58000     -5.3744788E-08
   32.64000     -5.2614443E-08
   32.70000     -5.1602814E-08
   32.76000     -5.0705331E-08
   32.82000     -4.9899516E-08
   32.88000     -4.9155830E-08
   32.94000     -4.8450215E-08
   33.00000     -4.7774048E-08
   33.06000     -4.7138144E-08
   33.12000     -4.6569120E-08
   33.18000     -4.6099103E-08
   33.24000     -4.5751811E-08
   33.30000     -4.5529806E-08
   33.36000     -4.5407383E-08
   33.42000     -4.5332190E-08
   33.48000     -4.5235854E-08
   33.54000     -4.5050896E-08
   33.60000     -4.4729035E-08
   33.66000     -4.4255287E-08
   33.72000     -4.3653419E-08
   33.78000     -4.2980837E-08
   33.84000     -4.2314134E-08
   33.90000     -4.1729237E-08
   33.96000     -4.1281666E-08
   34.02000     -4.0992386E-08
   34.08000     -4.0843279E-08
   34.14000     -4.0783590E-08
   34.20000     -4.0745679E-08
   34.26000     -4.0665711E-08
   34.32000     -4.0503267E-08
   34.38000     -4.0253983E-08
   34.44000     -3.9951004E-08
   34.50000     -3.9654449E-08
   34.56000     -3.9431729E-08
   34.62000     -3.9334669E-08
   34.68000     -3.9380648E-08
   34.74000     -3.9544105E-08
   34.80000     -3.9761396E-08
   34.86000     -3.9947938E-08
   34.92000     -4.0022353E-08
   34.98000     -3.9930086E-08
   35.04000     -3.9659074E-08
   35.10000     -3.9242426E-08
   35.16000     -3.8747412E-08
   35.22000     -3.8254239E-08
   35.28000     -3.7831338E-08
   35.34000     -3.7514919E-08
   35.40000     -3.7299007E-08
   35.46000     -3.7138953E-08
   35.52000     -3.6967148E-08
   35.58000     -3.6715836E-08
   35.64000     -3.6339827E-08
   35.70000     -3.5831931E-08
   35.76000     -3.5226151E-08
   35.82000     -3.4587799E-08
   35.88000     -3.3993693E-08
   35.94000     -3.3508901E-08
   36.00000     -3.3167538E-08
   36.06000     -3.2963626E-08
   36.12000     -3.2854523E-08
   36.18000     -3.2775198E-08
   36.24000     -3.2658257E-08
   36.30000     -3.2452881E-08
   36.36000     -3.2137127E-08
   36.42000     -3.1720315E-08
   36.48000     -3.1236056E-08
   36.54000     -3.0729144E-08
   36.60000     -3.0241090E-08
   36.66000     -2.9798771E-08
   36.72000     -2.9409323E-08
   36.78000     -2.9061912E-08
   36.84000     -2.8735190E-08
   36.90000     -2.8407486E-08
   36.96000     -2.8066236E-08
   37.02000     -2.7713606E-08
   37.08000     -2.7366514E-08
   37.14000     -2.7051199E-08
   37.20000     -2.6794270E-08
   37.26000     -2.6613504E-08
   37.32000     -2.6511623E-08
   37.38000     -2.6475288E-08
   37.44000     -2.6479592E-08
   37.50000     -2.6496375E-08
   37.56000     -2.6503367E-08
   37.62000     -2.6490964E-08
   37.68000     -2.6464395E-08
   37.74000     -2.6440631E-08
   37.80000     -2.6441102E-08
   37.86000     -2.6482571E-08
   37.92000     -2.6569026E-08
   37.98000     -2.6687225E-08
   38.04000     -2.6807577E-08
   38.10000     -2.6890667E-08
   38.16000     -2.6898109E-08
   38.22000     -2.6804962E-08
   38.28000     -2.6610177E-08
   38.34000     -2.6341510E-08
   38.40000     -2.6052742E-08
   38.46000     -2.5813035E-08
   38.52000     -2.5690834E-08
   38.58000     -2.5736709E-08
   38.64000     -2.5970200E-08
   38.70000     -2.6374890E-08
   38.76000     -2.6903457E-08
   38.82000     -2.7491339E-08
   38.88000     -2.8074789E-08
   38.94000     -2.8607682E-08
   39.00000     -2.9071806E-08
   39.06000     -2.9477658E-08
   39.12000     -2.9855997E-08
   39.18000     -3.0243605E-08
   39.24000     -3.0668467E-08
   39.30000     -3.1139667E-08
   39.36000     -3.1645303E-08
   39.42000     -3.2158912E-08
   39.48000     -3.2651613E-08
   39.54000     -3.3105440E-08
   39.60000     -3.3522799E-08
   39.66000     -3.3928462E-08
   39.72000     -3.4363154E-08
   39.78000     -3.4870656E-08
   39.84000     -3.5482685E-08
   39.90000     -3.6206529E-08
   39.96000     -3.7019699E-08
   40.02000     -3.7873470E-08
   40.08000     -3.8704279E-08
   40.14000     -3.9449450E-08
   40.20000     -4.0062254E-08
   40.26000     -4.0521812E-08
   40.32000     -4.0834994E-08
   40.38000     -4.1030198E-08
   40.44000     -4.1145494E-08
   40.50000     -4.1215134E-08
   40.56000     -4.1258833E-08
   40.62000     -4.1277065E-08
   40.68000     -4.1253578E-08
   40.74000     -4.1163940E-08
   40.80000     -4.0986869E-08
   40.86000     -4.0714223E-08
   40.92000     -4.0355697E-08
   40.98000     -3.9936232E-08
   41.04000     -3.9486721E-08
   41.10000     -3.9031129E-08
   41.16000     -3.8574964E-08
   41.22000     -3.8099724E-08
   41.28000     -3.7566114E-08
   41.34000     -3.6925581E-08
   41.40000     -3.6136733E-08
   41.46000     -3.5181117E-08
   41.52000     -3.4072947E-08
   41.58000     -3.2859315E-08
   41.64000     -3.1610391E-08
   41.70000     -3.0402575E-08
   41.76000     -2.9299608E-08
   41.82000     -2.8337366E-08
   41.88000     -2.7516911E-08
   41.94000     -2.6807816E-08
   42.00000     -2.6160624E-08
   42.06000     -2.5524464E-08
   42.12000     -2.4864182E-08
   42.18000     -2.4171539E-08
   42.24000     -2.3466969E-08
   42.30000     -2.2791587E-08
   42.36000     -2.2192387E-08
   42.42000     -2.1705839E-08
   42.48000     -2.1345409E-08
   42.54000     -2.1097000E-08
   42.60000     -2.0923393E-08
   42.66000     -2.0775740E-08
   42.72000     -2.0607981E-08
   42.78000     -2.0389466E-08
   42.84000     -2.0112013E-08
   42.90000     -1.9789695E-08
   42.96000     -1.9452035E-08
   43.02000     -1.9133296E-08
   43.08000     -1.8861570E-08
   43.14000     -1.8651203E-08
   43.20000     -1.8500915E-08
   43.26000     -1.8397998E-08
   43.32000     -1.8326899E-08
   43.38000     -1.8279023E-08
   43.44000     -1.8260005E-08
   43.50000     -1.8291583E-08
   43.56000     -1.8406931E-08
   43.62000     -1.8640637E-08
   43.68000     -1.9016483E-08
   43.74000     -1.9537046E-08
   43.80000     -2.0178906E-08
   43.86000     -2.0895428E-08
   43.92000     -2.1626784E-08
   43.98000     -2.2314522E-08
   44.04000     -2.2916316E-08
   44.10000     -2.3416375E-08
   44.16000     -2.3828164E-08
   44.22000     -2.4188504E-08
   44.28000     -2.4544786E-08
   44.34000     -2.4939414E-08
   44.40000     -2.5396316E-08
   44.46000     -2.5913836E-08
   44.52000     -2.6466067E-08
   44.58000     -2.7011936E-08
   44.64000     -2.7508799E-08
   44.70000     -2.7925950E-08
   44.76000     -2.8253604E-08
   44.82000     -2.8504664E-08
   44.88000     -2.8708921E-08
   44.94000     -2.8902035E-08
   45.00000     -2.9113144E-08
   45.06000     -2.9355467E-08
   45.12000     -2.9623108E-08
   45.18000     -2.9895144E-08
   45.24000     -3.0145564E-08
   45.30000     -3.0355498E-08
   45.36000     -3.0523193E-08
   45.42000     -3.0667955E-08
   45.48000     -3.0826147E-08
   45.54000     -3.1040379E-08
   45.60000     -3.1345333E-08
   45.66000     -3.1755274E-08
   45.72000     -3.2257585E-08
   45.78000     -3.2814700E-08
   45.84000     -3.3373809E-08
   45.90000     -3.3881058E-08
   45.96000     -3.4295656E-08
   46.02000     -3.4599509E-08
   46.08000     -3.4799950E-08
   46.14000     -3.4925378E-08
   46.20000     -3.5015979E-08
   46.26000     -3.5112709E-08
   46.32000     -3.5248004E-08
   46.38000     -3.5440571E-08
   46.44000     -3.5695180E-08
   46.50000     -3.6006718E-08
   46.56000     -3.6366504E-08
   46.62000     -3.6768380E-08
   46.68000     -3.7212260E-08
   46.74000     -3.7704204E-08
   46.80000     -3.8253358E-08
   46.86000     -3.8867626E-08
   46.92000     -3.9550311E-08
   46.98000     -4.0299600E-08
   47.04000     -4.1111406E-08
   47.10000     -4.1984737E-08
   47.16000     -4.2927827E-08
   47.22000     -4.3963105E-08
   47.28000     -4.5129813E-08
   47.34000     -4.6483809E-08
   47.40000     -4.8094982E-08
   47.46000     -5.0043013E-08
   47.52000     -5.2412734E-08
   47.58000     -5.5290514E-08
   47.64000     -5.8763298E-08
   47.70000     -6.2921735E-08
   47.76000     -6.7867695E-08
   47.82000     -7.3725168E-08
   47.88000     -8.0652001E-08
   47.94000     -8.8849482E-08
   48.00000     -9.8567561E-08
   48.06000     -1.1010561E-07
   48.12000     -1.2381081E-07
   48.18000     -1.4007745E-07
   48.24000     -1.5935056E-07
   48.30000     -1.8213532E-07
   48.36000     -2.0901197E-07
   48.42000     -2.4065358E-07
   48.48000     -2.7784395E-07
   48.54000     -3.2149291E-07
   48.60000     -3.7264709E-07
   48.66000     -4.3249688E-07
   48.72000     -5.0238083E-07
   48.78000     -5.8379163E-07
   48.84000     -6.7838596E-07
   48.90000     -7.8800343E-07
   48.96000     -9.1469366E-07
   49.02000     -1.0607509E-06
   49.08000     -1.2287543E-06
   49.14000     -1.4216030E-06
   49.20000     -1.6425483E-06
   49.26000     -1.8952163E-06
   49.32000     -2.1836224E-06
   49.38000     -2.5121853E-06
   49.44000     -2.8857391E-06
   49.50000     -3.3095548E-06
   49.56000     -3.7893660E-06
   49.62000     -4.3314030E-06
   49.68000     -4.9424330E-06
   49.74000     -5.6297959E-06
   49.80000     -6.4014389E-06
   49.86000     -7.2659418E-06
   49.92000     -8.2325296E-06
   49.98000     -9.3110766E-06
   50.04000     -1.0512100E-05
   50.10000     -1.1846760E-05
   50.16000     -1.3326851E-05
   50.22000     -1.4964807E-05
   50.28000     -1.6773687E-05
   50.34000     -1.8767176E-05
   50.40000     -2.0959558E-05
   50.46000     -2.3365692E-05
   50.52000     -2.6000944E-05
   50.58000     -2.8881150E-05
   50.64000     -3.2022515E-05
   50.70000     -3.5441553E-05
   50.76000     -3.9154973E-05
   50.82000     -4.3179585E-05
   50.88000     -4.7532201E-05
   50.94000     -5.2229527E-05
   51.00000     -5.7288034E-05
   51.06000     -6.2723841E-05
   51.12000     -6.8552545E-05
   51.18000     -7.4789103E-05
   51.24000     -8.1447623E-05
   51.30000     -8.8541179E-05
   51.36000     -9.6081661E-05
   51.42000     -1.0407961E-04
   51.48000     -1.1254405E-04
   51.54000     -1.2148231E-04
   51.60000     -1.3089986E-04
   51.66000     -1.4080020E-04
   51.72000     -1.5118461E-04
   51.78000     -1.6205205E-04
   51.84000     -1.7339906E-04
   51.90000     -1.8521960E-04
   51.96000     -1.9750489E-04
   52.02000     -2.1024341E-04
   52.08000     -2.2342081E-04
   52.14000     -2.3701985E-04
   52.20000     -2.5102051E-04
   52.26000     -2.6539990E-04
   52.32000     -2.8013243E-04
   52.38000     -2.9518982E-04
   52.44000     -3.1054125E-04
   52.50000     -3.2615336E-04
   52.56000     -3.4199061E-04
   52.62000     -3.5801530E-04
   52.68000     -3.7418792E-04
   52.74000     -3.9046729E-04
   52.80000     -4.0681101E-04
   52.86000     -4.2317566E-04
   52.92000     -4.3951708E-04
   52.98000     -4.5579093E-04
   53.04000     -4.7195290E-04
   53.10000     -4.8795910E-04
   53.16000     -5.0376641E-04
   53.22000     -5.1933283E-04
   53.28000     -5.3461792E-04
   53.34000     -5.4958311E-04
   53.40000     -5.6419201E-04
   53.46000     -5.7841087E-04
   53.52000     -5.9220876E-04
   53.58000     -6.0555793E-04
   53.64000     -6.1843410E-04
   53.70000     -6.3081656E-04
   53.76000     -6.4268848E-04
   53.82000     -6.5403688E-04
   53.88000     -6.6485279E-04
   53.94000     -6.7513157E-04
   54.00000     -6.8487244E-04
   54.06000     -6.9407886E-04
   54.12000     -7.0275797E-04
   54.18000     -7.1092072E-04
   54.24000     -7.1858172E-04
   54.30000     -7.2575890E-04
   54.36000     -7.3247333E-04
   54.42000     -7.3874876E-04
   54.48000     -7.4461167E-04
   54.54000     -7.5009040E-04
   54.60000     -7.5521506E-04
   54.66000     -7.6001702E-04
   54.72000     -7.6452858E-04
   54.78000     -7.6878245E-04
   54.84000     -7.7281124E-04
   54.90000     -7.7664712E-04
   54.96000     -7.8032148E-04
   55.02000     -7.8386458E-04
   55.08000     -7.8730501E-04
   55.14000     -7.9066941E-04
   55.20000     -7.9398206E-04
   55.26000     -7.9726498E-04
   55.32000     -8.0053724E-04
   55.38000     -8.0381520E-04
   55.44000     -8.0711232E-04
   55.50000     -8.1043871E-04
   55.56000     -8.1380137E-04