  -2.400000      0.0000000E+00
  -2.340000      0.0000000E+00
  -2.280000      0.0000000E+00
  -2.220000      0.0000000E+00
  -2.160000      0.0000000E+00
  -2.100000      0.0000000E+00
  -2.040000      0.0000000E+00
  -1.980000      0.0000000E+00
  -1.920000      0.0000000E+00
  -1.860000      0.0000000E+00
  -1.800000      0.0000000E+00
  -1.740000      0.0000000E+00
  -1.680000      9.6229568E-34
  -1.620000      1.0256828E-32
  -1.560000      3.1683831E-32
  -1.500000     -1.3609562E-31
  -1.440000     -1.7533177E-30
  -1.380000     -8.4277581E-30
  -1.320000     -2.2758717E-29
  -1.260000     -2.2714755E-29
  -1.200000      9.8023978E-29
  -1.140000      5.7925290E-28
  -1.080000      1.6064106E-27
  -1.020000      2.4629938E-27
 -0.9600000     -1.1333408E-28
 -0.9000000     -1.2915134E-26
 -0.8400000     -4.2133853E-26
 -0.7800000     -7.7979831E-26
 -0.7200000     -6.8370692E-26
 -0.6600000      9.6495592E-26
 -0.6000000      5.3562157E-25
 -0.5400000      1.2033939E-24
 -0.4800000      1.6018468E-24
 -0.4200000      5.8246778E-25
 -0.3600000     -3.3181647E-24
 -0.3000000     -1.0526950E-23
 -0.2400000     -1.8116072E-23
 -0.1800000     -1.7836724E-23
 -0.1200000      2.6665563E-24
 -5.9999999E-02  5.2315466E-23
  0.0000000E+00  1.2233840E-22
  5.9999999E-02  1.7149647E-22
  0.1200000      1.2506117E-22
  0.1800000     -9.5146842E-23
  0.2400000     -5.0270902E-22
  0.3000000     -9.6147882E-22
  0.3600000     -1.1415749E-21
  0.4200000     -5.9697873E-22
  0.4800000      9.8135650E-22
  0.5400000      3.3806609E-21
  0.6000000      5.5438594E-21
  0.6600000      5.6274923E-21
  0.7200000      1.7303138E-21
  0.7800000     -6.7044184E-21
  0.8400000     -1.7343023E-20
  0.9000000     -2.4355406E-20
  0.9600000     -1.9977853E-20
   1.020000      1.2378142E-21
   1.080000      3.6654829E-20
   1.140000      7.1505512E-20
   1.200000      8.0933406E-20
   1.260000      4.1035681E-20
   1.320000     -5.2974075E-20
   1.380000     -1.7014844E-19
   1.440000     -2.4227321E-19
   1.500000     -1.8877904E-19
   1.560000      3.2877243E-20
   1.620000      3.7204715E-19
   1.680000      6.6239284E-19
   1.740000      6.6874595E-19
   1.800000      2.1156280E-19
   1.860000     -6.7417934E-19
   1.920000     -1.6384742E-18
   1.980000     -2.0776930E-18
   2.040000     -1.4041748E-18
   2.100000      5.5000263E-19
   2.160000      3.1998764E-18
   2.220000      5.2054137E-18
   2.280000      4.9664251E-18
   2.340000      1.5305758E-18
   2.400000     -4.4796735E-18
   2.460000     -1.0508714E-17
   2.520000     -1.2767752E-17
   2.580000     -8.0350050E-18
   2.640000      4.0639367E-18
   2.700000      1.9475283E-17
   2.760000      3.0101536E-17
   2.820000      2.6799411E-17
   2.880000      4.3998477E-18
   2.940000     -3.3253617E-17
   3.000000     -7.1138373E-17
   3.060000     -8.6325111E-17
   3.120000     -5.7392762E-17
   3.180000      2.2399333E-17
   3.240000      1.3379867E-16
   3.300000      2.2942253E-16
   3.360000      2.4657518E-16
   3.420000      1.3520413E-16
   3.480000     -1.0741759E-16
   3.540000     -4.1187377E-16
   3.600000     -6.4089504E-16
   3.660000     -6.3455473E-16
   3.720000     -2.8983922E-16
   3.780000      3.5550330E-16
   3.840000      1.0817915E-15
   3.900000      1.5322537E-15
   3.960000      1.3555896E-15
   4.020000      4.0496852E-16
   4.080000     -1.0989086E-15
   4.140000     -2.5498904E-15
   4.200000     -3.1507404E-15
   4.260000     -2.2879582E-15
   4.320000      6.2517596E-17
   4.380000      3.1205280E-15
   4.440000      5.4664385E-15
   4.500000      5.6184373E-15
   4.560000      2.8287830E-15
   4.620000     -2.2814746E-15
   4.680000     -7.6548011E-15
   4.740000     -1.0501710E-14
   4.800000     -8.6072464E-15
   4.860000     -1.6848476E-15
   4.920000      7.9533446E-15
   4.980000      1.5954853E-14
   5.040000      1.7723483E-14
   5.100000      1.0791269E-14
   5.160000     -3.3673801E-15
   5.220000     -1.9176165E-14
   5.280000     -2.8913354E-14
   5.340000     -2.6225048E-14
   5.400000     -9.6963072E-15
   5.460000      1.5362157E-14
   5.520000      3.8202548E-14
   5.580000      4.6964114E-14
   5.640000      3.4427231E-14
   5.700000      2.5537103E-15
   5.760000     -3.6714382E-14
   5.820000     -6.5507217E-14
   5.880000     -6.7807176E-14
   5.940000     -3.7760444E-14
   6.000000      1.5524234E-14
   6.060000      6.9725150E-14
   6.120000      9.7951886E-14
   6.180000      8.1290802E-14
   6.240000      1.9791535E-14
   6.300000     -6.3804932E-14
   6.360000     -1.3080312E-13
   6.420000     -1.4246716E-13
   6.480000     -7.9149598E-14
   6.540000      4.5967885E-14
   6.600000      1.8611553E-13
   6.660000      2.7595783E-13
   6.720000      2.5826100E-13
   6.780000      1.1192529E-13
   6.840000     -1.3123014E-13
   6.900000     -3.9038027E-13
   6.960000     -5.6175816E-13
   7.020000     -5.5852550E-13
   7.080000     -3.4881256E-13
   7.140000      2.4790796E-14
   7.200000      4.5460616E-13
   7.260000      8.0460633E-13
   7.320000      9.6068899E-13
   7.380000      8.7346097E-13
   7.440000      5.7438657E-13
   7.500000      1.5716152E-13
   7.560000     -2.6793574E-13
   7.620000     -6.2524595E-13
   7.680000     -9.0432246E-13
   7.740000     -1.1514502E-12
   7.800000     -1.4215982E-12
   7.860000     -1.7112655E-12
   7.920000     -1.9069418E-12
   7.980000     -1.7835868E-12
   8.040000     -1.0704590E-12
   8.100000      4.2697893E-13
   8.160000      2.6893158E-12
   8.220000      5.3863207E-12
   8.280000      7.8726817E-12
   8.340000      9.3009038E-12
   8.400000      8.8351965E-12
   8.460000      5.9109631E-12
   8.520000      4.6245527E-13
   8.580000     -6.9543091E-12
   8.640000     -1.5186073E-11
   8.700000     -2.2652607E-11
   8.760000     -2.7619466E-11
   8.820000     -2.8506870E-11
   8.880000     -2.4170905E-11
   8.940000     -1.4116912E-11
   9.000000      1.3638115E-12
   9.060000      2.1120891E-11
   9.120000      4.3120996E-11
   9.180000      6.4478582E-11
   9.240000      8.1576204E-11
   9.300000      9.0329640E-11
   9.360000      8.6647162E-11
   9.420000      6.7092595E-11
   9.480000      2.9695649E-11
   9.540000     -2.5218758E-11
   9.600000     -9.4360103E-11
   9.660000     -1.7114403E-10
   9.720000     -2.4584038E-10
   9.780000     -3.0623895E-10
   9.840000     -3.3876288E-10
   9.900000     -3.2986625E-10
   9.960000     -2.6750341E-10
   10.02000     -1.4246733E-10
   10.08000      5.0546040E-11
   10.14000      3.1221103E-10
   10.20000      6.3817884E-10
   10.26000      1.0189878E-09
   10.32000      1.4402670E-09
   10.38000      1.8832693E-09
   10.44000      2.3258060E-09
   10.50000      2.7436431E-09
   10.56000      3.1123391E-09
   10.62000      3.4093726E-09
   10.68000      3.6162597E-09
   10.74000      3.7202776E-09
   10.80000      3.7154186E-09
   10.86000      3.6023518E-09
   10.92000      3.3873873E-09
   10.98000      3.0807208E-09
   11.04000      2.6944116E-09
   11.10000      2.2406064E-09
   11.16000      1.7304145E-09
   11.22000      1.1735930E-09
   11.28000      5.7892602E-10
   11.34000     -4.5034546E-11
   11.40000     -6.8926986E-10
   11.46000     -1.3439456E-09
   11.52000     -1.9985162E-09
   11.58000     -2.6421563E-09
   11.64000     -3.2642500E-09
   11.70000     -3.8546801E-09
   11.76000     -4.4038173E-09
   11.82000     -4.9023225E-09
   11.88000     -5.3410760E-09
   11.94000     -5.7115583E-09
   12.00000     -6.0068821E-09
   12.06000     -6.2233481E-09
   12.12000     -6.3620980E-09
   12.18000     -6.4302133E-09
   12.24000     -6.4406431E-09
   12.30000     -6.4106329E-09
   12.36000     -6.3587899E-09
   12.42000     -6.3014287E-09
   12.48000     -6.2491563E-09
   12.54000     -6.2047216E-09
   12.60000     -6.1628245E-09
   12.66000     -6.1120500E-09
   12.72000     -6.0384431E-09
   12.78000     -5.9297598E-09
   12.84000     -5.7792024E-09
   12.90000     -5.5876290E-09
   12.96000     -5.3636815E-09
   13.02000     -5.1219047E-09
   13.08000     -4.8795061E-09
   13.14000     -4.6527391E-09
   13.20000     -4.4539372E-09
   13.26000     -4.2899044E-09
   13.32000     -4.1619170E-09
   13.38000     -4.0670534E-09
   13.44000     -4.0002135E-09
   13.50000     -3.9560804E-09
   13.56000     -3.9303973E-09
   13.62000     -3.9202885E-09
   13.68000     -3.9236734E-09
   13.74000     -3.9381205E-09
   13.80000     -3.9595691E-09
   13.86000     -3.9813024E-09
   13.92000     -3.9934291E-09
   13.98000     -3.9829979E-09
   14.04000     -3.9348134E-09
   14.10000     -3.8329788E-09
   14.16000     -3.6631169E-09
   14.22000     -3.4150653E-09
   14.28000     -3.0855558E-09
   14.34000     -2.6801485E-09
   14.40000     -2.2135735E-09
   14.46000     -1.7078506E-09
   14.52000     -1.1881035E-09
   14.58000     -6.7674821E-10
   14.64000     -1.8744721E-10
   14.70000      2.7940616E-10
   14.76000      7.3811290E-10
   14.82000      1.2152094E-09
   14.88000      1.7434735E-09
   14.94000      2.3538771E-09
   15.00000      3.0676988E-09
   15.06000      3.8910586E-09
   15.12000      4.8134594E-09
   15.18000      5.8107004E-09
   15.24000      6.8511916E-09
   15.30000      7.9036386E-09
   15.36000      8.9436831E-09
   15.42000      9.9575059E-09
   15.48000      1.0941469E-08
   15.54000      1.1898246E-08
   15.60000      1.2831143E-08
   15.66000      1.3738860E-08
   15.72000      1.4612745E-08
   15.78000      1.5437630E-08
   15.84000      1.6195948E-08
   15.90000      1.6873615E-08
   15.96000      1.7465492E-08
   16.02000      1.7978397E-08
   16.08000      1.8430566E-08
   16.14000      1.8847647E-08
   16.20000      1.9256625E-08
   16.26000      1.9679572E-08
   16.32000      2.0129171E-08
   16.38000      2.0607192E-08
   16.44000      2.1106024E-08
   16.50000      2.1612403E-08
   16.56000      2.2111774E-08
   16.62000      2.2591690E-08
   16.68000      2.3043237E-08
   16.74000      2.3460311E-08
   16.80000      2.3837606E-08
   16.86000      2.4168662E-08
   16.92000      2.4445457E-08
   16.98000      2.4660318E-08
   17.04000      2.4809799E-08
   17.10000      2.4899188E-08
   17.16000      2.4945525E-08
   17.22000      2.4977297E-08
   17.28000      2.5029914E-08
   17.34000      2.5137584E-08
   17.40000      2.5323619E-08
   17.46000      2.5592005E-08
   17.52000      2.5922851E-08
   17.58000      2.6273328E-08
   17.64000      2.6584091E-08
   17.70000      2.6789815E-08
   17.76000      2.6831401E-08
   17.82000      2.6667273E-08
   17.88000      2.6281501E-08
   17.94000      2.5687303E-08
   18.00000      2.4925285E-08
   18.06000      2.4056707E-08
   18.12000      2.3152753E-08
   18.18000      2.2281579E-08
   18.24000      2.1495463E-08
   18.30000      2.0820650E-08
   18.36000      2.0252319E-08
   18.42000      1.9756170E-08
   18.48000      1.9276712E-08
   18.54000      1.8750612E-08
   18.60000      1.8121948E-08
   18.66000      1.7355541E-08
   18.72000      1.6444845E-08
   18.78000      1.5412356E-08
   18.84000      1.4302572E-08
   18.90000      1.3169760E-08
   18.96000      1.2064153E-08
   19.02000      1.1020621E-08
   19.08000      1.0052912E-08
   19.14000      9.1546930E-09
   19.20000      8.3064986E-09
   19.26000      7.4859159E-09
   19.32000      6.6774244E-09
   19.38000      5.8785679E-09
   19.44000      5.1003615E-09
   19.50000      4.3617367E-09
   19.56000      3.6798073E-09
   19.62000      3.0593086E-09
   19.68000      2.4851257E-09
   19.74000      1.9211739E-09
   19.80000      1.3169951E-09
   19.86000      6.2078637E-10
   19.92000     -2.0499868E-10
   19.98000     -1.1708432E-09
   20.04000     -2.2552158E-09
   20.10000     -3.4102663E-09
   20.16000     -4.5773718E-09
   20.22000     -5.7080647E-09
   20.28000     -6.7835839E-09
   20.34000     -7.8262445E-09
   20.40000     -8.8982217E-09
   20.46000     -1.0087265E-08
   20.52000     -1.1482954E-08
   20.58000     -1.3149999E-08
   20.64000     -1.5105895E-08
   20.70000     -1.7308947E-08
   20.76000     -1.9659826E-08
   20.82000     -2.2016390E-08
   20.88000     -2.4218323E-08
   20.94000     -2.6115970E-08
   21.00000     -2.7596887E-08
   21.06000     -2.8604234E-08
   21.12000     -2.9143136E-08
   21.18000     -2.9274110E-08
   21.24000     -2.9095881E-08
   21.30000     -2.8722646E-08
   21.36000     -2.8262113E-08
   21.42000     -2.7799882E-08
   21.48000     -2.7393503E-08
   21.54000     -2.7076036E-08
   21.60000     -2.6865868E-08
   21.66000     -2.6777798E-08
   21.72000     -2.6830389E-08
   21.78000     -2.7046664E-08
   21.84000     -2.7448033E-08
   21.90000     -2.8044219E-08
   21.96000     -2.8823564E-08
   22.02000     -2.9748135E-08
   22.08000     -3.0756301E-08
   22.14000     -3.1772835E-08
   22.20000     -3.2723847E-08
   22.26000     -3.3552077E-08
   22.32000     -3.4227750E-08
   22.38000     -3.4751576E-08
   22.44000     -3.5148904E-08
   22.50000     -3.5456935E-08
   22.56000     -3.5709000E-08
   22.62000     -3.5920937E-08
   22.68000     -3.6083762E-08
   22.74000     -3.6164963E-08
   22.80000     -3.6118134E-08
   22.86000     -3.5897930E-08
   22.92000     -3.5475949E-08
   22.98000     -3.4852665E-08
   23.04000     -3.4061777E-08
   23.10000     -3.3165662E-08
   23.16000     -3.2243150E-08
   23.22000     -3.1373386E-08
   23.28000     -3.0620445E-08
   23.34000     -3.0023138E-08
   23.40000     -2.9592391E-08
   23.46000     -2.9316205E-08
   23.52000     -2.9169707E-08
   23.58000     -2.9126467E-08
   23.64000     -2.9167321E-08
   23.70000     -2.9284214E-08
   23.76000     -2.9478464E-08
   23.82000     -2.9754609E-08
   23.88000     -3.0112250E-08
   23.94000     -3.0538530E-08
   24.00000     -3.1003669E-08
   24.06000     -3.1460896E-08
   24.12000     -3.1851155E-08
   24.18000     -3.2111572E-08
   24.24000     -3.2185792E-08
   24.30000     -3.2033604E-08
   24.36000     -3.1637516E-08
   24.42000     -3.1004660E-08
   24.48000     -3.0163907E-08
   24.54000     -2.9159210E-08
   24.60000     -2.8041194E-08
   24.66000     -2.6859066E-08
   24.72000     -2.5654424E-08
   24.78000     -2.4457785E-08
   24.84000     -2.3287955E-08
   24.90000     -2.2153907E-08
   24.96000     -2.1058462E-08
   25.02000     -2.0002853E-08
   25.08000     -1.8990901E-08
   25.14000     -1.8031470E-08
   25.20000     -1.7138230E-08
   25.26000     -1.6326696E-08
   25.32000     -1.5609611E-08
   25.38000     -1.4992620E-08
   25.44000     -1.4472238E-08
   25.50000     -1.4037186E-08
   25.56000     -1.3672826E-08
   25.62000     -1.3367004E-08
   25.68000     -1.3115147E-08
   25.74000     -1.2922820E-08
   25.80000     -1.2805020E-08
   25.86000     -1.2782632E-08
   25.92000     -1.2877198E-08
   25.98000     -1.3105350E-08
   26.04000     -1.3474015E-08
   26.10000     -1.3977251E-08
   26.16000     -1.4595379E-08
   26.22000     -1.5296866E-08
   26.28000     -1.6043124E-08
   26.34000     -1.6795651E-08
   26.40000     -1.7524146E-08
   26.46000     -1.8213578E-08
   26.52000     -1.8868072E-08
   26.58000     -1.9510173E-08
   26.64000     -2.0175342E-08
   26.70000     -2.0902970E-08
   26.76000     -2.1726420E-08
   26.82000     -2.2664919E-08
   26.88000     -2.3719636E-08
   26.94000     -2.4874916E-08
   27.00000     -2.6104011E-08
   27.06000     -2.7377107E-08
   27.12000     -2.8668794E-08
   27.18000     -2.9962411E-08
   27.24000     -3.1249957E-08
   27.30000     -3.2528039E-08
   27.36000     -3.3791871E-08
   27.42000     -3.5030041E-08
   27.48000     -3.6222453E-08
   27.54000     -3.7342428E-08
   27.60000     -3.8362483E-08
   27.66000     -3.9261813E-08
   27.72000     -4.0032841E-08
   27.78000     -4.0684501E-08
   27.84000     -4.1240838E-08
   27.90000     -4.1734847E-08
   27.96000     -4.2199044E-08
   28.02000     -4.2655230E-08
   28.08000     -4.3106613E-08
   28.14000     -4.3535003E-08
   28.20000     -4.3904517E-08
   28.26000     -4.4171372E-08
   28.32000     -4.4297241E-08
   28.38000     -4.4262315E-08
   28.44000     -4.4073943E-08
   28.50000     -4.3768122E-08
   28.56000     -4.3403041E-08
   28.62000     -4.3046434E-08
   28.68000     -4.2760188E-08
   28.74000     -4.2586429E-08
   28.80000     -4.2538673E-08
   28.86000     -4.2600163E-08
   28.92000     -4.2729553E-08
   28.98000     -4.2872077E-08
   29.04000     -4.2973017E-08
   29.10000     -4.2989580E-08
   29.16000     -4.2898041E-08
   29.22000     -4.2694296E-08
   29.28000     -4.2388223E-08
   29.34000     -4.1994337E-08
   29.40000     -4.1522384E-08
   29.46000     -4.0971585E-08
   29.52000     -4.0330864E-08
   29.58000     -3.9585249E-08
   29.64000     -3.8726306E-08
   29.70000     -3.7763041E-08
   29.76000     -3.6729169E-08
   29.82000     -3.5683755E-08
   29.88000     -3.4704136E-08
   29.94000     -3.3872578E-08
   30.00000     -3.3260196E-08
   30.06000     -3.2912880E-08
   30.12000     -3.2843623E-08
   30.18000     -3.3033690E-08
   30.24000     -3.3442195E-08
   30.30000     -3.4020566E-08
   30.36000     -3.4726803E-08
   30.42000     -3.5534388E-08
   30.48000     -3.6433004E-08
   30.54000     -3.7421319E-08
   30.60000     -3.8495262E-08
   30.66000     -3.9636795E-08
   30.72000     -4.0807780E-08
   30.78000     -4.1951512E-08
   30.84000     -4.3001549E-08
   30.90000     -4.3894900E-08
   30.96000     -4.4585342E-08
   31.02000     -4.5052680E-08
   31.08000     -4.5305324E-08
   31.14000     -4.5375735E-08
   31.20000     -4.5310486E-08
   31.26000     -4.5158348E-08
   31.32000     -4.4960213E-08
   31.38000     -4.4743828E-08
   31.44000     -4.4524459E-08
   31.50000     -4.4310468E-08
   31.56000     -4.4110841E-08
   31.62000     -4.3941352E-08
   31.68000     -4.3826443E-08
   31.74000     -4.3795865E-08
   31.80000     -4.3876895E-08
   31.86000     -4.4084764E-08
   31.92000     -4.4414232E-08
   31.98000     -4.4835211E-08
   32.04000     -4.5293955E-08
   32.10000     -4.5720057E-08
   32.16000     -4.6038025E-08
   32.22000     -4.6180975E-08
   32.28000     -4.6103395E-08
   32.34000     -4.5789861E-08
   32.40000     -4.5257348E-08
   32.46000     -4.4550251E-08
   32.52000     -4.3729074E-08
   32.58000     -4.2855717E-08
   32.64000     -4.1979298E-08
   32.70000     -4.1126604E-08
   32.76000     -4.0300048E-08
   32.82000     -3.9483716E-08
   32.88000     -3.8655465E-08
   32.94000     -3.7800866E-08
   33.00000     -3.6923844E-08
   33.06000     -3.6049823E-08
   33.12000     -3.5219760E-08
   33.18000     -3.4476940E-08
   33.24000     -3.3851457E-08
   33.30000     -3.3348535E-08
   33.36000     -3.2945731E-08
   33.42000     -3.2600685E-08
   33.48000     -3.2266904E-08
   33.54000     -3.1911895E-08
   33.60000     -3.1530831E-08
   33.66000     -3.1150758E-08
   33.72000     -3.0823792E-08
   33.78000     -3.0611879E-08
   33.84000     -3.0568341E-08
   33.90000     -3.0722287E-08
   33.96000     -3.1070527E-08
   34.02000     -3.1578942E-08
   34.08000     -3.2192251E-08
   34.14000     -3.2848671E-08
   34.20000     -3.3494864E-08
   34.26000     -3.4096750E-08
   34.32000     -3.4643428E-08
   34.38000     -3.5143657E-08
   34.44000     -3.5616868E-08
   34.50000     -3.6082266E-08
   34.56000     -3.6550041E-08
   34.62000     -3.7017468E-08
   34.68000     -3.7470659E-08
   34.74000     -3.7890455E-08
   34.80000     -3.8259458E-08
   34.86000     -3.8567300E-08
   34.92000     -3.8812267E-08
   34.98000     -3.8999371E-08
   35.04000     -3.9136314E-08
   35.10000     -3.9229544E-08
   35.16000     -3.9282288E-08
   35.22000     -3.9295319E-08
   35.28000     -3.9269963E-08
   35.34000     -3.9211855E-08
   35.40000     -3.9133464E-08
   35.46000     -3.9053873E-08
   35.52000     -3.8995179E-08
   35.58000     -3.8976399E-08
   35.64000     -3.9006927E-08
   35.70000     -3.9082231E-08
   35.76000     -3.9183966E-08
   35.82000     -3.9285084E-08
   35.88000     -3.9358564E-08
   35.94000     -3.9386844E-08
   36.00000     -3.9368523E-08
   36.06000     -3.9320120E-08
   36.12000     -3.9272482E-08
   36.18000     -3.9263440E-08
   36.24000     -3.9329578E-08
   36.30000     -3.9499536E-08
   36.36000     -3.9790446E-08
   36.42000     -4.0207521E-08
   36.48000     -4.0745839E-08
   36.54000     -4.1393275E-08
   36.60000     -4.2133607E-08
   36.66000     -4.2949356E-08
   36.72000     -4.3824031E-08
   36.78000     -4.4743576E-08
   36.84000     -4.5696769E-08
   36.90000     -4.6674604E-08
   36.96000     -4.7669015E-08
   37.02000     -4.8671787E-08
   37.08000     -4.9674330E-08
   37.14000     -5.0668525E-08
   37.20000     -5.1648286E-08
   37.26000     -5.2610908E-08
   37.32000     -5.3557347E-08
   37.38000     -5.4491217E-08
   37.44000     -5.5416827E-08
   37.50000     -5.6337285E-08
   37.56000     -5.7253335E-08
   37.62000     -5.8163025E-08
   37.68000     -5.9061684E-08
   37.74000     -5.9941236E-08
   37.80000     -6.0788430E-08
   37.86000     -6.1582334E-08
   37.92000     -6.2292457E-08
   37.98000     -6.2879074E-08
   38.04000     -6.3296937E-08
   38.10000     -6.3502100E-08
   38.16000     -6.3460220E-08
   38.22000     -6.3153571E-08
   38.28000     -6.2584135E-08
   38.34000     -6.1771225E-08
   38.40000     -6.0744142E-08
   38.46000     -5.9532233E-08
   38.52000     -5.8155965E-08
   38.58000     -5.6622397E-08
   38.64000     -5.4926943E-08
   38.70000     -5.3060997E-08
   38.76000     -5.1022656E-08
   38.82000     -4.8826358E-08
   38.88000     -4.6507445E-08
   38.94000     -4.4119236E-08
   39.00000     -4.1722910E-08
   39.06000     -3.9373035E-08
   39.12000     -3.7103540E-08
   39.18000     -3.4918937E-08
   39.24000     -3.2794176E-08
   39.30000     -3.0683797E-08
   39.36000     -2.8538022E-08
   39.42000     -2.6321043E-08
   39.48000     -2.4025976E-08
   39.54000     -2.1681712E-08
   39.60000     -1.9349464E-08
   39.66000     -1.7109809E-08
   39.72000     -1.5044083E-08
   39.78000     -1.3215709E-08
   39.84000     -1.1656976E-08
   39.90000     -1.0365053E-08
   39.96000     -9.3079251E-09
   40.02000     -8.4377341E-09
   40.08000     -7.7067233E-09
   40.14000     -7.0804047E-09
   40.20000     -6.5439596E-09
   40.26000     -6.1005689E-09
   40.32000     -5.7634337E-09
   40.38000     -5.5453775E-09
   40.44000     -5.4504836E-09
   40.50000     -5.4709925E-09
   40.56000     -5.5903149E-09
   40.62000     -5.7904894E-09
   40.68000     -6.0606675E-09
   40.74000     -6.4028907E-09
   40.80000     -6.8324830E-09
   40.86000     -7.3724236E-09
   40.92000     -8.0432949E-09
   40.98000     -8.8521412E-09
   41.04000     -9.7842427E-09
   41.10000     -1.0801217E-08
   41.16000     -1.1847066E-08
   41.22000     -1.2861284E-08
   41.28000     -1.3795552E-08
   41.34000     -1.4628864E-08
   41.40000     -1.5375717E-08
   41.46000     -1.6083780E-08
   41.52000     -1.6820668E-08
   41.58000     -1.7653258E-08
   41.64000     -1.8625908E-08
   41.70000     -1.9744752E-08
   41.76000     -2.0973610E-08
   41.82000     -2.2243174E-08
   41.88000     -2.3470616E-08
   41.94000     -2.4583247E-08
   42.00000     -2.5538514E-08
   42.06000     -2.6334090E-08
   42.12000     -2.7005376E-08
   42.18000     -2.7611904E-08
   42.24000     -2.8217659E-08
   42.30000     -2.8871810E-08
   42.36000     -2.9595652E-08
   42.42000     -3.0379216E-08
   42.48000     -3.1187650E-08
   42.54000     -3.1974636E-08
   42.60000     -3.2698143E-08
   42.66000     -3.3333443E-08
   42.72000     -3.3879473E-08
   42.78000     -3.4356862E-08
   42.84000     -3.4798735E-08
   42.90000     -3.5237836E-08
   42.96000     -3.5694789E-08
   43.02000     -3.6171908E-08
   43.08000     -3.6654878E-08
   43.14000     -3.7121715E-08
   43.20000     -3.7555218E-08
   43.26000     -3.7953900E-08
   43.32000     -3.8336552E-08
   43.38000     -3.8738232E-08
   43.44000     -3.9198824E-08
   43.50000     -3.9748311E-08
   43.56000     -4.0394326E-08
   43.62000     -4.1116685E-08
   43.68000     -4.1870933E-08
   43.74000     -4.2599638E-08
   43.80000     -4.3247361E-08
   43.86000     -4.3774342E-08
   43.92000     -4.4164530E-08
   43.98000     -4.4426045E-08
   44.04000     -4.4584766E-08
   44.10000     -4.4673879E-08
   44.16000     -4.4723187E-08
   44.22000     -4.4751548E-08
   44.28000     -4.4764203E-08
   44.34000     -4.4755023E-08
   44.40000     -4.4712063E-08
   44.46000     -4.4624016E-08
   44.52000     -4.4485240E-08
   44.58000     -4.4297845E-08
   44.64000     -4.4070525E-08
   44.70000     -4.3814836E-08
   44.76000     -4.3540357E-08
   44.82000     -4.3250552E-08
   44.88000     -4.2940730E-08
   44.94000     -4.2599030E-08
   45.00000     -4.2210267E-08
   45.06000     -4.1761513E-08
   45.12000     -4.1247489E-08
   45.18000     -4.0673619E-08
   45.24000     -4.0055223E-08
   45.30000     -3.9412701E-08
   45.36000     -3.8764291E-08
   45.42000     -3.8119445E-08
   45.48000     -3.7475733E-08
   45.54000     -3.6821234E-08
   45.60000     -3.6141845E-08
   45.66000     -3.5430585E-08
   45.72000     -3.4694875E-08
   45.78000     -3.3958194E-08
   45.84000     -3.3254739E-08
   45.90000     -3.2618825E-08
   45.96000     -3.2072915E-08
   46.02000     -3.1619031E-08
   46.08000     -3.1237093E-08
   46.14000     -3.0891023E-08
   46.20000     -3.0540868E-08
   46.26000     -3.0156968E-08
   46.32000     -2.9731732E-08
   46.38000     -2.9285292E-08
   46.44000     -2.8863196E-08
   46.50000     -2.8526609E-08
   46.56000     -2.8337530E-08
   46.62000     -2.8343081E-08
   46.68000     -2.8563544E-08
   46.74000     -2.8987991E-08
   46.80000     -2.9579605E-08
   46.86000     -3.0289858E-08
   46.92000     -3.1077967E-08
   46.98000     -3.1929972E-08
   47.04000     -3.2871668E-08
   47.10000     -3.3971187E-08
   47.16000     -3.5330523E-08
   47.22000     -3.7068709E-08
   47.28000     -3.9302400E-08
   47.34000     -4.2130250E-08
   47.40000     -4.5626486E-08
   47.46000     -4.9846037E-08
   47.52000     -5.4840157E-08
   47.58000     -6.0678495E-08
   47.64000     -6.7472001E-08
   47.70000     -7.5391029E-08
   47.76000     -8.4674731E-08
   47.82000     -9.5630412E-08
   47.88000     -1.0862448E-07
   47.94000     -1.2406935E-07
   48.00000     -1.4241198E-07
   48.06000     -1.6412973E-07
   48.12000     -1.8973718E-07
   48.18000     -2.1980480E-07
   48.24000     -2.5498665E-07
   48.30000     -2.9605155E-07
   48.36000     -3.4391175E-07
   48.42000     -3.9964314E-07
   48.48000     -4.6449549E-07
   48.54000     -5.3989407E-07
   48.60000     -6.2743737E-07
   48.66000     -7.2889787E-07
   48.72000     -8.4623150E-07
   48.78000     -9.8159978E-07
   48.84000     -1.1374032E-06
   48.90000     -1.3163223E-06
   48.96000     -1.5213610E-06
   49.02000     -1.7558857E-06
   49.08000     -2.0236535E-06
   49.14000     -2.3288321E-06
   49.20000     -2.6760131E-06
   49.26000     -3.0702220E-06
   49.32000     -3.5169362E-06
   49.38000     -4.0221103E-06
   49.44000     -4.5922066E-06
   49.50000     -5.2342389E-06
   49.56000     -5.9558079E-06
   49.62000     -6.7651372E-06
   49.68000     -7.6710940E-06
   49.74000     -8.6832033E-06
   49.80000     -9.8116452E-06
   49.86000     -1.1067248E-05
   49.92000     -1.2461477E-05
   49.98000     -1.4006421E-05
   50.04000     -1.5714781E-05
   50.10000     -1.7599859E-05
   50.16000     -1.9675557E-05
   50.22000     -2.1956348E-05
   50.28000     -2.4457258E-05
   50.34000     -2.7193822E-05
   50.40000     -3.0182002E-05
   50.46000     -3.3438115E-05
   50.52000     -3.6978723E-05
   50.58000     -4.0820516E-05
   50.64000     -4.4980210E-05
   50.70000     -4.9474434E-05
   50.76000     -5.4319597E-05
   50.82000     -5.9531783E-05
   50.88000     -6.5126595E-05
   50.94000     -7.1119030E-05
   51.00000     -7.7523313E-05
   51.06000     -8.4352752E-05
   51.12000     -9.1619528E-05
   51.18000     -9.9334517E-05
   51.24000     -1.0750713E-04
   51.30000     -1.1614507E-04
   51.36000     -1.2525420E-04
   51.42000     -1.3483829E-04
   51.48000     -1.4489902E-04
   51.54000     -1.5543566E-04
   51.60000     -1.6644502E-04
   51.66000     -1.7792144E-04
   51.72000     -1.8985652E-04
   51.78000     -2.0223910E-04
   51.84000     -2.1505512E-04
   51.90000     -2.2828764E-04
   51.96000     -2.4191673E-04
   52.02000     -2.5591953E-04
   52.08000     -2.7027025E-04
   52.14000     -2.8494030E-04
   52.20000     -2.9989835E-04
   52.26000     -3.1511052E-04
   52.32000     -3.3054044E-04
   52.38000     -3.4614955E-04
   52.44000     -3.6189731E-04
   52.50000     -3.7774147E-04
   52.56000     -3.9363836E-04
   52.62000     -4.0954302E-04
   52.68000     -4.2540982E-04
   52.74000     -4.4119250E-04
   52.80000     -4.5684472E-04
   52.86000     -4.7232027E-04
   52.92000     -4.8757371E-04
   52.98000     -5.0256040E-04
   53.04000     -5.1723735E-04
   53.10000     -5.3156342E-04
   53.16000     -5.4549950E-04
   53.22000     -5.5900915E-04
   53.28000     -5.7205866E-04
   53.34000     -5.8461778E-04
   53.40000     -5.9665955E-04
   53.46000     -6.0816092E-04
   53.52000     -6.1910274E-04
   53.58000     -6.2946987E-04
   53.64000     -6.3925149E-04
   53.70000     -6.4844126E-04
   53.76000     -6.5703713E-04
   53.82000     -6.6504139E-04
   53.88000     -6.7246100E-04
   53.94000     -6.7930663E-04
   54.00000     -6.8559346E-04
   54.06000     -6.9134042E-04
   54.12000     -6.9656986E-04
   54.18000     -7.0130755E-04
   54.24000     -7.0558232E-04
   54.30000     -7.0942577E-04
   54.36000     -7.1287173E-04
   54.42000     -7.1595598E-04
   54.48000     -7.1871583E-04
   54.54000     -7.2118972E-04
   54.60000     -7.2341657E-04
   54.66000     -7.2543509E-04
   54.72000     -7.2728394E-04
   54.78000     -7.2900066E-04
   54.84000     -7.3062198E-04
   54.90000     -7.3218299E-04
   54.96000     -7.3371670E-04
   55.02000     -7.3525391E-04
   55.08000     -7.3682290E-04
   55.14000     -7.3844905E-04
   55.20000     -7.4015465E-04
   55.26000     -7.4195891E-04
   55.32000     -7.4387778E-04
   55.38000     -7.4592367E-04
   55.44000     -7.4810546E-04
   55.50000     -7.5042841E-04
   55.56000     -7.5289462E-04