  -2.400000      0.0000000E+00
  -2.340000      0.0000000E+00
  -2.280000      0.0000000E+00
  -2.220000      0.0000000E+00
  -2.160000      0.0000000E+00
  -2.100000      0.0000000E+00
  -2.040000      0.0000000E+00
  -1.980000      0.0000000E+00
  -1.920000      0.0000000E+00
  -1.860000      0.0000000E+00
  -1.800000      9.8371292E-31
  -1.740000      3.0831550E-29
  -1.680000      3.3936766E-28
  -1.620000      2.1162315E-27
  -1.560000      8.6881003E-27
  -1.500000      2.4302265E-26
  -1.440000      4.1599723E-26
  -1.380000      7.3316270E-27
  -1.320000     -2.1979588E-25
  -1.260000     -8.3601349E-25
  -1.200000     -1.8236326E-24
  -1.140000     -2.3493674E-24
  -1.080000     -1.4468674E-25
  -1.020000      8.0651064E-24
 -0.9600000      2.3553620E-23
 -0.9000000      3.9614932E-23
 -0.8400000      3.6009642E-23
 -0.7800000     -1.7549599E-23
 -0.7200000     -1.3879952E-22
 -0.6600000     -2.9113377E-22
 -0.6000000     -3.4732054E-22
 -0.5400000     -1.1184369E-22
 -0.4800000      5.4341076E-22
 -0.4200000      1.4374358E-21
 -0.3600000      1.8729871E-21
 -0.3000000      7.4480485E-22
 -0.2400000     -2.7566143E-21
 -0.1800000     -7.8695346E-21
 -0.1200000     -1.1068527E-20
 -5.9999999E-02 -6.2804019E-21
  0.0000000E+00  1.2084173E-20
  5.9999999E-02  4.3076632E-20
  0.1200000      7.2566655E-20
  0.1800000      7.1480961E-20
  0.2400000      5.4568810E-21
  0.3000000     -1.4125482E-19
  0.3600000     -3.3431399E-19
  0.4200000     -4.6919814E-19
  0.4800000     -3.8858257E-19
  0.5400000      4.4751547E-20
  0.6000000      8.3011581E-19
  0.6600000      1.7192812E-18
  0.7200000      2.2014953E-18
  0.7800000      1.6622244E-18
  0.8400000     -2.7591183E-19
  0.9000000     -3.3451254E-18
  0.9600000     -6.3931851E-18
   1.020000     -7.5785188E-18
   1.080000     -5.1291530E-18
   1.140000      1.5082547E-18
   1.200000      1.0658502E-17
   1.260000      1.8271649E-17
   1.320000      1.9186325E-17
   1.380000      9.7229018E-18
   1.440000     -9.3572598E-18
   1.500000     -3.1188180E-17
   1.560000     -4.4072792E-17
   1.620000     -3.6282511E-17
   1.680000     -3.0819310E-18
   1.740000      4.7250343E-17
   1.800000      9.2443475E-17
   1.860000      1.0307442E-16
   1.920000      5.6571544E-17
   1.980000     -4.6720087E-17
   2.040000     -1.7378342E-16
   2.100000     -2.6360780E-16
   2.160000     -2.4946253E-16
   2.220000     -9.3303339E-17
   2.280000      1.8194232E-16
   2.340000      4.8059802E-16
   2.400000      6.5692302E-16
   2.460000      5.7267310E-16
   2.520000      1.7156345E-16
   2.580000     -4.6234055E-16
   2.640000     -1.0978569E-15
   2.700000     -1.4220639E-15
   2.760000     -1.1681571E-15
   2.820000     -2.6182860E-16
   2.880000      1.0800478E-15
   2.940000      2.3605605E-15
   3.000000      2.9505804E-15
   3.060000      2.3427904E-15
   3.120000      4.2380571E-16
   3.180000     -2.3551309E-15
   3.240000     -5.0135008E-15
   3.300000     -6.3228608E-15
   3.360000     -5.2768077E-15
   3.420000     -1.5961223E-15
   3.480000      3.9392377E-15
   3.540000      9.5215583E-15
   3.600000      1.2799124E-14
   3.660000      1.1734854E-14
   3.720000      5.5798016E-15
   3.780000     -4.4275691E-15
   3.840000     -1.5028895E-14
   3.900000     -2.1804956E-14
   3.960000     -2.0823919E-14
   4.020000     -1.0579807E-14
   4.080000      6.5839202E-15
   4.140000      2.4404396E-14
   4.200000      3.4463595E-14
   4.260000      2.9547596E-14
   4.320000      7.5073436E-15
   4.380000     -2.6080358E-14
   4.440000     -5.8122825E-14
   4.500000     -7.1897200E-14
   4.560000     -5.3878759E-14
   4.620000     -1.1315458E-15
   4.680000      7.4083094E-14
   4.740000      1.4542962E-13
   4.800000      1.8036804E-13
   4.860000      1.5285544E-13
   4.920000      5.6228429E-14
   4.980000     -8.9545992E-14
   5.040000     -2.4071381E-13
   5.100000     -3.4337168E-13
   5.160000     -3.5373183E-13
   5.220000     -2.5701221E-13
   5.280000     -7.6215638E-14
   5.340000      1.3460337E-13
   5.400000      3.1144456E-13
   5.460000      4.0756179E-13
   5.520000      4.1416973E-13
   5.580000      3.6327712E-13
   5.640000      3.0846430E-13
   5.700000      2.9016825E-13
   5.760000      3.0164188E-13
   5.820000      2.7511993E-13
   5.880000      1.0182025E-13
   5.940000     -3.1483006E-13
   6.000000     -9.9069320E-13
   6.060000     -1.8076990E-12
   6.120000     -2.5072071E-12
   6.180000     -2.7472822E-12
   6.240000     -2.2160936E-12
   6.300000     -7.6688298E-13
   6.360000      1.4765774E-12
   6.420000      4.0921927E-12
   6.480000      6.4335464E-12
   6.540000      7.7923718E-12
   6.600000      7.6001141E-12
   6.660000      5.6005209E-12
   6.720000      1.9336386E-12
   6.780000     -2.8944570E-12
   6.840000     -8.1362677E-12
   6.900000     -1.2964936E-11
   6.960000     -1.6606718E-11
   7.020000     -1.8400005E-11
   7.080000     -1.7784045E-11
   7.140000     -1.4268951E-11
   7.200000     -7.4623198E-12
   7.260000      2.7900072E-12
   7.320000      1.6148943E-11
   7.380000      3.1487840E-11
   7.440000      4.6691893E-11
   7.500000      5.8694133E-11
   7.560000      6.3838462E-11
   7.620000      5.8558443E-11
   7.680000      4.0245054E-11
   7.740000      8.0930740E-12
   7.800000     -3.6300331E-11
   7.860000     -8.8749404E-11
   7.920000     -1.4275185E-10
   7.980000     -1.9013373E-10
   8.040000     -2.2188820E-10
   8.100000     -2.2900778E-10
   8.160000     -2.0316676E-10
   8.220000     -1.3721646E-10
   8.280000     -2.5563912E-11
   8.340000      1.3543740E-10
   8.400000      3.4697711E-10
   8.460000      6.0714611E-10
   8.520000      9.1028562E-10
   8.580000      1.2465594E-09
   8.640000      1.6020167E-09
   8.700000      1.9593402E-09
   8.760000      2.2993032E-09
   8.820000      2.6027520E-09
   8.880000      2.8527498E-09
   8.940000      3.0364449E-09
   9.000000      3.1462781E-09
   9.060000      3.1803311E-09
   9.120000      3.1418430E-09
   9.180000      3.0381349E-09
   9.240000      2.8792677E-09
   9.300000      2.6767417E-09
   9.360000      2.4423910E-09
   9.420000      2.1874578E-09
   9.480000      1.9217183E-09
   9.540000      1.6525159E-09
   9.600000      1.3836925E-09
   9.660000      1.1145890E-09
   9.720000      8.3945589E-10
   9.780000      5.4766131E-10
   9.840000      2.2496664E-10
   9.900000     -1.4413191E-10
   9.960000     -5.7332750E-10
   10.02000     -1.0713024E-09
   10.08000     -1.6391253E-09
   10.14000     -2.2688575E-09
   10.20000     -2.9436791E-09
   10.26000     -3.6394425E-09
   10.32000     -4.3272101E-09
   10.38000     -4.9761422E-09
   10.44000     -5.5561467E-09
   10.50000     -6.0399468E-09
   10.56000     -6.4045396E-09
   10.62000     -6.6322952E-09
   10.68000     -6.7120194E-09
   10.74000     -6.6401320E-09
   10.80000     -6.4218169E-09
   10.86000     -6.0716645E-09
   10.92000     -5.6131824E-09
   10.98000     -5.0766844E-09
   11.04000     -4.4955097E-09
   11.10000     -3.9010866E-09
   11.16000     -3.3178733E-09
   11.22000     -2.7594251E-09
   11.28000     -2.2266435E-09
   11.34000     -1.7086988E-09
   11.40000     -1.1863758E-09
   11.46000     -6.3691924E-10
   11.52000     -3.9095772E-11
   11.58000      6.2273658E-10
   11.64000      1.3563043E-09
   11.70000      2.1609476E-09
   11.76000      3.0285157E-09
   11.82000      3.9448302E-09
   11.88000      4.8909863E-09
   11.94000      5.8441261E-09
   12.00000      6.7778516E-09
   12.06000      7.6628357E-09
   12.12000      8.4682847E-09
   12.18000      9.1646273E-09
   12.24000      9.7271977E-09
   12.30000      1.0140063E-08
   12.36000      1.0398745E-08
   12.42000      1.0510639E-08
   12.48000      1.0492581E-08
   12.54000      1.0365875E-08
   12.60000      1.0150200E-08
   12.66000      9.8582946E-09
   12.72000      9.4933164E-09
   12.78000      9.0499386E-09
   12.84000      8.5190246E-09
   12.90000      7.8943918E-09
   12.96000      7.1794313E-09
   13.02000      6.3912493E-09
   13.08000      5.5608962E-09
   13.14000      4.7295337E-09
   13.20000      3.9417904E-09
   13.26000      3.2384297E-09
   13.32000      2.6505400E-09
   13.38000      2.1967261E-09
   13.44000      1.8835811E-09
   13.50000      1.7084965E-09
   13.56000      1.6631655E-09
   13.62000      1.7361443E-09
   13.68000      1.9135526E-09
   13.74000      2.1780584E-09
   13.80000      2.5072253E-09
   13.86000      2.8727027E-09
   13.92000      3.2414376E-09
   13.98000      3.5792032E-09
   14.04000      3.8556816E-09
   14.10000      4.0495372E-09
   14.16000      4.1517341E-09
   14.22000      4.1658765E-09
   14.28000      4.1053410E-09
   14.34000      3.9880685E-09
   14.40000      3.8306363E-09
   14.46000      3.6433558E-09
   14.52000      3.4276653E-09
   14.58000      3.1761740E-09
   14.64000      2.8747920E-09
   14.70000      2.5057649E-09
   14.76000      2.0503752E-09
   14.82000      1.4905400E-09
   14.88000      8.0931417E-10
   14.94000     -8.9581398E-12
   15.00000     -9.7776764E-10
   15.06000     -2.1060307E-09
   15.12000     -3.3941463E-09
   15.18000     -4.8295612E-09
   15.24000     -6.3836780E-09
   15.30000     -8.0120239E-09
   15.36000     -9.6588044E-09
   15.42000     -1.1265419E-08
   15.48000     -1.2780836E-08
   15.54000     -1.4170563E-08
   15.60000     -1.5420975E-08
   15.66000     -1.6537074E-08
   15.72000     -1.7534029E-08
   15.78000     -1.8425204E-08
   15.84000     -1.9210965E-08
   15.90000     -1.9872529E-08
   15.96000     -2.0373591E-08
   16.02000     -2.0669642E-08
   16.08000     -2.0722133E-08
   16.14000     -2.0512745E-08
   16.20000     -2.0052791E-08
   16.26000     -1.9384515E-08
   16.32000     -1.8573791E-08
   16.38000     -1.7696808E-08
   16.44000     -1.6825345E-08
   16.50000     -1.6015449E-08
   16.56000     -1.5302884E-08
   16.62000     -1.4705763E-08
   16.68000     -1.4232035E-08
   16.74000     -1.3887715E-08
   16.80000     -1.3681746E-08
   16.86000     -1.3625226E-08
   16.92000     -1.3725399E-08
   16.98000     -1.3977294E-08
   17.04000     -1.4357009E-08
   17.10000     -1.4819924E-08
   17.16000     -1.5305123E-08
   17.22000     -1.5744654E-08
   17.28000     -1.6074489E-08
   17.34000     -1.6243529E-08
   17.40000     -1.6218154E-08
   17.46000     -1.5981827E-08
   17.52000     -1.5531221E-08
   17.58000     -1.4871441E-08
   17.64000     -1.4012604E-08
   17.70000     -1.2968869E-08
   17.76000     -1.1759274E-08
   17.82000     -1.0408689E-08
   17.88000     -8.9469729E-09
   17.94000     -7.4054634E-09
   18.00000     -5.8113820E-09
   18.06000     -4.1820951E-09
   18.12000     -2.5216924E-09
   18.18000     -8.2166324E-10
   18.24000      9.3410957E-10
   18.30000      2.7615925E-09
   18.36000      4.6688102E-09
   18.42000      6.6507879E-09
   18.48000      8.6888079E-09
   18.54000      1.0753727E-08
   18.60000      1.2811425E-08
   18.66000      1.4827771E-08
   18.72000      1.6771029E-08
   18.78000      1.8611200E-08
   18.84000      2.0317545E-08
   18.90000      2.1856566E-08
   18.96000      2.3192696E-08
   19.02000      2.4292561E-08
   19.08000      2.5131939E-08
   19.14000      2.5703004E-08
   19.20000      2.6018906E-08
   19.26000      2.6113584E-08
   19.32000      2.6036332E-08
   19.38000      2.5842597E-08
   19.44000      2.5583796E-08
   19.50000      2.5299283E-08
   19.56000      2.5012667E-08
   19.62000      2.4733112E-08
   19.68000      2.4460389E-08
   19.74000      2.4191340E-08
   19.80000      2.3924967E-08
   19.86000      2.3664231E-08
   19.92000      2.3414092E-08
   19.98000      2.3176840E-08
   20.04000      2.2947006E-08
   20.10000      2.2708226E-08
   20.16000      2.2433746E-08
   20.22000      2.2090772E-08
   20.28000      2.1647464E-08
   20.34000      2.1080359E-08
   20.40000      2.0379995E-08
   20.46000      1.9553243E-08
   20.52000      1.8622091E-08
   20.58000      1.7619868E-08
   20.64000      1.6586412E-08
   20.70000      1.5563698E-08
   20.76000      1.4592771E-08
   20.82000      1.3711951E-08
   20.88000      1.2955651E-08
   20.94000      1.2353078E-08
   21.00000      1.1926361E-08
   21.06000      1.1688396E-08
   21.12000      1.1641234E-08
   21.18000      1.1776025E-08
   21.24000      1.2075082E-08
   21.30000      1.2515859E-08
   21.36000      1.3075666E-08
   21.42000      1.3735487E-08
   21.48000      1.4481377E-08
   21.54000      1.5302835E-08
   21.60000      1.6188798E-08
   21.66000      1.7123023E-08
   21.72000      1.8081014E-08
   21.78000      1.9030015E-08
   21.84000      1.9932338E-08
   21.90000      2.0750626E-08
   21.96000      2.1452777E-08
   22.02000      2.2014234E-08
   22.08000      2.2416561E-08
   22.14000      2.2642931E-08
   22.20000      2.2672731E-08
   22.26000      2.2478060E-08
   22.32000      2.2024288E-08
   22.38000      2.1275207E-08
   22.44000      2.0201455E-08
   22.50000      1.8789539E-08
   22.56000      1.7048466E-08
   22.62000      1.5011899E-08
   22.68000      1.2735306E-08
   22.74000      1.0289213E-08
   22.80000      7.7508071E-09
   22.86000      5.1963149E-09
   22.92000      2.6959310E-09
   22.98000      3.1192965E-10
   23.04000     -1.9006401E-09
   23.10000     -3.8920320E-09
   23.16000     -5.6161777E-09
   23.22000     -7.0303918E-09
   23.28000     -8.0966513E-09
   23.34000     -8.7839140E-09
   23.40000     -9.0705718E-09
   23.46000     -8.9462588E-09
   23.52000     -8.4127194E-09
   23.58000     -7.4839885E-09
   23.64000     -6.1863372E-09
   23.70000     -4.5582396E-09
   23.76000     -2.6500868E-09
   23.82000     -5.2290733E-10
   23.88000      1.7546548E-09
   23.94000      4.1112775E-09
   24.00000      6.4790466E-09
   24.06000      8.7990948E-09
   24.12000      1.1025030E-08
   24.18000      1.3122988E-08
   24.24000      1.5068531E-08
   24.30000      1.6841957E-08
   24.36000      1.8424329E-08
   24.42000      1.9796373E-08
   24.48000      2.0941014E-08
   24.54000      2.1848690E-08
   24.60000      2.2523057E-08
   24.66000      2.2984279E-08
   24.72000      2.3267777E-08
   24.78000      2.3418163E-08
   24.84000      2.3480101E-08
   24.90000      2.3489243E-08
   24.96000      2.3466709E-08
   25.02000      2.3419123E-08
   25.08000      2.3344059E-08
   25.14000      2.3238389E-08
   25.20000      2.3105617E-08
   25.26000      2.2958673E-08
   25.32000      2.2816485E-08
   25.38000      2.2695403E-08
   25.44000      2.2599012E-08
   25.50000      2.2510648E-08
   25.56000      2.2392097E-08
   25.62000      2.2189489E-08
   25.68000      2.1844588E-08
   25.74000      2.1307677E-08
   25.80000      2.0547855E-08
   25.86000      1.9557710E-08
   25.92000      1.8351651E-08
   25.98000      1.6959300E-08
   26.04000      1.5416791E-08
   26.10000      1.3758986E-08
   26.16000      1.2014731E-08
   26.22000      1.0205913E-08
   26.28000      8.3496134E-09
   26.34000      6.4617995E-09
   26.40000      4.5607154E-09
   26.46000      2.6685316E-09
   26.52000      8.1061585E-10
   26.58000     -9.8726671E-10
   26.64000     -2.7027871E-09
   26.70000     -4.3205874E-09
   26.76000     -5.8344320E-09
   26.82000     -7.2474968E-09
   26.88000     -8.5710283E-09
   26.94000     -9.8220596E-09
   27.00000     -1.1020898E-08
   27.06000     -1.2188704E-08
   27.12000     -1.3345120E-08
   27.18000     -1.4505587E-08
   27.24000     -1.5678289E-08
   27.30000     -1.6861058E-08
   27.36000     -1.8039138E-08
   27.42000     -1.9184814E-08
   27.48000     -2.0259519E-08
   27.54000     -2.1218256E-08
   27.60000     -2.2015335E-08
   27.66000     -2.2609870E-08
   27.72000     -2.2969692E-08
   27.78000     -2.3072992E-08
   27.84000     -2.2907905E-08
   27.90000     -2.2471072E-08
   27.96000     -2.1766397E-08
   28.02000     -2.0804796E-08
   28.08000     -1.9604983E-08
   28.14000     -1.8194505E-08
   28.20000     -1.6609826E-08
   28.26000     -1.4894531E-08
   28.32000     -1.3095453E-08
   28.38000     -1.1257471E-08
   28.44000     -9.4184198E-09
   28.50000     -7.6055988E-09
   28.56000     -5.8348322E-09
   28.62000     -4.1120432E-09
   28.68000     -2.4363740E-09
   28.74000     -8.0340767E-10
   28.80000      7.9280404E-10
   28.86000      2.3594611E-09
   28.92000      3.9061057E-09
   28.98000      5.4459428E-09
   29.04000      6.9960229E-09
   29.10000      8.5753520E-09
   29.16000      1.0200923E-08
   29.22000      1.1882704E-08
   29.28000      1.3619410E-08
   29.34000      1.5396932E-08
   29.40000      1.7190530E-08
   29.46000      1.8970571E-08
   29.52000      2.0709988E-08
   29.58000      2.2390712E-08
   29.64000      2.4006336E-08
   29.70000      2.5559583E-08
   29.76000      2.7055121E-08
   29.82000      2.8490421E-08
   29.88000      2.9848319E-08
   29.94000      3.1094579E-08
   30.00000      3.2181845E-08
   30.06000      3.3058701E-08
   30.12000      3.3680614E-08
   30.18000      3.4018647E-08
   30.24000      3.4062957E-08
   30.30000      3.3820445E-08
   30.36000      3.3308211E-08
   30.42000      3.2546161E-08
   30.48000      3.1552041E-08
   30.54000      3.0340562E-08
   30.60000      2.8926332E-08
   30.66000      2.7328404E-08
   30.72000      2.5573785E-08
   30.78000      2.3697796E-08
   30.84000      2.1740806E-08
   30.90000      1.9742460E-08
   30.96000      1.7735422E-08
   31.02000      1.5740826E-08
   31.08000      1.3766818E-08
   31.14000      1.1810478E-08
   31.20000      9.8623421E-09
   31.26000      7.9121198E-09
   31.32000      5.9539835E-09
   31.38000      3.9900971E-09
   31.44000      2.0315836E-09
   31.50000      9.6896838E-11
   31.56000     -1.7917594E-09
   31.62000     -3.6127856E-09
   31.68000     -5.3489932E-09
   31.74000     -6.9898309E-09
   31.80000     -8.5316447E-09
   31.86000     -9.9763033E-09
   31.92000     -1.1329013E-08
   31.98000     -1.2596187E-08
   32.04000     -1.3783878E-08
   32.10000     -1.4896792E-08
   32.16000     -1.5937536E-08
   32.22000     -1.6905863E-08
   32.28000     -1.7797991E-08
   32.34000     -1.8606462E-08
   32.40000     -1.9321087E-08
   32.46000     -1.9931107E-08
   32.52000     -2.0428145E-08
   32.58000     -2.0808953E-08
   32.64000     -2.1076978E-08
   32.70000     -2.1242169E-08
   32.76000     -2.1319233E-08
   32.82000     -2.1325114E-08
   32.88000     -2.1276561E-08
   32.94000     -2.1188274E-08
   33.00000     -2.1071624E-08
   33.06000     -2.0933587E-08
   33.12000     -2.0775826E-08
   33.18000     -2.0594225E-08
   33.24000     -2.0379751E-08
   33.30000     -2.0121288E-08
   33.36000     -1.9810281E-08
   33.42000     -1.9445970E-08
   33.48000     -1.9039090E-08
   33.54000     -1.8612035E-08
   33.60000     -1.8194710E-08
   33.66000     -1.7817147E-08
   33.72000     -1.7501659E-08
   33.78000     -1.7257809E-08
   33.84000     -1.7082581E-08
   33.90000     -1.6965755E-08
   33.96000     -1.6898134E-08
   34.02000     -1.6878644E-08
   34.08000     -1.6916585E-08
   34.14000     -1.7027469E-08
   34.20000     -1.7223851E-08
   34.26000     -1.7505217E-08
   34.32000     -1.7851868E-08
   34.38000     -1.8226356E-08
   34.44000     -1.8582879E-08
   34.50000     -1.8881611E-08
   34.56000     -1.9102542E-08
   34.62000     -1.9253465E-08
   34.68000     -1.9368876E-08
   34.74000     -1.9500114E-08
   34.80000     -1.9700305E-08
   34.86000     -2.0009432E-08
   34.92000     -2.0444313E-08
   34.98000     -2.0996191E-08
   35.04000     -2.1635739E-08
   35.10000     -2.2322817E-08
   35.16000     -2.3017268E-08
   35.22000     -2.3687324E-08
   35.28000     -2.4313545E-08
   35.34000     -2.4888093E-08
   35.40000     -2.5410626E-08
   35.46000     -2.5883075E-08
   35.52000     -2.6305516E-08
   35.58000     -2.6674618E-08
   35.64000     -2.6984837E-08
   35.70000     -2.7231239E-08
   35.76000     -2.7412062E-08
   35.82000     -2.7529252E-08
   35.88000     -2.7586353E-08
   35.94000     -2.7584537E-08
   36.00000     -2.7518951E-08
   36.06000     -2.7377675E-08
   36.12000     -2.7144740E-08
   36.18000     -2.6806537E-08
   36.24000     -2.6359293E-08
   36.30000     -2.5814309E-08
   36.36000     -2.5198329E-08
   36.42000     -2.4548509E-08
   36.48000     -2.3903700E-08
   36.54000     -2.3295529E-08
   36.60000     -2.2742753E-08
   36.66000     -2.2250775E-08
   36.72000     -2.1815822E-08
   36.78000     -2.1431122E-08
   36.84000     -2.1091635E-08
   36.90000     -2.0794827E-08
   36.96000     -2.0537232E-08
   37.02000     -2.0308914E-08
   37.08000     -2.0089454E-08
   37.14000     -1.9848720E-08
   37.20000     -1.9553640E-08
   37.26000     -1.9179334E-08
   37.32000     -1.8720346E-08
   37.38000     -1.8196909E-08
   37.44000     -1.7652434E-08
   37.50000     -1.7141600E-08
   37.56000     -1.6712255E-08
   37.62000     -1.6387224E-08
   37.68000     -1.6152747E-08
   37.74000     -1.5958227E-08
   37.80000     -1.5728016E-08
   37.86000     -1.5381442E-08
   37.92000     -1.4854315E-08
   37.98000     -1.4114679E-08
   38.04000     -1.3167898E-08
   38.10000     -1.2050260E-08
   38.16000     -1.0814414E-08
   38.22000     -9.5125730E-09
   38.28000     -8.1835383E-09
   38.34000     -6.8475581E-09
   38.40000     -5.5095977E-09
   38.46000     -4.1684740E-09
   38.52000     -2.8273790E-09
   38.58000     -1.5013160E-09
   38.64000     -2.1857192E-10
   38.70000      9.8410502E-10
   38.76000      2.0705502E-09
   38.82000      3.0148732E-09
   38.88000      3.8081533E-09
   38.94000      4.4597805E-09
   39.00000      4.9931836E-09
   39.06000      5.4377969E-09
   39.12000      5.8203882E-09
   39.18000      6.1588645E-09
   39.24000      6.4604224E-09
   39.30000      6.7240391E-09
   39.36000      6.9455837E-09
   39.42000      7.1230124E-09
   39.48000      7.2594402E-09
   39.54000      7.3630488E-09
   39.60000      7.4442155E-09
   39.66000      7.5112974E-09
   39.72000      7.5667872E-09
   39.78000      7.6052213E-09
   39.84000      7.6134130E-09
   39.90000      7.5728916E-09
   39.96000      7.4637843E-09
   40.02000      7.2691413E-09
   40.08000      6.9785702E-09
   40.14000      6.5901720E-09
   40.20000      6.1101146E-09
   40.26000      5.5497806E-09
   40.32000      4.9211972E-09
   40.38000      4.2321706E-09
   40.44000      3.4828140E-09
   40.50000      2.6648062E-09
   40.56000      1.7637546E-09
   40.62000      7.6378853E-10
   40.68000     -3.4743680E-10
   40.74000     -1.5753445E-09
   40.80000     -2.9179310E-09
   40.86000     -4.3680757E-09
   40.92000     -5.9171970E-09
   40.98000     -7.5580715E-09
   41.04000     -9.2849906E-09
   41.10000     -1.1090705E-08
   41.16000     -1.2961316E-08
   41.22000     -1.4871434E-08
   41.28000     -1.6782078E-08
   41.34000     -1.8642819E-08
   41.40000     -2.0397851E-08
   41.46000     -2.1994230E-08
   41.52000     -2.3389761E-08
   41.58000     -2.4558389E-08
   41.64000     -2.5492135E-08
   41.70000     -2.6199775E-08
   41.76000     -2.6703219E-08
   41.82000     -2.7032561E-08
   41.88000     -2.7220448E-08
   41.94000     -2.7296309E-08
   42.00000     -2.7281141E-08
   42.06000     -2.7184065E-08
   42.12000     -2.7002066E-08
   42.18000     -2.6723647E-08
   42.24000     -2.6335830E-08
   42.30000     -2.5832327E-08
   42.36000     -2.5219810E-08
   42.42000     -2.4519705E-08
   42.48000     -2.3764605E-08
   42.54000     -2.2990720E-08
   42.60000     -2.2229537E-08
   42.66000     -2.1501981E-08
   42.72000     -2.0817270E-08
   42.78000     -2.0176357E-08
   42.84000     -1.9577959E-08
   42.90000     -1.9024228E-08
   42.96000     -1.8523705E-08
   43.02000     -1.8090729E-08
   43.08000     -1.7742192E-08
   43.14000     -1.7493628E-08
   43.20000     -1.7356546E-08
   43.26000     -1.7337898E-08
   43.32000     -1.7441167E-08
   43.38000     -1.7667563E-08
   43.44000     -1.8015735E-08
   43.50000     -1.8479318E-08
   43.56000     -1.9043224E-08
   43.62000     -1.9680623E-08
   43.68000     -2.0352864E-08
   43.74000     -2.1013378E-08
   43.80000     -2.1614854E-08
   43.86000     -2.2117197E-08
   43.92000     -2.2493422E-08
   43.98000     -2.2731541E-08
   44.04000     -2.2832630E-08
   44.10000     -2.2806915E-08
   44.16000     -2.2670461E-08
   44.22000     -2.2443935E-08
   44.28000     -2.2153099E-08
   44.34000     -2.1829177E-08
   44.40000     -2.1507052E-08
   44.46000     -2.1220670E-08
   44.52000     -2.0996906E-08
   44.58000     -2.0850376E-08
   44.64000     -2.0781462E-08
   44.70000     -2.0778092E-08
   44.76000     -2.0820114E-08
   44.82000     -2.0884061E-08
   44.88000     -2.0946688E-08
   44.94000     -2.0987081E-08
   45.00000     -2.0988335E-08
   45.06000     -2.0939908E-08
   45.12000     -2.0840771E-08
   45.18000     -2.0702025E-08
   45.24000     -2.0547132E-08
   45.30000     -2.0408534E-08
   45.36000     -2.0321259E-08
   45.42000     -2.0315555E-08
   45.48000     -2.0411251E-08
   45.54000     -2.0615623E-08
   45.60000     -2.0924833E-08
   45.66000     -2.1327539E-08
   45.72000     -2.1808685E-08
   45.78000     -2.2352060E-08
   45.84000     -2.2941350E-08
   45.90000     -2.3560318E-08
   45.96000     -2.4193156E-08
   46.02000     -2.4825532E-08
   46.08000     -2.5446328E-08
   46.14000     -2.6049429E-08
   46.20000     -2.6634797E-08
   46.26000     -2.7208213E-08
   46.32000     -2.7779471E-08
   46.38000     -2.8359228E-08
   46.44000     -2.8955069E-08
   46.50000     -2.9567683E-08
   46.56000     -3.0187991E-08
   46.62000     -3.0795885E-08
   46.68000     -3.1360614E-08
   46.74000     -3.1842383E-08
   46.80000     -3.2194063E-08
   46.86000     -3.2361989E-08
   46.92000     -3.2285104E-08
   46.98000     -3.1892107E-08
   47.04000     -3.1097002E-08
   47.10000     -2.9793656E-08
   47.16000     -2.7850199E-08
   47.22000     -2.5104137E-08
   47.28000     -2.1358852E-08
   47.34000     -1.6381682E-08
   47.40000     -9.9032311E-09
   47.46000     -1.6165783E-09
   47.52000      8.8255980E-09
   47.58000      2.1818080E-08
   47.64000      3.7815720E-08
   47.70000      5.7351560E-08
   47.76000      8.1058765E-08
   47.82000      1.0969360E-07
   47.88000      1.4415674E-07
   47.94000      1.8551162E-07
   48.00000      2.3500043E-07
   48.06000      2.9406044E-07
   48.12000      3.6434432E-07
   48.18000      4.4774734E-07
   48.24000      5.4644386E-07
   48.30000      6.6293171E-07
   48.36000      8.0008357E-07
   48.42000      9.6120266E-07
   48.48000      1.1500802E-06
   48.54000      1.3710539E-06
   48.60000      1.6290693E-06
   48.66000      1.9297413E-06
   48.72000      2.2794238E-06
   48.78000      2.6852836E-06
   48.84000      3.1553850E-06
   48.90000      3.6987847E-06
   48.96000      4.3256337E-06
   49.02000      5.0472941E-06
   49.08000      5.8764549E-06
   49.14000      6.8272561E-06
   49.20000      7.9154051E-06
   49.26000      9.1583024E-06
   49.32000      1.0575159E-05
   49.38000      1.2187120E-05
   49.44000      1.4017398E-05
   49.50000      1.6091393E-05
   49.56000      1.8436838E-05
   49.62000      2.1083915E-05
   49.68000      2.4065390E-05
   49.74000      2.7416721E-05
   49.80000      3.1176169E-05
   49.86000      3.5384866E-05
   49.92000      4.0086925E-05
   49.98000      4.5329467E-05
   50.04000      5.1162686E-05
   50.10000      5.7639852E-05
   50.16000      6.4817315E-05
   50.22000      7.2754483E-05
   50.28000      8.1513695E-05
   50.34000      9.1160182E-05
   50.40000      1.0176183E-04
   50.46000      1.1338911E-04
   50.52000      1.2611467E-04
   50.58000      1.4001323E-04
   50.64000      1.5516118E-04
   50.70000      1.7163620E-04
   50.76000      1.8951690E-04
   50.82000      2.0888227E-04
   50.88000      2.2981115E-04
   50.94000      2.5238184E-04
   51.00000      2.7667123E-04
   51.06000      3.0275434E-04
   51.12000      3.3070351E-04
   51.18000      3.6058770E-04
   51.24000      3.9247185E-04
   51.30000      4.2641591E-04
   51.36000      4.6247413E-04
   51.42000      5.0069421E-04
   51.48000      5.4111658E-04
   51.54000      5.8377377E-04
   51.60000      6.2868913E-04
   51.66000      6.7587668E-04
   51.72000      7.2534016E-04
   51.78000      7.7707221E-04
   51.84000      8.3105423E-04
   51.90000      8.8725542E-04
   51.96000      9.4563270E-04
   52.02000      1.0061302E-03
   52.08000      1.0686792E-03
   52.14000      1.1331978E-03
   52.20000      1.1995913E-03
   52.26000      1.2677521E-03
   52.32000      1.3375602E-03
   52.38000      1.4088835E-03
   52.44000      1.4815785E-03
   52.50000      1.5554907E-03
   52.56000      1.6304561E-03
   52.62000      1.7063015E-03
   52.68000      1.7828464E-03
   52.74000      1.8599033E-03
   52.80000      1.9372796E-03
   52.86000      2.0147795E-03
   52.92000      2.0922043E-03
   52.98000      2.1693548E-03
   53.04000      2.2460332E-03
   53.10000      2.3220442E-03
   53.16000      2.3971975E-03
   53.22000      2.4713087E-03
   53.28000      2.5442005E-03
   53.34000      2.6157056E-03
   53.40000      2.6856665E-03
   53.46000      2.7539385E-03
   53.52000      2.8203907E-03
   53.58000      2.8849069E-03
   53.64000      2.9473861E-03
   53.70000      3.0077435E-03
   53.76000      3.0659121E-03
   53.82000      3.1218412E-03
   53.88000      3.1754989E-03
   53.94000      3.2268697E-03
   54.00000      3.2759560E-03
   54.06000      3.3227778E-03
   54.12000      3.3673702E-03
   54.18000      3.4097852E-03
   54.24000      3.4500882E-03
   54.30000      3.4883579E-03
   54.36000      3.5246850E-03
   54.42000      3.5591698E-03
   54.48000      3.5919207E-03
   54.54000      3.6230532E-03
   54.60000      3.6526879E-03
   54.66000      3.6809477E-03
   54.72000      3.7079575E-03
   54.78000      3.7338403E-03
   54.84000      3.7587159E-03
   54.90000      3.7826994E-03
   54.96000      3.8058986E-03
   55.02000      3.8284131E-03
   55.08000      3.8503322E-03
   55.14000      3.8717357E-03
   55.20000      3.8926890E-03
   55.26000      3.9132461E-03
   55.32000      3.9334451E-03
   55.38000      3.9533107E-03
   55.44000      3.9728493E-03
   55.50000      3.9920555E-03
   55.56000      4.0109064E-03