  -2.400000      0.0000000E+00
  -2.340000      0.0000000E+00
  -2.280000      0.0000000E+00
  -2.220000      0.0000000E+00
  -2.160000      0.0000000E+00
  -2.100000      0.0000000E+00
  -2.040000      0.0000000E+00
  -1.980000      0.0000000E+00
  -1.920000      0.0000000E+00
  -1.860000      0.0000000E+00
  -1.800000      0.0000000E+00
  -1.740000      0.0000000E+00
  -1.680000      3.1849994E-34
  -1.620000      3.5725841E-33
  -1.560000      1.2759149E-32
  -1.500000     -3.6402783E-32
  -1.440000     -6.2148170E-31
  -1.380000     -3.4779515E-30
  -1.320000     -1.1929833E-29
  -1.260000     -2.5491603E-29
  -1.200000     -1.7733752E-29
  -1.140000      1.0810717E-28
  -1.080000      5.4602324E-28
  -1.020000      1.4523028E-27
 -0.9600000      2.4052540E-27
 -0.9000000      1.3611473E-27
 -0.8400000     -6.2359439E-27
 -0.7800000     -2.6069721E-26
 -0.7200000     -5.7949691E-26
 -0.6600000     -8.1429927E-26
 -0.6000000     -3.9935680E-26
 -0.5400000      1.5664230E-25
 -0.4800000      5.7853471E-25
 -0.4200000      1.1482296E-24
 -0.3600000      1.4674499E-24
 -0.3000000      7.2873122E-25
 -0.2400000     -2.0588289E-24
 -0.1800000     -7.3136959E-24
 -0.1200000     -1.3640413E-23
 -5.9999999E-02 -1.6689851E-23
  0.0000000E+00 -9.3235786E-24
  5.9999999E-02  1.5536660E-23
  0.1200000      5.8868347E-23
  0.1800000      1.0799844E-22
  0.2400000      1.3208886E-22
  0.3000000      8.7025097E-23
  0.3600000     -6.5351749E-23
  0.4200000     -3.2480773E-22
  0.4800000     -6.1813338E-22
  0.5400000     -7.8363968E-22
  0.6000000     -6.0065848E-22
  0.6600000      1.1710066E-22
  0.7200000      1.3695503E-21
  0.7800000      2.8074072E-21
  0.8400000      3.6597875E-21
  0.9000000      2.8912755E-21
  0.9600000     -3.0072910E-22
   1.020000     -5.6911460E-21
   1.080000     -1.1271628E-20
   1.140000     -1.3197128E-20
   1.200000     -7.1792758E-21
   1.260000      8.4462718E-21
   1.320000      2.9019037E-20
   1.380000      4.1845293E-20
   1.440000      2.9823939E-20
   1.500000     -1.7911952E-20
   1.560000     -9.1354602E-20
   1.620000     -1.5014097E-19
   1.680000     -1.3167370E-19
   1.740000      1.5577701E-20
   1.800000      2.8125066E-19
   1.860000      5.5280330E-19
   1.920000      6.2590374E-19
   1.980000      2.9337666E-19
   2.040000     -5.0241627E-19
   2.100000     -1.5278283E-18
   2.160000     -2.2387048E-18
   2.220000     -1.9700832E-18
   2.280000     -3.1630456E-19
   2.340000      2.4640484E-18
   2.400000      5.2840401E-18
   2.460000      6.5267830E-18
   2.520000      4.8066216E-18
   2.580000     -1.2035049E-19
   2.640000     -6.8261521E-18
   2.700000     -1.2517023E-17
   2.760000     -1.4217954E-17
   2.820000     -1.0309590E-17
   2.880000     -1.5327600E-18
   2.940000      9.2477188E-18
   3.000000      1.8495980E-17
   3.060000      2.3766067E-17
   3.120000      2.4477279E-17
   3.180000      2.0987670E-17
   3.240000      1.2620448E-17
   3.300000     -3.4264950E-18
   3.360000     -3.0322681E-17
   3.420000     -6.6796840E-17
   3.480000     -1.0192420E-16
   3.540000     -1.1418474E-16
   3.600000     -7.8642436E-17
   3.660000      1.8209976E-17
   3.720000      1.6238778E-16
   3.780000      3.0552216E-16
   3.840000      3.7582942E-16
   3.900000      3.0747235E-16
   3.960000      7.7596609E-17
   4.020000     -2.6760164E-16
   4.080000     -6.1513783E-16
   4.140000     -8.2137537E-16
   4.200000     -7.7026058E-16
   4.260000     -4.2834840E-16
   4.320000      1.3012540E-16
   4.380000      7.4222506E-16
   4.440000      1.2128286E-15
   4.500000      1.3845245E-15
   4.560000      1.1913686E-15
   4.620000      6.7590063E-16
   4.680000     -3.3851572E-17
   4.740000     -7.7433582E-16
   4.800000     -1.4017207E-15
   4.860000     -1.8305902E-15
   4.920000     -2.0398419E-15
   4.980000     -2.0393398E-15
   5.040000     -1.8067350E-15
   5.100000     -1.2264970E-15
   5.160000     -8.4322057E-17
   5.220000      1.8301928E-15
   5.280000      4.5025569E-15
   5.340000      7.4302323E-15
   5.400000      9.4859660E-15
   5.460000      9.1052967E-15
   5.520000      4.8973124E-15
   5.580000     -3.4523244E-15
   5.640000     -1.4385720E-14
   5.700000     -2.4323844E-14
   5.760000     -2.8559512E-14
   5.820000     -2.3132024E-14
   5.880000     -7.0256352E-15
   5.940000      1.6382603E-14
   6.000000      3.9621406E-14
   6.060000      5.3491703E-14
   6.120000      5.0791267E-14
   6.180000      2.9815157E-14
   6.240000     -4.1282713E-15
   6.300000     -4.0194580E-14
   6.360000     -6.6074330E-14
   6.420000     -7.2894199E-14
   6.480000     -5.8640660E-14
   6.540000     -2.8470041E-14
   6.600000      8.1218991E-15
   6.660000      4.1612415E-14
   6.720000      6.5815517E-14
   6.780000      7.8530207E-14
   6.840000      7.9491149E-14
   6.900000      6.7499513E-14
   6.960000      3.9346229E-14
   7.020000     -7.8664060E-15
   7.080000     -7.1721336E-14
   7.140000     -1.3982847E-13
   7.200000     -1.8932529E-13
   7.260000     -1.9283085E-13
   7.320000     -1.2983713E-13
   7.380000      9.1480479E-16
   7.440000      1.7413820E-13
   7.500000      3.4049310E-13
   7.560000      4.3965772E-13
   7.620000      4.2009606E-13
   7.680000      2.5850963E-13
   7.740000     -2.8108595E-14
   7.800000     -3.8199741E-13
   7.860000     -7.1564716E-13
   7.920000     -9.3077336E-13
   7.980000     -9.4045518E-13
   8.040000     -6.9049177E-13
   8.100000     -1.7750559E-13
   8.160000      5.3825613E-13
   8.220000      1.3286865E-12
   8.280000      2.0071609E-12
   8.340000      2.3564664E-12
   8.400000      2.1766595E-12
   8.460000      1.3468152E-12
   8.520000     -1.1400688E-13
   8.580000     -2.0071204E-12
   8.640000     -3.9557793E-12
   8.700000     -5.4593504E-12
   8.760000     -5.9969993E-12
   8.820000     -5.1618245E-12
   8.880000     -2.7941978E-12
   8.940000      9.2141995E-13
   9.000000      5.4271657E-12
   9.060000      9.8481171E-12
   9.120000      1.3134317E-11
   9.180000      1.4268644E-11
   9.240000      1.2503006E-11
   9.300000      7.5735581E-12
   9.360000     -1.5661860E-13
   9.420000     -9.6693729E-12
   9.480000     -1.9398773E-11
   9.540000     -2.7465717E-11
   9.600000     -3.2001929E-11
   9.660000     -3.1502880E-11
   9.720000     -2.5140870E-11
   9.780000     -1.2977434E-11
   9.840000      3.9641112E-12
   9.900000      2.3777648E-11
   9.960000      4.3890457E-11
   10.02000      6.1384668E-11
   10.08000      7.3383799E-11
   10.14000      7.7463043E-11
   10.20000      7.2042421E-11
   10.26000      5.6719962E-11
   10.32000      3.2496235E-11
   10.38000      1.8359880E-12
   10.44000     -3.1486019E-11
   10.50000     -6.2790689E-11
   10.56000     -8.7150863E-11
   10.62000     -1.0024268E-10
   10.68000     -9.9276316E-11
   10.74000     -8.3839810E-11
   10.80000     -5.6470176E-11
   10.86000     -2.2789264E-11
   10.92000      8.8899782E-12
   10.98000      2.8478695E-11
   11.04000      2.5427776E-11
   11.10000     -9.7763473E-12
   11.16000     -8.4217973E-11
   11.22000     -2.0155602E-10
   11.28000     -3.6168171E-10
   11.34000     -5.6120064E-10
   11.40000     -7.9478529E-10
   11.46000     -1.0572916E-09
   11.52000     -1.3463702E-09
   11.58000     -1.6651486E-09
   11.64000     -2.0244519E-09
   11.70000     -2.4439999E-09
   11.76000     -2.9520952E-09
   11.82000     -3.5835197E-09
   11.88000     -4.3756434E-09
   11.94000     -5.3631051E-09
   12.00000     -6.5717307E-09
   12.06000     -8.0125968E-09
   12.12000     -9.6771977E-09
   12.18000     -1.1534628E-08
   12.24000     -1.3531396E-08
   12.30000     -1.5594159E-08
   12.36000     -1.7635221E-08
   12.42000     -1.9560240E-08
   12.48000     -2.1277206E-08
   12.54000     -2.2705592E-08
   12.60000     -2.3784450E-08
   12.66000     -2.4478449E-08
   12.72000     -2.4781093E-08
   12.78000     -2.4714833E-08
   12.84000     -2.4328184E-08
   12.90000     -2.3690321E-08
   12.96000     -2.2883880E-08
   13.02000     -2.1996708E-08
   13.08000     -2.1113356E-08
   13.14000     -2.0306915E-08
   13.20000     -1.9631937E-08
   13.26000     -1.9119062E-08
   13.32000     -1.8772077E-08
   13.38000     -1.8568091E-08
   13.44000     -1.8461190E-08
   13.50000     -1.8389541E-08
   13.56000     -1.8285251E-08
   13.62000     -1.8085677E-08
   13.68000     -1.7744364E-08
   13.74000     -1.7239696E-08
   13.80000     -1.6579648E-08
   13.86000     -1.5801653E-08
   13.92000     -1.4967572E-08
   13.98000     -1.4154622E-08
   14.04000     -1.3443954E-08
   14.10000     -1.2908830E-08
   14.16000     -1.2604469E-08
   14.22000     -1.2561050E-08
   14.28000     -1.2780761E-08
   14.34000     -1.3238961E-08
   14.40000     -1.3888814E-08
   14.46000     -1.4668253E-08
   14.52000     -1.5508034E-08
   14.58000     -1.6339650E-08
   14.64000     -1.7102261E-08
   14.70000     -1.7748143E-08
   14.76000     -1.8246400E-08
   14.82000     -1.8584895E-08
   14.88000     -1.8770336E-08
   14.94000     -1.8826460E-08
   15.00000     -1.8790240E-08
   15.06000     -1.8706229E-08
   15.12000     -1.8619454E-08
   15.18000     -1.8567695E-08
   15.24000     -1.8574296E-08
   15.30000     -1.8642931E-08
   15.36000     -1.8755591E-08
   15.42000     -1.8874603E-08
   15.48000     -1.8948773E-08
   15.54000     -1.8922753E-08
   15.60000     -1.8747929E-08
   15.66000     -1.8392482E-08
   15.72000     -1.7848254E-08
   15.78000     -1.7132617E-08
   15.84000     -1.6284572E-08
   15.90000     -1.5355880E-08
   15.96000     -1.4399256E-08
   16.02000     -1.3456660E-08
   16.08000     -1.2550826E-08
   16.14000     -1.1682383E-08
   16.20000     -1.0833437E-08
   16.26000     -9.9765449E-09
   16.32000     -9.0863850E-09
   16.38000     -8.1504306E-09
   16.44000     -7.1750965E-09
   16.50000     -6.1850978E-09
   16.56000     -5.2158597E-09
   16.62000     -4.3011315E-09
   16.68000     -3.4597130E-09
   16.74000     -2.6858464E-09
   16.80000     -1.9470028E-09
   16.86000     -1.1906826E-09
   16.92000     -3.5904368E-10
   16.98000      5.9251104E-10
   17.04000      1.6783069E-09
   17.10000      2.8724929E-09
   17.16000      4.1101185E-09
   17.22000      5.2999769E-09
   17.28000      6.3464474E-09
   17.34000      7.1745823E-09
   17.40000      7.7512468E-09
   17.46000      8.0957872E-09
   17.52000      8.2764506E-09
   17.58000      8.3928322E-09
   17.64000      8.5488416E-09
   17.70000      8.8237098E-09
   17.76000      9.2494474E-09
   17.82000      9.8014521E-09
   17.88000      1.0405219E-08
   17.94000      1.0957333E-08
   18.00000      1.1354683E-08
   18.06000      1.1523364E-08
   18.12000      1.1438834E-08
   18.18000      1.1131491E-08
   18.24000      1.0676253E-08
   18.30000      1.0169356E-08
   18.36000      9.6994102E-09
   18.42000      9.3212771E-09
   18.48000      9.0404040E-09
   18.54000      8.8120267E-09
   18.60000      8.5551628E-09
   18.66000      8.1769782E-09
   18.72000      7.6000921E-09
   18.78000      6.7847359E-09
   18.84000      5.7393645E-09
   18.90000      4.5169535E-09
   18.96000      3.1985421E-09
   19.02000      1.8693869E-09
   19.08000      5.9516619E-10
   19.14000     -5.9450650E-10
   19.20000     -1.7104183E-09
   19.26000     -2.7949694E-09
   19.32000     -3.9034376E-09
   19.38000     -5.0815991E-09
   19.44000     -6.3471095E-09
   19.50000     -7.6807458E-09
   19.56000     -9.0302930E-09
   19.62000     -1.0325598E-08
   19.68000     -1.1499578E-08
   19.74000     -1.2507995E-08
   19.80000     -1.3341304E-08
   19.86000     -1.4024669E-08
   19.92000     -1.4606243E-08
   19.98000     -1.5137784E-08
   20.04000     -1.5654118E-08
   20.10000     -1.6158248E-08
   20.16000     -1.6616985E-08
   20.22000     -1.6968556E-08
   20.28000     -1.7139936E-08
   20.34000     -1.7068663E-08
   20.40000     -1.6722648E-08
   20.46000     -1.6112127E-08
   20.52000     -1.5290315E-08
   20.58000     -1.4342640E-08
   20.64000     -1.3367765E-08
   20.70000     -1.2455867E-08
   20.76000     -1.1670264E-08
   20.82000     -1.1037179E-08
   20.88000     -1.0545810E-08
   20.94000     -1.0157749E-08
   21.00000     -9.8221991E-09
   21.06000     -9.4921555E-09
   21.12000     -9.1371453E-09
   21.18000     -8.7496730E-09
   21.24000     -8.3447977E-09
   21.30000     -7.9542080E-09
   21.36000     -7.6173388E-09
   21.42000     -7.3722037E-09
   21.48000     -7.2480293E-09
   21.54000     -7.2608146E-09
   21.60000     -7.4120750E-09
   21.66000     -7.6904243E-09
   21.72000     -8.0754150E-09
   21.78000     -8.5428260E-09
   21.84000     -9.0704422E-09
   21.90000     -9.6431414E-09
   21.96000     -1.0256002E-08
   22.02000     -1.0914419E-08
   22.08000     -1.1630942E-08
   22.14000     -1.2419600E-08
   22.20000     -1.3289487E-08
   22.26000     -1.4239940E-08
   22.32000     -1.5259292E-08
   22.38000     -1.6328014E-08
   22.44000     -1.7425403E-08
   22.50000     -1.8537524E-08
   22.56000     -1.9663336E-08
   22.62000     -2.0816366E-08
   22.68000     -2.2020753E-08
   22.74000     -2.3302404E-08
   22.80000     -2.4677874E-08
   22.86000     -2.6144541E-08
   22.92000     -2.7675519E-08
   22.98000     -2.9221431E-08
   23.04000     -3.0718976E-08
   23.10000     -3.2104143E-08
   23.16000     -3.3326174E-08
   23.22000     -3.4358028E-08
   23.28000     -3.5200003E-08
   23.34000     -3.5875225E-08
   23.40000     -3.6418317E-08
   23.46000     -3.6860705E-08
   23.52000     -3.7217166E-08
   23.58000     -3.7478021E-08
   23.64000     -3.7609620E-08
   23.70000     -3.7563499E-08
   23.76000     -3.7291954E-08
   23.82000     -3.6765773E-08
   23.88000     -3.5989022E-08
   23.94000     -3.5006067E-08
   24.00000     -3.3897869E-08
   24.06000     -3.2767446E-08
   24.12000     -3.1717565E-08
   24.18000     -3.0826520E-08
   24.24000     -3.0129062E-08
   24.30000     -2.9608445E-08
   24.36000     -2.9202575E-08
   24.42000     -2.8822805E-08
   24.48000     -2.8379898E-08
   24.54000     -2.7809186E-08
   24.60000     -2.7087316E-08
   24.66000     -2.6235597E-08
   24.72000     -2.5309395E-08
   24.78000     -2.4377330E-08
   24.84000     -2.3497106E-08
   24.90000     -2.2695641E-08
   24.96000     -2.1959654E-08
   25.02000     -2.1239551E-08
   25.08000     -2.0465293E-08
   25.14000     -1.9569153E-08
   25.20000     -1.8507984E-08
   25.26000     -1.7277751E-08
   25.32000     -1.5915431E-08
   25.38000     -1.4487752E-08
   25.44000     -1.3070683E-08
   25.50000     -1.1726970E-08
   25.56000     -1.0489654E-08
   25.62000     -9.3574153E-09
   25.68000     -8.3033003E-09
   25.74000     -7.2936603E-09
   25.80000     -6.3105765E-09
   25.86000     -5.3698632E-09
   25.92000     -4.5282067E-09
   25.98000     -3.8765164E-09
   26.04000     -3.5208951E-09
   26.10000     -3.5565131E-09
   26.16000     -4.0419894E-09
   26.22000     -4.9819229E-09
   26.28000     -6.3229950E-09
   26.34000     -7.9650979E-09
   26.40000     -9.7844106E-09
   26.46000     -1.1661749E-08
   26.52000     -1.3507977E-08
   26.58000     -1.5279500E-08
   26.64000     -1.6980229E-08
   26.70000     -1.8650763E-08
   26.76000     -2.0349306E-08
   26.82000     -2.2130648E-08
   26.88000     -2.4029312E-08
   26.94000     -2.6050904E-08
   27.00000     -2.8172803E-08
   27.06000     -3.0352709E-08
   27.12000     -3.2541617E-08
   27.18000     -3.4697013E-08
   27.24000     -3.6792425E-08
   27.30000     -3.8820883E-08
   27.36000     -4.0791754E-08
   27.42000     -4.2722835E-08
   27.48000     -4.4630863E-08
   27.54000     -4.6524040E-08
   27.60000     -4.8398970E-08
   27.66000     -5.0242310E-08
   27.72000     -5.2035418E-08
   27.78000     -5.3759379E-08
   27.84000     -5.5398161E-08
   27.90000     -5.6939101E-08
   27.96000     -5.8371597E-08
   28.02000     -5.9685433E-08
   28.08000     -6.0870015E-08
   28.14000     -6.1914534E-08
   28.20000     -6.2808411E-08
   28.26000     -6.3540980E-08
   28.32000     -6.4099972E-08
   28.38000     -6.4469525E-08
   28.44000     -6.4628892E-08
   28.50000     -6.4553120E-08
   28.56000     -6.4216287E-08
   28.62000     -6.3596993E-08
   28.68000     -6.2684805E-08
   28.74000     -6.1486077E-08
   28.80000     -6.0027070E-08
   28.86000     -5.8353081E-08
   28.92000     -5.6522435E-08
   28.98000     -5.4596025E-08
   29.04000     -5.2624394E-08
   29.10000     -5.0635997E-08
   29.16000     -4.8630845E-08
   29.22000     -4.6582713E-08
   29.28000     -4.4450637E-08
   29.34000     -4.2197122E-08
   29.40000     -3.9807716E-08
   29.46000     -3.7305455E-08
   29.52000     -3.4754901E-08
   29.58000     -3.2253574E-08
   29.64000     -2.9912577E-08
   29.70000     -2.7831769E-08
   29.76000     -2.6076643E-08
   29.82000     -2.4663898E-08
   29.88000     -2.3560238E-08
   29.94000     -2.2695209E-08
   30.00000     -2.1984622E-08
   30.06000     -2.1357726E-08
   30.12000     -2.0779787E-08
   30.18000     -2.0262801E-08
   30.24000     -1.9860684E-08
   30.30000     -1.9650248E-08
   30.36000     -1.9704183E-08
   30.42000     -2.0065039E-08
   30.48000     -2.0728953E-08
   30.54000     -2.1644521E-08
   30.60000     -2.2727010E-08
   30.66000     -2.3882984E-08
   30.72000     -2.5037158E-08
   30.78000     -2.6152930E-08
   30.84000     -2.7240478E-08
   30.90000     -2.8350343E-08
   30.96000     -2.9554963E-08
   31.02000     -3.0923996E-08
   31.08000     -3.2500719E-08
   31.14000     -3.4286330E-08
   31.20000     -3.6236393E-08
   31.26000     -3.8270176E-08
   31.32000     -4.0289926E-08
   31.38000     -4.2204253E-08
   31.44000     -4.3948749E-08
   31.50000     -4.5498069E-08
   31.56000     -4.6866305E-08
   31.62000     -4.8096364E-08
   31.68000     -4.9242079E-08
   31.74000     -5.0348813E-08
   31.80000     -5.1438182E-08
   31.86000     -5.2500877E-08
   31.92000     -5.3498962E-08
   31.98000     -5.4376262E-08
   32.04000     -5.5073496E-08
   32.10000     -5.5543836E-08
   32.16000     -5.5764684E-08
   32.22000     -5.5742650E-08
   32.28000     -5.5510586E-08
   32.34000     -5.5117525E-08
   32.40000     -5.4614514E-08
   32.46000     -5.4040331E-08
   32.52000     -5.3411064E-08
   32.58000     -5.2716391E-08
   32.64000     -5.1923294E-08
   32.70000     -5.0985737E-08
   32.76000     -4.9857320E-08
   32.82000     -4.8503313E-08
   32.88000     -4.6909197E-08
   32.94000     -4.5084018E-08
   33.00000     -4.3058666E-08
   33.06000     -4.0880160E-08
   33.12000     -3.8604036E-08
   33.18000     -3.6286764E-08
   33.24000     -3.3979838E-08
   33.30000     -3.1726437E-08
   33.36000     -2.9560780E-08
   33.42000     -2.7509424E-08
   33.48000     -2.5593360E-08
   33.54000     -2.3829534E-08
   33.60000     -2.2230726E-08
   33.66000     -2.0803540E-08
   33.72000     -1.9545180E-08
   33.78000     -1.8440570E-08
   33.84000     -1.7461680E-08
   33.90000     -1.6570500E-08
   33.96000     -1.5725956E-08
   34.02000     -1.4893499E-08
   34.08000     -1.4054770E-08
   34.14000     -1.3214166E-08
   34.20000     -1.2399764E-08
   34.26000     -1.1657590E-08
   34.32000     -1.1040292E-08
   34.38000     -1.0593139E-08
   34.44000     -1.0341213E-08
   34.50000     -1.0281564E-08
   34.56000     -1.0382833E-08
   34.62000     -1.0592949E-08
   34.68000     -1.0853354E-08
   34.74000     -1.1116264E-08
   34.80000     -1.1360290E-08
   34.86000     -1.1599642E-08
   34.92000     -1.1883556E-08
   34.98000     -1.2285125E-08
   35.04000     -1.2882079E-08
   35.10000     -1.3734906E-08
   35.16000     -1.4869006E-08
   35.22000     -1.6266624E-08
   35.28000     -1.7871194E-08
   35.34000     -1.9602725E-08
   35.40000     -2.1379073E-08
   35.46000     -2.3136353E-08
   35.52000     -2.4842207E-08
   35.58000     -2.6498313E-08
   35.64000     -2.8132147E-08
   35.70000     -2.9781242E-08
   35.76000     -3.1475366E-08
   35.82000     -3.3222317E-08
   35.88000     -3.5001804E-08
   35.94000     -3.6769340E-08
   36.00000     -3.8468915E-08
   36.06000     -4.0050566E-08
   36.12000     -4.1487077E-08
   36.18000     -4.2784407E-08
   36.24000     -4.3982034E-08
   36.30000     -4.5142730E-08
   36.36000     -4.6334570E-08
   36.42000     -4.7610424E-08
   36.48000     -4.8990977E-08
   36.54000     -5.0456304E-08
   36.60000     -5.1948472E-08
   36.66000     -5.3384710E-08
   36.72000     -5.4677592E-08
   36.78000     -5.5756868E-08
   36.84000     -5.6586924E-08
   36.90000     -5.7174866E-08
   36.96000     -5.7566719E-08
   37.02000     -5.7832672E-08
   37.08000     -5.8045590E-08
   37.14000     -5.8259083E-08
   37.20000     -5.8491555E-08
   37.26000     -5.8720879E-08
   37.32000     -5.8890791E-08
   37.38000     -5.8926965E-08
   37.44000     -5.8757944E-08
   37.50000     -5.8335342E-08
   37.56000     -5.7648023E-08
   37.62000     -5.6727007E-08
   37.68000     -5.5640047E-08
   37.74000     -5.4477454E-08
   37.80000     -5.3333071E-08
   37.86000     -5.2285575E-08
   37.92000     -5.1385356E-08
   37.98000     -5.0650492E-08
   38.04000     -5.0072313E-08
   38.10000     -4.9627971E-08
   38.16000     -4.9294989E-08
   38.22000     -4.9062653E-08
   38.28000     -4.8936688E-08
   38.34000     -4.8936464E-08
   38.40000     -4.9086694E-08
   38.46000     -4.9406893E-08
   38.52000     -4.9902191E-08
   38.58000     -5.0557894E-08
   38.64000     -5.1339011E-08
   38.70000     -5.2194796E-08
   38.76000     -5.3067108E-08
   38.82000     -5.3900685E-08
   38.88000     -5.4652631E-08
   38.94000     -5.5298187E-08
   39.00000     -5.5830895E-08
   39.06000     -5.6256926E-08
   39.12000     -5.6585510E-08
   39.18000     -5.6819044E-08
   39.24000     -5.6946600E-08
   39.30000     -5.6943062E-08
   39.36000     -5.6774127E-08
   39.42000     -5.6405035E-08
   39.48000     -5.5809931E-08
   39.54000     -5.4978955E-08
   39.60000     -5.3921099E-08
   39.66000     -5.2662472E-08
   39.72000     -5.1240750E-08
   39.78000     -4.9697519E-08
   39.84000     -4.8070696E-08
   39.90000     -4.6389125E-08
   39.96000     -4.4670941E-08
   40.02000     -4.2926182E-08
   40.08000     -4.1162739E-08
   40.14000     -3.9393516E-08
   40.20000     -3.7642256E-08
   40.26000     -3.5945916E-08
   40.32000     -3.4352841E-08
   40.38000     -3.2917324E-08
   40.44000     -3.1692299E-08
   40.50000     -3.0722187E-08
   40.56000     -3.0037647E-08
   40.62000     -2.9653163E-08
   40.68000     -2.9567603E-08
   40.74000     -2.9767302E-08
   40.80000     -3.0230474E-08
   40.86000     -3.0931776E-08
   40.92000     -3.1845950E-08
   40.98000     -3.2950048E-08
   41.04000     -3.4224570E-08
   41.10000     -3.5654129E-08
   41.16000     -3.7228265E-08
   41.22000     -3.8942183E-08
   41.28000     -4.0796444E-08
   41.34000     -4.2794465E-08
   41.40000     -4.4937284E-08
   41.46000     -4.7216751E-08
   41.52000     -4.9609554E-08
   41.58000     -5.2074874E-08
   41.64000     -5.4557550E-08
   41.70000     -5.6996416E-08
   41.76000     -5.9335477E-08
   41.82000     -6.1534429E-08
   41.88000     -6.3575371E-08
   41.94000     -6.5463858E-08
   42.00000     -6.7224235E-08
   42.06000     -6.8890387E-08
   42.12000     -7.0494053E-08
   42.18000     -7.2053098E-08
   42.24000     -7.3562589E-08
   42.30000     -7.4991121E-08
   42.36000     -7.6284458E-08
   42.42000     -7.7376242E-08
   42.48000     -7.8203534E-08
   42.54000     -7.8722714E-08
   42.60000     -7.8920671E-08
   42.66000     -7.8817330E-08
   42.72000     -7.8458939E-08
   42.78000     -7.7904410E-08
   42.84000     -7.7209393E-08
   42.90000     -7.6413173E-08
   42.96000     -7.5532121E-08
   43.02000     -7.4560809E-08
   43.08000     -7.3479896E-08
   43.14000     -7.2268030E-08
   43.20000     -7.0914417E-08
   43.26000     -6.9428310E-08
   43.32000     -6.7842791E-08
   43.38000     -6.6211129E-08
   43.44000     -6.4596421E-08
   43.50000     -6.3057485E-08
   43.56000     -6.1635433E-08
   43.62000     -6.0345805E-08
   43.68000     -5.9178880E-08
   43.74000     -5.8108050E-08
   43.80000     -5.7102806E-08
   43.86000     -5.6141364E-08
   43.92000     -5.5218358E-08
   43.98000     -5.4345268E-08
   44.04000     -5.3544117E-08
   44.10000     -5.2837393E-08
   44.16000     -5.2238047E-08
   44.22000     -5.1743026E-08
   44.28000     -5.1332481E-08
   44.34000     -5.0974812E-08
   44.40000     -5.0636213E-08
   44.46000     -5.0291867E-08
   44.52000     -4.9935114E-08
   44.58000     -4.9581605E-08
   44.64000     -4.9266554E-08
   44.70000     -4.9035769E-08
   44.76000     -4.8933273E-08
   44.82000     -4.8989659E-08
   44.88000     -4.9214918E-08
   44.94000     -4.9597780E-08
   45.00000     -5.0110938E-08
   45.06000     -5.0719883E-08
   45.12000     -5.1392103E-08
   45.18000     -5.2103925E-08
   45.24000     -5.2843578E-08
   45.30000     -5.3610187E-08
   45.36000     -5.4409306E-08
   45.42000     -5.5246435E-08
   45.48000     -5.6120165E-08
   45.54000     -5.7017228E-08
   45.60000     -5.7911407E-08
   45.66000     -5.8767295E-08
   45.72000     -5.9548388E-08
   45.78000     -6.0226967E-08
   45.84000     -6.0792395E-08
   45.90000     -6.1254632E-08
   45.96000     -6.1641686E-08
   46.02000     -6.1991919E-08
   46.08000     -6.2344100E-08
   46.14000     -6.2728631E-08
   46.20000     -6.3162339E-08
   46.26000     -6.3647590E-08
   46.32000     -6.4174984E-08
   46.38000     -6.4727786E-08
   46.44000     -6.5286670E-08
   46.50000     -6.5833596E-08
   46.56000     -6.6354666E-08
   46.62000     -6.6841750E-08
   46.68000     -6.7293008E-08
   46.74000     -6.7712627E-08
   46.80000     -6.8110218E-08
   46.86000     -6.8500732E-08
   46.92000     -6.8905891E-08
   46.98000     -6.9357412E-08
   47.04000     -6.9901660E-08
   47.10000     -7.0604500E-08
   47.16000     -7.1554553E-08
   47.22000     -7.2863735E-08
   47.28000     -7.4664719E-08
   47.34000     -7.7106392E-08
   47.40000     -8.0348777E-08
   47.46000     -8.4559176E-08
   47.52000     -8.9910877E-08
   47.58000     -9.6585090E-08
   47.64000     -1.0477667E-07
   47.70000     -1.1470362E-07
   47.76000     -1.2662015E-07
   47.82000     -1.4083220E-07
   47.88000     -1.5771359E-07
   47.94000     -1.7772038E-07
   48.00000     -2.0140165E-07
   48.06000     -2.2940576E-07
   48.12000     -2.6248344E-07
   48.18000     -3.0149005E-07
   48.24000     -3.4738994E-07
   48.30000     -4.0126559E-07
   48.36000     -4.6433237E-07
   48.42000     -5.3796009E-07
   48.48000     -6.2369975E-07
   48.54000     -7.2331488E-07
   48.60000     -8.3881520E-07
   48.66000     -9.7248949E-07
   48.72000     -1.1269354E-06
   48.78000     -1.3050852E-06
   48.84000     -1.5102258E-06
   48.90000     -1.7460178E-06
   48.96000     -2.0165148E-06
   49.02000     -2.3261891E-06
   49.08000     -2.6799626E-06
   49.14000     -3.0832427E-06
   49.20000     -3.5419623E-06
   49.26000     -4.0626187E-06
   49.32000     -4.6523119E-06
   49.38000     -5.3187873E-06
   49.44000     -6.0704701E-06
   49.50000     -6.9165035E-06
   49.56000     -7.8667808E-06
   49.62000     -8.9319692E-06
   49.68000     -1.0123525E-05
   49.74000     -1.1453713E-05
   49.80000     -1.2935618E-05
   49.86000     -1.4583147E-05
   49.92000     -1.6411041E-05
   49.98000     -1.8434856E-05
   50.04000     -2.0670957E-05
   50.10000     -2.3136479E-05
   50.16000     -2.5849280E-05
   50.22000     -2.8827895E-05
   50.28000     -3.2091462E-05
   50.34000     -3.5659657E-05
   50.40000     -3.9552622E-05
   50.46000     -4.3790838E-05
   50.52000     -4.8395053E-05
   50.58000     -5.3386131E-05
   50.64000     -5.8784906E-05
   50.70000     -6.4612017E-05
   50.76000     -7.0887785E-05
   50.82000     -7.7631958E-05
   50.88000     -8.4863605E-05
   50.94000     -9.2600865E-05
   51.00000     -1.0086073E-04
   51.06000     -1.0965886E-04
   51.12000     -1.1900933E-04
   51.18000     -1.2892442E-04
   51.24000     -1.3941436E-04
   51.30000     -1.5048712E-04
   51.36000     -1.6214819E-04
   51.42000     -1.7440040E-04
   51.48000     -1.8724364E-04
   51.54000     -2.0067474E-04
   51.60000     -2.1468727E-04
   51.66000     -2.2927136E-04
   51.72000     -2.4441371E-04
   51.78000     -2.6009729E-04
   51.84000     -2.7630152E-04
   51.90000     -2.9300194E-04
   51.96000     -3.1017055E-04
   52.02000     -3.2777552E-04
   52.08000     -3.4578153E-04
   52.14000     -3.6414963E-04
   52.20000     -3.8283755E-04
   52.26000     -4.0179995E-04
   52.32000     -4.2098860E-04
   52.38000     -4.4035265E-04
   52.44000     -4.5983898E-04
   52.50000     -4.7939250E-04
   52.56000     -4.9895665E-04
   52.62000     -5.1847368E-04
   52.68000     -5.3788524E-04
   52.74000     -5.5713282E-04
   52.80000     -5.7615817E-04
   52.86000     -5.9490371E-04
   52.92000     -6.1331334E-04
   52.98000     -6.3133275E-04
   53.04000     -6.4890983E-04
   53.10000     -6.6599547E-04
   53.16000     -6.8254396E-04
   53.22000     -6.9851323E-04
   53.28000     -7.1386539E-04
   53.34000     -7.2856736E-04
   53.40000     -7.4259093E-04
   53.46000     -7.5591303E-04
   53.52000     -7.6851621E-04
   53.58000     -7.8038825E-04
   53.64000     -7.9152302E-04
   53.70000     -8.0192002E-04
   53.76000     -8.1158441E-04
   53.82000     -8.2052738E-04
   53.88000     -8.2876574E-04
   53.94000     -8.3632133E-04
   54.00000     -8.4322097E-04
   54.06000     -8.4949611E-04
   54.12000     -8.5518270E-04
   54.18000     -8.6032035E-04
   54.24000     -8.6495240E-04
   54.30000     -8.6912472E-04
   54.36000     -8.7288552E-04
   54.42000     -8.7628426E-04
   54.48000     -8.7937148E-04
   54.54000     -8.8219770E-04
   54.60000     -8.8481331E-04
   54.66000     -8.8726776E-04
   54.72000     -8.8960893E-04
   54.78000     -8.9188252E-04
   54.84000     -8.9413143E-04
   54.90000     -8.9639513E-04
   54.96000     -8.9870917E-04
   55.02000     -9.0110482E-04
   55.08000     -9.0360868E-04
   55.14000     -9.0624264E-04
   55.20000     -9.0902345E-04
   55.26000     -9.1196271E-04
   55.32000     -9.1506634E-04
   55.38000     -9.1833499E-04
   55.44000     -9.2176395E-04
   55.50000     -9.2534331E-04
   55.56000     -9.2905841E-04