  -2.400000      0.0000000E+00
  -2.340000      0.0000000E+00
  -2.280000      0.0000000E+00
  -2.220000      0.0000000E+00
  -2.160000      0.0000000E+00
  -2.100000      0.0000000E+00
  -2.040000      0.0000000E+00
  -1.980000      0.0000000E+00
  -1.920000      0.0000000E+00
  -1.860000      0.0000000E+00
  -1.800000      0.0000000E+00
  -1.740000      0.0000000E+00
  -1.680000     -1.1866384E-33
  -1.620000     -2.4139054E-32
  -1.560000     -2.2334447E-31
  -1.500000     -1.2328569E-30
  -1.440000     -4.2907549E-30
  -1.380000     -7.9115509E-30
  -1.320000      6.8240753E-30
  -1.260000      1.0562792E-28
  -1.200000      4.0453797E-28
  -1.140000      9.0527259E-28
  -1.080000      9.5523718E-28
  -1.020000     -1.5772083E-27
 -0.9600000     -1.0255960E-26
 -0.9000000     -2.6459840E-26
 -0.8400000     -3.9648482E-26
 -0.7800000     -1.4846737E-26
 -0.7200000      1.0567211E-25
 -0.6600000      3.5626275E-25
 -0.6000000      6.3846822E-25
 -0.5400000      5.9482365E-25
 -0.4800000     -3.7227791E-25
 -0.4200000     -2.6987922E-24
 -0.3600000     -5.7776330E-24
 -0.3000000     -7.0067485E-24
 -0.2400000     -1.9106899E-24
 -0.1800000      1.3194196E-23
 -0.1200000      3.5598762E-23
 -5.9999999E-02  5.0314189E-23
  0.0000000E+00  3.0439751E-23
  5.9999999E-02 -4.8447410E-23
  0.1200000     -1.7820961E-22
  0.1800000     -2.8596776E-22
  0.2400000     -2.3171945E-22
  0.3000000      1.2710230E-22
  0.3600000      7.9435648E-22
  0.4200000      1.4738503E-21
  0.4800000      1.5239006E-21
  0.5400000      1.9172530E-22
  0.6000000     -2.8081073E-21
  0.6600000     -6.5612693E-21
  0.7200000     -8.5750817E-21
  0.7800000     -5.4135025E-21
  0.8400000      5.2864156E-21
  0.9000000      2.1906517E-20
  0.9600000      3.6695254E-20
   1.020000      3.6742096E-20
   1.080000      9.8005603E-21
   1.140000     -4.5855643E-20
   1.200000     -1.1213991E-19
   1.260000     -1.4993478E-19
   1.320000     -1.1260691E-19
   1.380000      2.5630140E-20
   1.440000      2.3740396E-19
   1.500000      4.2685976E-19
   1.560000      4.5318041E-19
   1.620000      2.0028656E-19
   1.680000     -3.2853833E-19
   1.740000     -9.4253860E-19
   1.800000     -1.2843921E-18
   1.860000     -9.7608863E-19
   1.920000      1.4019243E-19
   1.980000      1.7767329E-18
   2.040000      3.1486911E-18
   2.100000      3.2208018E-18
   2.160000      1.2442781E-18
   2.220000     -2.6159730E-18
   2.280000     -6.9185378E-18
   2.340000     -9.2042620E-18
   2.400000     -7.0140954E-18
   2.460000      6.0051694E-19
   2.520000      1.1764075E-17
   2.580000      2.1546047E-17
   2.640000      2.3454663E-17
   2.700000      1.2567540E-17
   2.760000     -1.0794291E-17
   2.820000     -3.8765591E-17
   2.880000     -5.7014635E-17
   2.940000     -5.0170076E-17
   3.000000     -1.0476706E-17
   3.060000      5.3887670E-17
   3.120000      1.1595317E-16
   3.180000      1.3696270E-16
   3.240000      8.3935717E-17
   3.300000     -4.7534040E-17
   3.360000     -2.1642847E-16
   3.420000     -3.3858623E-16
   3.480000     -3.1620643E-16
   3.540000     -9.0022629E-17
   3.600000      3.0650986E-16
   3.660000      7.2285358E-16
   3.720000      9.2555121E-16
   3.780000      6.9728403E-16
   3.840000     -2.9249977E-17
   3.900000     -1.0669850E-15
   3.960000     -1.9738940E-15
   4.020000     -2.1994254E-15
   4.080000     -1.3515581E-15
   4.140000      5.2331464E-16
   4.200000      2.8038224E-15
   4.260000      4.4304363E-15
   4.320000      4.3339796E-15
   4.380000      2.0131385E-15
   4.440000     -2.0136851E-15
   4.500000     -6.1733371E-15
   4.560000     -8.3661173E-15
   4.620000     -6.9325268E-15
   4.680000     -1.6544865E-15
   4.740000      5.7443479E-15
   4.800000      1.2003594E-14
   4.860000      1.3652178E-14
   4.920000      8.7751360E-15
   4.980000     -1.6149949E-15
   5.040000     -1.3425849E-14
   5.100000     -2.0916164E-14
   5.160000     -1.9315157E-14
   5.220000     -7.5183415E-15
   5.280000      1.0536588E-14
   5.340000      2.6820107E-14
   5.400000      3.2494759E-14
   5.460000      2.2329183E-14
   5.520000     -1.7988348E-15
   5.580000     -3.0309980E-14
   5.640000     -4.9168325E-14
   5.700000     -4.6126467E-14
   5.760000     -1.7435445E-14
   5.820000      2.8282440E-14
   5.880000      7.1565549E-14
   5.940000      8.9449159E-14
   6.000000      6.6193030E-14
   6.060000      2.7935180E-15
   6.120000     -7.9691638E-14
   6.180000     -1.4596084E-13
   6.240000     -1.6049209E-13
   6.300000     -1.0460774E-13
   6.360000      1.1130195E-14
   6.420000      1.4616237E-13
   6.480000      2.4344746E-13
   6.540000      2.5338778E-13
   6.600000      1.5844250E-13
   6.660000     -1.3456649E-14
   6.720000     -1.9522563E-13
   6.780000     -3.0697499E-13
   6.840000     -2.9274743E-13
   6.900000     -1.5111061E-13
   6.960000      5.6735585E-14
   7.020000      2.2917868E-13
   7.080000      2.7059198E-13
   7.140000      1.4242881E-13
   7.200000     -1.0624838E-13
   7.260000     -3.4803833E-13
   7.320000     -4.2873029E-13
   7.380000     -2.4272880E-13
   7.440000      2.0103511E-13
   7.500000      7.5695125E-13
   7.560000      1.1826736E-12
   7.620000      1.2323151E-12
   7.680000      7.6741949E-13
   7.740000     -1.6278233E-13
   7.800000     -1.3118262E-12
   7.860000     -2.3089083E-12
   7.920000     -2.7895444E-12
   7.980000     -2.5314687E-12
   8.040000     -1.5380034E-12
   8.100000     -3.2630369E-14
   8.160000      1.6317908E-12
   8.220000      3.1059291E-12
   8.280000      4.1553345E-12
   8.340000      4.6967456E-12
   8.400000      4.7436460E-12
   8.460000      4.2939111E-12
   8.520000      3.2283115E-12
   8.580000      1.2928068E-12
   8.640000     -1.7953501E-12
   8.700000     -6.1359568E-12
   8.760000     -1.1406086E-11
   8.820000     -1.6702952E-11
   8.880000     -2.0570148E-11
   8.940000     -2.1254458E-11
   9.000000     -1.7160608E-11
   9.060000     -7.3938225E-12
   9.120000      7.7665712E-12
   9.180000      2.6617056E-11
   9.240000      4.6105519E-11
   9.300000      6.2248456E-11
   9.360000      7.0812835E-11
   9.420000      6.8116422E-11
   9.480000      5.1776052E-11
   9.540000      2.1261663E-11
   9.600000     -2.1818755E-11
   9.660000     -7.3697291E-11
   9.720000     -1.2862181E-10
   9.780000     -1.7914976E-10
   9.840000     -2.1651936E-10
   9.900000     -2.3112712E-10
   9.960000     -2.1320258E-10
   10.02000     -1.5377839E-10
   10.08000     -4.5980678E-11
   10.14000      1.1347893E-10
   10.20000      3.2289288E-10
   10.26000      5.7462268E-10
   10.32000      8.5502028E-10
   10.38000      1.1454239E-09
   10.44000      1.4241686E-09
   10.50000      1.6692480E-09
   10.56000      1.8610508E-09
   10.62000      1.9845638E-09
   10.68000      2.0306052E-09
   10.74000      1.9959610E-09
   10.80000      1.8826378E-09
   10.86000      1.6966574E-09
   10.92000      1.4468430E-09
   10.98000      1.1438720E-09
   11.04000      7.9960155E-10
   11.10000      4.2644810E-10
   11.16000      3.6545978E-11
   11.22000     -3.5943579E-10
   11.28000     -7.5364776E-10
   11.34000     -1.1421255E-09
   11.40000     -1.5249912E-09
   11.46000     -1.9053679E-09
   11.52000     -2.2869828E-09
   11.58000     -2.6709486E-09
   11.64000     -3.0526197E-09
   11.70000     -3.4195542E-09
   11.76000     -3.7513899E-09
   11.82000     -4.0219033E-09
   11.88000     -4.2028914E-09
   11.94000     -4.2689643E-09
   12.00000     -4.2021053E-09
   12.06000     -3.9949795E-09
   12.12000     -3.6523715E-09
   12.18000     -3.1906906E-09
   12.24000     -2.6359306E-09
   12.30000     -2.0207114E-09
   12.36000     -1.3810082E-09
   12.42000     -7.5295864E-10
   12.48000     -1.6987041E-10
   12.54000      3.4060132E-10
   12.60000      7.5910817E-10
   12.66000      1.0768744E-09
   12.72000      1.2970884E-09
   12.78000      1.4347622E-09
   12.84000      1.5145077E-09
   12.90000      1.5660981E-09
   12.96000      1.6183433E-09
   13.02000      1.6924884E-09
   13.08000      1.7967812E-09
   13.14000      1.9237878E-09
   13.20000      2.0514324E-09
   13.26000      2.1476996E-09
   13.32000      2.1778255E-09
   13.38000      2.1120050E-09
   13.44000      1.9314808E-09
   13.50000      1.6314583E-09
   13.56000      1.2203920E-09
   13.62000      7.1642403E-10
   13.68000      1.4262025E-10
   13.74000     -4.7717258E-10
   13.80000     -1.1205782E-09
   13.86000     -1.7668114E-09
   13.92000     -2.3954438E-09
   13.98000     -2.9851817E-09
   14.04000     -3.5138850E-09
   14.10000     -3.9603507E-09
   14.16000     -4.3073873E-09
   14.22000     -4.5449728E-09
   14.28000     -4.6721351E-09
   14.34000     -4.6967021E-09
   14.40000     -4.6330539E-09
   14.46000     -4.4989310E-09
   14.52000     -4.3128261E-09
   14.58000     -4.0932160E-09
   14.64000     -3.8599617E-09
   14.70000     -3.6370167E-09
   14.76000     -3.4547230E-09
   14.82000     -3.3497936E-09
   14.88000     -3.3618439E-09
   14.94000     -3.5267207E-09
   15.00000     -3.8683585E-09
   15.06000     -4.3918500E-09
   15.12000     -5.0803490E-09
   15.18000     -5.8973346E-09
   15.24000     -6.7939703E-09
   15.30000     -7.7194882E-09
   15.36000     -8.6314476E-09
   15.42000     -9.5027124E-09
   15.48000     -1.0323176E-08
   15.54000     -1.1096083E-08
   15.60000     -1.1830645E-08
   15.66000     -1.2533809E-08
   15.72000     -1.3204130E-08
   15.78000     -1.3829771E-08
   15.84000     -1.4391027E-08
   15.90000     -1.4866147E-08
   15.96000     -1.5238086E-08
   16.02000     -1.5499584E-08
   16.08000     -1.5654678E-08
   16.14000     -1.5716138E-08
   16.20000     -1.5699825E-08
   16.26000     -1.5618159E-08
   16.32000     -1.5475232E-08
   16.38000     -1.5265508E-08
   16.44000     -1.4976646E-08
   16.50000     -1.4595444E-08
   16.56000     -1.4114579E-08
   16.62000     -1.3537540E-08
   16.68000     -1.2879815E-08
   16.74000     -1.2165935E-08
   16.80000     -1.1423647E-08
   16.86000     -1.0677573E-08
   16.92000     -9.9448636E-09
   16.98000     -9.2343519E-09
   17.04000     -8.5492147E-09
   17.10000     -7.8917006E-09
   17.16000     -7.2677824E-09
   17.22000     -6.6898522E-09
   17.28000     -6.1765419E-09
   17.34000     -5.7499885E-09
   17.40000     -5.4316782E-09
   17.46000     -5.2382432E-09
   17.52000     -5.1782179E-09
   17.58000     -5.2502109E-09
   17.64000     -5.4424949E-09
   17.70000     -5.7339014E-09
   17.76000     -6.0959922E-09
   17.82000     -6.4965047E-09
   17.88000     -6.9038881E-09
   17.94000     -7.2922632E-09
   18.00000     -7.6456823E-09
   18.06000     -7.9604421E-09
   18.12000     -8.2445615E-09
   18.18000     -8.5143785E-09
   18.24000     -8.7891845E-09
   18.30000     -9.0854542E-09
   18.36000     -9.4123012E-09
   18.42000     -9.7692272E-09
   18.48000     -1.0146411E-08
   18.54000     -1.0526914E-08
   18.60000     -1.0889786E-08
   18.66000     -1.1212996E-08
   18.72000     -1.1475502E-08
   18.78000     -1.1658196E-08
   18.84000     -1.1743901E-08
   18.90000     -1.1716954E-08
   18.96000     -1.1563088E-08
   19.02000     -1.1270432E-08
   19.08000     -1.0832228E-08
   19.14000     -1.0251366E-08
   19.20000     -9.5458805E-09
   19.26000     -8.7536680E-09
   19.32000     -7.9340730E-09
   19.38000     -7.1643012E-09
   19.44000     -6.5299313E-09
   19.50000     -6.1108087E-09
   19.56000     -5.9655818E-09
   19.62000     -6.1191598E-09
   19.68000     -6.5569208E-09
   19.74000     -7.2275079E-09
   19.80000     -8.0533047E-09
   19.86000     -8.9452730E-09
   19.92000     -9.8176169E-09
   19.98000     -1.0598240E-08
   20.04000     -1.1232783E-08
   20.10000     -1.1682455E-08
   20.16000     -1.1917780E-08
   20.22000     -1.1911395E-08
   20.28000     -1.1632811E-08
   20.34000     -1.1046970E-08
   20.40000     -1.0117131E-08
   20.46000     -8.8112815E-09
   20.52000     -7.1104571E-09
   20.58000     -5.0168647E-09
   20.64000     -2.5597624E-09
   20.70000      2.0246271E-10
   20.76000      3.1846872E-09
   20.82000      6.2814434E-09
   20.88000      9.3758583E-09
   20.94000      1.2349163E-08
   21.00000      1.5089102E-08
   21.06000      1.7496413E-08
   21.12000      1.9489732E-08
   21.18000      2.1009908E-08
   21.24000      2.2024622E-08
   21.30000      2.2533305E-08
   21.36000      2.2571045E-08
   21.42000      2.2209408E-08
   21.48000      2.1552244E-08
   21.54000      2.0725828E-08
   21.60000      1.9864588E-08
   21.66000      1.9095374E-08
   21.72000      1.8523995E-08
   21.78000      1.8227151E-08
   21.84000      1.8251265E-08
   21.90000      1.8617449E-08
   21.96000      1.9330120E-08
   22.02000      2.0385821E-08
   22.08000      2.1779224E-08
   22.14000      2.3504565E-08
   22.20000      2.5552717E-08
   22.26000      2.7905580E-08
   22.32000      3.0530551E-08
   22.38000      3.3377599E-08
   22.44000      3.6380417E-08
   22.50000      3.9461664E-08
   22.56000      4.2540655E-08
   22.62000      4.5541189E-08
   22.68000      4.8397208E-08
   22.74000      5.1055260E-08
   22.80000      5.3473936E-08
   22.86000      5.5621850E-08
   22.92000      5.7476196E-08
   22.98000      5.9023332E-08
   23.04000      6.0261598E-08
   23.10000      6.1205178E-08
   23.16000      6.1886915E-08
   23.22000      6.2357913E-08
   23.28000      6.2682723E-08
   23.34000      6.2930489E-08
   23.40000      6.3163831E-08
   23.46000      6.3428452E-08
   23.52000      6.3746121E-08
   23.58000      6.4113166E-08
   23.64000      6.4504817E-08
   23.70000      6.4884091E-08
   23.76000      6.5212909E-08
   23.82000      6.5462146E-08
   23.88000      6.5618217E-08
   23.94000      6.5684489E-08
   24.00000      6.5677284E-08
   24.06000      6.5617904E-08
   24.12000      6.5522912E-08
   24.18000      6.5395632E-08
   24.24000      6.5221357E-08
   24.30000      6.4967900E-08
   24.36000      6.4591667E-08
   24.42000      6.4047626E-08
   24.48000      6.3300291E-08
   24.54000      6.2332433E-08
   24.60000      6.1148505E-08
   24.66000      5.9771573E-08
   24.72000      5.8234523E-08
   24.78000      5.6568474E-08
   24.84000      5.4792135E-08
   24.90000      5.2905854E-08
   24.96000      5.0892218E-08
   25.02000      4.8723024E-08
   25.08000      4.6370104E-08
   25.14000      4.3816357E-08
   25.20000      4.1063434E-08
   25.26000      3.8133695E-08
   25.32000      3.5066240E-08
   25.38000      3.1908602E-08
   25.44000      2.8707001E-08
   25.50000      2.5498395E-08
   25.56000      2.2306573E-08
   25.62000      1.9143101E-08
   25.68000      1.6012073E-08
   25.74000      1.2916337E-08
   25.80000      9.8624824E-09
   25.86000      6.8626380E-09
   25.92000      3.9326928E-09
   25.98000      1.0882943E-09
   26.04000     -1.6589461E-09
   26.10000     -4.3027186E-09
   26.16000     -6.8397488E-09
   26.22000     -9.2648884E-09
   26.28000     -1.1566022E-08
   26.34000     -1.3721648E-08
   26.40000     -1.5703032E-08
   26.46000     -1.7480813E-08
   26.52000     -1.9033951E-08
   26.58000     -2.0357710E-08
   26.64000     -2.1467550E-08
   26.70000     -2.2397264E-08
   26.76000     -2.3191713E-08
   26.82000     -2.3896350E-08
   26.88000     -2.4546784E-08
   26.94000     -2.5161563E-08
   27.00000     -2.5740315E-08
   27.06000     -2.6267818E-08
   27.12000     -2.6722718E-08
   27.18000     -2.7088161E-08
   27.24000     -2.7360842E-08
   27.30000     -2.7555318E-08
   27.36000     -2.7701924E-08
   27.42000     -2.7838816E-08
   27.48000     -2.8000899E-08
   27.54000     -2.8209632E-08
   27.60000     -2.8467403E-08
   27.66000     -2.8758368E-08
   27.72000     -2.9054913E-08
   27.78000     -2.9326671E-08
   27.84000     -2.9548199E-08
   27.90000     -2.9702289E-08
   27.96000     -2.9778271E-08
   28.02000     -2.9767003E-08
   28.08000     -2.9655830E-08
   28.14000     -2.9426474E-08
   28.20000     -2.9057347E-08
   28.26000     -2.8529561E-08
   28.32000     -2.7834233E-08
   28.38000     -2.6978144E-08
   28.44000     -2.5985543E-08
   28.50000     -2.4895240E-08
   28.56000     -2.3753723E-08
   28.62000     -2.2606010E-08
   28.68000     -2.1486507E-08
   28.74000     -2.0412006E-08
   28.80000     -1.9378581E-08
   28.86000     -1.8363373E-08
   28.92000     -1.7331253E-08
   28.98000     -1.6244952E-08
   29.04000     -1.5076139E-08
   29.10000     -1.3814138E-08
   29.16000     -1.2469381E-08
   29.22000     -1.1070179E-08
   29.28000     -9.6537027E-09
   29.34000     -8.2542000E-09
   29.40000     -6.8927291E-09
   29.46000     -5.5722009E-09
   29.52000     -4.2796806E-09
   29.58000     -2.9951706E-09
   29.64000     -1.7037345E-09
   29.70000     -4.0660419E-10
   29.76000      8.7273899E-10
   29.82000      2.0898614E-09
   29.88000      3.1880258E-09
   29.94000      4.1119335E-09
   30.00000      4.8226689E-09
   30.06000      5.3094449E-09
   30.12000      5.5943277E-09
   30.18000      5.7278635E-09
   30.24000      5.7760627E-09
   30.30000      5.8019674E-09
   30.36000      5.8471894E-09
   30.42000      5.9194623E-09
   30.48000      5.9908247E-09
   30.54000      6.0077241E-09
   30.60000      5.9101573E-09
   30.66000      5.6534510E-09
   30.72000      5.2249733E-09
   30.78000      4.6496216E-09
   30.84000      3.9818908E-09
   30.90000      3.2872158E-09
   30.96000      2.6192228E-09
   31.02000      2.0010271E-09
   31.08000      1.4172611E-09
   31.14000      8.1971491E-10
   31.20000      1.4471196E-10
   31.26000     -6.6368738E-10
   31.32000     -1.6325408E-09
   31.38000     -2.7481342E-09
   31.44000     -3.9574015E-09
   31.50000     -5.1821760E-09
   31.56000     -6.3413665E-09
   31.62000     -7.3733935E-09
   31.68000     -8.2512042E-09
   31.74000     -8.9849364E-09
   31.80000     -9.6119397E-09
   31.86000     -1.0178547E-08
   31.92000     -1.0720868E-08
   31.98000     -1.1251873E-08
   32.04000     -1.1759152E-08
   32.10000     -1.2213329E-08
   32.16000     -1.2582992E-08
   32.22000     -1.2849823E-08
   32.28000     -1.3018033E-08
   32.34000     -1.3114828E-08
   32.40000     -1.3182155E-08
   32.46000     -1.3263027E-08
   32.52000     -1.3387413E-08
   32.58000     -1.3562363E-08
   32.64000     -1.3769455E-08
   32.70000     -1.3970052E-08
   32.76000     -1.4116383E-08
   32.82000     -1.4164700E-08
   32.88000     -1.4086340E-08
   32.94000     -1.3873530E-08
   33.00000     -1.3538835E-08
   33.06000     -1.3109581E-08
   33.12000     -1.2620148E-08
   33.18000     -1.2105303E-08
   33.24000     -1.1596431E-08
   33.30000     -1.1120554E-08
   33.36000     -1.0700412E-08
   33.42000     -1.0353561E-08
   33.48000     -1.0089601E-08
   33.54000     -9.9064899E-09
   33.60000     -9.7882564E-09
   33.66000     -9.7064001E-09
   33.72000     -9.6256851E-09
   33.78000     -9.5128287E-09
   33.84000     -9.3448991E-09
   33.90000     -9.1141370E-09
   33.96000     -8.8274135E-09
   34.02000     -8.5008791E-09
   34.08000     -8.1523366E-09
   34.14000     -7.7945685E-09
   34.20000     -7.4320949E-09
   34.26000     -7.0621011E-09
   34.32000     -6.6785910E-09
   34.38000     -6.2777090E-09
   34.44000     -5.8620522E-09
   34.50000     -5.4424354E-09
   34.56000     -5.0365219E-09
   34.62000     -4.6648028E-09
   34.68000     -4.3452473E-09
   34.74000     -4.0885051E-09
   34.80000     -3.8955639E-09
   34.86000     -3.7591095E-09
   34.92000     -3.6685872E-09
   34.98000     -3.6173433E-09
   35.04000     -3.6090217E-09
   35.10000     -3.6601355E-09
   35.16000     -3.7968242E-09
   35.22000     -4.0459507E-09
   35.28000     -4.4230997E-09
   35.34000     -4.9216835E-09
   35.40000     -5.5075198E-09
   35.46000     -6.1216987E-09
   35.52000     -6.6918568E-09
   35.58000     -7.1489916E-09
   35.64000     -7.4448372E-09
   35.70000     -7.5642603E-09
   35.76000     -7.5284809E-09
   35.82000     -7.3877513E-09
   35.88000     -7.2056032E-09
   35.94000     -7.0396982E-09
   36.00000     -6.9255992E-09
   36.06000     -6.8688535E-09
   36.12000     -6.8478339E-09
   36.18000     -6.8259096E-09
   36.24000     -6.7681345E-09
   36.30000     -6.6561925E-09
   36.36000     -6.4963270E-09
   36.42000     -6.3179408E-09
   36.48000     -6.1642380E-09
   36.54000     -6.0790537E-09
   36.60000     -6.0948615E-09
   36.66000     -6.2257652E-09
   36.72000     -6.4667889E-09
   36.78000     -6.7982793E-09
   36.84000     -7.1926922E-09
   36.90000     -7.6209359E-09
   36.96000     -8.0564249E-09
   37.02000     -8.4764595E-09
   37.08000     -8.8616767E-09
   37.14000     -9.1948840E-09
   37.20000     -9.4604609E-09
   37.26000     -9.6450137E-09
   37.32000     -9.7393364E-09
   37.38000     -9.7411750E-09
   37.44000     -9.6578843E-09
   37.50000     -9.5078994E-09
   37.56000     -9.3201438E-09
   37.62000     -9.1309662E-09
   37.68000     -8.9790184E-09
   37.74000     -8.8992493E-09
   37.80000     -8.9176346E-09
   37.86000     -9.0481258E-09
   37.92000     -9.2924841E-09
   37.98000     -9.6426476E-09
   38.04000     -1.0084350E-08
   38.10000     -1.0600389E-08
   38.16000     -1.1172434E-08
   38.22000     -1.1781144E-08
   38.28000     -1.2405422E-08
   38.34000     -1.3022079E-08
   38.40000     -1.3607035E-08
   38.46000     -1.4138283E-08
   38.52000     -1.4599898E-08
   38.58000     -1.4985545E-08
   38.64000     -1.5299980E-08
   38.70000     -1.5557607E-08
   38.76000     -1.5778262E-08
   38.82000     -1.5981406E-08
   38.88000     -1.6180458E-08
   38.94000     -1.6378907E-08
   39.00000     -1.6569103E-08
   39.06000     -1.6733642E-08
   39.12000     -1.6848556E-08
   39.18000     -1.6887126E-08
   39.24000     -1.6823426E-08
   39.30000     -1.6635205E-08
   39.36000     -1.6306252E-08
   39.42000     -1.5828478E-08
   39.48000     -1.5203852E-08
   39.54000     -1.4445725E-08
   39.60000     -1.3578813E-08
   39.66000     -1.2637206E-08
   39.72000     -1.1660273E-08
   39.78000     -1.0687232E-08
   39.84000     -9.7517496E-09
   39.90000     -8.8782084E-09
   39.96000     -8.0807325E-09
   40.02000     -7.3652240E-09
   40.08000     -6.7335422E-09
   40.14000     -6.1882606E-09
   40.20000     -5.7361533E-09
   40.26000     -5.3890057E-09
   40.32000     -5.1612203E-09
   40.38000     -5.0647873E-09
   40.44000     -5.1032156E-09
   40.50000     -5.2665357E-09
   40.56000     -5.5293787E-09
   40.62000     -5.8532161E-09
   40.68000     -6.1925132E-09
   40.74000     -6.5031940E-09
   40.80000     -6.7510015E-09
   40.86000     -6.9174440E-09
   40.92000     -7.0019102E-09
   40.98000     -7.0198607E-09
   41.04000     -6.9980959E-09
   41.10000     -6.9686350E-09
   41.16000     -6.9626385E-09
   41.22000     -7.0054256E-09
   41.28000     -7.1132598E-09
   41.34000     -7.2923871E-09
   41.40000     -7.5406188E-09
   41.46000     -7.8512388E-09
   41.52000     -8.2182154E-09
   41.58000     -8.6407885E-09
   41.64000     -9.1252659E-09
   41.70000     -9.6825890E-09
   41.76000     -1.0321900E-08
   41.82000     -1.1042392E-08
   41.88000     -1.1826917E-08
   41.94000     -1.2640652E-08
   42.00000     -1.3436365E-08
   42.06000     -1.4165285E-08
   42.12000     -1.4790269E-08
   42.18000     -1.5296967E-08
   42.24000     -1.5699264E-08
   42.30000     -1.6037127E-08
   42.36000     -1.6367375E-08
   42.42000     -1.6750072E-08
   42.48000     -1.7234365E-08
   42.54000     -1.7847828E-08
   42.60000     -1.8592209E-08
   42.66000     -1.9446556E-08
   42.72000     -2.0376385E-08
   42.78000     -2.1345457E-08
   42.84000     -2.2325972E-08
   42.90000     -2.3303633E-08
   42.96000     -2.4276199E-08
   43.02000     -2.5247006E-08
   43.08000     -2.6216970E-08
   43.14000     -2.7179118E-08
   43.20000     -2.8118260E-08
   43.26000     -2.9015816E-08
   43.32000     -2.9857219E-08
   43.38000     -3.0638230E-08
   43.44000     -3.1366969E-08
   43.50000     -3.2060623E-08
   43.56000     -3.2738058E-08
   43.62000     -3.3411219E-08
   43.68000     -3.4078635E-08
   43.74000     -3.4723378E-08
   43.80000     -3.5316237E-08
   43.86000     -3.5823305E-08
   43.92000     -3.6215777E-08
   43.98000     -3.6479314E-08
   44.04000     -3.6620047E-08
   44.10000     -3.6665345E-08
   44.16000     -3.6658541E-08
   44.22000     -3.6648871E-08
   44.28000     -3.6679307E-08
   44.34000     -3.6776047E-08
   44.40000     -3.6943124E-08
   44.46000     -3.7163929E-08
   44.52000     -3.7409094E-08
   44.58000     -3.7648014E-08
   44.64000     -3.7859913E-08
   44.70000     -3.8040618E-08
   44.76000     -3.8202860E-08
   44.82000     -3.8370175E-08
   44.88000     -3.8566903E-08
   44.94000     -3.8808111E-08
   45.00000     -3.9093223E-08
   45.06000     -3.9405744E-08
   45.12000     -3.9718969E-08
   45.18000     -4.0005279E-08
   45.24000     -4.0245013E-08
   45.30000     -4.0431235E-08
   45.36000     -4.0568555E-08
   45.42000     -4.0666894E-08
   45.48000     -4.0733500E-08
   45.54000     -4.0767357E-08
   45.60000     -4.0758909E-08
   45.66000     -4.0695358E-08
   45.72000     -4.0569191E-08
   45.78000     -4.0385814E-08
   45.84000     -4.0166626E-08
   45.90000     -3.9945927E-08
   45.96000     -3.9762554E-08
   46.02000     -3.9649265E-08
   46.08000     -3.9623650E-08
   46.14000     -3.9683311E-08
   46.20000     -3.9806597E-08
   46.26000     -3.9957982E-08
   46.32000     -4.0095905E-08
   46.38000     -4.0180211E-08
   46.44000     -4.0176644E-08
   46.50000     -4.0056836E-08
   46.56000     -3.9793743E-08
   46.62000     -3.9353704E-08
   46.68000     -3.8687574E-08
   46.74000     -3.7723456E-08
   46.80000     -3.6363179E-08
   46.86000     -3.4483381E-08
   46.92000     -3.1940356E-08
   46.98000     -2.8576347E-08
   47.04000     -2.4224091E-08
   47.10000     -1.8706480E-08
   47.16000     -1.1829584E-08
   47.22000     -3.3693250E-09
   47.28000      6.9456840E-09
   47.34000      1.9451422E-08
   47.40000      3.4562440E-08
   47.46000      5.2781104E-08
   47.52000      7.4703280E-08
   47.58000      1.0102391E-07
   47.64000      1.3254648E-07
   47.70000      1.7019929E-07
   47.76000      2.1505890E-07
   47.82000      2.6837952E-07
   47.88000      3.3162590E-07
   47.94000      4.0650733E-07
   48.00000      4.9501318E-07
   48.06000      5.9944898E-07
   48.12000      7.2247531E-07
   48.18000      8.6714914E-07
   48.24000      1.0369702E-06
   48.30000      1.2359336E-06
   48.36000      1.4685894E-06
   48.42000      1.7401118E-06
   48.48000      2.0563768E-06
   48.54000      2.4240467E-06
   48.60000      2.8506593E-06
   48.66000      3.3447207E-06
   48.72000      3.9158008E-06
   48.78000      4.5746287E-06
   48.84000      5.3331978E-06
   48.90000      6.2048680E-06
   48.96000      7.2044859E-06
   49.02000      8.3484983E-06
   49.08000      9.6550830E-06
   49.14000      1.1144285E-05
   49.20000      1.2838157E-05
   49.26000      1.4760907E-05
   49.32000      1.6939041E-05
   49.38000      1.9401496E-05
   49.44000      2.2179771E-05
   49.50000      2.5308016E-05
   49.56000      2.8823148E-05
   49.62000      3.2764936E-05
   49.68000      3.7176087E-05
   49.74000      4.2102336E-05
   49.80000      4.7592490E-05
   49.86000      5.3698488E-05
   49.92000      6.0475402E-05
   49.98000      6.7981404E-05
   50.04000      7.6277742E-05
   50.10000      8.5428648E-05
   50.16000      9.5501178E-05
   50.22000      1.0656507E-04
   50.28000      1.1869250E-04
   50.34000      1.3195782E-04
   50.40000      1.4643723E-04
   50.46000      1.6220857E-04
   50.52000      1.7935074E-04
   50.58000      1.9794336E-04
   50.64000      2.1806629E-04
   50.70000      2.3979899E-04
   50.76000      2.6321993E-04
   50.82000      2.8840595E-04
   50.88000      3.1543159E-04
   50.94000      3.4436828E-04
   51.00000      3.7528365E-04
   51.06000      4.0824074E-04
   51.12000      4.4329721E-04
   51.18000      4.8050450E-04
   51.24000      5.1990704E-04
   51.30000      5.6154135E-04
   51.36000      6.0543523E-04
   51.42000      6.5160682E-04
   51.48000      7.0006447E-04
   51.54000      7.5080543E-04
   51.60000      8.0381538E-04
   51.66000      8.5906795E-04
   51.72000      9.1652421E-04
   51.78000      9.7613240E-04
   51.84000      1.0378273E-03
   51.90000      1.1015309E-03
   51.96000      1.1671511E-03
   52.02000      1.2345831E-03
   52.08000      1.3037088E-03
   52.14000      1.3743974E-03
   52.20000      1.4465064E-03
   52.26000      1.5198815E-03
   52.32000      1.5943580E-03
   52.38000      1.6697614E-03
   52.44000      1.7459088E-03
   52.50000      1.8226098E-03
   52.56000      1.8996685E-03
   52.62000      1.9768840E-03
   52.68000      2.0540529E-03
   52.74000      2.1309701E-03
   52.80000      2.2074312E-03
   52.86000      2.2832339E-03
   52.92000      2.3581798E-03
   52.98000      2.4320765E-03
   53.04000      2.5047390E-03
   53.10000      2.5759910E-03
   53.16000      2.6456665E-03
   53.22000      2.7136125E-03
   53.28000      2.7796899E-03
   53.34000      2.8437737E-03
   53.40000      2.9057562E-03
   53.46000      2.9655462E-03
   53.52000      3.0230698E-03
   53.58000      3.0782721E-03
   53.64000      3.1311163E-03
   53.70000      3.1815856E-03
   53.76000      3.2296805E-03
   53.82000      3.2754203E-03
   53.88000      3.3188427E-03
   53.94000      3.3600018E-03
   54.00000      3.3989684E-03
   54.06000      3.4358276E-03
   54.12000      3.4706779E-03
   54.18000      3.5036297E-03
   54.24000      3.5348034E-03
   54.30000      3.5643284E-03
   54.36000      3.5923400E-03
   54.42000      3.6189780E-03
   54.48000      3.6443840E-03
   54.54000      3.6687003E-03
   54.60000      3.6920675E-03
   54.66000      3.7146213E-03
   54.72000      3.7364920E-03
   54.78000      3.7578021E-03
   54.84000      3.7786649E-03
   54.90000      3.7991819E-03
   54.96000      3.8194419E-03
   55.02000      3.8395200E-03
   55.08000      3.8594764E-03
   55.14000      3.8793553E-03
   55.20000      3.8991852E-03
   55.26000      3.9189779E-03
   55.32000      3.9387285E-03
   55.38000      3.9584148E-03
   55.44000      3.9779991E-03
   55.50000      3.9974260E-03
   55.56000      4.0166285E-03