  -2.400000      0.0000000E+00
  -2.340000      0.0000000E+00
  -2.280000      0.0000000E+00
  -2.220000      0.0000000E+00
  -2.160000      0.0000000E+00
  -2.100000      0.0000000E+00
  -2.040000      0.0000000E+00
  -1.980000      3.1156352E-25
  -1.920000     -1.1253569E-23
  -1.860000     -1.3726101E-22
  -1.800000     -7.2657336E-22
  -1.740000     -2.2791467E-21
  -1.680000     -4.2316904E-21
  -1.620000     -2.1467175E-21
  -1.560000      1.4198930E-20
  -1.500000      5.4519041E-20
  -1.440000      1.0608558E-19
  -1.380000      1.0325192E-19
  -1.320000     -7.4669633E-20
  -1.260000     -5.1996677E-19
  -1.200000     -1.1070992E-18
  -1.140000     -1.2998644E-18
  -1.080000     -2.1157548E-19
  -1.020000      2.8070167E-18
 -0.9600000      7.0809746E-18
 -0.9000000      9.6755325E-18
 -0.8400000      5.8165273E-18
 -0.7800000     -8.3228142E-18
 -0.7200000     -3.0902528E-17
 -0.6600000     -5.0516979E-17
 -0.6000000     -4.7494322E-17
 -0.5400000     -3.5891909E-18
 -0.4800000      8.1736820E-17
 -0.4200000      1.7726695E-16
 -0.3600000      2.2126152E-16
 -0.3000000      1.4708083E-16
 -0.2400000     -7.1429891E-17
 -0.1800000     -3.7739373E-16
 -0.1200000     -6.2404618E-16
 -5.9999999E-02 -6.2709624E-16
  0.0000000E+00 -2.6856482E-16
  5.9999999E-02  3.9567119E-16
  0.1200000      1.0959443E-15
  0.1800000      1.4314284E-15
  0.2400000      1.0701096E-15
  0.3000000     -1.8025273E-17
  0.3600000     -1.4301295E-15
  0.4200000     -2.4192193E-15
  0.4800000     -2.2224582E-15
  0.5400000     -5.1098994E-16
  0.6000000      2.2626952E-15
  0.6600000      4.8479783E-15
  0.7200000      5.6154596E-15
  0.7800000      3.3106192E-15
  0.8400000     -2.1576743E-15
  0.9000000     -9.2787004E-15
  0.9600000     -1.5151156E-14
   1.020000     -1.6404773E-14
   1.080000     -1.0587314E-14
   1.140000      2.4779570E-15
   1.200000      1.9945491E-14
   1.260000      3.6259773E-14
   1.320000      4.4641726E-14
   1.380000      3.9421662E-14
   1.440000      1.8485711E-14
   1.500000     -1.5099392E-14
   1.560000     -5.3088108E-14
   1.620000     -8.3999004E-14
   1.680000     -9.6585392E-14
   1.740000     -8.3720676E-14
   1.800000     -4.5237882E-14
   1.860000      1.1497572E-14
   1.920000      7.3674709E-14
   1.980000      1.2704991E-13
   2.040000      1.6022528E-13
   2.100000      1.6729245E-13
   2.160000      1.4762426E-13
   2.220000      1.0301167E-13
   2.280000      3.3911364E-14
   2.340000     -6.2473349E-14
   2.400000     -1.8982804E-13
   2.460000     -3.4531696E-13
   2.520000     -5.0907179E-13
   2.580000     -6.3532252E-13
   2.640000     -6.5158263E-13
   2.700000     -4.7168443E-13
   2.760000     -2.4915389E-14
   2.820000      7.0270694E-13
   2.880000      1.6264042E-12
   2.940000      2.5372757E-12
   3.000000      3.1125523E-12
   3.060000      2.9747814E-12
   3.120000      1.7998270E-12
   3.180000     -5.4530143E-13
   3.240000     -3.8724176E-12
   3.300000     -7.5984653E-12
   3.360000     -1.0773101E-11
   3.420000     -1.2231589E-11
   3.480000     -1.0862227E-11
   3.540000     -5.9385123E-12
   3.600000      2.5640254E-12
   3.660000      1.3756363E-11
   3.720000      2.5804307E-11
   3.780000      3.6113675E-11
   3.840000      4.1721470E-11
   3.900000      3.9838140E-11
   3.960000      2.8456456E-11
   4.020000      6.9312811E-12
   4.080000     -2.3563458E-11
   4.140000     -5.9786641E-11
   4.200000     -9.6468354E-11
   4.260000     -1.2670114E-10
   4.320000     -1.4272483E-10
   4.380000     -1.3709490E-10
   4.440000     -1.0414253E-10
   4.500000     -4.1534980E-11
   4.560000      4.8346334E-11
   4.620000      1.5753801E-10
   4.680000      2.7243349E-10
   4.740000      3.7470613E-10
   4.800000      4.4320683E-10
   4.860000      4.5661405E-10
   4.920000      3.9643799E-10
   4.980000      2.4988756E-10
   5.040000      1.2124697E-11
   5.100000     -3.1245076E-10
   5.160000     -7.1005890E-10
   5.220000     -1.1585264E-09
   5.280000     -1.6292263E-09
   5.340000     -2.0897080E-09
   5.400000     -2.5067224E-09
   5.460000     -2.8493585E-09
   5.520000     -3.0920420E-09
   5.580000     -3.2171530E-09
   5.640000     -3.2170457E-09
   5.700000     -3.0952501E-09
   5.760000     -2.8666838E-09
   5.820000     -2.5567759E-09
   5.880000     -2.1995183E-09
   5.940000     -1.8346076E-09
   6.000000     -1.5039455E-09
   6.060000     -1.2478509E-09
   6.120000     -1.1013366E-09
   6.180000     -1.0907649E-09
   6.240000     -1.2311268E-09
   6.300000     -1.5241319E-09
   6.360000     -1.9572763E-09
   6.420000     -2.5040547E-09
   6.480000     -3.1254963E-09
   6.540000     -3.7731436E-09
   6.600000     -4.3934660E-09
   6.660000     -4.9334727E-09
   6.720000     -5.3469877E-09
   6.780000     -5.6007643E-09
   6.840000     -5.6794329E-09
   6.900000     -5.5882747E-09
   6.960000     -5.3530429E-09
   7.020000     -5.0165427E-09
   7.080000     -4.6322972E-09
   7.140000     -4.2562873E-09
   7.200000     -3.9382542E-09
   7.260000     -3.7142447E-09
   7.320000     -3.6018843E-09
   7.380000     -3.5992767E-09
   7.440000     -3.6876140E-09
   7.500000     -3.8367367E-09
   7.560000     -4.0122572E-09
   7.620000     -4.1826218E-09
   7.680000     -4.3246833E-09
   7.740000     -4.4268891E-09
   7.800000     -4.4898694E-09
   7.860000     -4.5248014E-09
   7.920000     -4.5502895E-09
   7.980000     -4.5885815E-09
   8.040000     -4.6617843E-09
   8.100000     -4.7885234E-09
   8.160000     -4.9812967E-09
   8.220000     -5.2446647E-09
   8.280000     -5.5743943E-09
   8.340000     -5.9576473E-09
   8.400000     -6.3741927E-09
   8.460000     -6.7984818E-09
   8.520000     -7.2022095E-09
   8.580000     -7.5568911E-09
   8.640000     -7.8360278E-09
   8.700000     -8.0165918E-09
   8.760000     -8.0798790E-09
   8.820000     -8.0119547E-09
   8.880000     -7.8040303E-09
   8.940000     -7.4529778E-09
   9.000000     -6.9619652E-09
   9.060000     -6.3409238E-09
   9.120000     -5.6063914E-09
   9.180000     -4.7803224E-09
   9.240000     -3.8876444E-09
   9.300000     -2.9527183E-09
   9.360000     -1.9952322E-09
   9.420000     -1.0264023E-09
   9.480000     -4.6456547E-11
   9.540000      9.5573904E-10
   9.600000      2.0004871E-09
   9.660000      3.1127174E-09
   9.720000      4.3160244E-09
   9.780000      5.6267337E-09
   9.840000      7.0495889E-09
   9.900000      8.5762792E-09
   9.960000      1.0187223E-08
   10.02000      1.1856057E-08
   10.08000      1.3555452E-08
   10.14000      1.5262540E-08
   10.20000      1.6962462E-08
   10.26000      1.8649260E-08
   10.32000      2.0324247E-08
   10.38000      2.1992713E-08
   10.44000      2.3660219E-08
   10.50000      2.5329539E-08
   10.56000      2.6998929E-08
   10.62000      2.8661697E-08
   10.68000      3.0306719E-08
   10.74000      3.1919232E-08
   10.80000      3.3481559E-08
   10.86000      3.4973517E-08
   10.92000      3.6372729E-08
   10.98000      3.7655145E-08
   11.04000      3.8796074E-08
   11.10000      3.9771745E-08
   11.16000      4.0561286E-08
   11.22000      4.1148848E-08
   11.28000      4.1525396E-08
   11.34000      4.1690072E-08
   11.40000      4.1650662E-08
   11.46000      4.1423046E-08
   11.52000      4.1029388E-08
   11.58000      4.0495017E-08
   11.64000      3.9844405E-08
   11.70000      3.9097127E-08
   11.76000      3.8265082E-08
   11.82000      3.7352187E-08
   11.88000      3.6357147E-08
   11.94000      3.5278749E-08
   12.00000      3.4121975E-08
   12.06000      3.2902566E-08
   12.12000      3.1648035E-08
   12.18000      3.0394215E-08
   12.24000      2.9178180E-08
   12.30000      2.8029843E-08
   12.36000      2.6964928E-08
   12.42000      2.5981700E-08
   12.48000      2.5062251E-08
   12.54000      2.4177734E-08
   12.60000      2.3295739E-08
   12.66000      2.2387736E-08
   12.72000      2.1434849E-08
   12.78000      2.0431107E-08
   12.84000      1.9383942E-08
   12.90000      1.8312129E-08
   12.96000      1.7241616E-08
   13.02000      1.6199719E-08
   13.08000      1.5208631E-08
   13.14000      1.4279552E-08
   13.20000      1.3409102E-08
   13.26000      1.2579480E-08
   13.32000      1.1762948E-08
   13.38000      1.0929898E-08
   13.44000      1.0058294E-08
   13.50000      9.1415249E-09
   13.56000      8.1918783E-09
   13.62000      7.2381114E-09
   13.68000      6.3175163E-09
   13.74000      5.4647615E-09
   13.80000      4.7009592E-09
   13.86000      4.0264228E-09
   13.92000      3.4194556E-09
   13.98000      2.8416021E-09
   14.04000      2.2477475E-09
   14.10000      1.5979639E-09
   14.16000      8.6749335E-10
   14.22000      5.1929083E-11
   14.28000     -8.3376778E-10
   14.34000     -1.7617784E-09
   14.40000     -2.7010958E-09
   14.46000     -3.6270802E-09
   14.52000     -4.5278403E-09
   14.58000     -5.4056093E-09
   14.64000     -6.2730803E-09
   14.70000     -7.1463901E-09
   14.76000     -8.0374933E-09
   14.82000     -8.9487404E-09
   14.88000     -9.8716164E-09
   14.94000     -1.0790044E-08
   15.00000     -1.1687091E-08
   15.06000     -1.2552701E-08
   15.12000     -1.3389646E-08
   15.18000     -1.4215454E-08
   15.24000     -1.5059300E-08
   15.30000     -1.5954583E-08
   15.36000     -1.6929404E-08
   15.42000     -1.7997992E-08
   15.48000     -1.9155991E-08
   15.54000     -2.0381215E-08
   15.60000     -2.1639854E-08
   15.66000     -2.2896069E-08
   15.72000     -2.4122018E-08
   15.78000     -2.5305097E-08
   15.84000     -2.6450191E-08
   15.90000     -2.7576421E-08
   15.96000     -2.8709524E-08
   16.02000     -2.9872414E-08
   16.08000     -3.1076929E-08
   16.14000     -3.2319313E-08
   16.20000     -3.3580761E-08
   16.26000     -3.4832748E-08
   16.32000     -3.6045346E-08
   16.38000     -3.7195793E-08
   16.44000     -3.8274575E-08
   16.50000     -3.9287265E-08
   16.56000     -4.0251841E-08
   16.62000     -4.1192717E-08
   16.68000     -4.2133671E-08
   16.74000     -4.3091795E-08
   16.80000     -4.4073818E-08
   16.86000     -4.5075161E-08
   16.92000     -4.6081166E-08
   16.98000     -4.7069619E-08
   17.04000     -4.8013888E-08
   17.10000     -4.8886015E-08
   17.16000     -4.9659445E-08
   17.22000     -5.0310845E-08
   17.28000     -5.0820624E-08
   17.34000     -5.1172115E-08
   17.40000     -5.1349918E-08
   17.46000     -5.1338610E-08
   17.52000     -5.1122978E-08
   17.58000     -5.0690364E-08
   17.64000     -5.0034465E-08
   17.70000     -4.9158949E-08
   17.76000     -4.8079031E-08
   17.82000     -4.6819856E-08
   17.88000     -4.5411994E-08
   17.94000     -4.3885748E-08
   18.00000     -4.2266546E-08
   18.06000     -4.0573084E-08
   18.12000     -3.8818794E-08
   18.18000     -3.7015578E-08
   18.24000     -3.5178171E-08
   18.30000     -3.3327172E-08
   18.36000     -3.1489584E-08
   18.42000     -2.9696633E-08
   18.48000     -2.7979441E-08
   18.54000     -2.6363947E-08
   18.60000     -2.4866523E-08
   18.66000     -2.3491634E-08
   18.72000     -2.2232230E-08
   18.78000     -2.1072609E-08
   18.84000     -1.9992568E-08
   18.90000     -1.8971310E-08
   18.96000     -1.7989780E-08
   19.02000     -1.7031116E-08
   19.08000     -1.6079994E-08
   19.14000     -1.5122280E-08
   19.20000     -1.4146130E-08
   19.26000     -1.3144633E-08
   19.32000     -1.2118881E-08
   19.38000     -1.1079754E-08
   19.44000     -1.0047060E-08
   19.50000     -9.0458441E-09
   19.56000     -8.1009395E-09
   19.62000     -7.2315398E-09
   19.68000     -6.4474195E-09
   19.74000     -5.7476339E-09
   19.80000     -5.1216995E-09
   19.86000     -4.5526929E-09
   19.92000     -4.0215635E-09
   19.98000     -3.5119294E-09
   20.04000     -3.0144338E-09
   20.10000     -2.5294893E-09
   20.16000     -2.0672297E-09
   20.22000     -1.6440742E-09
   20.28000     -1.2765172E-09
   20.34000     -9.7407649E-10
   20.40000     -7.3402218E-10
   20.46000     -5.4008303E-10
   20.52000     -3.6581962E-10
   20.58000     -1.8151322E-10
   20.64000      3.7902612E-11
   20.70000      3.0652650E-10
   20.76000      6.2457212E-10
   20.82000      9.7926012E-10
   20.88000      1.3487861E-09
   20.94000      1.7080619E-09
   21.00000      2.0348849E-09
   21.06000      2.3152917E-09
   21.12000      2.5469162E-09
   21.18000      2.7392690E-09
   21.24000      2.9103380E-09
   21.30000      3.0799598E-09
   21.36000      3.2617626E-09
   21.42000      3.4565142E-09
   21.48000      3.6496668E-09
   21.54000      3.8145509E-09
   21.60000      3.9204666E-09
   21.66000      3.9428616E-09
   21.72000      3.8718504E-09
   21.78000      3.7159893E-09
   21.84000      3.5000967E-09
   21.90000      3.2581022E-09
   21.96000      3.0234717E-09
   22.02000      2.8201645E-09
   22.08000      2.6564766E-09
   22.14000      2.5230216E-09
   22.20000      2.3950129E-09
   22.26000      2.2382016E-09
   22.32000      2.0172501E-09
   22.38000      1.7048538E-09
   22.44000      1.2896002E-09
   22.50000      7.8056223E-10
   22.56000      2.0719203E-10
   22.62000     -3.8581283E-10
   22.68000     -9.4762120E-10
   22.74000     -1.4321628E-09
   22.80000     -1.8080880E-09
   22.86000     -2.0653121E-09
   22.92000     -2.2165356E-09
   22.98000     -2.2933415E-09
   23.04000     -2.3377629E-09
   23.10000     -2.3913325E-09
   23.16000     -2.4843791E-09
   23.22000     -2.6284264E-09
   23.28000     -2.8137990E-09
   23.34000     -3.0130110E-09
   23.40000     -3.1886576E-09
   23.46000     -3.3030958E-09
   23.52000     -3.3268599E-09
   23.58000     -3.2436456E-09
   23.64000     -3.0513512E-09
   23.70000     -2.7601619E-09
   23.76000     -2.3892810E-09
   23.82000     -1.9634885E-09
   23.88000     -1.5098084E-09
   23.94000     -1.0539711E-09
   24.00000     -6.1654520E-10
   24.06000     -2.0936743E-10
   24.12000      1.6647854E-10
   24.18000      5.2005955E-10
   24.24000      8.6730512E-10
   24.30000      1.2262283E-09
   24.36000      1.6124773E-09
   24.42000      2.0365720E-09
   24.48000      2.5029476E-09
   24.54000      3.0097471E-09
   24.60000      3.5480459E-09
   24.66000      4.0999635E-09
   24.72000      4.6363913E-09
   24.78000      5.1158930E-09
   24.84000      5.4861546E-09
   24.90000      5.6883138E-09
   24.96000      5.6632907E-09
   25.02000      5.3586691E-09
   25.08000      4.7348991E-09
   25.14000      3.7703645E-09
   25.20000      2.4653644E-09
   25.26000      8.4502061E-10
   25.32000     -1.0394184E-09
   25.38000     -3.1118845E-09
   25.44000     -5.2763052E-09
   25.50000     -7.4250708E-09
   25.56000     -9.4502370E-09
   25.62000     -1.1255719E-08
   25.68000     -1.2768531E-08
   25.74000     -1.3947360E-08
   25.80000     -1.4787324E-08
   25.86000     -1.5320248E-08
   25.92000     -1.5610224E-08
   25.98000     -1.5744789E-08
   26.04000     -1.5822701E-08
   26.10000     -1.5940122E-08
   26.16000     -1.6177397E-08
   26.22000     -1.6588722E-08
   26.28000     -1.7196342E-08
   26.34000     -1.7990168E-08
   26.40000     -1.8932706E-08
   26.46000     -1.9968526E-08
   26.52000     -2.1036682E-08
   26.58000     -2.2083789E-08
   26.64000     -2.3075046E-08
   26.70000     -2.4000505E-08
   26.76000     -2.4874954E-08
   26.82000     -2.5731572E-08
   26.88000     -2.6611522E-08
   26.94000     -2.7552929E-08
   27.00000     -2.8582624E-08
   27.06000     -2.9712512E-08
   27.12000     -3.0940321E-08
   27.18000     -3.2252920E-08
   27.24000     -3.3629863E-08
   27.30000     -3.5045776E-08
   27.36000     -3.6471487E-08
   27.42000     -3.7874898E-08
   27.48000     -3.9222762E-08
   27.54000     -4.0483780E-08
   27.60000     -4.1632394E-08
   27.66000     -4.2652161E-08
   27.72000     -4.3537469E-08
   27.78000     -4.4293152E-08
   27.84000     -4.4932207E-08
   27.90000     -4.5472444E-08
   27.96000     -4.5932858E-08
   28.02000     -4.6330399E-08
   28.08000     -4.6677368E-08
   28.14000     -4.6979601E-08
   28.20000     -4.7235542E-08
   28.26000     -4.7436572E-08
   28.32000     -4.7568957E-08
   28.38000     -4.7617618E-08
   28.44000     -4.7571255E-08
   28.50000     -4.7427662E-08
   28.56000     -4.7197368E-08
   28.62000     -4.6903768E-08
   28.68000     -4.6578752E-08
   28.74000     -4.6254495E-08
   28.80000     -4.5953890E-08
   28.86000     -4.5682985E-08
   28.92000     -4.5428610E-08
   28.98000     -4.5162526E-08
   29.04000     -4.4850911E-08
   29.10000     -4.4466038E-08
   29.16000     -4.3995932E-08
   29.22000     -4.3448726E-08
   29.28000     -4.2850321E-08
   29.34000     -4.2236394E-08
   29.40000     -4.1641439E-08
   29.46000     -4.1088317E-08
   29.52000     -4.0581412E-08
   29.58000     -4.0105245E-08
   29.64000     -3.9628830E-08
   29.70000     -3.9114532E-08
   29.76000     -3.8529002E-08
   29.82000     -3.7853127E-08
   29.88000     -3.7088348E-08
   29.94000     -3.6257628E-08
   30.00000     -3.5401015E-08
   30.06000     -3.4567339E-08
   30.12000     -3.3804515E-08
   30.18000     -3.3151160E-08
   30.24000     -3.2631700E-08
   30.30000     -3.2255866E-08
   30.36000     -3.2022175E-08
   30.42000     -3.1923918E-08
   30.48000     -3.1955256E-08
   30.54000     -3.2115107E-08
   30.60000     -3.2407097E-08
   30.66000     -3.2835409E-08
   30.72000     -3.3398088E-08
   30.78000     -3.4080749E-08
   30.84000     -3.4853823E-08
   30.90000     -3.5675363E-08
   30.96000     -3.6499166E-08
   31.02000     -3.7285645E-08
   31.08000     -3.8011915E-08
   31.14000     -3.8677701E-08
   31.20000     -3.9305416E-08
   31.26000     -3.9934644E-08
   31.32000     -4.0612637E-08
   31.38000     -4.1382847E-08
   31.44000     -4.2273506E-08
   31.50000     -4.3288146E-08
   31.56000     -4.4400270E-08
   31.62000     -4.5554344E-08
   31.68000     -4.6674685E-08
   31.74000     -4.7681628E-08
   31.80000     -4.8511428E-08
   31.86000     -4.9134190E-08
   31.92000     -4.9563507E-08
   31.98000     -4.9854020E-08
   32.04000     -5.0087181E-08
   32.10000     -5.0349982E-08
   32.16000     -5.0713702E-08
   32.22000     -5.1219313E-08
   32.28000     -5.1872995E-08
   32.34000     -5.2651369E-08
   32.40000     -5.3512849E-08
   32.46000     -5.4410730E-08
   32.52000     -5.5304280E-08
   32.58000     -5.6165970E-08
   32.64000     -5.6984369E-08
   32.70000     -5.7762897E-08
   32.76000     -5.8514814E-08
   32.82000     -5.9255175E-08
   32.88000     -5.9991308E-08
   32.94000     -6.0714555E-08
   33.00000     -6.1396570E-08
   33.06000     -6.1992480E-08
   33.12000     -6.2451093E-08
   33.18000     -6.2728951E-08
   33.24000     -6.2803082E-08
   33.30000     -6.2677081E-08
   33.36000     -6.2377694E-08
   33.42000     -6.1943140E-08
   33.48000     -6.1408031E-08
   33.54000     -6.0791272E-08
   33.60000     -6.0091850E-08
   33.66000     -5.9293630E-08
   33.72000     -5.8376095E-08
   33.78000     -5.7325892E-08
   33.84000     -5.6143953E-08
   33.90000     -5.4846172E-08
   33.96000     -5.3458507E-08
   34.02000     -5.2009895E-08
   34.08000     -5.0526261E-08
   34.14000     -4.9027289E-08
   34.20000     -4.7525841E-08
   34.26000     -4.6028731E-08
   34.32000     -4.4538101E-08
   34.38000     -4.3053660E-08
   34.44000     -4.1576438E-08
   34.50000     -4.0113996E-08
   34.56000     -3.8685290E-08
   34.62000     -3.7322234E-08
   34.68000     -3.6065323E-08
   34.74000     -3.4953388E-08
   34.80000     -3.4010771E-08
   34.86000     -3.3237509E-08
   34.92000     -3.2607559E-08
   34.98000     -3.2076784E-08
   35.04000     -3.1597711E-08
   35.10000     -3.1134757E-08
   35.16000     -3.0673373E-08
   35.22000     -3.0219748E-08
   35.28000     -2.9792469E-08
   35.34000     -2.9411385E-08
   35.40000     -2.9089598E-08
   35.46000     -2.8831957E-08
   35.52000     -2.8639219E-08
   35.58000     -2.8513657E-08
   35.64000     -2.8461423E-08
   35.70000     -2.8489424E-08
   35.76000     -2.8598404E-08
   35.82000     -2.8776658E-08
   35.88000     -2.8998889E-08
   35.94000     -2.9231835E-08
   36.00000     -2.9444344E-08
   36.06000     -2.9616988E-08
   36.12000     -2.9746376E-08
   36.18000     -2.9842543E-08
   36.24000     -2.9921523E-08
   36.30000     -2.9997778E-08
   36.36000     -3.0080461E-08
   36.42000     -3.0174537E-08
   36.48000     -3.0284127E-08
   36.54000     -3.0413780E-08
   36.60000     -3.0564937E-08
   36.66000     -3.0728376E-08
   36.72000     -3.0877111E-08
   36.78000     -3.0965047E-08
   36.84000     -3.0934206E-08
   36.90000     -3.0728742E-08
   36.96000     -3.0310034E-08
   37.02000     -2.9666580E-08
   37.08000     -2.8815093E-08
   37.14000     -2.7794025E-08
   37.20000     -2.6654147E-08
   37.26000     -2.5450975E-08
   37.32000     -2.4240931E-08
   37.38000     -2.3079274E-08
   37.44000     -2.2015957E-08
   37.50000     -2.1087406E-08
   37.56000     -2.0306100E-08
   37.62000     -1.9653596E-08
   37.68000     -1.9082826E-08
   37.74000     -1.8531736E-08
   37.80000     -1.7944318E-08
   37.86000     -1.7290558E-08
   37.92000     -1.6576486E-08
   37.98000     -1.5840000E-08
   38.04000     -1.5134880E-08
   38.10000     -1.4510924E-08
   38.16000     -1.3999180E-08
   38.22000     -1.3607894E-08
   38.28000     -1.3328825E-08
   38.34000     -1.3148678E-08
   38.40000     -1.3058833E-08
   38.46000     -1.3058870E-08
   38.52000     -1.3153597E-08
   38.58000     -1.3347001E-08
   38.64000     -1.3637622E-08
   38.70000     -1.4018314E-08
   38.76000     -1.4480255E-08
   38.82000     -1.5018601E-08
   38.88000     -1.5636390E-08
   38.94000     -1.6344583E-08
   39.00000     -1.7158351E-08
   39.06000     -1.8091518E-08
   39.12000     -1.9151573E-08
   39.18000     -2.0336751E-08
   39.24000     -2.1635149E-08
   39.30000     -2.3024732E-08
   39.36000     -2.4473259E-08
   39.42000     -2.5938164E-08
   39.48000     -2.7367870E-08
   39.54000     -2.8706260E-08
   39.60000     -2.9900953E-08
   39.66000     -3.0913810E-08
   39.72000     -3.1730067E-08
   39.78000     -3.2362042E-08
   39.84000     -3.2845190E-08
   39.90000     -3.3227579E-08
   39.96000     -3.3557040E-08
   40.02000     -3.3871100E-08
   40.08000     -3.4193310E-08
   40.14000     -3.4535674E-08
   40.20000     -3.4903760E-08
   40.26000     -3.5299887E-08
   40.32000     -3.5721740E-08
   40.38000     -3.6157473E-08
   40.44000     -3.6581422E-08
   40.50000     -3.6955125E-08
   40.56000     -3.7235548E-08
   40.62000     -3.7388386E-08
   40.68000     -3.7400643E-08
   40.74000     -3.7286501E-08
   40.80000     -3.7083158E-08
   40.86000     -3.6837992E-08
   40.92000     -3.6592429E-08
   40.98000     -3.6369197E-08
   41.04000     -3.6167844E-08
   41.10000     -3.5969652E-08
   41.16000     -3.5748997E-08
   41.22000     -3.5486121E-08
   41.28000     -3.5176235E-08
   41.34000     -3.4832095E-08
   41.40000     -3.4479971E-08
   41.46000     -3.4151419E-08
   41.52000     -3.3874375E-08
   41.58000     -3.3666499E-08
   41.64000     -3.3532512E-08
   41.70000     -3.3465476E-08
   41.76000     -3.3450739E-08
   41.82000     -3.3471057E-08
   41.88000     -3.3511615E-08
   41.94000     -3.3564092E-08
   42.00000     -3.3629100E-08
   42.06000     -3.3716063E-08
   42.12000     -3.3839576E-08
   42.18000     -3.4012078E-08
   42.24000     -3.4234471E-08
   42.30000     -3.4488384E-08
   42.36000     -3.4734668E-08
   42.42000     -3.4921328E-08
   42.48000     -3.5000220E-08
   42.54000     -3.4947249E-08
   42.60000     -3.4777688E-08
   42.66000     -3.4549007E-08
   42.72000     -3.4348094E-08
   42.78000     -3.4266289E-08
   42.84000     -3.4370903E-08
   42.90000     -3.4683463E-08
   42.96000     -3.5171769E-08
   43.02000     -3.5757299E-08
   43.08000     -3.6334164E-08
   43.14000     -3.6792823E-08
   43.20000     -3.7042390E-08
   43.26000     -3.7027476E-08
   43.32000     -3.6737845E-08
   43.38000     -3.6210228E-08
   43.44000     -3.5521879E-08
   43.50000     -3.4775812E-08
   43.56000     -3.4079417E-08
   43.62000     -3.3520660E-08
   43.68000     -3.3148190E-08
   43.74000     -3.2961651E-08
   43.80000     -3.2915803E-08
   43.86000     -3.2937194E-08
   43.92000     -3.2947799E-08
   43.98000     -3.2887396E-08
   44.04000     -3.2727502E-08
   44.10000     -3.2473078E-08
   44.16000     -3.2152837E-08
   44.22000     -3.1802887E-08
   44.28000     -3.1450273E-08
   44.34000     -3.1102275E-08
   44.40000     -3.0744872E-08
   44.46000     -3.0350204E-08
   44.52000     -2.9889783E-08
   44.58000     -2.9348373E-08
   44.64000     -2.8733433E-08
   44.70000     -2.8077018E-08
   44.76000     -2.7429458E-08
   44.82000     -2.6846978E-08
   44.88000     -2.6376908E-08
   44.94000     -2.6044503E-08
   45.00000     -2.5844864E-08
   45.06000     -2.5742244E-08
   45.12000     -2.5677750E-08
   45.18000     -2.5584640E-08
   45.24000     -2.5408204E-08
   45.30000     -2.5124944E-08
   45.36000     -2.4754604E-08
   45.42000     -2.4359613E-08
   45.48000     -2.4030248E-08
   45.54000     -2.3859135E-08
   45.60000     -2.3913268E-08
   45.66000     -2.4213287E-08
   45.72000     -2.4727154E-08
   45.78000     -2.5379775E-08
   45.84000     -2.6074211E-08
   45.90000     -2.6716449E-08
   45.96000     -2.7235970E-08
   46.02000     -2.7597245E-08
   46.08000     -2.7801359E-08
   46.14000     -2.7879720E-08
   46.20000     -2.7882793E-08
   46.26000     -2.7866530E-08
   46.32000     -2.7878659E-08
   46.38000     -2.7947191E-08
   46.44000     -2.8073755E-08
   46.50000     -2.8234036E-08
   46.56000     -2.8385854E-08
   46.62000     -2.8482859E-08
   46.68000     -2.8489344E-08
   46.74000     -2.8390907E-08
   46.80000     -2.8197061E-08
   46.86000     -2.7934950E-08
   46.92000     -2.7636837E-08
   46.98000     -2.7326367E-08
   47.04000     -2.7009159E-08
   47.10000     -2.6671389E-08
   47.16000     -2.6286909E-08
   47.22000     -2.5829895E-08
   47.28000     -2.5287511E-08
   47.34000     -2.4666925E-08
   47.40000     -2.3993202E-08
   47.46000     -2.3298707E-08
   47.52000     -2.2608461E-08
   47.58000     -2.1928022E-08
   47.64000     -2.1239259E-08
   47.70000     -2.0505846E-08
   47.76000     -1.9686002E-08
   47.82000     -1.8747329E-08
   47.88000     -1.7678637E-08
   47.94000     -1.6495877E-08
   48.00000     -1.5242001E-08
   48.06000     -1.3982121E-08
   48.12000     -1.2795207E-08
   48.18000     -1.1762992E-08
   48.24000     -1.0956784E-08
   48.30000     -1.0424321E-08
   48.36000     -1.0180520E-08
   48.42000     -1.0206207E-08
   48.48000     -1.0456725E-08
   48.54000     -1.0878288E-08
   48.60000     -1.1426336E-08
   48.66000     -1.2079172E-08
   48.72000     -1.2842696E-08
   48.78000     -1.3746473E-08
   48.84000     -1.4835272E-08
   48.90000     -1.6161181E-08
   48.96000     -1.7779525E-08
   49.02000     -1.9748509E-08
   49.08000     -2.2130214E-08
   49.14000     -2.4990637E-08
   49.20000     -2.8398352E-08
   49.26000     -3.2423515E-08
   49.32000     -3.7139735E-08
   49.38000     -4.2630376E-08
   49.44000     -4.8998757E-08
   49.50000     -5.6380085E-08
   49.56000     -6.4952232E-08
   49.62000     -7.4943195E-08
   49.68000     -8.6634309E-08
   49.74000     -1.0036012E-07
   49.80000     -1.1650687E-07
   49.86000     -1.3551274E-07
   49.92000     -1.5787259E-07
   49.98000     -1.8414890E-07
   50.04000     -2.1498803E-07
   50.10000     -2.5113923E-07
   50.16000     -2.9347220E-07
   50.22000     -3.4299069E-07
   50.28000     -4.0084214E-07
   50.34000     -4.6832551E-07
   50.40000     -5.4690167E-07
   50.46000     -6.3820846E-07
   50.52000     -7.4408069E-07
   50.58000     -8.6657377E-07
   50.64000     -1.0079887E-06
   50.70000     -1.1708996E-06
   50.76000     -1.3581847E-06
   50.82000     -1.5730600E-06
   50.88000     -1.8191171E-06
   50.94000     -2.1003584E-06
   51.00000     -2.4212279E-06
   51.06000     -2.7866324E-06
   51.12000     -3.2019609E-06
   51.18000     -3.6731033E-06
   51.24000     -4.2064789E-06
   51.30000     -4.8090728E-06
   51.36000     -5.4884758E-06
   51.42000     -6.2529266E-06
   51.48000     -7.1113436E-06
   51.54000     -8.0733580E-06
   51.60000     -9.1493348E-06
   51.66000     -1.0350396E-05
   51.72000     -1.1688446E-05
   51.78000     -1.3176186E-05
   51.84000     -1.4827129E-05
   51.90000     -1.6655593E-05
   51.96000     -1.8676690E-05
   52.02000     -2.0906306E-05
   52.08000     -2.3361077E-05
   52.14000     -2.6058366E-05
   52.20000     -2.9016224E-05
   52.26000     -3.2253356E-05
   52.32000     -3.5789082E-05
   52.38000     -3.9643262E-05
   52.44000     -4.3836222E-05
   52.50000     -4.8388651E-05
   52.56000     -5.3321510E-05
   52.62000     -5.8655893E-05
   52.68000     -6.4412896E-05
   52.74000     -7.0613503E-05
   52.80000     -7.7278433E-05
   52.86000     -8.4427964E-05
   52.92000     -9.2081820E-05
   52.98000     -1.0025891E-04
   53.04000     -1.0897720E-04
   53.10000     -1.1825348E-04
   53.16000     -1.2810314E-04
   53.22000     -1.3854005E-04
   53.28000     -1.4957630E-04
   53.34000     -1.6122196E-04
   53.40000     -1.7348499E-04
   53.46000     -1.8637096E-04
   53.52000     -1.9988288E-04
   53.58000     -2.1402106E-04
   53.64000     -2.2878284E-04
   53.70000     -2.4416260E-04
   53.76000     -2.6015160E-04
   53.82000     -2.7673785E-04
   53.88000     -2.9390593E-04
   53.94000     -3.1163712E-04
   54.00000     -3.2990906E-04
   54.06000     -3.4869599E-04
   54.12000     -3.6796855E-04
   54.18000     -3.8769410E-04
   54.24000     -4.0783666E-04
   54.30000     -4.2835699E-04
   54.36000     -4.4921285E-04
   54.42000     -4.7035908E-04
   54.48000     -4.9174787E-04
   54.54000     -5.1332905E-04
   54.60000     -5.3505023E-04
   54.66000     -5.5685733E-04
   54.72000     -5.7869486E-04
   54.78000     -6.0050609E-04
   54.84000     -6.2223361E-04
   54.90000     -6.4381951E-04
   54.96000     -6.6520588E-04
   55.02000     -6.8633514E-04
   55.08000     -7.0715073E-04
   55.14000     -7.2759727E-04
   55.20000     -7.4762135E-04
   55.26000     -7.6717162E-04
   55.32000     -7.8619935E-04
   55.38000     -8.0465863E-04
   55.44000     -8.2250667E-04
   55.50000     -8.3970395E-04
   55.56000     -8.5621484E-04