  -2.400000      0.0000000E+00
  -2.340000      0.0000000E+00
  -2.280000      0.0000000E+00
  -2.220000      0.0000000E+00
  -2.160000      0.0000000E+00
  -2.100000      0.0000000E+00
  -2.040000      0.0000000E+00
  -1.980000      4.6957833E-24
  -1.920000      4.0658437E-23
  -1.860000      1.5131045E-22
  -1.800000      2.2601052E-22
  -1.740000     -4.6717448E-22
  -1.680000     -3.6155556E-21
  -1.620000     -1.0485026E-20
  -1.560000     -1.6937494E-20
  -1.500000     -6.2631390E-21
  -1.440000      5.0813479E-20
  -1.380000      1.7308843E-19
  -1.320000      3.1582244E-19
  -1.260000      3.1568624E-19
  -1.200000     -9.1026819E-20
  -1.140000     -1.0920910E-18
  -1.080000     -2.4688082E-18
  -1.020000     -3.3056821E-18
 -0.9600000     -2.1098821E-18
 -0.9000000      2.3462804E-18
 -0.8400000      9.5917523E-18
 -0.7800000      1.6272998E-17
 -0.7200000      1.6534349E-17
 -0.6600000      4.8705652E-18
 -0.6000000     -1.9174526E-17
 -0.5400000     -4.7107598E-17
 -0.4800000     -6.2043655E-17
 -0.4200000     -4.5936337E-17
 -0.3600000      8.3352310E-18
 -0.3000000      8.6460134E-17
 -0.2400000      1.5200786E-16
 -0.1800000      1.6016816E-16
 -0.1200000      8.2115424E-17
 -5.9999999E-02 -7.2395059E-17
  0.0000000E+00 -2.4907435E-16
  5.9999999E-02 -3.6747209E-16
  0.1200000     -3.5720094E-16
  0.1800000     -1.9305349E-16
  0.2400000      9.1405291E-17
  0.3000000      4.1956496E-16
  0.3600000      7.0501072E-16
  0.4200000      8.7781370E-16
  0.4800000      8.8500374E-16
  0.5400000      6.6935153E-16
  0.6000000      1.5579161E-16
  0.6600000     -7.1873599E-16
  0.7200000     -1.9203939E-15
  0.7800000     -3.2129961E-15
  0.8400000     -4.1067592E-15
  0.9000000     -3.9388879E-15
  0.9600000     -2.1142601E-15
   1.020000      1.5518784E-15
   1.080000      6.5295940E-15
   1.140000      1.1479775E-14
   1.200000      1.4492556E-14
   1.260000      1.3660800E-14
   1.320000      7.8395881E-15
   1.380000     -2.6767450E-15
   1.440000     -1.5857804E-14
   1.500000     -2.8226485E-14
   1.560000     -3.5741385E-14
   1.620000     -3.5036701E-14
   1.680000     -2.4599012E-14
   1.740000     -5.4325004E-15
   1.800000      1.9060378E-14
   1.860000      4.3929246E-14
   1.920000      6.3879105E-14
   1.980000      7.4313683E-14
   2.040000      7.1873144E-14
   2.100000      5.4525212E-14
   2.160000      2.1663825E-14
   2.220000     -2.5254967E-14
   2.280000     -8.1418162E-14
   2.340000     -1.3732483E-13
   2.400000     -1.7866840E-13
   2.460000     -1.8866160E-13
   2.520000     -1.5310753E-13
   2.580000     -6.6971690E-14
   2.640000      6.0189002E-14
   2.700000      2.0292875E-13
   2.760000      3.2455232E-13
   2.820000      3.8710449E-13
   2.880000      3.6359397E-13
   2.940000      2.4796118E-13
   3.000000      5.8876616E-14
   3.060000     -1.6420319E-13
   3.120000     -3.7129826E-13
   3.180000     -5.1483297E-13
   3.240000     -5.6106167E-13
   3.300000     -4.9701237E-13
   3.360000     -3.3199750E-13
   3.420000     -9.4496093E-14
   3.480000      1.7395968E-13
   3.540000      4.2630401E-13
   3.600000      6.1763062E-13
   3.660000      7.1204083E-13
   3.720000      6.8770732E-13
   3.780000      5.3953332E-13
   3.840000      2.7958950E-13
   3.900000     -6.3554366E-14
   3.960000     -4.4528991E-13
   4.020000     -8.0507758E-13
   4.080000     -1.0683251E-12
   4.140000     -1.1539248E-12
   4.200000     -9.9070947E-13
   4.260000     -5.4205772E-13
   4.320000      1.6821684E-13
   4.380000      1.0403845E-12
   4.440000      1.9052093E-12
   4.500000      2.5567768E-12
   4.560000      2.8047835E-12
   4.620000      2.5286808E-12
   4.680000      1.7124095E-12
   4.740000      4.4513107E-13
   4.800000     -1.1118412E-12
   4.860000     -2.7755949E-12
   4.920000     -4.3842733E-12
   4.980000     -5.8099038E-12
   5.040000     -6.9343997E-12
   5.100000     -7.6012226E-12
   5.160000     -7.5692265E-12
   5.220000     -6.4970178E-12
   5.280000     -3.9734570E-12
   5.340000      4.1067250E-13
   5.400000      6.9745399E-12
   5.460000      1.5876769E-11
   5.520000      2.7090937E-11
   5.580000      4.0436911E-11
   5.640000      5.5653069E-11
   5.700000      7.2473375E-11
   5.760000      9.0665427E-11
   5.820000      1.0999521E-10
   5.880000      1.3011264E-10
   5.940000      1.5038980E-10
   6.000000      1.6978015E-10
   6.060000      1.8678334E-10
   6.120000      1.9958488E-10
   6.180000      2.0638856E-10
   6.240000      2.0588380E-10
   6.300000      1.9771551E-10
   6.360000      1.8278541E-10
   6.420000      1.6323506E-10
   6.480000      1.4204798E-10
   6.540000      1.2233749E-10
   6.600000      1.0651004E-10
   6.660000      9.5558866E-11
   6.720000      8.8714876E-11
   6.780000      8.3565058E-11
   6.840000      7.6584857E-11
   6.900000      6.3893085E-11
   6.960000      4.1984437E-11
   7.020000      8.2552680E-12
   7.080000     -3.8722473E-11
   7.140000     -9.9080757E-11
   7.200000     -1.7152584E-10
   7.260000     -2.5310345E-10
   7.320000     -3.3893266E-10
   7.380000     -4.2216516E-10
   7.440000     -4.9450055E-10
   7.500000     -5.4746480E-10
   7.560000     -5.7435956E-10
   7.620000     -5.7241906E-10
   7.680000     -5.4446647E-10
   7.740000     -4.9938254E-10
   7.800000     -4.5103432E-10
   7.860000     -4.1584056E-10
   7.920000     -4.0964848E-10
   7.980000     -4.4483020E-10
   8.040000     -5.2836208E-10
   8.100000     -6.6119266E-10
   8.160000     -8.3865681E-10
   8.220000     -1.0513309E-09
   8.280000     -1.2857168E-09
   8.340000     -1.5244948E-09
   8.400000     -1.7465962E-09
   8.460000     -1.9277362E-09
   8.520000     -2.0421003E-09
   8.580000     -2.0655218E-09
   8.640000     -1.9798740E-09
   8.700000     -1.7777768E-09
   8.760000     -1.4663692E-09
   8.820000     -1.0689546E-09
   8.880000     -6.2378941E-10
   8.940000     -1.7996224E-10
   9.000000      2.0900542E-10
   9.060000      4.9271703E-10
   9.120000      6.3129862E-10
   9.180000      6.0138267E-10
   9.240000      3.9968706E-10
   9.300000      4.3572829E-11
   9.360000     -4.3158979E-10
   9.420000     -9.7792896E-10
   9.480000     -1.5426290E-09
   9.540000     -2.0762858E-09
   9.600000     -2.5405809E-09
   9.660000     -2.9138920E-09
   9.720000     -3.1938960E-09
   9.780000     -3.3969008E-09
   9.840000     -3.5543160E-09
   9.900000     -3.7071441E-09
   9.960000     -3.8994812E-09
   10.02000     -4.1718717E-09
   10.08000     -4.5551491E-09
   10.14000     -5.0652806E-09
   10.20000     -5.6998637E-09
   10.26000     -6.4370438E-09
   10.32000     -7.2375799E-09
   10.38000     -8.0503337E-09
   10.44000     -8.8206313E-09
   10.50000     -9.5000496E-09
   10.56000     -1.0055605E-08
   10.62000     -1.0476314E-08
   10.68000     -1.0775823E-08
   10.74000     -1.0990788E-08
   10.80000     -1.1175691E-08
   10.86000     -1.1395339E-08
   10.92000     -1.1716346E-08
   10.98000     -1.2198661E-08
   11.04000     -1.2887885E-08
   11.10000     -1.3809028E-08
   11.16000     -1.4962447E-08
   11.22000     -1.6322787E-08
   11.28000     -1.7841620E-08
   11.34000     -1.9453891E-08
   11.40000     -2.1087374E-08
   11.46000     -2.2673447E-08
   11.52000     -2.4156744E-08
   11.58000     -2.5501310E-08
   11.64000     -2.6691563E-08
   11.70000     -2.7727742E-08
   11.76000     -2.8617066E-08
   11.82000     -2.9363223E-08
   11.88000     -2.9957551E-08
   11.94000     -3.0374796E-08
   12.00000     -3.0575155E-08
   12.06000     -3.0512226E-08
   12.12000     -3.0144545E-08
   12.18000     -2.9447047E-08
   12.24000     -2.8418786E-08
   12.30000     -2.7084420E-08
   12.36000     -2.5489213E-08
   12.42000     -2.3689468E-08
   12.48000     -2.1741867E-08
   12.54000     -1.9695312E-08
   12.60000     -1.7587622E-08
   12.66000     -1.5447418E-08
   12.72000     -1.3299448E-08
   12.78000     -1.1170431E-08
   12.84000     -9.0925312E-09
   12.90000     -7.1028716E-09
   12.96000     -5.2392122E-09
   13.02000     -3.5336041E-09
   13.08000     -2.0065598E-09
   13.14000     -6.6400418E-10
   13.20000      5.0196869E-10
   13.26000      1.5090577E-09
   13.32000      2.3792721E-09
   13.38000      3.1343272E-09
   13.44000      3.7937697E-09
   13.50000      4.3764015E-09
   13.56000      4.9040447E-09
   13.62000      5.4055320E-09
   13.68000      5.9185172E-09
   13.74000      6.4875176E-09
   13.80000      7.1580906E-09
   13.86000      7.9687581E-09
   13.92000      8.9433660E-09
   13.98000      1.0086615E-08
   14.04000      1.1384429E-08
   14.10000      1.2809130E-08
   14.16000      1.4327671E-08
   14.22000      1.5910224E-08
   14.28000      1.7536351E-08
   14.34000      1.9196992E-08
   14.40000      2.0891935E-08
   14.46000      2.2623777E-08
   14.52000      2.4390523E-08
   14.58000      2.6179107E-08
   14.64000      2.7961828E-08
   14.70000      2.9696844E-08
   14.76000      3.1332707E-08
   14.82000      3.2815873E-08
   14.88000      3.4099344E-08
   14.94000      3.5150244E-08
   15.00000      3.5954354E-08
   15.06000      3.6516404E-08
   15.12000      3.6855781E-08
   15.18000      3.6998728E-08
   15.24000      3.6968760E-08
   15.30000      3.6777848E-08
   15.36000      3.6420850E-08
   15.42000      3.5875033E-08
   15.48000      3.5105359E-08
   15.54000      3.4074500E-08
   15.60000      3.2754979E-08
   15.66000      3.1139834E-08
   15.72000      2.9248231E-08
   15.78000      2.7123829E-08
   15.84000      2.4825876E-08
   15.90000      2.2415474E-08
   15.96000      1.9941211E-08
   16.02000      1.7428841E-08
   16.08000      1.4878411E-08
   16.14000      1.2270101E-08
   16.20000      9.5771329E-09
   16.26000      6.7819710E-09
   16.32000      3.8908183E-09
   16.38000      9.4172448E-10
   16.44000     -1.9966857E-09
   16.50000     -4.8362785E-09
   16.56000     -7.4878113E-09
   16.62000     -9.8818749E-09
   16.68000     -1.1986563E-08
   16.74000     -1.3816716E-08
   16.80000     -1.5431930E-08
   16.86000     -1.6923790E-08
   16.92000     -1.8395868E-08
   16.98000     -1.9941913E-08
   17.04000     -2.1627727E-08
   17.10000     -2.3480583E-08
   17.16000     -2.5487644E-08
   17.22000     -2.7602507E-08
   17.28000     -2.9757555E-08
   17.34000     -3.1879154E-08
   17.40000     -3.3902719E-08
   17.46000     -3.5784947E-08
   17.52000     -3.7510727E-08
   17.58000     -3.9093123E-08
   17.64000     -4.0566288E-08
   17.70000     -4.1973067E-08
   17.76000     -4.3351044E-08
   17.82000     -4.4721428E-08
   17.88000     -4.6084413E-08
   17.94000     -4.7422155E-08
   18.00000     -4.8707722E-08
   18.06000     -4.9916181E-08
   18.12000     -5.1033567E-08
   18.18000     -5.2060695E-08
   18.24000     -5.3010879E-08
   18.30000     -5.3902671E-08
   18.36000     -5.4750135E-08
   18.42000     -5.5553496E-08
   18.48000     -5.6293015E-08
   18.54000     -5.6928268E-08
   18.60000     -5.7404154E-08
   18.66000     -5.7663208E-08
   18.72000     -5.7661673E-08
   18.78000     -5.7384828E-08
   18.84000     -5.6856205E-08
   18.90000     -5.6136731E-08
   18.96000     -5.5312935E-08
   19.02000     -5.4477312E-08
   19.08000     -5.3706888E-08
   19.14000     -5.3046655E-08
   19.20000     -5.2502543E-08
   19.26000     -5.2045067E-08
   19.32000     -5.1621285E-08
   19.38000     -5.1170677E-08
   19.44000     -5.0640118E-08
   19.50000     -4.9994476E-08
   19.56000     -4.9221004E-08
   19.62000     -4.8327415E-08
   19.68000     -4.7334925E-08
   19.74000     -4.6268607E-08
   19.80000     -4.5148088E-08
   19.86000     -4.3981604E-08
   19.92000     -4.2765301E-08
   19.98000     -4.1487965E-08
   20.04000     -4.0139192E-08
   20.10000     -3.8717747E-08
   20.16000     -3.7236983E-08
   20.22000     -3.5725463E-08
   20.28000     -3.4223067E-08
   20.34000     -3.2774164E-08
   20.40000     -3.1420008E-08
   20.46000     -3.0192091E-08
   20.52000     -2.9107348E-08
   20.58000     -2.8165685E-08
   20.64000     -2.7350119E-08
   20.70000     -2.6629777E-08
   20.76000     -2.5965623E-08
   20.82000     -2.5317936E-08
   20.88000     -2.4653797E-08
   20.94000     -2.3952618E-08
   21.00000     -2.3208433E-08
   21.06000     -2.2428958E-08
   21.12000     -2.1632550E-08
   21.18000     -2.0844636E-08
   21.24000     -2.0094660E-08
   21.30000     -1.9413603E-08
   21.36000     -1.8831463E-08
   21.42000     -1.8373951E-08
   21.48000     -1.8058424E-08
   21.54000     -1.7889867E-08
   21.60000     -1.7858365E-08
   21.66000     -1.7939374E-08
   21.72000     -1.8097566E-08
   21.78000     -1.8294038E-08
   21.84000     -1.8495809E-08
   21.90000     -1.8685681E-08
   21.96000     -1.8870013E-08
   22.02000     -1.9081929E-08
   22.08000     -1.9378138E-08
   22.14000     -1.9829164E-08
   22.20000     -2.0504759E-08
   22.26000     -2.1458138E-08
   22.32000     -2.2713381E-08
   22.38000     -2.4259524E-08
   22.44000     -2.6052787E-08
   22.50000     -2.8025781E-08
   22.56000     -3.0100608E-08
   22.62000     -3.2202117E-08
   22.68000     -3.4268250E-08
   22.74000     -3.6255962E-08
   22.80000     -3.8142524E-08
   22.86000     -3.9923219E-08
   22.92000     -4.1606725E-08
   22.98000     -4.3209546E-08
   23.04000     -4.4750635E-08
   23.10000     -4.6247024E-08
   23.16000     -4.7710945E-08
   23.22000     -4.9148337E-08
   23.28000     -5.0558384E-08
   23.34000     -5.1933458E-08
   23.40000     -5.3259313E-08
   23.46000     -5.4515663E-08
   23.52000     -5.5677688E-08
   23.58000     -5.6718942E-08
   23.64000     -5.7615551E-08
   23.70000     -5.8350825E-08
   23.76000     -5.8919049E-08
   23.82000     -5.9327107E-08
   23.88000     -5.9593230E-08
   23.94000     -5.9743137E-08
   24.00000     -5.9804421E-08
   24.06000     -5.9800726E-08
   24.12000     -5.9747023E-08
   24.18000     -5.9647107E-08
   24.24000     -5.9493740E-08
   24.30000     -5.9271322E-08
   24.36000     -5.8960286E-08
   24.42000     -5.8541975E-08
   24.48000     -5.8002783E-08
   24.54000     -5.7336518E-08
   24.60000     -5.6544550E-08
   24.66000     -5.5634160E-08
   24.72000     -5.4615775E-08
   24.78000     -5.3500283E-08
   24.84000     -5.2297118E-08
   24.90000     -5.1013529E-08
   24.96000     -4.9654837E-08
   25.02000     -4.8225164E-08
   25.08000     -4.6728019E-08
   25.14000     -4.5166360E-08
   25.20000     -4.3542229E-08
   25.26000     -4.1856399E-08
   25.32000     -4.0108937E-08
   25.38000     -3.8301252E-08
   25.44000     -3.6439520E-08
   25.50000     -3.4538427E-08
   25.56000     -3.2623237E-08
   25.62000     -3.0728252E-08
   25.68000     -2.8890732E-08
   25.74000     -2.7141274E-08
   25.80000     -2.5493563E-08
   25.86000     -2.3937519E-08
   25.92000     -2.2439286E-08
   25.98000     -2.0949374E-08
   26.04000     -1.9417321E-08
   26.10000     -1.7808620E-08
   26.16000     -1.6118461E-08
   26.22000     -1.4377473E-08
   26.28000     -1.2647065E-08
   26.34000     -1.1005127E-08
   26.40000     -9.5259889E-09
   26.46000     -8.2605700E-09
   26.52000     -7.2229609E-09
   26.58000     -6.3880936E-09
   26.64000     -5.7019114E-09
   26.70000     -5.1013975E-09
   26.76000     -4.5382582E-09
   26.82000     -3.9982861E-09
   26.88000     -3.5093879E-09
   26.94000     -3.1348575E-09
   27.00000     -2.9535920E-09
   27.06000     -3.0337179E-09
   27.12000     -3.4086691E-09
   27.18000     -4.0640864E-09
   27.24000     -4.9402216E-09
   27.30000     -5.9491834E-09
   27.36000     -7.0013151E-09
   27.42000     -8.0319271E-09
   27.48000     -9.0195265E-09
   27.54000     -9.9894830E-09
   27.60000     -1.1001842E-08
   27.66000     -1.2127241E-08
   27.72000     -1.3418984E-08
   27.78000     -1.4890944E-08
   27.84000     -1.6509290E-08
   27.90000     -1.8201620E-08
   27.96000     -1.9880851E-08
   28.02000     -2.1475733E-08
   28.08000     -2.2956838E-08
   28.14000     -2.4348031E-08
   28.20000     -2.5718263E-08
   28.26000     -2.7155675E-08
   28.32000     -2.8732586E-08
   28.38000     -3.0473650E-08
   28.44000     -3.2338686E-08
   28.50000     -3.4226940E-08
   28.56000     -3.6002248E-08
   28.62000     -3.7531425E-08
   28.68000     -3.8723670E-08
   28.74000     -3.9558085E-08
   28.80000     -4.0090093E-08
   28.86000     -4.0434138E-08
   28.92000     -4.0727887E-08
   28.98000     -4.1089223E-08
   29.04000     -4.1579966E-08
   29.10000     -4.2188194E-08
   29.16000     -4.2834884E-08
   29.22000     -4.3402405E-08
   29.28000     -4.3774993E-08
   29.34000     -4.3877570E-08
   29.40000     -4.3700062E-08
   29.46000     -4.3299838E-08
   29.52000     -4.2782357E-08
   29.58000     -4.2267363E-08
   29.64000     -4.1852196E-08
   29.70000     -4.1584158E-08
   29.76000     -4.1450480E-08
   29.82000     -4.1388510E-08
   29.88000     -4.1312340E-08
   29.94000     -4.1146766E-08
   30.00000     -4.0857202E-08
   30.06000     -4.0465189E-08
   30.12000     -4.0043847E-08
   30.18000     -3.9694530E-08
   30.24000     -3.9512550E-08
   30.30000     -3.9554187E-08
   30.36000     -3.9817014E-08
   30.42000     -4.0240462E-08
   30.48000     -4.0726363E-08
   30.54000     -4.1171454E-08
   30.60000     -4.1499927E-08
   30.66000     -4.1684668E-08
   30.72000     -4.1750646E-08
   30.78000     -4.1760629E-08
   30.84000     -4.1789495E-08
   30.90000     -4.1896360E-08
   30.96000     -4.2103490E-08
   31.02000     -4.2388084E-08
   31.08000     -4.2688750E-08
   31.14000     -4.2924277E-08
   31.20000     -4.3018993E-08
   31.26000     -4.2927216E-08
   31.32000     -4.2649244E-08
   31.38000     -4.2233616E-08
   31.44000     -4.1764334E-08
   31.50000     -4.1336786E-08
   31.56000     -4.1030074E-08
   31.62000     -4.0885098E-08
   31.68000     -4.0895891E-08
   31.74000     -4.1016953E-08
   31.80000     -4.1183515E-08
   31.86000     -4.1337199E-08
   31.92000     -4.1447919E-08
   31.98000     -4.1524885E-08
   32.04000     -4.1613855E-08
   32.10000     -4.1782741E-08
   32.16000     -4.2101131E-08
   32.22000     -4.2620691E-08
   32.28000     -4.3361911E-08
   32.34000     -4.4310099E-08
   32.40000     -4.5420162E-08
   32.46000     -4.6627449E-08
   32.52000     -4.7860688E-08
   32.58000     -4.9053600E-08
   32.64000     -5.0152970E-08
   32.70000     -5.1122541E-08
   32.76000     -5.1943307E-08
   32.82000     -5.2611362E-08
   32.88000     -5.3134318E-08
   32.94000     -5.3527078E-08
   33.00000     -5.3807458E-08
   33.06000     -5.3991982E-08
   33.12000     -5.4092229E-08
   33.18000     -5.4112117E-08
   33.24000     -5.4046456E-08
   33.30000     -5.3881134E-08
   33.36000     -5.3595393E-08
   33.42000     -5.3166630E-08
   33.48000     -5.2577839E-08
   33.54000     -5.1826696E-08
   33.60000     -5.0934169E-08
   33.66000     -4.9949382E-08
   33.72000     -4.8947687E-08
   33.78000     -4.8020617E-08
   33.84000     -4.7259395E-08
   33.90000     -4.6736449E-08
   33.96000     -4.6490989E-08
   34.02000     -4.6523581E-08
   34.08000     -4.6801734E-08
   34.14000     -4.7274469E-08
   34.20000     -4.7890786E-08
   34.26000     -4.8615760E-08
   34.32000     -4.9439162E-08
   34.38000     -5.0374251E-08
   34.44000     -5.1447614E-08
   34.50000     -5.2683667E-08
   34.56000     -5.4088833E-08
   34.62000     -5.5640854E-08
   34.68000     -5.7287018E-08
   34.74000     -5.8952846E-08
   34.80000     -6.0559287E-08
   34.86000     -6.2043462E-08
   34.92000     -6.3376156E-08
   34.98000     -6.4569875E-08
   35.04000     -6.5674001E-08
   35.10000     -6.6757998E-08
   35.16000     -6.7887996E-08
   35.22000     -6.9103912E-08
   35.28000     -7.0404674E-08
   35.34000     -7.1745795E-08
   35.40000     -7.3049812E-08
   35.46000     -7.4225994E-08
   35.52000     -7.5193427E-08
   35.58000     -7.5900601E-08
   35.64000     -7.6336327E-08
   35.70000     -7.6529290E-08
   35.76000     -7.6536800E-08
   35.82000     -7.6426794E-08
   35.88000     -7.6258644E-08
   35.94000     -7.6068645E-08
   36.00000     -7.5864165E-08
   36.06000     -7.5627284E-08
   36.12000     -7.5325417E-08
   36.18000     -7.4924266E-08
   36.24000     -7.4398208E-08
   36.30000     -7.3734881E-08
   36.36000     -7.2933304E-08
   36.42000     -7.1997491E-08
   36.48000     -7.0929005E-08
   36.54000     -6.9721928E-08
   36.60000     -6.8362468E-08
   36.66000     -6.6833529E-08
   36.72000     -6.5122627E-08
   36.78000     -6.3230118E-08
   36.84000     -6.1174461E-08
   36.90000     -5.8991994E-08
   36.96000     -5.6730581E-08
   37.02000     -5.4439095E-08
   37.08000     -5.2156246E-08
   37.14000     -4.9903083E-08
   37.20000     -4.7682175E-08
   37.26000     -4.5483805E-08
   37.32000     -4.3296762E-08
   37.38000     -4.1119332E-08
   37.44000     -3.8966011E-08
   37.50000     -3.6867238E-08
   37.56000     -3.4862300E-08
   37.62000     -3.2987948E-08
   37.68000     -3.1267085E-08
   37.74000     -2.9701493E-08
   37.80000     -2.8271510E-08
   37.86000     -2.6943042E-08
   37.92000     -2.5680116E-08
   37.98000     -2.4459160E-08
   38.04000     -2.3280295E-08
   38.10000     -2.2171434E-08
   38.16000     -2.1182952E-08
   38.22000     -2.0373736E-08
   38.28000     -1.9792623E-08
   38.34000     -1.9461233E-08
   38.40000     -1.9364183E-08
   38.46000     -1.9450370E-08
   38.52000     -1.9645174E-08
   38.58000     -1.9869741E-08
   38.64000     -2.0061083E-08
   38.70000     -2.0186819E-08
   38.76000     -2.0250397E-08
   38.82000     -2.0285928E-08
   38.88000     -2.0344931E-08
   38.94000     -2.0479405E-08
   39.00000     -2.0726315E-08
   39.06000     -2.1097735E-08
   39.12000     -2.1579147E-08
   39.18000     -2.2135957E-08
   39.24000     -2.2725965E-08
   39.30000     -2.3313776E-08
   39.36000     -2.3882478E-08
   39.42000     -2.4438837E-08
   39.48000     -2.5010364E-08
   39.54000     -2.5635400E-08
   39.60000     -2.6349769E-08
   39.66000     -2.7174558E-08
   39.72000     -2.8109094E-08
   39.78000     -2.9131082E-08
   39.84000     -3.0203367E-08
   39.90000     -3.1284543E-08
   39.96000     -3.2339635E-08
   40.02000     -3.3347256E-08
   40.08000     -3.4301269E-08
   40.14000     -3.5206899E-08
   40.20000     -3.6073374E-08
   40.26000     -3.6906243E-08
   40.32000     -3.7702701E-08
   40.38000     -3.8451720E-08
   40.44000     -3.9138904E-08
   40.50000     -3.9753651E-08
   40.56000     -4.0295248E-08
   40.62000     -4.0774804E-08
   40.68000     -4.1211852E-08
   40.74000     -4.1626798E-08
   40.80000     -4.2032354E-08
   40.86000     -4.2427349E-08
   40.92000     -4.2795257E-08
   40.98000     -4.3107750E-08
   41.04000     -4.3331696E-08
   41.10000     -4.3437058E-08
   41.16000     -4.3403499E-08
   41.22000     -4.3224318E-08
   41.28000     -4.2907480E-08
   41.34000     -4.2474042E-08
   41.40000     -4.1954483E-08
   41.46000     -4.1383487E-08
   41.52000     -4.0793896E-08
   41.58000     -4.0210864E-08
   41.64000     -3.9647478E-08
   41.70000     -3.9103004E-08
   41.76000     -3.8564227E-08
   41.82000     -3.8009571E-08
   41.88000     -3.7414782E-08
   41.94000     -3.6758905E-08
   42.00000     -3.6029224E-08
   42.06000     -3.5224584E-08
   42.12000     -3.4356788E-08
   42.18000     -3.3449943E-08
   42.24000     -3.2537834E-08
   42.30000     -3.1659130E-08
   42.36000     -3.0850813E-08
   42.42000     -3.0140761E-08
   42.48000     -2.9541125E-08
   42.54000     -2.9044667E-08
   42.60000     -2.8625857E-08
   42.66000     -2.8247406E-08
   42.72000     -2.7871064E-08
   42.78000     -2.7469643E-08
   42.84000     -2.7036259E-08
   42.90000     -2.6587157E-08
   42.96000     -2.6156579E-08
   43.02000     -2.5785141E-08
   43.08000     -2.5505859E-08
   43.14000     -2.5333236E-08
   43.20000     -2.5259631E-08
   43.26000     -2.5260249E-08
   43.32000     -2.5304475E-08
   43.38000     -2.5368699E-08
   43.44000     -2.5445473E-08
   43.50000     -2.5545630E-08
   43.56000     -2.5693041E-08
   43.62000     -2.5914495E-08
   43.68000     -2.6228562E-08
   43.74000     -2.6637069E-08
   43.80000     -2.7121638E-08
   43.86000     -2.7646111E-08
   43.92000     -2.8164425E-08
   43.98000     -2.8632362E-08
   44.04000     -2.9020500E-08
   44.10000     -2.9324708E-08
   44.16000     -2.9570288E-08
   44.22000     -2.9807012E-08
   44.28000     -3.0095237E-08
   44.34000     -3.0486831E-08
   44.40000     -3.1007666E-08
   44.46000     -3.1648664E-08
   44.52000     -3.2369634E-08
   44.58000     -3.3115267E-08
   44.64000     -3.3837459E-08
   44.70000     -3.4515487E-08
   44.76000     -3.5166451E-08
   44.82000     -3.5841992E-08
   44.88000     -3.6612679E-08
   44.94000     -3.7545494E-08
   45.00000     -3.8681794E-08
   45.06000     -4.0022254E-08
   45.12000     -4.1522696E-08
   45.18000     -4.3101526E-08
   45.24000     -4.4656492E-08
   45.30000     -4.6086544E-08
   45.36000     -4.7313250E-08
   45.42000     -4.8296410E-08
   45.48000     -4.9039439E-08
   45.54000     -4.9582606E-08
   45.60000     -4.9985537E-08
   45.66000     -5.0303829E-08
   45.72000     -5.0567103E-08
   45.78000     -5.0766157E-08
   45.84000     -5.0854485E-08
   45.90000     -5.0764701E-08
   45.96000     -5.0435116E-08
   46.02000     -4.9837265E-08
   46.08000     -4.8994220E-08
   46.14000     -4.7982351E-08
   46.20000     -4.6915137E-08
   46.26000     -4.5914739E-08
   46.32000     -4.5081691E-08
   46.38000     -4.4473818E-08
   46.44000     -4.4101427E-08
   46.50000     -4.3939135E-08
   46.56000     -4.3948280E-08
   46.62000     -4.4100513E-08
   46.68000     -4.4394174E-08
   46.74000     -4.4858798E-08
   46.80000     -4.5548010E-08
   46.86000     -4.6524423E-08
   46.92000     -4.7841354E-08
   46.98000     -4.9525958E-08
   47.04000     -5.1567380E-08
   47.10000     -5.3912814E-08
   47.16000     -5.6473162E-08
   47.22000     -5.9137975E-08
   47.28000     -6.1796278E-08
   47.34000     -6.4357160E-08
   47.40000     -6.6763093E-08
   47.46000     -6.8991262E-08
   47.52000     -7.1042926E-08
   47.58000     -7.2925793E-08
   47.64000     -7.4637320E-08
   47.70000     -7.6155438E-08
   47.76000     -7.7439466E-08
   47.82000     -7.8439172E-08
   47.88000     -7.9106968E-08
   47.94000     -7.9408686E-08
   48.00000     -7.9330015E-08
   48.06000     -7.8878728E-08
   48.12000     -7.8083346E-08
   48.18000     -7.6989295E-08
   48.24000     -7.5652679E-08
   48.30000     -7.4132181E-08
   48.36000     -7.2480631E-08
   48.42000     -7.0738864E-08
   48.48000     -6.8934398E-08
   48.54000     -6.7085949E-08
   48.60000     -6.5211999E-08
   48.66000     -6.3340167E-08
   48.72000     -6.1513880E-08
   48.78000     -5.9794729E-08
   48.84000     -5.8261250E-08
   48.90000     -5.7006154E-08
   48.96000     -5.6133906E-08
   49.02000     -5.5758882E-08
   49.08000     -5.6003238E-08
   49.14000     -5.6993457E-08
   49.20000     -5.8855978E-08
   49.26000     -6.1714140E-08
   49.32000     -6.5689768E-08
   49.38000     -7.0911504E-08
   49.44000     -7.7529975E-08
   49.50000     -8.5736353E-08
   49.56000     -9.5779477E-08
   49.62000     -1.0797687E-07
   49.68000     -1.2271737E-07
   49.74000     -1.4045719E-07
   49.80000     -1.6171388E-07
   49.86000     -1.8706460E-07
   49.92000     -2.1715306E-07
   49.98000     -2.5270697E-07
   50.04000     -2.9456331E-07
   50.10000     -3.4369600E-07
   50.16000     -4.0124019E-07
   50.22000     -4.6850954E-07
   50.28000     -5.4700678E-07
   50.34000     -6.3843095E-07
   50.40000     -7.4468721E-07
   50.46000     -8.6790374E-07
   50.52000     -1.0104578E-06
   50.58000     -1.1750093E-06
   50.64000     -1.3645383E-06
   50.70000     -1.5823820E-06
   50.76000     -1.8322716E-06
   50.82000     -2.1183669E-06
   50.88000     -2.4452920E-06
   50.94000     -2.8181730E-06
   51.00000     -3.2426769E-06
   51.06000     -3.7250509E-06
   51.12000     -4.2721576E-06
   51.18000     -4.8915117E-06
   51.24000     -5.5913151E-06
   51.30000     -6.3804928E-06
   51.36000     -7.2687349E-06
   51.42000     -8.2665374E-06
   51.48000     -9.3852395E-06
   51.54000     -1.0637043E-05
   51.60000     -1.2035029E-05
   51.66000     -1.3593163E-05
   51.72000     -1.5326299E-05
   51.78000     -1.7250182E-05
   51.84000     -1.9381474E-05
   51.90000     -2.1737755E-05
   51.96000     -2.4337538E-05
   52.02000     -2.7200243E-05
   52.08000     -3.0346142E-05
   52.14000     -3.3796303E-05
   52.20000     -3.7572503E-05
   52.26000     -4.1697145E-05
   52.32000     -4.6193156E-05
   52.38000     -5.1083902E-05
   52.44000     -5.6393048E-05
   52.50000     -6.2144471E-05
   52.56000     -6.8362104E-05
   52.62000     -7.5069802E-05
   52.68000     -8.2291190E-05
   52.74000     -9.0049449E-05
   52.80000     -9.8367149E-05
   52.86000     -1.0726601E-04
   52.92000     -1.1676666E-04
   52.98000     -1.2688839E-04
   53.04000     -1.3764888E-04
   53.10000     -1.4906403E-04
   53.16000     -1.6114769E-04
   53.22000     -1.7391139E-04
   53.28000     -1.8736416E-04
   53.34000     -2.0151224E-04
   53.40000     -2.1635885E-04
   53.46000     -2.3190404E-04
   53.52000     -2.4814444E-04
   53.58000     -2.6507306E-04
   53.64000     -2.8267916E-04
   53.70000     -3.0094796E-04
   53.76000     -3.1986079E-04
   53.82000     -3.3939484E-04
   53.88000     -3.5952311E-04
   53.94000     -3.8021436E-04
   54.00000     -4.0143332E-04
   54.06000     -4.2314059E-04
   54.12000     -4.4529283E-04
   54.18000     -4.6784288E-04
   54.24000     -4.9074000E-04
   54.30000     -5.1392987E-04
   54.36000     -5.3735514E-04
   54.42000     -5.6095549E-04
   54.48000     -5.8466813E-04
   54.54000     -6.0842809E-04
   54.60000     -6.3216884E-04
   54.66000     -6.5582246E-04
   54.72000     -6.7932025E-04
   54.78000     -7.0259330E-04
   54.84000     -7.2557287E-04
   54.90000     -7.4819056E-04
   54.96000     -7.7037956E-04
   55.02000     -7.9207477E-04
   55.08000     -8.1321353E-04
   55.14000     -8.3373592E-04
   55.20000     -8.5358520E-04
   55.26000     -8.7270833E-04
   55.32000     -8.9105585E-04
   55.38000     -9.0858311E-04
   55.44000     -9.2525024E-04
   55.50000     -9.4102300E-04
   55.56000     -9.5587265E-04