  -2.400000      0.0000000E+00
  -2.340000      0.0000000E+00
  -2.280000      0.0000000E+00
  -2.220000      0.0000000E+00
  -2.160000      0.0000000E+00
  -2.100000      0.0000000E+00
  -2.040000      0.0000000E+00
  -1.980000     -1.3564317E-23
  -1.920000     -1.2964485E-22
  -1.860000     -5.7357140E-22
  -1.800000     -1.3907370E-21
  -1.740000     -1.1092603E-21
  -1.680000      5.3328459E-21
  -1.620000      2.6007525E-20
  -1.560000      6.2143927E-20
  -1.500000      8.5950664E-20
  -1.440000      2.0421593E-20
  -1.380000     -2.3943175E-19
  -1.320000     -7.2096674E-19
  -1.260000     -1.1983981E-18
  -1.200000     -1.0827999E-18
  -1.140000      3.8703939E-19
  -1.080000      3.4969098E-18
  -1.020000      7.1614907E-18
 -0.9600000      8.5071067E-18
 -0.9000000      3.8840394E-18
 -0.8400000     -8.3389484E-18
 -0.7800000     -2.4362810E-17
 -0.7200000     -3.3730381E-17
 -0.6600000     -2.3277880E-17
 -0.6000000      1.3288207E-17
 -0.5400000      6.4608444E-17
 -0.4800000      9.8374512E-17
 -0.4200000      7.3627485E-17
 -0.3600000     -3.1252382E-17
 -0.3000000     -1.8780903E-16
 -0.2400000     -3.0702207E-16
 -0.1800000     -2.6928112E-16
 -0.1200000      5.0334499E-18
 -5.9999999E-02  4.7455455E-16
  0.0000000E+00  9.3818883E-16
  5.9999999E-02  1.0859564E-15
  0.1200000      6.4590524E-16
  0.1800000     -4.2790185E-16
  0.2400000     -1.8291018E-15
  0.3000000     -2.9350170E-15
  0.3600000     -3.0392561E-15
  0.4200000     -1.7084909E-15
  0.4800000      9.0153952E-16
  0.5400000      3.9555134E-15
  0.6000000      6.1782676E-15
  0.6600000      6.3757449E-15
  0.7200000      4.0313758E-15
  0.7800000     -3.0563215E-16
  0.8400000     -5.0724348E-15
  0.9000000     -8.2459513E-15
  0.9600000     -8.2316551E-15
   1.020000     -4.7333340E-15
   1.080000      8.1638301E-16
   1.140000      5.5810217E-15
   1.200000      6.4500894E-15
   1.260000      1.6588301E-15
   1.320000     -7.7554133E-15
   1.380000     -1.7464512E-14
   1.440000     -2.0946276E-14
   1.500000     -1.2206436E-14
   1.560000      1.0674447E-14
   1.620000      4.2732755E-14
   1.680000      7.1845836E-14
   1.740000      8.2123720E-14
   1.800000      6.0565363E-14
   1.860000      4.6768302E-15
   1.920000     -7.2584591E-14
   1.980000     -1.4400662E-13
   2.040000     -1.7683941E-13
   2.100000     -1.4694153E-13
   2.160000     -5.2847487E-14
   2.220000      7.7272810E-14
   2.280000      1.9111763E-13
   2.340000      2.3076579E-13
   2.400000      1.5851990E-13
   2.460000     -2.0395786E-14
   2.520000     -2.4944039E-13
   2.580000     -4.3327896E-13
   2.640000     -4.6941200E-13
   2.700000     -2.8831684E-13
   2.760000      1.1341883E-13
   2.820000      6.6073297E-13
   2.880000      1.2140740E-12
   2.940000      1.6043252E-12
   3.000000      1.6749472E-12
   3.060000      1.3165000E-12
   3.120000      4.8567443E-13
   3.180000     -7.8784044E-13
   3.240000     -2.3949957E-12
   3.300000     -4.1309781E-12
   3.360000     -5.6706289E-12
   3.420000     -6.5559854E-12
   3.480000     -6.2296986E-12
   3.540000     -4.1448628E-12
   3.600000      4.3569874E-14
   3.660000      6.2424796E-12
   3.720000      1.3717673E-11
   3.780000      2.1022671E-11
   3.840000      2.6139516E-11
   3.900000      2.6854744E-11
   3.960000      2.1313800E-11
   4.020000      8.6241144E-12
   4.080000     -1.0659046E-11
   4.140000     -3.4312764E-11
   4.200000     -5.8575908E-11
   4.260000     -7.8622608E-11
   4.320000     -8.9296383E-11
   4.380000     -8.5979023E-11
   4.440000     -6.5467638E-11
   4.500000     -2.6758070E-11
   4.560000      2.8342452E-11
   4.620000      9.4847352E-11
   4.680000      1.6455887E-10
   4.740000      2.2648194E-10
   4.800000      2.6777733E-10
   4.860000      2.7527375E-10
   4.920000      2.3742930E-10
   4.980000      1.4647863E-10
   5.040000      3.8377835E-13
   5.100000     -1.9582891E-10
   5.160000     -4.2968268E-10
   5.220000     -6.8197364E-10
   5.280000     -9.2853314E-10
   5.340000     -1.1427508E-09
   5.400000     -1.2984498E-09
   5.460000     -1.3726873E-09
   5.520000     -1.3481296E-09
   5.580000     -1.2147894E-09
   5.640000     -9.7105834E-10
   5.700000     -6.2406846E-10
   5.760000     -1.8945996E-10
   5.820000      3.0939060E-10
   5.880000      8.4267066E-10
   5.940000      1.3760021E-09
   6.000000      1.8729216E-09
   6.060000      2.2979403E-09
   6.120000      2.6200238E-09
   6.180000      2.8161489E-09
   6.240000      2.8744496E-09
   6.300000      2.7963905E-09
   6.360000      2.5974720E-09
   6.420000      2.3062019E-09
   6.480000      1.9613724E-09
   6.540000      1.6080234E-09
   6.600000      1.2927074E-09
   6.660000      1.0587362E-09
   6.720000      9.4198749E-10
   6.780000      9.6763075E-10
   6.840000      1.1479209E-09
   6.900000      1.4810845E-09
   6.960000      1.9513435E-09
   7.020000      2.5301830E-09
   7.080000      3.1790168E-09
   7.140000      3.8532675E-09
   7.200000      4.5075752E-09
   7.260000      5.1014259E-09
   7.320000      5.6041687E-09
   7.380000      5.9983081E-09
   7.440000      6.2802719E-09
   7.500000      6.4584778E-09
   7.560000      6.5492705E-09
   7.620000      6.5718968E-09
   7.680000      6.5438805E-09
   7.740000      6.4779035E-09
   7.800000      6.3806667E-09
   7.860000      6.2534977E-09
   7.920000      6.0939476E-09
   7.980000      5.8974972E-09
   8.040000      5.6587695E-09
   8.100000      5.3721525E-09
   8.160000      5.0322146E-09
   8.220000      4.6344977E-09
   8.280000      4.1771191E-09
   8.340000      3.6631509E-09
   8.400000      3.1031924E-09
   8.460000      2.5171922E-09
   8.520000      1.9345461E-09
   8.580000      1.3918816E-09
   8.640000      9.2861913E-10
   8.700000      5.8114163E-10
   8.760000      3.7694933E-10
   8.820000      3.3031441E-10
   8.880000      4.4058668E-10
   8.940000      6.9353584E-10
   9.000000      1.0651725E-09
   9.060000      1.5267362E-09
   9.120000      2.0492594E-09
   9.180000      2.6064657E-09
   9.240000      3.1756247E-09
   9.300000      3.7369818E-09
   9.360000      4.2730495E-09
   9.420000      4.7690043E-09
   9.480000      5.2146629E-09
   9.540000      5.6073466E-09
   9.600000      5.9539822E-09
   9.660000      6.2706467E-09
   9.720000      6.5785750E-09
   9.780000      6.8972370E-09
   9.840000      7.2366535E-09
   9.900000      7.5919218E-09
   9.960000      7.9424947E-09
   10.02000      8.2571185E-09
   10.08000      8.5032070E-09
   10.14000      8.6576337E-09
   10.20000      8.7152543E-09
   10.26000      8.6922149E-09
   10.32000      8.6229504E-09
   10.38000      8.5519929E-09
   10.44000      8.5234868E-09
   10.50000      8.5719645E-09
   10.56000      8.7172491E-09
   10.62000      8.9647090E-09
   10.68000      9.3099226E-09
   10.74000      9.7452126E-09
   10.80000      1.0264871E-08
   10.86000      1.0866661E-08
   10.92000      1.1549045E-08
   10.98000      1.2305620E-08
   11.04000      1.3119799E-08
   11.10000      1.3962794E-08
   11.16000      1.4796450E-08
   11.22000      1.5580222E-08
   11.28000      1.6279364E-08
   11.34000      1.6870612E-08
   11.40000      1.7342687E-08
   11.46000      1.7691303E-08
   11.52000      1.7911125E-08
   11.58000      1.7988789E-08
   11.64000      1.7900749E-08
   11.70000      1.7617667E-08
   11.76000      1.7114024E-08
   11.82000      1.6379181E-08
   11.88000      1.5425318E-08
   11.94000      1.4288860E-08
   12.00000      1.3024609E-08
   12.06000      1.1694635E-08
   12.12000      1.0355834E-08
   12.18000      9.0502859E-09
   12.24000      7.8012405E-09
   12.30000      6.6152537E-09
   12.36000      5.4888929E-09
   12.42000      4.4170685E-09
   12.48000      3.3999359E-09
   12.54000      2.4462576E-09
   12.60000      1.5726074E-09
   12.66000      7.9930457E-10
   12.72000      1.4493086E-10
   12.78000     -3.7851619E-10
   12.84000     -7.6829659E-10
   12.90000     -1.0308723E-09
   12.96000     -1.1796099E-09
   13.02000     -1.2314423E-09
   13.08000     -1.2038459E-09
   13.14000     -1.1130600E-09
   13.20000     -9.7368436E-10
   13.26000     -7.9904150E-10
   13.32000     -6.0132388E-10
   13.38000     -3.9080675E-10
   13.44000     -1.7415815E-10
   13.50000      4.7240718E-11
   13.56000      2.7757330E-10
   13.62000      5.2437282E-10
   13.68000      7.9381529E-10
   13.74000      1.0849653E-09
   13.80000      1.3854761E-09
   13.86000      1.6712498E-09
   13.92000      1.9112805E-09
   13.98000      2.0767363E-09
   14.04000      2.1512618E-09
   14.10000      2.1384816E-09
   14.16000      2.0634214E-09
   14.22000      1.9668001E-09
   14.28000      1.8939688E-09
   14.34000      1.8824207E-09
   14.40000      1.9523054E-09
   14.46000      2.1030770E-09
   14.52000      2.3169300E-09
   14.58000      2.5671729E-09
   14.64000      2.8281832E-09
   14.70000      3.0835341E-09
   14.76000      3.3300496E-09
   14.82000      3.5772225E-09
   14.88000      3.8429069E-09
   14.94000      4.1470369E-09
   15.00000      4.5053210E-09
   15.06000      4.9245648E-09
   15.12000      5.4007376E-09
   15.18000      5.9201430E-09
   15.24000      6.4632779E-09
   15.30000      7.0101671E-09
   15.36000      7.5455784E-09
   15.42000      8.0626377E-09
   15.48000      8.5641192E-09
   15.54000      9.0616439E-09
   15.60000      9.5737711E-09
   15.66000      1.0123982E-08
   15.72000      1.0738946E-08
   15.78000      1.1446654E-08
   15.84000      1.2273611E-08
   15.90000      1.3240705E-08
   15.96000      1.4358420E-08
   16.02000      1.5623019E-08
   16.08000      1.7015598E-08
   16.14000      1.8504990E-08
   16.20000      2.0053955E-08
   16.26000      2.1626571E-08
   16.32000      2.3194223E-08
   16.38000      2.4738194E-08
   16.44000      2.6248321E-08
   16.50000      2.7718778E-08
   16.56000      2.9142841E-08
   16.62000      3.0508556E-08
   16.68000      3.1796482E-08
   16.74000      3.2979926E-08
   16.80000      3.4027384E-08
   16.86000      3.4906698E-08
   16.92000      3.5590084E-08
   16.98000      3.6059038E-08
   17.04000      3.6307956E-08
   17.10000      3.6345266E-08
   17.16000      3.6191587E-08
   17.22000      3.5875118E-08
   17.28000      3.5425604E-08
   17.34000      3.4868528E-08
   17.40000      3.4221213E-08
   17.46000      3.3491627E-08
   17.52000      3.2679957E-08
   17.58000      3.1782172E-08
   17.64000      3.0794528E-08
   17.70000      2.9717880E-08
   17.76000      2.8560796E-08
   17.82000      2.7340535E-08
   17.88000      2.6081340E-08
   17.94000      2.4810058E-08
   18.00000      2.3549996E-08
   18.06000      2.2314797E-08
   18.12000      2.1104510E-08
   18.18000      1.9905606E-08
   18.24000      1.8695424E-08
   18.30000      1.7449967E-08
   18.36000      1.6152576E-08
   18.42000      1.4800617E-08
   18.48000      1.3407913E-08
   18.54000      1.2002133E-08
   18.60000      1.0617965E-08
   18.66000      9.2883683E-09
   18.72000      8.0367100E-09
   18.78000      6.8723205E-09
   18.84000      5.7907679E-09
   18.90000      4.7785012E-09
   18.96000      3.8198760E-09
   19.02000      2.9036322E-09
   19.08000      2.0260740E-09
   19.14000      1.1896157E-09
   19.20000      3.9750170E-10
   19.26000     -3.5259903E-10
   19.32000     -1.0727089E-09
   19.38000     -1.7839449E-09
   19.44000     -2.5110798E-09
   19.50000     -3.2746184E-09
   19.56000     -4.0841175E-09
   19.62000     -4.9359650E-09
   19.68000     -5.8166254E-09
   19.74000     -6.7096426E-09
   19.80000     -7.6028366E-09
   19.86000     -8.4921075E-09
   19.92000     -9.3800177E-09
   19.98000     -1.0269858E-08
   20.04000     -1.1157975E-08
   20.10000     -1.2027793E-08
   20.16000     -1.2848069E-08
   20.22000     -1.3576155E-08
   20.28000     -1.4165208E-08
   20.34000     -1.4573168E-08
   20.40000     -1.4771080E-08
   20.46000     -1.4748800E-08
   20.52000     -1.4516987E-08
   20.58000     -1.4105290E-08
   20.64000     -1.3557549E-08
   20.70000     -1.2925517E-08
   20.76000     -1.2262878E-08
   20.82000     -1.1620911E-08
   20.88000     -1.1046232E-08
   20.94000     -1.0579969E-08
   21.00000     -1.0256992E-08
   21.06000     -1.0104021E-08
   21.12000     -1.0136340E-08
   21.18000     -1.0354178E-08
   21.24000     -1.0740578E-08
   21.30000     -1.1262423E-08
   21.36000     -1.1875081E-08
   21.42000     -1.2529577E-08
   21.48000     -1.3180023E-08
   21.54000     -1.3788981E-08
   21.60000     -1.4329338E-08
   21.66000     -1.4782839E-08
   21.72000     -1.5136676E-08
   21.78000     -1.5380106E-08
   21.84000     -1.5502604E-08
   21.90000     -1.5494050E-08
   21.96000     -1.5346400E-08
   22.02000     -1.5055537E-08
   22.08000     -1.4622271E-08
   22.14000     -1.4051984E-08
   22.20000     -1.3353471E-08
   22.26000     -1.2538103E-08
   22.32000     -1.1620386E-08
   22.38000     -1.0620172E-08
   22.44000     -9.5655208E-09
   22.50000     -8.4942586E-09
   22.56000     -7.4522690E-09
   22.62000     -6.4877046E-09
   22.68000     -5.6422280E-09
   22.74000     -4.9421165E-09
   22.80000     -4.3925450E-09
   22.86000     -3.9772536E-09
   22.92000     -3.6635019E-09
   22.98000     -3.4099747E-09
   23.04000     -3.1743379E-09
   23.10000     -2.9180018E-09
   23.16000     -2.6077318E-09
   23.22000     -2.2158133E-09
   23.28000     -1.7211436E-09
   23.34000     -1.1125421E-09
   23.40000     -3.9337858E-10
   23.46000      4.1520590E-10
   23.52000      1.2754229E-09
   23.58000      2.1395201E-09
   23.64000      2.9604765E-09
   23.70000      3.7028745E-09
   23.76000      4.3496144E-09
   23.82000      4.9017532E-09
   23.88000      5.3716662E-09
   23.94000      5.7725322E-09
   24.00000      6.1084924E-09
   24.06000      6.3693095E-09
   24.12000      6.5313071E-09
   24.18000      6.5638766E-09
   24.24000      6.4389516E-09
   24.30000      6.1401439E-09
   24.36000      5.6687779E-09
   24.42000      5.0453721E-09
   24.48000      4.3066950E-09
   24.54000      3.4997825E-09
   24.60000      2.6749587E-09
   24.66000      1.8798374E-09
   24.72000      1.1556178E-09
   24.78000      5.3597121E-10
   24.84000      4.7812927E-11
   24.90000     -2.8732178E-10
   24.96000     -4.5260187E-10
   25.02000     -4.3666043E-10
   25.08000     -2.3571303E-10
   25.14000      1.4375884E-10
   25.20000      6.8287564E-10
   25.26000      1.3497630E-09
   25.32000      2.1010023E-09
   25.38000      2.8851406E-09
   25.44000      3.6478349E-09
   25.50000      4.3379473E-09
   25.56000      4.9137459E-09
   25.62000      5.3482170E-09
   25.68000      5.6324723E-09
   25.74000      5.7764136E-09
   25.80000      5.8063443E-09
   25.86000      5.7599516E-09
   25.92000      5.6798481E-09
   25.98000      5.6072218E-09
   26.04000      5.5769691E-09
   26.10000      5.6149756E-09
   26.16000      5.7373577E-09
   26.22000      5.9508718E-09
   26.28000      6.2536492E-09
   26.34000      6.6358155E-09
   26.40000      7.0801427E-09
   26.46000      7.5632158E-09
   26.52000      8.0575102E-09
   26.58000      8.5344007E-09
   26.64000      8.9676941E-09
   26.70000      9.3370538E-09
   26.76000      9.6308161E-09
   26.82000      9.8478097E-09
   26.88000      9.9978825E-09
   26.94000      1.0100790E-08
   27.00000      1.0183103E-08
   27.06000      1.0273168E-08
   27.12000      1.0394980E-08
   27.18000      1.0562696E-08
   27.24000      1.0777962E-08
   27.30000      1.1031622E-08
   27.36000      1.1309802E-08
   27.42000      1.1602237E-08
   27.48000      1.1909293E-08
   27.54000      1.2244106E-08
   27.60000      1.2628103E-08
   27.66000      1.3081146E-08
   27.72000      1.3610269E-08
   27.78000      1.4202227E-08
   27.84000      1.4823845E-08
   27.90000      1.5430986E-08
   27.96000      1.5982994E-08
   28.02000      1.6456708E-08
   28.08000      1.6853836E-08
   28.14000      1.7198129E-08
   28.20000      1.7523115E-08
   28.26000      1.7855440E-08
   28.32000      1.8200938E-08
   28.38000      1.8539405E-08
   28.44000      1.8830232E-08
   28.50000      1.9026212E-08
   28.56000      1.9089438E-08
   28.62000      1.9002693E-08
   28.68000      1.8772242E-08
   28.74000      1.8422115E-08
   28.80000      1.7983549E-08
   28.86000      1.7484721E-08
   28.92000      1.6944623E-08
   28.98000      1.6372157E-08
   29.04000      1.5768888E-08
   29.10000      1.5132784E-08
   29.16000      1.4460934E-08
   29.22000      1.3750966E-08
   29.28000      1.3002163E-08
   29.34000      1.2217320E-08
   29.40000      1.1405300E-08
   29.46000      1.0582868E-08
   29.52000      9.7739044E-09
   29.58000      9.0049888E-09
   29.64000      8.2982892E-09
   29.70000      7.6644486E-09
   29.76000      7.0987722E-09
   29.82000      6.5828663E-09
   29.88000      6.0915668E-09
   29.94000      5.6026073E-09
   30.00000      5.1052069E-09
   30.06000      4.6042543E-09
   30.12000      4.1187111E-09
   30.18000      3.6753427E-09
   30.24000      3.3006591E-09
   30.30000      3.0143765E-09
   30.36000      2.8266631E-09
   30.42000      2.7396241E-09
   30.48000      2.7517737E-09
   30.54000      2.8633400E-09
   30.60000      3.0803151E-09
   30.66000      3.4158947E-09
   30.72000      3.8888719E-09
   30.78000      4.5193098E-09
   30.84000      5.3224243E-09
   30.90000      6.3021601E-09
   30.96000      7.4464368E-09
   31.02000      8.7261371E-09
   31.08000      1.0099162E-08
   31.14000      1.1519130E-08
   31.20000      1.2946030E-08
   31.26000      1.4354548E-08
   31.32000      1.5736006E-08
   31.38000      1.7092370E-08
   31.44000      1.8424613E-08
   31.50000      1.9721087E-08
   31.56000      2.0952317E-08
   31.62000      2.2075989E-08
   31.68000      2.3051053E-08
   31.74000      2.3854975E-08
   31.80000      2.4496130E-08
   31.86000      2.5015176E-08
   31.92000      2.5474263E-08
   31.98000      2.5938446E-08
   32.04000      2.6456894E-08
   32.10000      2.7051072E-08
   32.16000      2.7713433E-08
   32.22000      2.8415494E-08
   32.28000      2.9120891E-08
   32.34000      2.9798356E-08
   32.40000      3.0431035E-08
   32.46000      3.1021003E-08
   32.52000      3.1589362E-08
   32.58000      3.2172803E-08
   32.64000      3.2817020E-08
   32.70000      3.3567225E-08
   32.76000      3.4456917E-08
   32.82000      3.5497187E-08
   32.88000      3.6669917E-08
   32.94000      3.7927709E-08
   33.00000      3.9201122E-08
   33.06000      4.0411070E-08
   33.12000      4.1481925E-08
   33.18000      4.2350809E-08
   33.24000      4.2970527E-08
   33.30000      4.3306692E-08
   33.36000      4.3332467E-08
   33.42000      4.3024833E-08
   33.48000      4.2365169E-08
   33.54000      4.1343831E-08
   33.60000      3.9966192E-08
   33.66000      3.8256584E-08
   33.72000      3.6257845E-08
   33.78000      3.4026396E-08
   33.84000      3.1624776E-08
   33.90000      2.9114041E-08
   33.96000      2.6547710E-08
   34.02000      2.3967164E-08
   34.08000      2.1397955E-08
   34.14000      1.8846812E-08
   34.20000      1.6300739E-08
   34.26000      1.3730430E-08
   34.32000      1.1099444E-08
   34.38000      8.3779339E-09
   34.44000      5.5565761E-09
   34.50000      2.6548606E-09
   34.56000     -2.8059632E-10
   34.62000     -3.1876752E-09
   34.68000     -6.0052732E-09
   34.74000     -8.6869569E-09
   34.80000     -1.1205398E-08
   34.86000     -1.3546396E-08
   34.92000     -1.5697385E-08
   34.98000     -1.7638737E-08
   35.04000     -1.9344718E-08
   35.10000     -2.0794978E-08
   35.16000     -2.1990546E-08
   35.22000     -2.2964352E-08
   35.28000     -2.3778183E-08
   35.34000     -2.4504967E-08
   35.40000     -2.5203581E-08
   35.46000     -2.5898286E-08
   35.52000     -2.6573305E-08
   35.58000     -2.7185582E-08
   35.64000     -2.7689316E-08
   35.70000     -2.8059802E-08
   35.76000     -2.8304694E-08
   35.82000     -2.8457782E-08
   35.88000     -2.8559738E-08
   35.94000     -2.8636837E-08
   36.00000     -2.8688952E-08
   36.06000     -2.8692225E-08
   36.12000     -2.8613650E-08
   36.18000     -2.8428802E-08
   36.24000     -2.8133528E-08
   36.30000     -2.7744973E-08
   36.36000     -2.7293837E-08
   36.42000     -2.6813931E-08
   36.48000     -2.6335172E-08
   36.54000     -2.5882226E-08
   36.60000     -2.5476727E-08
   36.66000     -2.5138716E-08
   36.72000     -2.4884480E-08
   36.78000     -2.4721354E-08
   36.84000     -2.4643214E-08
   36.90000     -2.4630566E-08
   36.96000     -2.4656568E-08
   37.02000     -2.4696625E-08
   37.08000     -2.4736927E-08
   37.14000     -2.4777826E-08
   37.20000     -2.4830936E-08
   37.26000     -2.4912170E-08
   37.32000     -2.5034590E-08
   37.38000     -2.5204152E-08
   37.44000     -2.5419084E-08
   37.50000     -2.5671472E-08
   37.56000     -2.5949015E-08
   37.62000     -2.6236156E-08
   37.68000     -2.6515334E-08
   37.74000     -2.6769797E-08
   37.80000     -2.6988197E-08
   37.86000     -2.7169138E-08
   37.92000     -2.7322226E-08
   37.98000     -2.7462947E-08
   38.04000     -2.7601626E-08
   38.10000     -2.7730705E-08
   38.16000     -2.7817078E-08
   38.22000     -2.7805244E-08
   38.28000     -2.7632550E-08
   38.34000     -2.7251696E-08
   38.40000     -2.6651030E-08
   38.46000     -2.5862949E-08
   38.52000     -2.4955431E-08
   38.58000     -2.4009505E-08
   38.64000     -2.3092401E-08
   38.70000     -2.2238593E-08
   38.76000     -2.1447381E-08
   38.82000     -2.0697669E-08
   38.88000     -1.9972115E-08
   38.94000     -1.9278199E-08
   39.00000     -1.8655427E-08
   39.06000     -1.8164769E-08
   39.12000     -1.7865183E-08
   39.18000     -1.7788190E-08
   39.24000     -1.7922030E-08
   39.30000     -1.8212127E-08
   39.36000     -1.8577015E-08
   39.42000     -1.8932401E-08
   39.48000     -1.9213486E-08
   39.54000     -1.9387636E-08
   39.60000     -1.9454410E-08
   39.66000     -1.9435209E-08
   39.72000     -1.9358218E-08
   39.78000     -1.9244819E-08
   39.84000     -1.9101915E-08
   39.90000     -1.8921787E-08
   39.96000     -1.8688281E-08
   40.02000     -1.8386366E-08
   40.08000     -1.8011214E-08
   40.14000     -1.7573365E-08
   40.20000     -1.7097875E-08
   40.26000     -1.6617470E-08
   40.32000     -1.6162097E-08
   40.38000     -1.5748959E-08
   40.44000     -1.5377283E-08
   40.50000     -1.5030485E-08
   40.56000     -1.4685195E-08
   40.62000     -1.4323518E-08
   40.68000     -1.3943163E-08
   40.74000     -1.3560792E-08
   40.80000     -1.3206942E-08
   40.86000     -1.2914789E-08
   40.92000     -1.2707967E-08
   40.98000     -1.2593049E-08
   41.04000     -1.2560002E-08
   41.10000     -1.2589959E-08
   41.16000     -1.2666153E-08
   41.22000     -1.2782465E-08
   41.28000     -1.2945572E-08
   41.34000     -1.3170134E-08
   41.40000     -1.3470038E-08
   41.46000     -1.3850557E-08
   41.52000     -1.4305470E-08
   41.58000     -1.4820304E-08
   41.64000     -1.5379554E-08
   41.70000     -1.5973759E-08
   41.76000     -1.6602625E-08
   41.82000     -1.7272633E-08
   41.88000     -1.7990487E-08
   41.94000     -1.8755767E-08
   42.00000     -1.9556330E-08
   42.06000     -2.0368583E-08
   42.12000     -2.1162480E-08
   42.18000     -2.1909242E-08
   42.24000     -2.2589088E-08
   42.30000     -2.3196598E-08
   42.36000     -2.3742377E-08
   42.42000     -2.4250816E-08
   42.48000     -2.4754465E-08
   42.54000     -2.5286070E-08
   42.60000     -2.5869863E-08
   42.66000     -2.6514002E-08
   42.72000     -2.7206482E-08
   42.78000     -2.7916405E-08
   42.84000     -2.8601388E-08
   42.90000     -2.9219898E-08
   42.96000     -2.9745090E-08
   43.02000     -3.0175400E-08
   43.08000     -3.0537393E-08
   43.14000     -3.0878674E-08
   43.20000     -3.1252277E-08
   43.26000     -3.1697684E-08
   43.32000     -3.2225547E-08
   43.38000     -3.2812441E-08
   43.44000     -3.3408263E-08
   43.50000     -3.3953661E-08
   43.56000     -3.4400724E-08
   43.62000     -3.4728551E-08
   43.68000     -3.4947639E-08
   43.74000     -3.5091919E-08
   43.80000     -3.5202696E-08
   43.86000     -3.5311785E-08
   43.92000     -3.5430819E-08
   43.98000     -3.5550016E-08
   44.04000     -3.5645265E-08
   44.10000     -3.5689091E-08
   44.16000     -3.5660662E-08
   44.22000     -3.5552098E-08
   44.28000     -3.5370839E-08
   44.34000     -3.5139404E-08
   44.40000     -3.4893421E-08
   44.46000     -3.4677218E-08
   44.52000     -3.4535447E-08
   44.58000     -3.4500498E-08
   44.64000     -3.4578235E-08
   44.70000     -3.4737560E-08
   44.76000     -3.4909817E-08
   44.82000     -3.5001186E-08
   44.88000     -3.4915786E-08
   44.94000     -3.4582083E-08
   45.00000     -3.3972821E-08
   45.06000     -3.3110933E-08
   45.12000     -3.2059518E-08
   45.18000     -3.0900306E-08
   45.24000     -2.9709080E-08
   45.30000     -2.8536746E-08
   45.36000     -2.7401487E-08
   45.42000     -2.6292593E-08
   45.48000     -2.5182704E-08
   45.54000     -2.4043151E-08
   45.60000     -2.2857373E-08
   45.66000     -2.1628770E-08
   45.72000     -2.0381405E-08
   45.78000     -1.9153630E-08
   45.84000     -1.7986606E-08
   45.90000     -1.6911267E-08
   45.96000     -1.5938193E-08
   46.02000     -1.5054612E-08
   46.08000     -1.4230752E-08
   46.14000     -1.3434494E-08
   46.20000     -1.2649760E-08
   46.26000     -1.1891822E-08
   46.32000     -1.1212862E-08
   46.38000     -1.0693889E-08
   46.44000     -1.0423821E-08
   46.50000     -1.0471628E-08
   46.56000     -1.0860975E-08
   46.62000     -1.1557233E-08
   46.68000     -1.2473289E-08
   46.74000     -1.3493968E-08
   46.80000     -1.4511236E-08
   46.86000     -1.5457085E-08
   46.92000     -1.6320719E-08
   46.98000     -1.7142513E-08
   47.04000     -1.7987194E-08
   47.10000     -1.8908233E-08
   47.16000     -1.9919826E-08
   47.22000     -2.0989351E-08
   47.28000     -2.2053127E-08
   47.34000     -2.3046713E-08
   47.40000     -2.3933929E-08
   47.46000     -2.4720118E-08
   47.52000     -2.5443915E-08
   47.58000     -2.6153481E-08
   47.64000     -2.6880826E-08
   47.70000     -2.7627944E-08
   47.76000     -2.8371025E-08
   47.82000     -2.9078697E-08
   47.88000     -2.9732908E-08
   47.94000     -3.0340495E-08
   48.00000     -3.0929410E-08
   48.06000     -3.1532196E-08
   48.12000     -3.2165644E-08
   48.18000     -3.2816622E-08
   48.24000     -3.3439733E-08
   48.30000     -3.3965897E-08
   48.36000     -3.4315867E-08
   48.42000     -3.4411489E-08
   48.48000     -3.4180044E-08
   48.54000     -3.3551672E-08
   48.60000     -3.2453411E-08
   48.66000     -3.0804237E-08
   48.72000     -2.8513735E-08
   48.78000     -2.5483605E-08
   48.84000     -2.1608706E-08
   48.90000     -1.6773788E-08
   48.96000     -1.0843961E-08
   49.02000     -3.6499428E-09
   49.08000      5.0283702E-09
   49.14000      1.5475921E-08
   49.20000      2.8051698E-08
   49.26000      4.3193420E-08
   49.32000      6.1420451E-08
   49.38000      8.3338215E-08
   49.44000      1.0964646E-07
   49.50000      1.4115207E-07
   49.56000      1.7878571E-07
   49.62000      2.2362222E-07
   49.68000      2.7690518E-07
   49.74000      3.4007704E-07
   49.80000      4.1481536E-07
   49.86000      5.0307386E-07
   49.92000      6.0712586E-07
   49.98000      7.2960739E-07
   50.04000      8.7355920E-07
   50.10000      1.0424694E-06
   50.16000      1.2403211E-06
   50.22000      1.4716478E-06
   50.28000      1.7415982E-06
   50.34000      2.0560083E-06
   50.40000      2.4214767E-06
   50.46000      2.8454438E-06
   50.52000      3.3362721E-06
   50.58000      3.9033366E-06
   50.64000      4.5571223E-06
   50.70000      5.3093377E-06
   50.76000      6.1730320E-06
   50.82000      7.1627233E-06
   50.88000      8.2945189E-06
   50.94000      9.5862406E-06
   51.00000      1.1057547E-05
   51.06000      1.2730065E-05
   51.12000      1.4627527E-05
   51.18000      1.6775906E-05
   51.24000      1.9203579E-05
   51.30000      2.1941452E-05
   51.36000      2.5023121E-05
   51.42000      2.8484968E-05
   51.48000      3.2366301E-05
   51.54000      3.6709433E-05
   51.60000      4.1559771E-05
   51.66000      4.6965881E-05
   51.72000      5.2979551E-05
   51.78000      5.9655817E-05
   51.84000      6.7053006E-05
   51.90000      7.5232711E-05
   51.96000      8.4259780E-05
   52.02000      9.4202253E-05
   52.08000      1.0513122E-04
   52.14000      1.1712073E-04
   52.20000      1.3024756E-04
   52.26000      1.4459102E-04
   52.32000      1.6023256E-04
   52.38000      1.7725560E-04
   52.44000      1.9574501E-04
   52.50000      2.1578683E-04
   52.56000      2.3746774E-04
   52.62000      2.6087460E-04
   52.68000      2.8609385E-04
   52.74000      3.1321094E-04
   52.80000      3.4230953E-04
   52.86000      3.7347100E-04
   52.92000      4.0677350E-04
   52.98000      4.4229135E-04
   53.04000      4.8009423E-04
   53.10000      5.2024639E-04
   53.16000      5.6280597E-04
   53.22000      6.0782395E-04
   53.28000      6.5534341E-04
   53.34000      7.0539891E-04
   53.40000      7.5801561E-04
   53.46000      8.1320835E-04
   53.52000      8.7098114E-04
   53.58000      9.3132671E-04
   53.64000      9.9422561E-04
   53.70000      1.0596459E-03
   53.76000      1.1275423E-03
   53.82000      1.1978569E-03
   53.88000      1.2705174E-03
   53.94000      1.3454384E-03
   54.00000      1.4225210E-03
   54.06000      1.5016518E-03
   54.12000      1.5827053E-03
   54.18000      1.6655424E-03
   54.24000      1.7500113E-03
   54.30000      1.8359489E-03
   54.36000      1.9231808E-03
   54.42000      2.0115220E-03
   54.48000      2.1007780E-03
   54.54000      2.1907468E-03
   54.60000      2.2812195E-03
   54.66000      2.3719808E-03
   54.72000      2.4628122E-03
   54.78000      2.5534907E-03
   54.84000      2.6437924E-03
   54.90000      2.7334935E-03
   54.96000      2.8223710E-03
   55.02000      2.9102059E-03
   55.08000      2.9967835E-03
   55.14000      3.0818952E-03
   55.20000      3.1653396E-03
   55.26000      3.2469239E-03
   55.32000      3.3264651E-03
   55.38000      3.4037917E-03
   55.44000      3.4787436E-03
   55.50000      3.5511749E-03
   55.56000      3.6209533E-03