  -2.400000      0.0000000E+00
  -2.340000      0.0000000E+00
  -2.280000      0.0000000E+00
  -2.220000      0.0000000E+00
  -2.160000      0.0000000E+00
  -2.100000      9.9036350E-19
  -2.040000      8.0058378E-18
  -1.980000      3.2991566E-17
  -1.920000      8.9361413E-17
  -1.860000      1.6790734E-16
  -1.800000      1.9481005E-16
  -1.740000      1.8905571E-18
  -1.680000     -6.2697426E-16
  -1.620000     -1.7718939E-15
  -1.560000     -3.0805254E-15
  -1.500000     -3.5526828E-15
  -1.440000     -1.7414607E-15
  -1.380000      3.3751898E-15
  -1.320000      1.1041910E-14
  -1.260000      1.7751349E-14
  -1.200000      1.7900908E-14
  -1.140000      6.8230990E-15
  -1.080000     -1.4691748E-14
  -1.020000     -3.7267522E-14
 -0.9600000     -4.4888372E-14
 -0.9000000     -2.3661186E-14
 -0.8400000      2.5527574E-14
 -0.7800000      7.8393902E-14
 -0.7200000      9.1983028E-14
 -0.6600000      2.6733918E-14
 -0.6000000     -1.2128963E-13
 -0.5400000     -2.9638173E-13
 -0.4800000     -3.8866461E-13
 -0.4200000     -2.7929886E-13
 -0.3600000      8.6924825E-14
 -0.3000000      6.3687754E-13
 -0.2400000      1.1555373E-12
 -0.1800000      1.3501253E-12
 -0.1200000      9.8052209E-13
 -5.9999999E-02  3.1380243E-15
  0.0000000E+00 -1.3456139E-12
  5.9999999E-02 -2.5845183E-12
  0.1200000     -3.1498322E-12
  0.1800000     -2.6309055E-12
  0.2400000     -9.8214449E-13
  0.3000000      1.3865664E-12
  0.3600000      3.6946258E-12
  0.4200000      5.0346376E-12
  0.4800000      4.6957017E-12
  0.5400000      2.4549677E-12
  0.6000000     -1.2634919E-12
  0.6600000     -5.4212346E-12
  0.7200000     -8.5934385E-12
  0.7800000     -9.3460708E-12
  0.8400000     -6.6779113E-12
  0.9000000     -4.1828043E-13
  0.9600000      8.5383913E-12
   1.020000      1.8265516E-11
   1.080000      2.6158168E-11
   1.140000      2.9569916E-11
   1.200000      2.6582108E-11
   1.260000      1.6665004E-11
   1.320000      9.7714924E-13
   1.380000     -1.7851106E-11
   1.440000     -3.6405771E-11
   1.500000     -5.1382704E-11
   1.560000     -6.0287254E-11
   1.620000     -6.1597456E-11
   1.680000     -5.4316929E-11
   1.740000     -3.7232915E-11
   1.800000     -8.5130783E-12
   1.860000      3.3685506E-11
   1.920000      8.9276968E-11
   1.980000      1.5333211E-10
   2.040000      2.1326349E-10
   2.100000      2.4757360E-10
   2.160000      2.2739259E-10
   2.220000      1.2113259E-10
   2.280000     -9.8676942E-11
   2.340000     -4.4838874E-10
   2.400000     -9.2843605E-10
   2.460000     -1.5224429E-09
   2.520000     -2.2004969E-09
   2.580000     -2.9251817E-09
   2.640000     -3.6578784E-09
   2.700000     -4.3628927E-09
   2.760000     -5.0081441E-09
   2.820000     -5.5629714E-09
   2.880000     -5.9951288E-09
   2.940000     -6.2695631E-09
   3.000000     -6.3507102E-09
   3.060000     -6.2082761E-09
   3.120000     -5.8245773E-09
   3.180000     -5.2004747E-09
   3.240000     -4.3572785E-09
   3.300000     -3.3335972E-09
   3.360000     -2.1782169E-09
   3.420000     -9.4174246E-10
   3.480000      3.2985881E-10
   3.540000      1.5976938E-09
   3.600000      2.8282132E-09
   3.660000      3.9891819E-09
   3.720000      5.0463589E-09
   3.780000      5.9636438E-09
   3.840000      6.7079040E-09
   3.900000      7.2575128E-09
   3.960000      7.6117086E-09
   4.020000      7.7970546E-09
   4.080000      7.8678921E-09
   4.140000      7.8995530E-09
   4.200000      7.9755260E-09
   4.260000      8.1719520E-09
   4.320000      8.5438323E-09
   4.380000      9.1169321E-09
   4.440000      9.8875104E-09
   4.500000      1.0829511E-08
   4.560000      1.1906383E-08
   4.620000      1.3083338E-08
   4.680000      1.4335956E-08
   4.740000      1.5652667E-08
   4.800000      1.7031155E-08
   4.860000      1.8471145E-08
   4.920000      1.9967391E-08
   4.980000      2.1506406E-08
   5.040000      2.3068631E-08
   5.100000      2.4634996E-08
   5.160000      2.6194641E-08
   5.220000      2.7749685E-08
   5.280000      2.9314112E-08
   5.340000      3.0906605E-08
   5.400000      3.2540196E-08
   5.460000      3.4213638E-08
   5.520000      3.5909004E-08
   5.580000      3.7597630E-08
   5.640000      3.9252402E-08
   5.700000      4.0861298E-08
   5.760000      4.2435762E-08
   5.820000      4.4009418E-08
   5.880000      4.5626653E-08
   5.940000      4.7325095E-08
   6.000000      4.9119084E-08
   6.060000      5.0990927E-08
   6.120000      5.2893547E-08
   6.180000      5.4763348E-08
   6.240000      5.6537822E-08
   6.300000      5.8170631E-08
   6.360000      5.9638403E-08
   6.420000      6.0937339E-08
   6.480000      6.2072090E-08
   6.540000      6.3042563E-08
   6.600000      6.3834563E-08
   6.660000      6.4418067E-08
   6.720000      6.4753266E-08
   6.780000      6.4801107E-08
   6.840000      6.4533673E-08
   6.900000      6.3940178E-08
   6.960000      6.3026889E-08
   7.020000      6.1812187E-08
   7.080000      6.0319863E-08
   7.140000      5.8574130E-08
   7.200000      5.6598346E-08
   7.260000      5.4417320E-08
   7.320000      5.2061083E-08
   7.380000      4.9567465E-08
   7.440000      4.6981626E-08
   7.500000      4.4352511E-08
   7.560000      4.1727613E-08
   7.620000      3.9148354E-08
   7.680000      3.6647570E-08
   7.740000      3.4249453E-08
   7.800000      3.1970931E-08
   7.860000      2.9823184E-08
   7.920000      2.7812355E-08
   7.980000      2.5939478E-08
   8.040000      2.4200272E-08
   8.100000      2.2585544E-08
   8.160000      2.1082300E-08
   8.220000      1.9675111E-08
   8.280000      1.8347151E-08
   8.340000      1.7080687E-08
   8.400000      1.5857498E-08
   8.460000      1.4659983E-08
   8.520000      1.3473315E-08
   8.580000      1.2288258E-08
   8.640000      1.1103499E-08
   8.700000      9.9262447E-09
   8.760000      8.7705603E-09
   8.820000      7.6539184E-09
   8.880000      6.5932615E-09
   8.940000      5.6019664E-09
   9.000000      4.6884518E-09
   9.060000      3.8563832E-09
   9.120000      3.1057594E-09
   9.180000      2.4341191E-09
   9.240000      1.8373643E-09
   9.300000      1.3100897E-09
   9.360000      8.4548246E-10
   9.420000      4.3486170E-10
   9.480000      6.6946074E-11
   9.540000     -2.7293934E-10
   9.600000     -6.0329636E-10
   9.660000     -9.4606389E-10
   9.720000     -1.3251729E-09
   9.780000     -1.7642412E-09
   9.840000     -2.2839568E-09
   9.900000     -2.8997014E-09
   9.960000     -3.6196683E-09
   10.02000     -4.4434194E-09
   10.08000     -5.3608513E-09
   10.14000     -6.3519301E-09
   10.20000     -7.3879489E-09
   10.26000     -8.4349363E-09
   10.32000     -9.4589554E-09
   10.38000     -1.0431777E-08
   10.44000     -1.1334671E-08
   10.50000     -1.2158488E-08
   10.56000     -1.2900010E-08
   10.62000     -1.3556638E-08
   10.68000     -1.4122691E-08
   10.74000     -1.4589846E-08
   10.80000     -1.4951837E-08
   10.86000     -1.5210787E-08
   10.92000     -1.5381200E-08
   10.98000     -1.5488711E-08
   11.04000     -1.5563646E-08
   11.10000     -1.5632562E-08
   11.16000     -1.5712217E-08
   11.22000     -1.5809109E-08
   11.28000     -1.5924352E-08
   11.34000     -1.6060602E-08
   11.40000     -1.6226577E-08
   11.46000     -1.6436486E-08
   11.52000     -1.6704934E-08
   11.58000     -1.7040884E-08
   11.64000     -1.7444679E-08
   11.70000     -1.7910176E-08
   11.76000     -1.8430525E-08
   11.82000     -1.9003659E-08
   11.88000     -1.9633488E-08
   11.94000     -2.0325318E-08
   12.00000     -2.1077639E-08
   12.06000     -2.1874737E-08
   12.12000     -2.2684549E-08
   12.18000     -2.3463429E-08
   12.24000     -2.4165915E-08
   12.30000     -2.4755124E-08
   12.36000     -2.5209252E-08
   12.42000     -2.5522034E-08
   12.48000     -2.5698144E-08
   12.54000     -2.5746949E-08
   12.60000     -2.5678318E-08
   12.66000     -2.5502466E-08
   12.72000     -2.5233042E-08
   12.78000     -2.4890548E-08
   12.84000     -2.4502688E-08
   12.90000     -2.4099839E-08
   12.96000     -2.3706411E-08
   13.02000     -2.3331507E-08
   13.08000     -2.2963160E-08
   13.14000     -2.2569550E-08
   13.20000     -2.2107729E-08
   13.26000     -2.1537163E-08
   13.32000     -2.0833141E-08
   13.38000     -1.9994827E-08
   13.44000     -1.9044913E-08
   13.50000     -1.8021224E-08
   13.56000     -1.6963890E-08
   13.62000     -1.5903339E-08
   13.68000     -1.4853446E-08
   13.74000     -1.3811624E-08
   13.80000     -1.2764529E-08
   13.86000     -1.1695917E-08
   13.92000     -1.0593178E-08
   13.98000     -9.4504742E-09
   14.04000     -8.2685645E-09
   14.10000     -7.0528783E-09
   14.16000     -5.8116711E-09
   14.22000     -4.5552988E-09
   14.28000     -3.2965368E-09
   14.34000     -2.0511721E-09
   14.40000     -8.3810342E-10
   14.46000      3.2143513E-10
   14.52000      1.4055151E-09
   14.58000      2.3938855E-09
   14.64000      3.2709104E-09
   14.70000      4.0286481E-09
   14.76000      4.6691020E-09
   14.82000      5.2041695E-09
   14.88000      5.6519602E-09
   14.94000      6.0293650E-09
   15.00000      6.3427179E-09
   15.06000      6.5801564E-09
   15.12000      6.7096986E-09
   15.18000      6.6854309E-09
   15.24000      6.4609993E-09
   15.30000      6.0062124E-09
   15.36000      5.3206919E-09
   15.42000      4.4392499E-09
   15.48000      3.4268177E-09
   15.54000      2.3648909E-09
   15.60000      1.3346696E-09
   15.66000      4.0290393E-10
   15.72000     -3.8531889E-10
   15.78000     -1.0059770E-09
   15.84000     -1.4500987E-09
   15.90000     -1.7163950E-09
   15.96000     -1.8061986E-09
   16.02000     -1.7223931E-09
   16.08000     -1.4716970E-09
   16.14000     -1.0681974E-09
   16.20000     -5.3586169E-10
   16.26000      9.1285056E-11
   16.32000      7.7136897E-10
   16.38000      1.4584129E-09
   16.44000      2.1065603E-09
   16.50000      2.6739715E-09
   16.56000      3.1259724E-09
   16.62000      3.4371967E-09
   16.68000      3.5925058E-09
   16.74000      3.5865533E-09
   16.80000      3.4222079E-09
   16.86000      3.1084990E-09
   16.92000      2.6590163E-09
   16.98000      2.0914570E-09
   17.04000      1.4282788E-09
   17.10000      6.9760703E-10
   17.16000     -6.6796089E-11
   17.22000     -8.2724017E-10
   17.28000     -1.5451785E-09
   17.34000     -2.1843705E-09
   17.40000     -2.7126577E-09
   17.46000     -3.1017358E-09
   17.52000     -3.3257224E-09
   17.58000     -3.3604497E-09
   17.64000     -3.1853571E-09
   17.70000     -2.7884890E-09
   17.76000     -2.1730695E-09
   17.82000     -1.3625542E-09
   17.88000     -4.0100437E-10
   17.94000      6.5277322E-10
   18.00000      1.7362545E-09
   18.06000      2.7959679E-09
   18.12000      3.7976080E-09
   18.18000      4.7299591E-09
   18.24000      5.6013953E-09
   18.30000      6.4304695E-09
   18.36000      7.2341684E-09
   18.42000      8.0181541E-09
   18.48000      8.7724477E-09
   18.54000      9.4740189E-09
   18.60000      1.0095251E-08
   18.66000      1.0615074E-08
   18.72000      1.1028508E-08
   18.78000      1.1350806E-08
   18.84000      1.1614340E-08
   18.90000      1.1859217E-08
   18.96000      1.2121173E-08
   19.02000      1.2421505E-08
   19.08000      1.2762954E-08
   19.14000      1.3132842E-08
   19.20000      1.3511519E-08
   19.26000      1.3881920E-08
   19.32000      1.4235749E-08
   19.38000      1.4573892E-08
   19.44000      1.4901763E-08
   19.50000      1.5223032E-08
   19.56000      1.5535891E-08
   19.62000      1.5834468E-08
   19.68000      1.6114845E-08
   19.74000      1.6382273E-08
   19.80000      1.6655056E-08
   19.86000      1.6961964E-08
   19.92000      1.7333372E-08
   19.98000      1.7789723E-08
   20.04000      1.8332772E-08
   20.10000      1.8944158E-08
   20.16000      1.9592607E-08
   20.22000      2.0246977E-08
   20.28000      2.0889582E-08
   20.34000      2.1524029E-08
   20.40000      2.2174492E-08
   20.46000      2.2877307E-08
   20.52000      2.3669243E-08
   20.58000      2.4577691E-08
   20.64000      2.5616361E-08
   20.70000      2.6786633E-08
   20.76000      2.8081731E-08
   20.82000      2.9489758E-08
   20.88000      3.0993274E-08
   20.94000      3.2565875E-08
   21.00000      3.4168874E-08
   21.06000      3.5751555E-08
   21.12000      3.7256640E-08
   21.18000      3.8629448E-08
   21.24000      3.9826688E-08
   21.30000      4.0820627E-08
   21.36000      4.1596461E-08
   21.42000      4.2144304E-08
   21.48000      4.2449997E-08
   21.54000      4.2489724E-08
   21.60000      4.2231527E-08
   21.66000      4.1643329E-08
   21.72000      4.0704098E-08
   21.78000      3.9413326E-08
   21.84000      3.7795044E-08
   21.90000      3.5894963E-08
   21.96000      3.3772231E-08
   22.02000      3.1488799E-08
   22.08000      2.9099647E-08
   22.14000      2.6646054E-08
   22.20000      2.4152824E-08
   22.26000      2.1629315E-08
   22.32000      1.9073852E-08
   22.38000      1.6480683E-08
   22.44000      1.3848344E-08
   22.50000      1.1187461E-08
   22.56000      8.5255483E-09
   22.62000      5.9065486E-09
   22.68000      3.3843832E-09
   22.74000      1.0120630E-09
   22.80000     -1.1698982E-09
   22.86000     -3.1411895E-09
   22.92000     -4.9021733E-09
   22.98000     -6.4667374E-09
   23.04000     -7.8506588E-09
   23.10000     -9.0609218E-09
   23.16000     -1.0091383E-08
   23.22000     -1.0927542E-08
   23.28000     -1.1559012E-08
   23.34000     -1.1994403E-08
   23.40000     -1.2271612E-08
   23.46000     -1.2457725E-08
   23.52000     -1.2636685E-08
   23.58000     -1.2888012E-08
   23.64000     -1.3263885E-08
   23.70000     -1.3773182E-08
   23.76000     -1.4378715E-08
   23.82000     -1.5008808E-08
   23.88000     -1.5578591E-08
   23.94000     -1.6012528E-08
   24.00000     -1.6259550E-08
   24.06000     -1.6295841E-08
   24.12000     -1.6116202E-08
   24.18000     -1.5719980E-08
   24.24000     -1.5099509E-08
   24.30000     -1.4236885E-08
   24.36000     -1.3109976E-08
   24.42000     -1.1703825E-08
   24.48000     -1.0021211E-08
   24.54000     -8.0875520E-09
   24.60000     -5.9489738E-09
   24.66000     -3.6660504E-09
   24.72000     -1.3070333E-09
   24.78000      1.0571175E-09
   24.84000      3.3564722E-09
   24.90000      5.5271858E-09
   24.96000      7.5197555E-09
   25.02000      9.3094075E-09
   25.08000      1.0904244E-08
   25.14000      1.2345723E-08
   25.20000      1.3698396E-08
   25.26000      1.5030743E-08
   25.32000      1.6393667E-08
   25.38000      1.7805103E-08
   25.44000      1.9246793E-08
   25.50000      2.0673911E-08
   25.56000      2.2032490E-08
   25.62000      2.3276524E-08
   25.68000      2.4377615E-08
   25.74000      2.5324249E-08
   25.80000      2.6112941E-08
   25.86000      2.6736906E-08
   25.92000      2.7178078E-08
   25.98000      2.7405815E-08
   26.04000      2.7381894E-08
   26.10000      2.7068745E-08
   26.16000      2.6437320E-08
   26.22000      2.5472506E-08
   26.28000      2.4176106E-08
   26.34000      2.2568802E-08
   26.40000      2.0692037E-08
   26.46000      1.8609065E-08
   26.52000      1.6402709E-08
   26.58000      1.4167277E-08
   26.64000      1.1994255E-08
   26.70000      9.9550004E-09
   26.76000      8.0867455E-09
   26.82000      6.3885892E-09
   26.88000      4.8308446E-09
   26.94000      3.3753356E-09
   27.00000      1.9986435E-09
   27.06000      7.0807959E-10
   27.12000     -4.5713386E-10
   27.18000     -1.4402712E-09
   27.24000     -2.1905266E-09
   27.30000     -2.6845963E-09
   27.36000     -2.9367455E-09
   27.42000     -2.9936345E-09
   27.48000     -2.9177154E-09
   27.54000     -2.7680318E-09
   27.60000     -2.5872922E-09
   27.66000     -2.3994613E-09
   27.72000     -2.2158595E-09
   27.78000     -2.0435285E-09
   27.84000     -1.8897683E-09
   27.90000     -1.7606423E-09
   27.96000     -1.6561643E-09
   28.02000     -1.5675298E-09
   28.08000     -1.4804267E-09
   28.14000     -1.3840344E-09
   28.20000     -1.2807702E-09
   28.26000     -1.1900839E-09
   28.32000     -1.1420501E-09
   28.38000     -1.1619538E-09
   28.44000     -1.2524380E-09
   28.50000     -1.3820005E-09
   28.56000     -1.4863036E-09
   28.62000     -1.4829753E-09
   28.68000     -1.2943102E-09
   28.74000     -8.6866414E-10
   28.80000     -1.9213985E-10
   28.86000      7.1318496E-10
   28.92000      1.8021840E-09
   28.98000      3.0239440E-09
   29.04000      4.3355679E-09
   29.10000      5.7073226E-09
   29.16000      7.1185178E-09
   29.22000      8.5476364E-09
   29.28000      9.9620721E-09
   29.34000      1.1312015E-08
   29.40000      1.2530390E-08
   29.46000      1.3538083E-08
   29.52000      1.4252251E-08
   29.58000      1.4595593E-08
   29.64000      1.4505425E-08
   29.70000      1.3942099E-08
   29.76000      1.2896067E-08
   29.82000      1.1391895E-08
   29.88000      9.4868167E-09
   29.94000      7.2620221E-09
   30.00000      4.8071263E-09
   30.06000      2.2014117E-09
   30.12000     -5.0215637E-10
   30.18000     -3.2840268E-09
   30.24000     -6.1529479E-09
   30.30000     -9.1300230E-09
   30.36000     -1.2227905E-08
   30.42000     -1.5433333E-08
   30.48000     -1.8699811E-08
   30.54000     -2.1952831E-08
   30.60000     -2.5104631E-08
   30.66000     -2.8071769E-08
   30.72000     -3.0788406E-08
   30.78000     -3.3211236E-08
   30.84000     -3.5316589E-08
   30.90000     -3.7093958E-08
   30.96000     -3.8540804E-08
   31.02000     -3.9661352E-08
   31.08000     -4.0468123E-08
   31.14000     -4.0982389E-08
   31.20000     -4.1229875E-08
   31.26000     -4.1231285E-08
   31.32000     -4.0991523E-08
   31.38000     -4.0493955E-08
   31.44000     -3.9704943E-08
   31.50000     -3.8589047E-08
   31.56000     -3.7129251E-08
   31.62000     -3.5342833E-08
   31.68000     -3.3284401E-08
   31.74000     -3.1033313E-08
   31.80000     -2.8670406E-08
   31.86000     -2.6254607E-08
   31.92000     -2.3810250E-08
   31.98000     -2.1330687E-08
   32.04000     -1.8795415E-08
   32.10000     -1.6191063E-08
   32.16000     -1.3524981E-08
   32.22000     -1.0824619E-08
   32.28000     -8.1238687E-09
   32.34000     -5.4447651E-09
   32.40000     -2.7852154E-09
   32.46000     -1.1977586E-10
   32.52000      2.5869737E-09
   32.58000      5.3618203E-09
   32.64000      8.2089286E-09
   32.70000      1.1107160E-08
   32.76000      1.4018587E-08
   32.82000      1.6901771E-08
   32.88000      1.9721195E-08
   32.94000      2.2447429E-08
   33.00000      2.5049038E-08
   33.06000      2.7483040E-08
   33.12000      2.9692290E-08
   33.18000      3.1614356E-08
   33.24000      3.3199473E-08
   33.30000      3.4428943E-08
   33.36000      3.5323676E-08
   33.42000      3.5936758E-08
   33.48000      3.6331770E-08
   33.54000      3.6556116E-08
   33.60000      3.6621632E-08
   33.66000      3.6501557E-08
   33.72000      3.6145060E-08
   33.78000      3.5502364E-08
   33.84000      3.4548741E-08
   33.90000      3.3297258E-08
   33.96000      3.1796333E-08
   34.02000      3.0115725E-08
   34.08000      2.8329245E-08
   34.14000      2.6502212E-08
   34.20000      2.4687012E-08
   34.26000      2.2924747E-08
   34.32000      2.1247805E-08
   34.38000      1.9679318E-08
   34.44000      1.8229512E-08
   34.50000      1.6892864E-08
   34.56000      1.5650677E-08
   34.62000      1.4480690E-08
   34.68000      1.3370236E-08
   34.74000      1.2325905E-08
   34.80000      1.1373301E-08
   34.86000      1.0545366E-08
   34.92000      9.8642019E-09
   34.98000      9.3255856E-09
   35.04000      8.8946024E-09
   35.10000      8.5153316E-09
   35.16000      8.1302511E-09
   35.22000      7.7000273E-09
   35.28000      7.2143664E-09
   35.34000      6.6894317E-09
   35.40000      6.1542251E-09
   35.46000      5.6334937E-09
   35.52000      5.1356728E-09
   35.58000      4.6510493E-09
   35.64000      4.1598973E-09
   35.70000      3.6458230E-09
   35.76000      3.1079823E-09
   35.82000      2.5673514E-09
   35.88000      2.0654773E-09
   35.94000      1.6570960E-09
   36.00000      1.3994700E-09
   36.06000      1.3411838E-09
   36.12000      1.5122640E-09
   36.18000      1.9168351E-09
   36.24000      2.5294613E-09
   36.30000      3.2965071E-09
   36.36000      4.1435375E-09
   36.42000      4.9885247E-09
   36.48000      5.7586087E-09
   36.54000      6.4062298E-09
   36.60000      6.9196102E-09
   36.66000      7.3235640E-09
   36.72000      7.6693718E-09
   36.78000      8.0161326E-09
   36.84000      8.4092884E-09
   36.90000      8.8635295E-09
   36.96000      9.3562660E-09
   37.02000      9.8344168E-09
   37.08000      1.0232517E-08
   37.14000      1.0495804E-08
   37.20000      1.0599768E-08
   37.26000      1.0558752E-08
   37.32000      1.0420288E-08
   37.38000      1.0247414E-08
   37.44000      1.0095987E-08
   37.50000      9.9959108E-09
   37.56000      9.9432658E-09
   37.62000      9.9056301E-09
   37.68000      9.8372777E-09
   37.74000      9.6972190E-09
   37.80000      9.4626005E-09
   37.86000      9.1328749E-09
   37.92000      8.7246912E-09
   37.98000      8.2613889E-09
   38.04000      7.7624636E-09
   38.10000      7.2371282E-09
   38.16000      6.6831283E-09
   38.22000      6.0892260E-09
   38.28000      5.4386007E-09
   38.34000      4.7112851E-09
   38.40000      3.8856522E-09
   38.46000      2.9404423E-09
   38.52000      1.8587933E-09
   38.58000      6.3410205E-10
   38.64000     -7.2453599E-10
   38.70000     -2.1906348E-09
   38.76000     -3.7247483E-09
   38.82000     -5.2846278E-09
   38.88000     -6.8374946E-09
   38.94000     -8.3690104E-09
   39.00000     -9.8843822E-09
   39.06000     -1.1400422E-08
   39.12000     -1.2931739E-08
   39.18000     -1.4477399E-08
   39.24000     -1.6014555E-08
   39.30000     -1.7502549E-08
   39.36000     -1.8896085E-08
   39.42000     -2.0161755E-08
   39.48000     -2.1290525E-08
   39.54000     -2.2300565E-08
   39.60000     -2.3229189E-08
   39.66000     -2.4117494E-08
   39.72000     -2.4994261E-08
   39.78000     -2.5865782E-08
   39.84000     -2.6715357E-08
   39.90000     -2.7512158E-08
   39.96000     -2.8225541E-08
   40.02000     -2.8839191E-08
   40.08000     -2.9360063E-08
   40.14000     -2.9819372E-08
   40.20000     -3.0265557E-08
   40.26000     -3.0751679E-08
   40.32000     -3.1321104E-08
   40.38000     -3.1995736E-08
   40.44000     -3.2770235E-08
   40.50000     -3.3614306E-08
   40.56000     -3.4482710E-08
   40.62000     -3.5330210E-08
   40.68000     -3.6126686E-08
   40.74000     -3.6866769E-08
   40.80000     -3.7569922E-08
   40.86000     -3.8270045E-08
   40.92000     -3.8997925E-08
   40.98000     -3.9763542E-08
   41.04000     -4.0545974E-08
   41.10000     -4.1296332E-08
   41.16000     -4.1953786E-08
   41.22000     -4.2468791E-08
   41.28000     -4.2823636E-08
   41.34000     -4.3040693E-08
   41.40000     -4.3173547E-08
   41.46000     -4.3283521E-08
   41.52000     -4.3411170E-08
   41.58000     -4.3554973E-08
   41.64000     -4.3667221E-08
   41.70000     -4.3669598E-08
   41.76000     -4.3482689E-08
   41.82000     -4.3057270E-08
   41.88000     -4.2394579E-08
   41.94000     -4.1547409E-08
   42.00000     -4.0602114E-08
   42.06000     -3.9649422E-08
   42.12000     -3.8756028E-08
   42.18000     -3.7947839E-08
   42.24000     -3.7210214E-08
   42.30000     -3.6503430E-08
   42.36000     -3.5785689E-08
   42.42000     -3.5034006E-08
   42.48000     -3.4255091E-08
   42.54000     -3.3482962E-08
   42.60000     -3.2765435E-08
   42.66000     -3.2145522E-08
   42.72000     -3.1645186E-08
   42.78000     -3.1257393E-08
   42.84000     -3.0949042E-08
   42.90000     -3.0673075E-08
   42.96000     -3.0384893E-08
   43.02000     -3.0056629E-08
   43.08000     -2.9683942E-08
   43.14000     -2.9282992E-08
   43.20000     -2.8879116E-08
   43.26000     -2.8492147E-08
   43.32000     -2.8124537E-08
   43.38000     -2.7757340E-08
   43.44000     -2.7355922E-08
   43.50000     -2.6883196E-08
   43.56000     -2.6315094E-08
   43.62000     -2.5651936E-08
   43.68000     -2.4920872E-08
   43.74000     -2.4168051E-08
   43.80000     -2.3443322E-08
   43.86000     -2.2783397E-08
   43.92000     -2.2200215E-08
   43.98000     -2.1679341E-08
   44.04000     -2.1189132E-08
   44.10000     -2.0696918E-08
   44.16000     -2.0185201E-08
   44.22000     -1.9660858E-08
   44.28000     -1.9153278E-08
   44.34000     -1.8702467E-08
   44.40000     -1.8342652E-08
   44.46000     -1.8089107E-08
   44.52000     -1.7934068E-08
   44.58000     -1.7853178E-08
   44.64000     -1.7818698E-08
   44.70000     -1.7812612E-08
   44.76000     -1.7833219E-08
   44.82000     -1.7892477E-08
   44.88000     -1.8006228E-08
   44.94000     -1.8182968E-08
   45.00000     -1.8417168E-08
   45.06000     -1.8690420E-08
   45.12000     -1.8979414E-08
   45.18000     -1.9266194E-08
   45.24000     -1.9545158E-08
   45.30000     -1.9822968E-08
   45.36000     -2.0111306E-08
   45.42000     -2.0415953E-08
   45.48000     -2.0727642E-08
   45.54000     -2.1019536E-08
   45.60000     -2.1253355E-08
   45.66000     -2.1392374E-08
   45.72000     -2.1416373E-08
   45.78000     -2.1332353E-08
   45.84000     -2.1176179E-08
   45.90000     -2.1003649E-08
   45.96000     -2.0873674E-08
   46.02000     -2.0829502E-08
   46.08000     -2.0884947E-08
   46.14000     -2.1020950E-08
   46.20000     -2.1193831E-08
   46.26000     -2.1352268E-08
   46.32000     -2.1456588E-08
   46.38000     -2.1493058E-08
   46.44000     -2.1477840E-08
   46.50000     -2.1449159E-08
   46.56000     -2.1450775E-08
   46.62000     -2.1513207E-08
   46.68000     -2.1640048E-08
   46.74000     -2.1804917E-08
   46.80000     -2.1960560E-08
   46.86000     -2.2056970E-08
   46.92000     -2.2061768E-08
   46.98000     -2.1974923E-08
   47.04000     -2.1831722E-08
   47.10000     -2.1692177E-08
   47.16000     -2.1620208E-08
   47.22000     -2.1660108E-08
   47.28000     -2.1819218E-08
   47.34000     -2.2063821E-08
   47.40000     -2.2330488E-08
   47.46000     -2.2549180E-08
   47.52000     -2.2669674E-08
   47.58000     -2.2681020E-08
   47.64000     -2.2616170E-08
   47.70000     -2.2539371E-08
   47.76000     -2.2520879E-08
   47.82000     -2.2608864E-08
   47.88000     -2.2809740E-08
   47.94000     -2.3084791E-08
   48.00000     -2.3364004E-08
   48.06000     -2.3570596E-08
   48.12000     -2.3645050E-08
   48.18000     -2.3558037E-08
   48.24000     -2.3306869E-08
   48.30000     -2.2898039E-08
   48.36000     -2.2324750E-08
   48.42000     -2.1550363E-08
   48.48000     -2.0505350E-08
   48.54000     -1.9098430E-08
   48.60000     -1.7235415E-08
   48.66000     -1.4835555E-08
   48.72000     -1.1836271E-08
   48.78000     -8.1827469E-09
   48.84000     -3.8058632E-09
   48.90000      1.4028373E-09
   48.96000      7.6094455E-09
   49.02000      1.5043291E-08
   49.08000      2.3990344E-08
   49.14000      3.4781067E-08
   49.20000      4.7782073E-08
   49.26000      6.3398957E-08
   49.32000      8.2091994E-08
   49.38000      1.0439999E-07
   49.44000      1.3096415E-07
   49.50000      1.6254542E-07
   49.56000      2.0003398E-07
   49.62000      2.4445646E-07
   49.68000      2.9698984E-07
   49.74000      3.5898856E-07
   49.80000      4.3202553E-07
   49.86000      5.1794012E-07
   49.92000      6.1888318E-07
   49.98000      7.3735220E-07
   50.04000      8.7621618E-07
   50.10000      1.0387390E-06
   50.16000      1.2286124E-06
   50.22000      1.4500051E-06
   50.28000      1.7076330E-06
   50.34000      2.0068401E-06
   50.40000      2.3536841E-06
   50.46000      2.7550195E-06
   50.52000      3.2185756E-06
   50.58000      3.7530342E-06
   50.64000      4.3681143E-06
   50.70000      5.0746603E-06
   50.76000      5.8847422E-06
   50.82000      6.8117606E-06
   50.88000      7.8705516E-06
   50.94000      9.0774965E-06
   51.00000      1.0450623E-05
   51.06000      1.2009721E-05
   51.12000      1.3776452E-05
   51.18000      1.5774474E-05
   51.24000      1.8029561E-05
   51.30000      2.0569725E-05
   51.36000      2.3425337E-05
   51.42000      2.6629226E-05
   51.48000      3.0216781E-05
   51.54000      3.4226014E-05
   51.60000      3.8697639E-05
   51.66000      4.3675125E-05
   51.72000      4.9204751E-05
   51.78000      5.5335659E-05
   51.84000      6.2119834E-05
   51.90000      6.9612106E-05
   51.96000      7.7870027E-05
   52.02000      8.6953791E-05
   52.08000      9.6926109E-05
   52.14000      1.0785202E-04
   52.20000      1.1979882E-04
   52.26000      1.3283580E-04
   52.32000      1.4703408E-04
   52.38000      1.6246627E-04
   52.44000      1.7920611E-04
   52.50000      1.9732816E-04
   52.56000      2.1690727E-04
   52.62000      2.3801820E-04
   52.68000      2.6073513E-04
   52.74000      2.8513116E-04
   52.80000      3.1127766E-04
   52.86000      3.3924385E-04
   52.92000      3.6909597E-04
   52.98000      4.0089668E-04
   53.04000      4.3470439E-04
   53.10000      4.7057270E-04
   53.16000      5.0854974E-04
   53.22000      5.4867729E-04
   53.28000      5.9099065E-04
   53.34000      6.3551741E-04
   53.40000      6.8227743E-04
   53.46000      7.3128159E-04
   53.52000      7.8253198E-04
   53.58000      8.3602057E-04
   53.64000      8.9172943E-04
   53.70000      9.4962993E-04
   53.76000      1.0096828E-03
   53.82000      1.0718377E-03
   53.88000      1.1360337E-03
   53.94000      1.2021982E-03
   54.00000      1.2702481E-03
   54.06000      1.3400889E-03
   54.12000      1.4116158E-03
   54.18000      1.4847136E-03
   54.24000      1.5592573E-03
   54.30000      1.6351128E-03
   54.36000      1.7121374E-03
   54.42000      1.7901801E-03
   54.48000      1.8690833E-03
   54.54000      1.9486833E-03
   54.60000      2.0288113E-03
   54.66000      2.1092945E-03
   54.72000      2.1899568E-03
   54.78000      2.2706212E-03
   54.84000      2.3511094E-03
   54.90000      2.4312434E-03
   54.96000      2.5108473E-03
   55.02000      2.5897478E-03
   55.08000      2.6677763E-03
   55.14000      2.7447685E-03
   55.20000      2.8205668E-03
   55.26000      2.8950195E-03
   55.32000      2.9679844E-03
   55.38000      3.0393277E-03
   55.44000      3.1089245E-03
   55.50000      3.1766610E-03
   55.56000      3.2424335E-03