  -2.400000      0.0000000E+00
  -2.340000      0.0000000E+00
  -2.280000      0.0000000E+00
  -2.220000      0.0000000E+00
  -2.160000      0.0000000E+00
  -2.100000     -9.8198291E-19
  -2.040000     -7.2508866E-18
  -1.980000     -2.6344258E-17
  -1.920000     -5.9797025E-17
  -1.860000     -8.5178374E-17
  -1.800000     -4.7075127E-17
  -1.740000      1.1585349E-16
  -1.680000      4.0383315E-16
  -1.620000      7.0110500E-16
  -1.560000      8.2590556E-16
  -1.500000      7.2811826E-16
  -1.440000      7.1258108E-16
  -1.380000      1.3889212E-15
  -1.320000      3.0731789E-15
  -1.260000      4.7562738E-15
  -1.200000      3.3952047E-15
  -1.140000     -5.3098924E-15
  -1.080000     -2.3936812E-14
  -1.020000     -4.8971708E-14
 -0.9600000     -6.7812868E-14
 -0.9000000     -6.0808936E-14
 -0.8400000     -1.0367070E-14
 -0.7800000      8.5144477E-14
 -0.7200000      2.0000254E-13
 -0.6600000      2.8173676E-13
 -0.6000000      2.6953074E-13
 -0.5400000      1.2665064E-13
 -0.4800000     -1.2792844E-13
 -0.4200000     -4.0896014E-13
 -0.3600000     -5.8971551E-13
 -0.3000000     -5.5910311E-13
 -0.2400000     -2.8716669E-13
 -0.1800000      1.3722973E-13
 -0.1200000      5.2617275E-13
 -5.9999999E-02  6.7347180E-13
  0.0000000E+00  4.6543509E-13
  5.9999999E-02 -3.3754053E-14
  0.1200000     -5.7553300E-13
  0.1800000     -8.2068499E-13
  0.2400000     -5.0490655E-13
  0.3000000      3.9547938E-13
  0.3600000      1.5825877E-12
  0.4200000      2.4983095E-12
  0.4800000      2.5262930E-12
  0.5400000      1.2673022E-12
  0.6000000     -1.2215618E-12
  0.6600000     -4.3314532E-12
  0.7200000     -7.0099915E-12
  0.7800000     -8.0568052E-12
  0.8400000     -6.5159870E-12
  0.9000000     -2.0332310E-12
  0.9600000      4.9460544E-12
   1.020000      1.3204154E-11
   1.080000      2.0986808E-11
   1.140000      2.6355222E-11
   1.200000      2.7530554E-11
   1.260000      2.3136814E-11
   1.320000      1.2329214E-11
   1.380000     -5.1113848E-12
   1.440000     -2.8585788E-11
   1.500000     -5.6289112E-11
   1.560000     -8.4664879E-11
   1.620000     -1.0792547E-10
   1.680000     -1.1802584E-10
   1.740000     -1.0551759E-10
   1.800000     -6.1567557E-11
   1.860000      1.8898038E-11
   1.920000      1.3338171E-10
   1.980000      2.6816904E-10
   2.040000      3.9587444E-10
   2.100000      4.7511606E-10
   2.160000      4.5288834E-10
   2.220000      2.6964000E-10
   2.280000     -1.3353477E-10
   2.340000     -8.0666118E-10
   2.400000     -1.7829175E-09
   2.460000     -3.0722109E-09
   2.520000     -4.6573119E-09
   2.580000     -6.4931460E-09
   2.640000     -8.5094065E-09
   2.700000     -1.0616241E-08
   2.760000     -1.2712424E-08
   2.820000     -1.4695159E-08
   2.880000     -1.6470461E-08
   2.940000     -1.7962879E-08
   3.000000     -1.9123343E-08
   3.060000     -1.9933953E-08
   3.120000     -2.0408940E-08
   3.180000     -2.0591546E-08
   3.240000     -2.0547301E-08
   3.300000     -2.0354875E-08
   3.360000     -2.0096170E-08
   3.420000     -1.9847517E-08
   3.480000     -1.9673340E-08
   3.540000     -1.9623029E-08
   3.600000     -1.9730699E-08
   3.660000     -2.0016724E-08
   3.720000     -2.0489564E-08
   3.780000     -2.1146606E-08
   3.840000     -2.1973564E-08
   3.900000     -2.2942913E-08
   3.960000     -2.4012758E-08
   4.020000     -2.5127763E-08
   4.080000     -2.6223358E-08
   4.140000     -2.7233400E-08
   4.200000     -2.8100155E-08
   4.260000     -2.8784452E-08
   4.320000     -2.9273409E-08
   4.380000     -2.9583537E-08
   4.440000     -2.9758130E-08
   4.500000     -2.9859180E-08
   4.560000     -2.9955437E-08
   4.620000     -3.0109128E-08
   4.680000     -3.0363971E-08
   4.740000     -3.0736832E-08
   4.800000     -3.1214448E-08
   4.860000     -3.1755619E-08
   4.920000     -3.2298235E-08
   4.980000     -3.2769719E-08
   5.040000     -3.3099024E-08
   5.100000     -3.3228108E-08
   5.160000     -3.3121122E-08
   5.220000     -3.2769815E-08
   5.280000     -3.2194407E-08
   5.340000     -3.1439836E-08
   5.400000     -3.0568096E-08
   5.460000     -2.9647977E-08
   5.520000     -2.8743969E-08
   5.580000     -2.7906204E-08
   5.640000     -2.7163091E-08
   5.700000     -2.6517828E-08
   5.760000     -2.5949280E-08
   5.820000     -2.5417103E-08
   5.880000     -2.4870250E-08
   5.940000     -2.4257547E-08
   6.000000     -2.3538403E-08
   6.060000     -2.2691584E-08
   6.120000     -2.1719996E-08
   6.180000     -2.0649978E-08
   6.240000     -1.9524895E-08
   6.300000     -1.8394321E-08
   6.360000     -1.7301545E-08
   6.420000     -1.6272972E-08
   6.480000     -1.5312494E-08
   6.540000     -1.4402474E-08
   6.600000     -1.3510684E-08
   6.660000     -1.2600581E-08
   6.720000     -1.1641289E-08
   6.780000     -1.0614038E-08
   6.840000     -9.5134336E-09
   6.900000     -8.3439433E-09
   6.960000     -7.1136252E-09
   7.020000     -5.8277321E-09
   7.080000     -4.4843800E-09
   7.140000     -3.0733056E-09
   7.200000     -1.5775539E-09
   7.260000      2.2847613E-11
   7.320000      1.7463868E-09
   7.380000      3.6057113E-09
   7.440000      5.6040630E-09
   7.500000      7.7329281E-09
   7.560000      9.9712354E-09
   7.620000      1.2286379E-08
   7.680000      1.4637194E-08
   7.740000      1.6978721E-08
   7.800000      1.9268175E-08
   7.860000      2.1471111E-08
   7.920000      2.3566505E-08
   7.980000      2.5549413E-08
   8.040000      2.7430236E-08
   8.100000      2.9230337E-08
   8.160000      3.0974714E-08
   8.220000      3.2683385E-08
   8.280000      3.4363801E-08
   8.340000      3.6006433E-08
   8.400000      3.7585021E-08
   8.460000      3.9061561E-08
   8.520000      4.0394735E-08
   8.580000      4.1549612E-08
   8.640000      4.2505913E-08
   8.700000      4.3262936E-08
   8.760000      4.3839947E-08
   8.820000      4.4272138E-08
   8.880000      4.4603407E-08
   8.940000      4.4877758E-08
   9.000000      4.5131433E-08
   9.060000      4.5387619E-08
   9.120000      4.5654669E-08
   9.180000      4.5927830E-08
   9.240000      4.6193488E-08
   9.300000      4.6434380E-08
   9.360000      4.6634280E-08
   9.420000      4.6781249E-08
   9.480000      4.6869257E-08
   9.540000      4.6898521E-08
   9.600000      4.6874984E-08
   9.660000      4.6809074E-08
   9.720000      4.6713755E-08
   9.780000      4.6601794E-08
   9.840000      4.6482825E-08
   9.900000      4.6360935E-08
   9.960000      4.6233858E-08
   10.02000      4.6094307E-08
   10.08000      4.5933024E-08
   10.14000      4.5742453E-08
   10.20000      4.5519620E-08
   10.26000      4.5267168E-08
   10.32000      4.4992483E-08
   10.38000      4.4705516E-08
   10.44000      4.4416232E-08
   10.50000      4.4132367E-08
   10.56000      4.3857813E-08
   10.62000      4.3591445E-08
   10.68000      4.3326601E-08
   10.74000      4.3051415E-08
   10.80000      4.2750496E-08
   10.86000      4.2407915E-08
   10.92000      4.2010917E-08
   10.98000      4.1552997E-08
   11.04000      4.1035157E-08
   11.10000      4.0464702E-08
   11.16000      3.9852186E-08
   11.22000      3.9207826E-08
   11.28000      3.8539003E-08
   11.34000      3.7849407E-08
   11.40000      3.7139635E-08
   11.46000      3.6407933E-08
   11.52000      3.5650210E-08
   11.58000      3.4859138E-08
   11.64000      3.4023444E-08
   11.70000      3.3128771E-08
   11.76000      3.2161086E-08
   11.82000      3.1112062E-08
   11.88000      2.9984417E-08
   11.94000      2.8794499E-08
   12.00000      2.7570241E-08
   12.06000      2.6344290E-08
   12.12000      2.5144397E-08
   12.18000      2.3984466E-08
   12.24000      2.2859700E-08
   12.30000      2.1747766E-08
   12.36000      2.0615719E-08
   12.42000      1.9430214E-08
   12.48000      1.8167512E-08
   12.54000      1.6819920E-08
   12.60000      1.5396713E-08
   12.66000      1.3919626E-08
   12.72000      1.2414770E-08
   12.78000      1.0904023E-08
   12.84000      9.3989154E-09
   12.90000      7.8989411E-09
   12.96000      6.3946062E-09
   13.02000      4.8736375E-09
   13.08000      3.3276577E-09
   13.14000      1.7565130E-09
   13.20000      1.6844665E-10
   13.26000     -1.4239491E-09
   13.32000     -3.0103153E-09
   13.38000     -4.5889088E-09
   13.44000     -6.1701040E-09
   13.50000     -7.7754363E-09
   13.56000     -9.4322861E-09
   13.62000     -1.1165865E-08
   13.68000     -1.2991088E-08
   13.74000     -1.4906886E-08
   13.80000     -1.6894720E-08
   13.86000     -1.8921687E-08
   13.92000     -2.0947391E-08
   13.98000     -2.2932625E-08
   14.04000     -2.4847655E-08
   14.10000     -2.6678043E-08
   14.16000     -2.8426651E-08
   14.22000     -3.0111444E-08
   14.28000     -3.1759598E-08
   14.34000     -3.3399164E-08
   14.40000     -3.5050157E-08
   14.46000     -3.6717100E-08
   14.52000     -3.8385153E-08
   14.58000     -4.0021309E-08
   14.64000     -4.1581050E-08
   14.70000     -4.3019043E-08
   14.76000     -4.4300979E-08
   14.82000     -4.5412531E-08
   14.88000     -4.6362164E-08
   14.94000     -4.7176531E-08
   15.00000     -4.7890165E-08
   15.06000     -4.8533504E-08
   15.12000     -4.9123923E-08
   15.18000     -4.9662873E-08
   15.24000     -5.0139249E-08
   15.30000     -5.0536404E-08
   15.36000     -5.0838874E-08
   15.42000     -5.1036015E-08
   15.48000     -5.1121994E-08
   15.54000     -5.1093867E-08
   15.60000     -5.0950202E-08
   15.66000     -5.0691817E-08
   15.72000     -5.0324111E-08
   15.78000     -4.9859153E-08
   15.84000     -4.9315478E-08
   15.90000     -4.8715190E-08
   15.96000     -4.8079681E-08
   16.02000     -4.7426212E-08
   16.08000     -4.6767127E-08
   16.14000     -4.6111431E-08
   16.20000     -4.5466869E-08
   16.26000     -4.4840171E-08
   16.32000     -4.4234323E-08
   16.38000     -4.3644256E-08
   16.44000     -4.3053952E-08
   16.50000     -4.2438241E-08
   16.56000     -4.1770413E-08
   16.62000     -4.1033417E-08
   16.68000     -4.0229899E-08
   16.74000     -3.9385696E-08
   16.80000     -3.8543952E-08
   16.86000     -3.7751150E-08
   16.92000     -3.7040511E-08
   16.98000     -3.6419859E-08
   17.04000     -3.5869267E-08
   17.10000     -3.5349512E-08
   17.16000     -3.4817177E-08
   17.22000     -3.4239513E-08
   17.28000     -3.3602689E-08
   17.34000     -3.2910862E-08
   17.40000     -3.2178299E-08
   17.46000     -3.1419905E-08
   17.52000     -3.0645250E-08
   17.58000     -2.9858182E-08
   17.64000     -2.9060022E-08
   17.70000     -2.8252286E-08
   17.76000     -2.7435853E-08
   17.82000     -2.6606727E-08
   17.88000     -2.5751984E-08
   17.94000     -2.4850314E-08
   18.00000     -2.3879226E-08
   18.06000     -2.2826502E-08
   18.12000     -2.1700007E-08
   18.18000     -2.0529702E-08
   18.24000     -1.9359272E-08
   18.30000     -1.8230288E-08
   18.36000     -1.7166180E-08
   18.42000     -1.6163686E-08
   18.48000     -1.5195857E-08
   18.54000     -1.4224756E-08
   18.60000     -1.3217339E-08
   18.66000     -1.2156939E-08
   18.72000     -1.1045743E-08
   18.78000     -9.8987591E-09
   18.84000     -8.7341308E-09
   18.90000     -7.5656814E-09
   18.96000     -6.4013581E-09
   19.02000     -5.2470561E-09
   19.08000     -4.1119597E-09
   19.14000     -3.0108329E-09
   19.20000     -1.9609256E-09
   19.26000     -9.7477260E-10
   19.32000     -5.2971627E-11
   19.38000      8.1864421E-10
   19.44000      1.6652951E-09
   19.50000      2.5143858E-09
   19.56000      3.3855845E-09
   19.62000      4.2843777E-09
   19.68000      5.2016134E-09
   19.74000      6.1183258E-09
   19.80000      7.0126118E-09
   19.86000      7.8648741E-09
   19.92000      8.6594802E-09
   19.98000      9.3835997E-09
   20.04000      1.0025887E-08
   20.10000      1.0577584E-08
   20.16000      1.1036535E-08
   20.22000      1.1411995E-08
   20.28000      1.1726621E-08
   20.34000      1.2012928E-08
   20.40000      1.2304270E-08
   20.46000      1.2623699E-08
   20.52000      1.2975639E-08
   20.58000      1.3344400E-08
   20.64000      1.3700372E-08
   20.70000      1.4011079E-08
   20.76000      1.4252149E-08
   20.82000      1.4413723E-08
   20.88000      1.4500447E-08
   20.94000      1.4526434E-08
   21.00000      1.4508600E-08
   21.06000      1.4461713E-08
   21.12000      1.4396754E-08
   21.18000      1.4321976E-08
   21.24000      1.4244828E-08
   21.30000      1.4173065E-08
   21.36000      1.4114533E-08
   21.42000      1.4076205E-08
   21.48000      1.4063450E-08
   21.54000      1.4079931E-08
   21.60000      1.4127799E-08
   21.66000      1.4207457E-08
   21.72000      1.4316652E-08
   21.78000      1.4449475E-08
   21.84000      1.4596376E-08
   21.90000      1.4746075E-08
   21.96000      1.4889124E-08
   22.02000      1.5021678E-08
   22.08000      1.5147506E-08
   22.14000      1.5276767E-08
   22.20000      1.5421479E-08
   22.26000      1.5589231E-08
   22.32000      1.5777504E-08
   22.38000      1.5970814E-08
   22.44000      1.6141852E-08
   22.50000      1.6256305E-08
   22.56000      1.6280016E-08
   22.62000      1.6186592E-08
   22.68000      1.5963602E-08
   22.74000      1.5615973E-08
   22.80000      1.5165702E-08
   22.86000      1.4647749E-08
   22.92000      1.4102786E-08
   22.98000      1.3568387E-08
   23.04000      1.3071002E-08
   23.10000      1.2621042E-08
   23.16000      1.2212687E-08
   23.22000      1.1828476E-08
   23.28000      1.1447108E-08
   23.34000      1.1051734E-08
   23.40000      1.0635984E-08
   23.46000      1.0205978E-08
   23.52000      9.7781321E-09
   23.58000      9.3740171E-09
   23.64000      9.0142569E-09
   23.70000      8.7132896E-09
   23.76000      8.4761576E-09
   23.82000      8.2976728E-09
   23.88000      8.1637630E-09
   23.94000      8.0545437E-09
   24.00000      7.9485298E-09
   24.06000      7.8272215E-09
   24.12000      7.6790219E-09
   24.18000      7.5013800E-09
   24.24000      7.3002902E-09
   24.30000      7.0870918E-09
   24.36000      6.8735346E-09
   24.42000      6.6668808E-09
   24.48000      6.4670109E-09
   24.54000      6.2667902E-09
   24.60000      6.0556626E-09
   24.66000      5.8250298E-09
   24.72000      5.5731162E-09
   24.78000      5.3070948E-09
   24.84000      5.0412514E-09
   24.90000      4.7915329E-09
   24.96000      4.5682400E-09
   25.02000      4.3694217E-09
   25.08000      4.1772865E-09
   25.14000      3.9588657E-09
   25.20000      3.6706693E-09
   25.26000      3.2657892E-09
   25.32000      2.7012910E-09
   25.38000      1.9439881E-09
   25.44000      9.7352093E-10
   25.50000     -2.1735430E-10
   25.56000     -1.6246851E-09
   25.62000     -3.2366942E-09
   25.68000     -5.0379882E-09
   25.74000     -7.0141404E-09
   25.80000     -9.1560457E-09
   25.86000     -1.1463077E-08
   25.92000     -1.3943752E-08
   25.98000     -1.6612825E-08
   26.04000     -1.9484629E-08
   26.10000     -2.2563910E-08
   26.16000     -2.5836689E-08
   26.22000     -2.9264182E-08
   26.28000     -3.2782207E-08
   26.34000     -3.6306780E-08
   26.40000     -3.9744755E-08
   26.46000     -4.3006725E-08
   26.52000     -4.6019036E-08
   26.58000     -4.8732261E-08
   26.64000     -5.1124811E-08
   26.70000     -5.3201703E-08
   26.76000     -5.4989485E-08
   26.82000     -5.6529021E-08
   26.88000     -5.7867933E-08
   26.94000     -5.9054514E-08
   27.00000     -6.0134397E-08
   27.06000     -6.1150644E-08
   27.12000     -6.2146398E-08
   27.18000     -6.3168400E-08
   27.24000     -6.4268534E-08
   27.30000     -6.5501105E-08
   27.36000     -6.6915050E-08
   27.42000     -6.8542327E-08
   27.48000     -7.0385937E-08
   27.54000     -7.2411837E-08
   27.60000     -7.4548289E-08
   27.66000     -7.6694121E-08
   27.72000     -7.8734736E-08
   27.78000     -8.0562316E-08
   27.84000     -8.2095447E-08
   27.90000     -8.3293280E-08
   27.96000     -8.4160654E-08
   28.02000     -8.4742325E-08
   28.08000     -8.5107139E-08
   28.14000     -8.5325524E-08
   28.20000     -8.5445848E-08
   28.26000     -8.5476124E-08
   28.32000     -8.5376797E-08
   28.38000     -8.5067221E-08
   28.44000     -8.4444572E-08
   28.50000     -8.3409830E-08
   28.56000     -8.1893212E-08
   28.62000     -7.9871825E-08
   28.68000     -7.7375105E-08
   28.74000     -7.4477803E-08
   28.80000     -7.1283900E-08
   28.86000     -6.7907052E-08
   28.92000     -6.4452905E-08
   28.98000     -6.1006844E-08
   29.04000     -5.7628547E-08
   29.10000     -5.4352498E-08
   29.16000     -5.1192799E-08
   29.22000     -4.8150198E-08
   29.28000     -4.5219771E-08
   29.34000     -4.2397879E-08
   29.40000     -3.9687233E-08
   29.46000     -3.7099245E-08
   29.52000     -3.4653084E-08
   29.58000     -3.2371883E-08
   29.64000     -3.0277459E-08
   29.70000     -2.8385688E-08
   29.76000     -2.6704775E-08
   29.82000     -2.5237441E-08
   29.88000     -2.3986315E-08
   29.94000     -2.2959998E-08
   30.00000     -2.2176410E-08
   30.06000     -2.1661011E-08
   30.12000     -2.1439718E-08
   30.18000     -2.1529024E-08
   30.24000     -2.1927370E-08
   30.30000     -2.2611456E-08
   30.36000     -2.3538904E-08
   30.42000     -2.4655842E-08
   30.48000     -2.5905985E-08
   30.54000     -2.7237865E-08
   30.60000     -2.8608511E-08
   30.66000     -2.9984250E-08
   30.72000     -3.1340498E-08
   30.78000     -3.2662193E-08
   30.84000     -3.3944787E-08
   30.90000     -3.5194379E-08
   30.96000     -3.6425124E-08
   31.02000     -3.7653518E-08
   31.08000     -3.8891006E-08
   31.14000     -4.0137959E-08
   31.20000     -4.1381654E-08
   31.26000     -4.2599346E-08
   31.32000     -4.3764864E-08
   31.38000     -4.4855707E-08
   31.44000     -4.5857494E-08
   31.50000     -4.6764075E-08
   31.56000     -4.7573749E-08
   31.62000     -4.8283713E-08
   31.68000     -4.8885259E-08
   31.74000     -4.9361571E-08
   31.80000     -4.9688627E-08
   31.86000     -4.9838519E-08
   31.92000     -4.9784003E-08
   31.98000     -4.9503356E-08
   32.04000     -4.8985115E-08
   32.10000     -4.8232625E-08
   32.16000     -4.7268120E-08
   32.22000     -4.6135238E-08
   32.28000     -4.4898083E-08
   32.34000     -4.3634991E-08
   32.40000     -4.2426429E-08
   32.46000     -4.1338964E-08
   32.52000     -4.0409599E-08
   32.58000     -3.9636049E-08
   32.64000     -3.8977127E-08
   32.70000     -3.8363936E-08
   32.76000     -3.7718241E-08
   32.82000     -3.6971581E-08
   32.88000     -3.6078820E-08
   32.94000     -3.5022804E-08
   33.00000     -3.3811226E-08
   33.06000     -3.2469799E-08
   33.12000     -3.1036198E-08
   33.18000     -2.9556700E-08
   33.24000     -2.8084512E-08
   33.30000     -2.6676631E-08
   33.36000     -2.5387315E-08
   33.42000     -2.4258725E-08
   33.48000     -2.3312179E-08
   33.54000     -2.2543990E-08
   33.60000     -2.1927873E-08
   33.66000     -2.1422636E-08
   33.72000     -2.0981348E-08
   33.78000     -2.0558181E-08
   33.84000     -2.0111399E-08
   33.90000     -1.9604032E-08
   33.96000     -1.9005238E-08
   34.02000     -1.8294617E-08
   34.08000     -1.7468915E-08
   34.14000     -1.6547805E-08
   34.20000     -1.5574702E-08
   34.26000     -1.4610157E-08
   34.32000     -1.3718817E-08
   34.38000     -1.2953996E-08
   34.44000     -1.2345142E-08
   34.50000     -1.1892275E-08
   34.56000     -1.1568652E-08
   34.62000     -1.1329915E-08
   34.68000     -1.1126125E-08
   34.74000     -1.0912969E-08
   34.80000     -1.0659593E-08
   34.86000     -1.0352165E-08
   34.92000     -9.9936752E-09
   34.98000     -9.6010657E-09
   35.04000     -9.2007584E-09
   35.10000     -8.8233563E-09
   35.16000     -8.4980494E-09
   35.22000     -8.2473770E-09
   35.28000     -8.0832754E-09
   35.34000     -8.0054798E-09
   35.40000     -8.0030347E-09
   35.46000     -8.0587199E-09
   35.52000     -8.1550731E-09
   35.58000     -8.2798692E-09
   35.64000     -8.4291010E-09
   35.70000     -8.6066949E-09
   35.76000     -8.8218437E-09
   35.82000     -9.0860173E-09
   35.88000     -9.4115489E-09
   35.94000     -9.8123021E-09
   36.00000     -1.0305079E-08
   36.06000     -1.0909457E-08
   36.12000     -1.1644409E-08
   36.18000     -1.2522065E-08
   36.24000     -1.3541126E-08
   36.30000     -1.4683230E-08
   36.36000     -1.5914480E-08
   36.42000     -1.7191883E-08
   36.48000     -1.8472157E-08
   36.54000     -1.9719717E-08
   36.60000     -2.0911649E-08
   36.66000     -2.2039533E-08
   36.72000     -2.3109259E-08
   36.78000     -2.4139995E-08
   36.84000     -2.5162219E-08
   36.90000     -2.6213677E-08
   36.96000     -2.7332430E-08
   37.02000     -2.8547808E-08
   37.08000     -2.9872087E-08
   37.14000     -3.1296356E-08
   37.20000     -3.2792631E-08
   37.26000     -3.4321367E-08
   37.32000     -3.5840817E-08
   37.38000     -3.7314223E-08
   37.44000     -3.8712614E-08
   37.50000     -4.0013909E-08
   37.56000     -4.1201492E-08
   37.62000     -4.2264880E-08
   37.68000     -4.3203087E-08
   37.74000     -4.4028042E-08
   37.80000     -4.4764302E-08
   37.86000     -4.5442711E-08
   37.92000     -4.6088825E-08
   37.98000     -4.6710632E-08
   38.04000     -4.7290978E-08
   38.10000     -4.7788649E-08
   38.16000     -4.8148195E-08
   38.22000     -4.8314920E-08
   38.28000     -4.8249472E-08
   38.34000     -4.7937370E-08
   38.40000     -4.7391126E-08
   38.46000     -4.6645635E-08
   38.52000     -4.5749271E-08
   38.58000     -4.4753556E-08
   38.64000     -4.3703629E-08
   38.70000     -4.2630926E-08
   38.76000     -4.1548855E-08
   38.82000     -4.0452338E-08
   38.88000     -3.9321591E-08
   38.94000     -3.8130057E-08
   39.00000     -3.6855031E-08
   39.06000     -3.5488071E-08
   39.12000     -3.4041804E-08
   39.18000     -3.2549956E-08
   39.24000     -3.1059731E-08
   39.30000     -2.9618342E-08
   39.36000     -2.8258190E-08
   39.42000     -2.6986259E-08
   39.48000     -2.5782048E-08
   39.54000     -2.4605187E-08
   39.60000     -2.3409862E-08
   39.66000     -2.2160378E-08
   39.72000     -2.0841927E-08
   39.78000     -1.9463069E-08
   39.84000     -1.8050358E-08
   39.90000     -1.6638817E-08
   39.96000     -1.5262984E-08
   40.02000     -1.3951597E-08
   40.08000     -1.2726158E-08
   40.14000     -1.1601365E-08
   40.20000     -1.0585243E-08
   40.26000     -9.6785042E-09
   40.32000     -8.8747001E-09
   40.38000     -8.1632230E-09
   40.44000     -7.5355917E-09
   40.50000     -6.9926216E-09
   40.56000     -6.5481642E-09
   40.62000     -6.2258847E-09
   40.68000     -6.0489538E-09
   40.74000     -6.0268071E-09
   40.80000     -6.1455769E-09
   40.86000     -6.3676948E-09
   40.92000     -6.6418635E-09
   40.98000     -6.9193922E-09
   41.04000     -7.1696982E-09
   41.10000     -7.3883060E-09
   41.16000     -7.5945152E-09
   41.22000     -7.8208506E-09
   41.28000     -8.0997866E-09
   41.34000     -8.4535587E-09
   41.40000     -8.8904661E-09
   41.46000     -9.4075441E-09
   41.52000     -9.9968736E-09
   41.58000     -1.0652043E-08
   41.64000     -1.1372246E-08
   41.70000     -1.2163058E-08
   41.76000     -1.3034146E-08
   41.82000     -1.3994672E-08
   41.88000     -1.5047197E-08
   41.94000     -1.6181222E-08
   42.00000     -1.7368119E-08
   42.06000     -1.8559897E-08
   42.12000     -1.9694149E-08
   42.18000     -2.0706006E-08
   42.24000     -2.1545270E-08
   42.30000     -2.2193912E-08
   42.36000     -2.2677375E-08
   42.42000     -2.3063910E-08
   42.48000     -2.3449681E-08
   42.54000     -2.3932595E-08
   42.60000     -2.4582876E-08
   42.66000     -2.5420677E-08
   42.72000     -2.6409385E-08
   42.78000     -2.7467864E-08
   42.84000     -2.8497720E-08
   42.90000     -2.9415666E-08
   42.96000     -3.0179130E-08
   43.02000     -3.0795839E-08
   43.08000     -3.1314741E-08
   43.14000     -3.1802749E-08
   43.20000     -3.2317072E-08
   43.26000     -3.2883577E-08
   43.32000     -3.3488572E-08
   43.38000     -3.4085556E-08
   43.44000     -3.4613105E-08
   43.50000     -3.5016598E-08
   43.56000     -3.5266250E-08
   43.62000     -3.5366195E-08
   43.68000     -3.5352542E-08
   43.74000     -3.5281968E-08
   43.80000     -3.5214772E-08
   43.86000     -3.5197498E-08
   43.92000     -3.5250334E-08
   43.98000     -3.5362952E-08
   44.04000     -3.5500111E-08
   44.10000     -3.5615354E-08
   44.16000     -3.5668162E-08
   44.22000     -3.5638603E-08
   44.28000     -3.5533969E-08
   44.34000     -3.5384527E-08
   44.40000     -3.5229760E-08
   44.46000     -3.5100189E-08
   44.52000     -3.5002056E-08
   44.58000     -3.4911427E-08
   44.64000     -3.4780715E-08
   44.70000     -3.4555754E-08
   44.76000     -3.4197043E-08
   44.82000     -3.3696697E-08
   44.88000     -3.3084081E-08
   44.94000     -3.2417390E-08
   45.00000     -3.1764053E-08
   45.06000     -3.1177425E-08
   45.12000     -3.0678557E-08
   45.18000     -3.0249883E-08
   45.24000     -2.9842781E-08
   45.30000     -2.9395823E-08
   45.36000     -2.8856817E-08
   45.42000     -2.8201139E-08
   45.48000     -2.7440793E-08
   45.54000     -2.6622175E-08
   45.60000     -2.5813879E-08
   45.66000     -2.5088239E-08
   45.72000     -2.4501269E-08
   45.78000     -2.4075826E-08
   45.84000     -2.3792188E-08
   45.90000     -2.3589147E-08
   45.96000     -2.3376536E-08
   46.02000     -2.3057112E-08
   46.08000     -2.2552300E-08
   46.14000     -2.1824217E-08
   46.20000     -2.0886485E-08
   46.26000     -1.9799510E-08
   46.32000     -1.8651146E-08
   46.38000     -1.7528887E-08
   46.44000     -1.6492899E-08
   46.50000     -1.5558960E-08
   46.56000     -1.4696664E-08
   46.62000     -1.3842879E-08
   46.68000     -1.2925276E-08
   46.74000     -1.1887765E-08
   46.80000     -1.0709499E-08
   46.86000     -9.4117452E-09
   46.92000     -8.0509581E-09
   46.98000     -6.7007675E-09
   47.04000     -5.4288662E-09
   47.10000     -4.2762403E-09
   47.16000     -3.2453242E-09
   47.22000     -2.3009090E-09
   47.28000     -1.3835705E-09
   47.34000     -4.3134676E-10
   47.40000      5.9743871E-10
   47.46000      1.7079327E-09
   47.52000      2.8648679E-09
   47.58000      4.0027874E-09
   47.64000      5.0472111E-09
   47.70000      5.9394374E-09
   47.76000      6.6559003E-09
   47.82000      7.2145583E-09
   47.88000      7.6654088E-09
   47.94000      8.0683966E-09
   48.00000      8.4672429E-09
   48.06000      8.8696854E-09
   48.12000      9.2422390E-09
   48.18000      9.5216173E-09
   48.24000      9.6380806E-09
   48.30000      9.5411501E-09
   48.36000      9.2176071E-09
   48.42000      8.6952356E-09
   48.48000      8.0315967E-09
   48.54000      7.2923183E-09
   48.60000      6.5262289E-09
   48.66000      5.7446221E-09
   48.72000      4.9101478E-09
   48.78000      3.9383194E-09
   48.84000      2.7119944E-09
   48.90000      1.1061411E-09
   48.96000     -9.8318265E-10
   49.02000     -3.6145689E-09
   49.08000     -6.7910912E-09
   49.14000     -1.0470162E-08
   49.20000     -1.4592357E-08
   49.26000     -1.9120350E-08
   49.32000     -2.4074296E-08
   49.38000     -2.9551138E-08
   49.44000     -3.5722078E-08
   49.50000     -4.2811777E-08
   49.56000     -5.1069819E-08
   49.62000     -6.0746906E-08
   49.68000     -7.2084369E-08
   49.74000     -8.5319485E-08
   49.80000     -1.0070344E-07
   49.86000     -1.1852621E-07
   49.92000     -1.3914304E-07
   49.98000     -1.6299823E-07
   50.04000     -1.9064346E-07
   50.10000     -2.2274833E-07
   50.16000     -2.6010181E-07
   50.22000     -3.0360582E-07
   50.28000     -3.5426484E-07
   50.34000     -4.1317821E-07
   50.40000     -4.8154158E-07
   50.46000     -5.6066273E-07
   50.52000     -6.5199146E-07
   50.58000     -7.5716167E-07
   50.64000     -8.7803784E-07
   50.70000     -1.0167577E-06
   50.76000     -1.1757626E-06
   50.82000     -1.3578127E-06
   50.88000     -1.5659847E-06
   50.94000     -1.8036621E-06
   51.00000     -2.0745310E-06
   51.06000     -2.3825912E-06
   51.12000     -2.7321921E-06
   51.18000     -3.1280865E-06
   51.24000     -3.5754895E-06
   51.30000     -4.0801292E-06
   51.36000     -4.6482733E-06
   51.42000     -5.2867449E-06
   51.48000     -6.0029206E-06
   51.54000     -6.8047398E-06
   51.60000     -7.7007217E-06
   51.66000     -8.6999898E-06
   51.72000     -9.8122982E-06
   51.78000     -1.1048049E-05
   51.84000     -1.2418300E-05
   51.90000     -1.3934766E-05
   51.96000     -1.5609821E-05
   52.02000     -1.7456494E-05
   52.08000     -1.9488460E-05
   52.14000     -2.1720009E-05
   52.20000     -2.4166011E-05
   52.26000     -2.6841846E-05
   52.32000     -2.9763371E-05
   52.38000     -3.2946860E-05
   52.44000     -3.6408994E-05
   52.50000     -4.0166804E-05
   52.56000     -4.4237659E-05
   52.62000     -4.8639144E-05
   52.68000     -5.3389002E-05
   52.74000     -5.8504982E-05
   52.80000     -6.4004707E-05
   52.86000     -6.9905531E-05
   52.92000     -7.6224416E-05
   52.98000     -8.2977836E-05
   53.04000     -9.0181580E-05
   53.10000     -9.7850716E-05
   53.16000     -1.0599940E-04
   53.22000     -1.1464081E-04
   53.28000     -1.2378697E-04
   53.34000     -1.3344866E-04
   53.40000     -1.4363519E-04
   53.46000     -1.5435432E-04
   53.52000     -1.6561206E-04
   53.58000     -1.7741261E-04
   53.64000     -1.8975823E-04
   53.70000     -2.0264905E-04
   53.76000     -2.1608319E-04
   53.82000     -2.3005648E-04
   53.88000     -2.4456254E-04
   53.94000     -2.5959261E-04
   54.00000     -2.7513577E-04
   54.06000     -2.9117861E-04
   54.12000     -3.0770566E-04
   54.18000     -3.2469910E-04
   54.24000     -3.4213887E-04
   54.30000     -3.6000274E-04
   54.36000     -3.7826644E-04
   54.42000     -3.9690369E-04
   54.48000     -4.1588649E-04
   54.54000     -4.3518524E-04
   54.60000     -4.5476883E-04
   54.66000     -4.7460495E-04
   54.72000     -4.9466029E-04
   54.78000     -5.1490054E-04
   54.84000     -5.3529080E-04
   54.90000     -5.5579579E-04
   54.96000     -5.7638000E-04
   55.02000     -5.9700804E-04
   55.08000     -6.1764487E-04
   55.14000     -6.3825573E-04
   55.20000     -6.5880665E-04
   55.26000     -6.7926460E-04
   55.32000     -6.9959782E-04
   55.38000     -7.1977585E-04
   55.44000     -7.3976966E-04
   55.50000     -7.5955188E-04
   55.56000     -7.7909703E-04