  -2.400000      0.0000000E+00
  -2.340000      0.0000000E+00
  -2.280000      0.0000000E+00
  -2.220000      0.0000000E+00
  -2.160000      0.0000000E+00
  -2.100000     -2.9585373E-19
  -2.040000     -2.5248762E-18
  -1.980000     -1.0852331E-17
  -1.920000     -3.0196781E-17
  -1.860000     -5.7459466E-17
  -1.800000     -6.7488475E-17
  -1.740000     -8.0551700E-18
  -1.680000      1.7460585E-16
  -1.620000      4.7457652E-16
  -1.560000      7.6725901E-16
  -1.500000      8.2793855E-16
  -1.440000      4.8038452E-16
  -1.380000     -1.8003246E-16
  -1.320000     -6.7856064E-16
  -1.260000     -3.8527630E-16
  -1.200000      9.0153962E-16
  -1.140000      2.3413280E-15
  -1.080000      2.0044696E-15
  -1.020000     -2.1425891E-15
 -0.9600000     -1.0402565E-14
 -0.9000000     -1.9705652E-14
 -0.8400000     -2.3643940E-14
 -0.7800000     -1.5118398E-14
 -0.7200000      9.0021645E-15
 -0.6600000      4.3567614E-14
 -0.6000000      7.4298979E-14
 -0.5400000      8.2408127E-14
 -0.4800000      5.3848897E-14
 -0.4200000     -1.0819906E-14
 -0.3600000     -9.1583567E-14
 -0.3000000     -1.5342504E-13
 -0.2400000     -1.6026109E-13
 -0.1800000     -9.3418220E-14
 -0.1200000      3.3836456E-14
 -5.9999999E-02  1.7407754E-13
  0.0000000E+00  2.5991351E-13
  5.9999999E-02  2.3166310E-13
  0.1200000      6.8581717E-14
  0.1800000     -1.9021190E-13
  0.2400000     -4.4750724E-13
  0.3000000     -5.7751064E-13
  0.3600000     -4.7660644E-13
  0.4200000     -1.1721503E-13
  0.4800000      4.1981230E-13
  0.5400000      9.5519025E-13
  0.6000000      1.2694299E-12
  0.6600000      1.1927158E-12
  0.7200000      6.8966409E-13
  0.7800000     -1.0416144E-13
  0.8400000     -9.2207004E-13
  0.9000000     -1.4764615E-12
  0.9600000     -1.5944676E-12
   1.020000     -1.3108251E-12
   1.080000     -8.5954881E-13
   1.140000     -5.5094948E-13
   1.200000     -5.8298380E-13
   1.260000     -8.8378897E-13
   1.320000     -1.0848291E-12
   1.380000     -6.7045935E-13
   1.440000      7.4082044E-13
   1.500000      3.1114735E-12
   1.560000      5.8523225E-12
   1.620000      7.9457630E-12
   1.680000      8.3113126E-12
   1.740000      6.2726864E-12
   1.800000      1.9148728E-12
   1.860000     -3.8504052E-12
   1.920000     -9.5668950E-12
   1.980000     -1.3756219E-11
   2.040000     -1.5452526E-11
   2.100000     -1.4508302E-11
   2.160000     -1.1534911E-11
   2.220000     -7.5147527E-12
   2.280000     -3.2762488E-12
   2.340000      9.1738824E-13
   2.400000      5.4786037E-12
   2.460000      1.1270375E-11
   2.520000      1.9172880E-11
   2.580000      2.9662318E-11
   2.640000      4.2604777E-11
   2.700000      5.7354531E-11
   2.760000      7.3099138E-11
   2.820000      8.9280035E-11
   2.880000      1.0588691E-10
   2.940000      1.2348431E-10
   3.000000      1.4294842E-10
   3.060000      1.6501714E-10
   3.120000      1.8983971E-10
   3.180000      2.1672268E-10
   3.240000      2.4420035E-10
   3.300000      2.7043837E-10
   3.360000      2.9384190E-10
   3.420000      3.1364872E-10
   3.480000      3.3027042E-10
   3.540000      3.4522565E-10
   3.600000      3.6065906E-10
   3.660000      3.7860373E-10
   3.720000      4.0025017E-10
   3.780000      4.2548834E-10
   3.840000      4.5287912E-10
   3.900000      4.8004023E-10
   3.960000      5.0427257E-10
   4.020000      5.2317267E-10
   4.080000      5.3501598E-10
   4.140000      5.3882243E-10
   4.200000      5.3417010E-10
   4.260000      5.2093735E-10
   4.320000      4.9916082E-10
   4.380000      4.6911525E-10
   4.440000      4.3158072E-10
   4.500000      3.8813885E-10
   4.560000      3.4129935E-10
   4.620000      2.9432590E-10
   4.680000      2.5076813E-10
   4.740000      2.1385323E-10
   4.800000      1.8596456E-10
   4.860000      1.6840337E-10
   4.920000      1.6150058E-10
   4.980000      1.6498693E-10
   5.040000      1.7841614E-10
   5.100000      2.0141397E-10
   5.160000      2.3358532E-10
   5.220000      2.7403466E-10
   5.280000      3.2057260E-10
   5.340000      3.6878250E-10
   5.400000      4.1119064E-10
   5.460000      4.3680043E-10
   5.520000      4.3118337E-10
   5.580000      3.7716466E-10
   5.640000      2.5590019E-10
   5.700000      4.7948298E-11
   5.760000     -2.6610195E-10
   5.820000     -7.0566852E-10
   5.880000     -1.2906937E-09
   5.940000     -2.0420652E-09
   6.000000     -2.9812475E-09
   6.060000     -4.1287347E-09
   6.120000     -5.5015281E-09
   6.180000     -7.1104398E-09
   6.240000     -8.9582022E-09
   6.300000     -1.1039044E-08
   6.360000     -1.3339683E-08
   6.420000     -1.5840987E-08
   6.480000     -1.8519383E-08
   6.540000     -2.1347345E-08
   6.600000     -2.4293014E-08
   6.660000     -2.7319476E-08
   6.720000     -3.0384424E-08
   6.780000     -3.3440500E-08
   6.840000     -3.6436205E-08
   6.900000     -3.9316905E-08
   6.960000     -4.2025587E-08
   7.020000     -4.4503512E-08
   7.080000     -4.6690971E-08
   7.140000     -4.8528797E-08
   7.200000     -4.9960690E-08
   7.260000     -5.0936226E-08
   7.320000     -5.1414137E-08
   7.380000     -5.1365401E-08
   7.440000     -5.0775760E-08
   7.500000     -4.9647451E-08
   7.560000     -4.7999841E-08
   7.620000     -4.5868781E-08
   7.680000     -4.3304585E-08
   7.740000     -4.0368974E-08
   7.800000     -3.7131610E-08
   7.860000     -3.3666968E-08
   7.920000     -3.0051975E-08
   7.980000     -2.6364308E-08
   8.040000     -2.2680878E-08
   8.100000     -1.9075976E-08
   8.160000     -1.5619031E-08
   8.220000     -1.2372376E-08
   8.280000     -9.3895345E-09
   8.340000     -6.7142132E-09
   8.400000     -4.3796029E-09
   8.460000     -2.4072953E-09
   8.520000     -8.0544943E-10
   8.580000      4.3342144E-10
   8.640000      1.3339414E-09
   8.700000      1.9374580E-09
   8.760000      2.2992230E-09
   8.820000      2.4837215E-09
   8.880000      2.5594395E-09
   8.940000      2.5942963E-09
   9.000000      2.6521954E-09
   9.060000      2.7902602E-09
   9.120000      3.0559977E-09
   9.180000      3.4840877E-09
   9.240000      4.0933759E-09
   9.300000      4.8852158E-09
   9.360000      5.8440874E-09
   9.420000      6.9405219E-09
   9.480000      8.1353688E-09
   9.540000      9.3840891E-09
   9.600000      1.0640238E-08
   9.660000      1.1858213E-08
   9.720000      1.2996018E-08
   9.780000      1.4018637E-08
   9.840000      1.4901829E-08
   9.900000      1.5635313E-08
   9.960000      1.6224078E-08
   10.02000      1.6687224E-08
   10.08000      1.7054765E-08
   10.14000      1.7363680E-08
   10.20000      1.7654436E-08
   10.26000      1.7968496E-08
   10.32000      1.8346407E-08
   10.38000      1.8825784E-08
   10.44000      1.9438746E-08
   10.50000      2.0209272E-08
   10.56000      2.1151319E-08
   10.62000      2.2268425E-08
   10.68000      2.3554691E-08
   10.74000      2.4996227E-08
   10.80000      2.6572046E-08
   10.86000      2.8253927E-08
   10.92000      3.0005843E-08
   10.98000      3.1784126E-08
   11.04000      3.3539372E-08
   11.10000      3.5220037E-08
   11.16000      3.6776711E-08
   11.22000      3.8165442E-08
   11.28000      3.9349167E-08
   11.34000      4.0297309E-08
   11.40000      4.0984656E-08
   11.46000      4.1390958E-08
   11.52000      4.1501931E-08
   11.58000      4.1311338E-08
   11.64000      4.0823132E-08
   11.70000      4.0052427E-08
   11.76000      3.9024972E-08
   11.82000      3.7775401E-08
   11.88000      3.6345039E-08
   11.94000      3.4779859E-08
   12.00000      3.3128480E-08
   12.06000      3.1439860E-08
   12.12000      2.9760212E-08
   12.18000      2.8129252E-08
   12.24000      2.6576563E-08
   12.30000      2.5118965E-08
   12.36000      2.3759657E-08
   12.42000      2.2489434E-08
   12.48000      2.1289665E-08
   12.54000      2.0136588E-08
   12.60000      1.9006206E-08
   12.66000      1.7879021E-08
   12.72000      1.6743479E-08
   12.78000      1.5597010E-08
   12.84000      1.4443803E-08
   12.90000      1.3289493E-08
   12.96000      1.2134192E-08
   13.02000      1.0966356E-08
   13.08000      9.7599564E-09
   13.14000      8.4763743E-09
   13.20000      7.0705259E-09
   13.26000      5.4991216E-09
   13.32000      3.7281960E-09
   13.38000      1.7376723E-09
   13.44000     -4.7787957E-10
   13.50000     -2.9115874E-09
   13.56000     -5.5481233E-09
   13.62000     -8.3674294E-09
   13.68000     -1.1347321E-08
   13.74000     -1.4464774E-08
   13.80000     -1.7696374E-08
   13.86000     -2.1018700E-08
   13.92000     -2.4409456E-08
   13.98000     -2.7849868E-08
   14.04000     -3.1328330E-08
   14.10000     -3.4844376E-08
   14.16000     -3.8411358E-08
   14.22000     -4.2055781E-08
   14.28000     -4.5811834E-08
   14.34000     -4.9711097E-08
   14.40000     -5.3769316E-08
   14.46000     -5.7973658E-08
   14.52000     -6.2274317E-08
   14.58000     -6.6583432E-08
   14.64000     -7.0782249E-08
   14.70000     -7.4735460E-08
   14.76000     -7.8309604E-08
   14.82000     -8.1391896E-08
   14.88000     -8.3905775E-08
   14.94000     -8.5820055E-08
   15.00000     -8.7150106E-08
   15.06000     -8.7950937E-08
   15.12000     -8.8303686E-08
   15.18000     -8.8298670E-08
   15.24000     -8.8018886E-08
   15.30000     -8.7527667E-08
   15.36000     -8.6862663E-08
   15.42000     -8.6036643E-08
   15.48000     -8.5043609E-08
   15.54000     -8.3867739E-08
   15.60000     -8.2492626E-08
   15.66000     -8.0908642E-08
   15.72000     -7.9117349E-08
   15.78000     -7.7132320E-08
   15.84000     -7.4976491E-08
   15.90000     -7.2676869E-08
   15.96000     -7.0258203E-08
   16.02000     -6.7737865E-08
   16.08000     -6.5124098E-08
   16.14000     -6.2418877E-08
   16.20000     -5.9624767E-08
   16.26000     -5.6753340E-08
   16.32000     -5.3831652E-08
   16.38000     -5.0903886E-08
   16.44000     -4.8026791E-08
   16.50000     -4.5259949E-08
   16.56000     -4.2653738E-08
   16.62000     -4.0238561E-08
   16.68000     -3.8018559E-08
   16.74000     -3.5971642E-08
   16.80000     -3.4056086E-08
   16.86000     -3.2222420E-08
   16.92000     -3.0427856E-08
   16.98000     -2.8649588E-08
   17.04000     -2.6893114E-08
   17.10000     -2.5192501E-08
   17.16000     -2.3601826E-08
   17.22000     -2.2179998E-08
   17.28000     -2.0973893E-08
   17.34000     -2.0005832E-08
   17.40000     -1.9269955E-08
   17.46000     -1.8738518E-08
   17.52000     -1.8374880E-08
   17.58000     -1.8147047E-08
   17.64000     -1.8035657E-08
   17.70000     -1.8033168E-08
   17.76000     -1.8135395E-08
   17.82000     -1.8330235E-08
   17.88000     -1.8589599E-08
   17.94000     -1.8868766E-08
   18.00000     -1.9113651E-08
   18.06000     -1.9272969E-08
   18.12000     -1.9310303E-08
   18.18000     -1.9211789E-08
   18.24000     -1.8987258E-08
   18.30000     -1.8665339E-08
   18.36000     -1.8284711E-08
   18.42000     -1.7884060E-08
   18.48000     -1.7492891E-08
   18.54000     -1.7124583E-08
   18.60000     -1.6772857E-08
   18.66000     -1.6412514E-08
   18.72000     -1.6004792E-08
   18.78000     -1.5506517E-08
   18.84000     -1.4880682E-08
   18.90000     -1.4105011E-08
   18.96000     -1.3175368E-08
   19.02000     -1.2102686E-08
   19.08000     -1.0904945E-08
   19.14000     -9.5981081E-09
   19.20000     -8.1906197E-09
   19.26000     -6.6846026E-09
   19.32000     -5.0837055E-09
   19.38000     -3.4042891E-09
   19.44000     -1.6847955E-09
   19.50000      1.1370234E-11
   19.56000      1.6015506E-09
   19.62000      2.9968124E-09
   19.68000      4.1181374E-09
   19.74000      4.9108295E-09
   19.80000      5.3531624E-09
   19.86000      5.4575211E-09
   19.92000      5.2646336E-09
   19.98000      4.8330464E-09
   20.04000      4.2264534E-09
   20.10000      3.5013055E-09
   20.16000      2.6967191E-09
   20.22000      1.8284743E-09
   20.28000      8.8858948E-10
   20.34000     -1.4885516E-10
   20.40000     -1.3165237E-09
   20.46000     -2.6401252E-09
   20.52000     -4.1265298E-09
   20.58000     -5.7579785E-09
   20.64000     -7.4947089E-09
   20.70000     -9.2850110E-09
   20.76000     -1.1078622E-08
   20.82000     -1.2837929E-08
   20.88000     -1.4542560E-08
   20.94000     -1.6186105E-08
   21.00000     -1.7767348E-08
   21.06000     -1.9280826E-08
   21.12000     -2.0711505E-08
   21.18000     -2.2036247E-08
   21.24000     -2.3231301E-08
   21.30000     -2.4282437E-08
   21.36000     -2.5193016E-08
   21.42000     -2.5986221E-08
   21.48000     -2.6699928E-08
   21.54000     -2.7375529E-08
   21.60000     -2.8044376E-08
   21.66000     -2.8716498E-08
   21.72000     -2.9375775E-08
   21.78000     -2.9983447E-08
   21.84000     -3.0489026E-08
   21.90000     -3.0844870E-08
   21.96000     -3.1019272E-08
   22.02000     -3.1003740E-08
   22.08000     -3.0812270E-08
   22.14000     -3.0473817E-08
   22.20000     -3.0021521E-08
   22.26000     -2.9482926E-08
   22.32000     -2.8874631E-08
   22.38000     -2.8202564E-08
   22.44000     -2.7467239E-08
   22.50000     -2.6671847E-08
   22.56000     -2.5830596E-08
   22.62000     -2.4974469E-08
   22.68000     -2.4151795E-08
   22.74000     -2.3421787E-08
   22.80000     -2.2840975E-08
   22.86000     -2.2445144E-08
   22.92000     -2.2232179E-08
   22.98000     -2.2152532E-08
   23.04000     -2.2112621E-08
   23.10000     -2.1992347E-08
   23.16000     -2.1672662E-08
   23.22000     -2.1064926E-08
   23.28000     -2.0132800E-08
   23.34000     -1.8899925E-08
   23.40000     -1.7441543E-08
   23.46000     -1.5863238E-08
   23.52000     -1.4273306E-08
   23.58000     -1.2756272E-08
   23.64000     -1.1354031E-08
   23.70000     -1.0058922E-08
   23.76000     -8.8204120E-09
   23.82000     -7.5640161E-09
   23.88000     -6.2179404E-09
   23.94000     -4.7402686E-09
   24.00000     -3.1384397E-09
   24.06000     -1.4743402E-09
   24.12000      1.4740130E-10
   24.18000      1.6046637E-09
   24.24000      2.7885125E-09
   24.30000      3.6292405E-09
   24.36000      4.1094972E-09
   24.42000      4.2609933E-09
   24.48000      4.1470090E-09
   24.54000      3.8374828E-09
   24.60000      3.3853584E-09
   24.66000      2.8118059E-09
   24.72000      2.1045581E-09
   24.78000      1.2291049E-09
   24.84000      1.4821215E-10
   24.90000     -1.1575733E-09
   24.96000     -2.6761500E-09
   25.02000     -4.3622079E-09
   25.08000     -6.1486638E-09
   25.14000     -7.9671700E-09
   25.20000     -9.7701136E-09
   25.26000     -1.1545864E-08
   25.32000     -1.3321583E-08
   25.38000     -1.5152656E-08
   25.44000     -1.7102627E-08
   25.50000     -1.9220783E-08
   25.56000     -2.1524935E-08
   25.62000     -2.3995092E-08
   25.68000     -2.6580048E-08
   25.74000     -2.9214997E-08
   25.80000     -3.1844891E-08
   25.86000     -3.4446181E-08
   25.92000     -3.7039371E-08
   25.98000     -3.9687034E-08
   26.04000     -4.2476248E-08
   26.10000     -4.5489692E-08
   26.16000     -4.8774350E-08
   26.22000     -5.2318274E-08
   26.28000     -5.6043962E-08
   26.34000     -5.9821318E-08
   26.40000     -6.3496721E-08
   26.46000     -6.6929260E-08
   26.52000     -7.0023475E-08
   26.58000     -7.2749387E-08
   26.64000     -7.5144996E-08
   26.70000     -7.7301365E-08
   26.76000     -7.9334932E-08
   26.82000     -8.1354479E-08
   26.88000     -8.3431473E-08
   26.94000     -8.5581831E-08
   27.00000     -8.7764363E-08
   27.06000     -8.9896680E-08
   27.12000     -9.1883955E-08
   27.18000     -9.3651174E-08
   27.24000     -9.5168041E-08
   27.30000     -9.6457470E-08
   27.36000     -9.7584817E-08
   27.42000     -9.8631858E-08
   27.48000     -9.9665051E-08
   27.54000     -1.0070952E-07
   27.60000     -1.0173731E-07
   27.66000     -1.0267303E-07
   27.72000     -1.0341380E-07
   27.78000     -1.0385635E-07
   27.84000     -1.0392263E-07
   27.90000     -1.0357703E-07
   27.96000     -1.0283123E-07
   28.02000     -1.0173638E-07
   28.08000     -1.0036560E-07
   28.14000     -9.8791887E-08
   28.20000     -9.7067733E-08
   28.26000     -9.5211924E-08
   28.32000     -9.3207312E-08
   28.38000     -9.1009525E-08
   28.44000     -8.8563738E-08
   28.50000     -8.5823380E-08
   28.56000     -8.2764942E-08
   28.62000     -7.9394034E-08
   28.68000     -7.5741553E-08
   28.74000     -7.1852043E-08
   28.80000     -6.7768802E-08
   28.86000     -6.3521192E-08
   28.92000     -5.9118328E-08
   28.98000     -5.4551023E-08
   29.04000     -4.9801120E-08
   29.10000     -4.4854758E-08
   29.16000     -3.9715033E-08
   29.22000     -3.4409616E-08
   29.28000     -2.8990774E-08
   29.34000     -2.3527910E-08
   29.40000     -1.8095561E-08
   29.46000     -1.2761412E-08
   29.52000     -7.5786915E-09
   29.58000     -2.5852629E-09
   29.64000      2.1910593E-09
   29.70000      6.7239911E-09
   29.76000      1.0980906E-08
   29.82000      1.4918701E-08
   29.88000      1.8484524E-08
   29.94000      2.1620627E-08
   30.00000      2.4271490E-08
   30.06000      2.6391259E-08
   30.12000      2.7949996E-08
   30.18000      2.8937510E-08
   30.24000      2.9363756E-08
   30.30000      2.9255009E-08
   30.36000      2.8646017E-08
   30.42000      2.7569842E-08
   30.48000      2.6048719E-08
   30.54000      2.4089740E-08
   30.60000      2.1687869E-08
   30.66000      1.8835904E-08
   30.72000      1.5537911E-08
   30.78000      1.1820807E-08
   30.84000      7.7393114E-09
   30.90000      3.3721343E-09
   30.96000     -1.1892703E-09
   31.02000     -5.8554517E-09
   31.08000     -1.0552519E-08
   31.14000     -1.5230864E-08
   31.20000     -1.9867409E-08
   31.26000     -2.4461640E-08
   31.32000     -2.9027008E-08
   31.38000     -3.3579997E-08
   31.44000     -3.8129532E-08
   31.50000     -4.2669491E-08
   31.56000     -4.7176506E-08
   31.62000     -5.1613839E-08
   31.68000     -5.5939978E-08
   31.74000     -6.0118580E-08
   31.80000     -6.4125750E-08
   31.86000     -6.7951625E-08
   31.92000     -7.1596084E-08
   31.98000     -7.5060917E-08
   32.04000     -7.8342616E-08
   32.10000     -8.1428894E-08
   32.16000     -8.4300261E-08
   32.22000     -8.6934882E-08
   32.28000     -8.9313843E-08
   32.34000     -9.1424056E-08
   32.40000     -9.3257796E-08
   32.46000     -9.4810055E-08
   32.52000     -9.6075745E-08
   32.58000     -9.7048826E-08
   32.64000     -9.7723941E-08
   32.70000     -9.8099903E-08
   32.76000     -9.8183108E-08
   32.82000     -9.7989286E-08
   32.88000     -9.7542284E-08
   32.94000     -9.6869989E-08
   33.00000     -9.5998303E-08
   33.06000     -9.4944994E-08
   33.12000     -9.3715556E-08
   33.18000     -9.2302770E-08
   33.24000     -9.0691053E-08
   33.30000     -8.8865093E-08
   33.36000     -8.6820769E-08
   33.42000     -8.4575085E-08
   33.48000     -8.2171461E-08
   33.54000     -7.9677520E-08
   33.60000     -7.7174704E-08
   33.66000     -7.4741479E-08
   33.72000     -7.2434752E-08
   33.78000     -7.0275135E-08
   33.84000     -6.8241263E-08
   33.90000     -6.6275945E-08
   33.96000     -6.4302874E-08
   34.02000     -6.2249185E-08
   34.08000     -6.0066803E-08
   34.14000     -5.7745964E-08
   34.20000     -5.5316882E-08
   34.26000     -5.2839468E-08
   34.32000     -5.0384887E-08
   34.38000     -4.8014705E-08
   34.44000     -4.5763656E-08
   34.50000     -4.3630386E-08
   34.56000     -4.1578083E-08
   34.62000     -3.9544535E-08
   34.68000     -3.7458836E-08
   34.74000     -3.5260619E-08
   34.80000     -3.2916613E-08
   34.86000     -3.0429771E-08
   34.92000     -2.7837869E-08
   34.98000     -2.5201640E-08
   35.04000     -2.2586139E-08
   35.10000     -2.0041767E-08
   35.16000     -1.7591844E-08
   35.22000     -1.5231386E-08
   35.28000     -1.2937471E-08
   35.34000     -1.0687249E-08
   35.40000     -8.4767233E-09
   35.46000     -6.3333179E-09
   35.52000     -4.3175463E-09
   35.58000     -2.5128752E-09
   35.64000     -1.0067399E-09
   35.70000      1.3157891E-10
   35.76000      8.6946639E-10
   35.82000      1.2200061E-09
   35.88000      1.2382660E-09
   35.94000      1.0053522E-09
   36.00000      6.0471173E-10
   36.06000      9.8010711E-11
   36.12000     -4.9157034E-10
   36.18000     -1.1830665E-09
   36.24000     -2.0273940E-09
   36.30000     -3.0868172E-09
   36.36000     -4.4115658E-09
   36.42000     -6.0216085E-09
   36.48000     -7.8993034E-09
   36.54000     -9.9945092E-09
   36.60000     -1.2239530E-08
   36.66000     -1.4568339E-08
   36.72000     -1.6933743E-08
   36.78000     -1.9317303E-08
   36.84000     -2.1729344E-08
   36.90000     -2.4199526E-08
   36.96000     -2.6761290E-08
   37.02000     -2.9435425E-08
   37.08000     -3.2218288E-08
   37.14000     -3.5078610E-08
   37.20000     -3.7963808E-08
   37.26000     -4.0813170E-08
   37.32000     -4.3572918E-08
   37.38000     -4.6207674E-08
   37.44000     -4.8704731E-08
   37.50000     -5.1070586E-08
   37.56000     -5.3322236E-08
   37.62000     -5.5477081E-08
   37.68000     -5.7545041E-08
   37.74000     -5.9524844E-08
   37.80000     -6.1404585E-08
   37.86000     -6.3165565E-08
   37.92000     -6.4787862E-08
   37.98000     -6.6256405E-08
   38.04000     -6.7566148E-08
   38.10000     -6.8725051E-08
   38.16000     -6.9753504E-08
   38.22000     -7.0679654E-08
   38.28000     -7.1531126E-08
   38.34000     -7.2325392E-08
   38.40000     -7.3062012E-08
   38.46000     -7.3719640E-08
   38.52000     -7.4259439E-08
   38.58000     -7.4634059E-08
   38.64000     -7.4799708E-08
   38.70000     -7.4727573E-08
   38.76000     -7.4411510E-08
   38.82000     -7.3870090E-08
   38.88000     -7.3142893E-08
   38.94000     -7.2282155E-08
   39.00000     -7.1341823E-08
   39.06000     -7.0366347E-08
   39.12000     -6.9381557E-08
   39.18000     -6.8389653E-08
   39.24000     -6.7369953E-08
   39.30000     -6.6285494E-08
   39.36000     -6.5094511E-08
   39.42000     -6.3763707E-08
   39.48000     -6.2279632E-08
   39.54000     -6.0654479E-08
   39.60000     -5.8924382E-08
   39.66000     -5.7140657E-08
   39.72000     -5.5357049E-08
   39.78000     -5.3617281E-08
   39.84000     -5.1947104E-08
   39.90000     -5.0353009E-08
   39.96000     -4.8827136E-08
   40.02000     -4.7355574E-08
   40.08000     -4.5926114E-08
   40.14000     -4.4532328E-08
   40.20000     -4.3172729E-08
   40.26000     -4.1846235E-08
   40.32000     -4.0546855E-08
   40.38000     -3.9260801E-08
   40.44000     -3.7968153E-08
   40.50000     -3.6649105E-08
   40.56000     -3.5292743E-08
   40.62000     -3.3905099E-08
   40.68000     -3.2513192E-08
   40.74000     -3.1162951E-08
   40.80000     -2.9911028E-08
   40.86000     -2.8812369E-08
   40.92000     -2.7907086E-08
   40.98000     -2.7210492E-08
   41.04000     -2.6709460E-08
   41.10000     -2.6366392E-08
   41.16000     -2.6129708E-08
   41.22000     -2.5947557E-08
   41.28000     -2.5780235E-08
   41.34000     -2.5607237E-08
   41.40000     -2.5426910E-08
   41.46000     -2.5249500E-08
   41.52000     -2.5087161E-08
   41.58000     -2.4945452E-08
   41.64000     -2.4820110E-08
   41.70000     -2.4700181E-08
   41.76000     -2.4575719E-08
   41.82000     -2.4446171E-08
   41.88000     -2.4325466E-08
   41.94000     -2.4241489E-08
   42.00000     -2.4230143E-08
   42.06000     -2.4326290E-08
   42.12000     -2.4554772E-08
   42.18000     -2.4924214E-08
   42.24000     -2.5425123E-08
   42.30000     -2.6032566E-08
   42.36000     -2.6712772E-08
   42.42000     -2.7432440E-08
   42.48000     -2.8168785E-08
   42.54000     -2.8917762E-08
   42.60000     -2.9697532E-08
   42.66000     -3.0544943E-08
   42.72000     -3.1504786E-08
   42.78000     -3.2614306E-08
   42.84000     -3.3887932E-08
   42.90000     -3.5308044E-08
   42.96000     -3.6825750E-08
   43.02000     -3.8372431E-08
   43.08000     -3.9878387E-08
   43.14000     -4.1292285E-08
   43.20000     -4.2594593E-08
   43.26000     -4.3800480E-08
   43.32000     -4.4951513E-08
   43.38000     -4.6099398E-08
   43.44000     -4.7287500E-08
   43.50000     -4.8536204E-08
   43.56000     -4.9836363E-08
   43.62000     -5.1152021E-08
   43.68000     -5.2430657E-08
   43.74000     -5.3616894E-08
   43.80000     -5.4665314E-08
   43.86000     -5.5548856E-08
   43.92000     -5.6261296E-08
   43.98000     -5.6814539E-08
   44.04000     -5.7232683E-08
   44.10000     -5.7545357E-08
   44.16000     -5.7782124E-08
   44.22000     -5.7968741E-08
   44.28000     -5.8125181E-08
   44.34000     -5.8264909E-08
   44.40000     -5.8394779E-08
   44.46000     -5.8515312E-08
   44.52000     -5.8621129E-08
   44.58000     -5.8701417E-08
   44.64000     -5.8740451E-08
   44.70000     -5.8718463E-08
   44.76000     -5.8613359E-08
   44.82000     -5.8403845E-08
   44.88000     -5.8073962E-08
   44.94000     -5.7618180E-08
   45.00000     -5.7045320E-08
   45.06000     -5.6379335E-08
   45.12000     -5.5655818E-08
   45.18000     -5.4914445E-08
   45.24000     -5.4189318E-08
   45.30000     -5.3500010E-08
   45.36000     -5.2846001E-08
   45.42000     -5.2206200E-08
   45.48000     -5.1543502E-08
   45.54000     -5.0813131E-08
   45.60000     -4.9972492E-08
   45.66000     -4.8990174E-08
   45.72000     -4.7852119E-08
   45.78000     -4.6563756E-08
   45.84000     -4.5147925E-08
   45.90000     -4.3639595E-08
   45.96000     -4.2079094E-08
   46.02000     -4.0505871E-08
   46.08000     -3.8954195E-08
   46.14000     -3.7451191E-08
   46.20000     -3.6016335E-08
   46.26000     -3.4661245E-08
   46.32000     -3.3388670E-08
   46.38000     -3.2190950E-08
   46.44000     -3.1049158E-08
   46.50000     -2.9934608E-08
   46.56000     -2.8813917E-08
   46.62000     -2.7657189E-08
   46.68000     -2.6447287E-08
   46.74000     -2.5187076E-08
   46.80000     -2.3901761E-08
   46.86000     -2.2634861E-08
   46.92000     -2.1438648E-08
   46.98000     -2.0361911E-08
   47.04000     -1.9438991E-08
   47.10000     -1.8683410E-08
   47.16000     -1.8087713E-08
   47.22000     -1.7628619E-08
   47.28000     -1.7274964E-08
   47.34000     -1.6995498E-08
   47.40000     -1.6764547E-08
   47.46000     -1.6565203E-08
   47.52000     -1.6390723E-08
   47.58000     -1.6244783E-08
   47.64000     -1.6140360E-08
   47.70000     -1.6096413E-08
   47.76000     -1.6132010E-08
   47.82000     -1.6259248E-08
   47.88000     -1.6478159E-08
   47.94000     -1.6776983E-08
   48.00000     -1.7139209E-08
   48.06000     -1.7554980E-08
   48.12000     -1.8031232E-08
   48.18000     -1.8594525E-08
   48.24000     -1.9283604E-08
   48.30000     -2.0134177E-08
   48.36000     -2.1162974E-08
   48.42000     -2.2359316E-08
   48.48000     -2.3689099E-08
   48.54000     -2.5110138E-08
   48.60000     -2.6592302E-08
   48.66000     -2.8133785E-08
   48.72000     -2.9766925E-08
   48.78000     -3.1552052E-08
   48.84000     -3.3562962E-08
   48.90000     -3.5870666E-08
   48.96000     -3.8531926E-08
   49.02000     -4.1586581E-08
   49.08000     -4.5064276E-08
   49.14000     -4.8998174E-08
   49.20000     -5.3441500E-08
   49.26000     -5.8482325E-08
   49.32000     -6.4252959E-08
   49.38000     -7.0932089E-08
   49.44000     -7.8740207E-08
   49.50000     -8.7931078E-08
   49.56000     -9.8783403E-08
   49.62000     -1.1159687E-07
   49.68000     -1.2669564E-07
   49.74000     -1.4444045E-07
   49.80000     -1.6524849E-07
   49.86000     -1.8961849E-07
   49.92000     -2.1815700E-07
   49.98000     -2.5160102E-07
   50.04000     -2.9083287E-07
   50.10000     -3.3688437E-07
   50.16000     -3.9093220E-07
   50.22000     -4.5428953E-07
   50.28000     -5.2840204E-07
   50.34000     -6.1485525E-07
   50.40000     -7.1539699E-07
   50.46000     -8.3197267E-07
   50.52000     -9.6676661E-07
   50.58000     -1.1222431E-06
   50.64000     -1.3011821E-06
   50.70000     -1.5067069E-06
   50.76000     -1.7423083E-06
   50.82000     -2.0118669E-06
   50.88000     -2.3196749E-06
   50.94000     -2.6704606E-06
   51.00000     -3.0694143E-06
   51.06000     -3.5222210E-06
   51.12000     -4.0350969E-06
   51.18000     -4.6148366E-06
   51.24000     -5.2688601E-06
   51.30000     -6.0052603E-06
   51.36000     -6.8328418E-06
   51.42000     -7.7611467E-06
   51.48000     -8.8004699E-06
   51.54000     -9.9618637E-06
   51.60000     -1.1257147E-05
   51.66000     -1.2698906E-05
   51.72000     -1.4300513E-05
   51.78000     -1.6076136E-05
   51.84000     -1.8040746E-05
   51.90000     -2.0210120E-05
   51.96000     -2.2600827E-05
   52.02000     -2.5230214E-05
   52.08000     -2.8116354E-05
   52.14000     -3.1278010E-05
   52.20000     -3.4734563E-05
   52.26000     -3.8505936E-05
   52.32000     -4.2612533E-05
   52.38000     -4.7075115E-05
   52.44000     -5.1914736E-05
   52.50000     -5.7152589E-05
   52.56000     -6.2809886E-05
   52.62000     -6.8907706E-05
   52.68000     -7.5466814E-05
   52.74000     -8.2507548E-05
   52.80000     -9.0049652E-05
   52.86000     -9.8112076E-05
   52.92000     -1.0671283E-04
   52.98000     -1.1586873E-04
   53.04000     -1.2559524E-04
   53.10000     -1.3590620E-04
   53.16000     -1.4681371E-04
   53.22000     -1.5832784E-04
   53.28000     -1.7045649E-04
   53.34000     -1.8320516E-04
   53.40000     -1.9657677E-04
   53.46000     -2.1057154E-04
   53.52000     -2.2518673E-04
   53.58000     -2.4041654E-04
   53.64000     -2.5625198E-04
   53.70000     -2.7268074E-04
   53.76000     -2.8968713E-04
   53.82000     -3.0725205E-04
   53.88000     -3.2535283E-04
   53.94000     -3.4396342E-04
   54.00000     -3.6305428E-04
   54.06000     -3.8259252E-04
   54.12000     -4.0254189E-04
   54.18000     -4.2286303E-04
   54.24000     -4.4351362E-04
   54.30000     -4.6444859E-04
   54.36000     -4.8562029E-04
   54.42000     -5.0697883E-04
   54.48000     -5.2847230E-04
   54.54000     -5.5004709E-04
   54.60000     -5.7164818E-04
   54.66000     -5.9321983E-04
   54.72000     -6.1470538E-04
   54.78000     -6.3604838E-04
   54.84000     -6.5719231E-04
   54.90000     -6.7808147E-04
   54.96000     -6.9866126E-04
   55.02000     -7.1887841E-04
   55.08000     -7.3868164E-04
   55.14000     -7.5802201E-04
   55.20000     -7.7685330E-04
   55.26000     -7.9513219E-04
   55.32000     -8.1281894E-04
   55.38000     -8.2987745E-04
   55.44000     -8.4627530E-04
   55.50000     -8.6198439E-04
   55.56000     -8.7698083E-04