  -2.400000      0.0000000E+00
  -2.340000      0.0000000E+00
  -2.280000      0.0000000E+00
  -2.220000      0.0000000E+00
  -2.160000      0.0000000E+00
  -2.100000      3.9293813E-22
  -2.040000      1.6096784E-20
  -1.980000      1.2728489E-19
  -1.920000      5.2811579E-19
  -1.860000      1.3716055E-18
  -1.800000      2.0969347E-18
  -1.740000      1.9889532E-19
  -1.680000     -9.7372898E-18
  -1.620000     -3.4844692E-17
  -1.560000     -7.8579968E-17
  -1.500000     -1.3106257E-16
  -1.440000     -1.5929364E-16
  -1.380000     -1.0575947E-16
  -1.320000      9.5379364E-17
  -1.260000      4.8151769E-16
  -1.200000      1.0138599E-15
  -1.140000      1.5414391E-15
  -1.080000      1.8042143E-15
  -1.020000      1.4919841E-15
 -0.9600000      3.5215524E-16
 -0.9000000     -1.6854682E-15
 -0.8400000     -4.4092453E-15
 -0.7800000     -7.2828638E-15
 -0.7200000     -9.4670636E-15
 -0.6600000     -9.9012841E-15
 -0.6000000     -7.4570011E-15
 -0.5400000     -1.2110058E-15
 -0.4800000      9.1011158E-15
 -0.4200000      2.2462114E-14
 -0.3600000      3.5968607E-14
 -0.3000000      4.4653564E-14
 -0.2400000      4.2254137E-14
 -0.1800000      2.3259899E-14
 -0.1200000     -1.3984168E-14
 -5.9999999E-02 -6.4148644E-14
  0.0000000E+00 -1.1345567E-13
  5.9999999E-02 -1.4159557E-13
  0.1200000     -1.2778095E-13
  0.1800000     -5.9852168E-14
  0.2400000      5.6715944E-14
  0.3000000      1.9428320E-13
  0.3600000      3.0678026E-13
  0.4200000      3.4279117E-13
  0.4800000      2.6495481E-13
  0.5400000      6.8839980E-14
  0.6000000     -2.0709580E-13
  0.6600000     -4.8679962E-13
  0.7200000     -6.7803781E-13
  0.7800000     -7.0383396E-13
  0.8400000     -5.3238159E-13
  0.9000000     -1.9278234E-13
  0.9600000      2.3158680E-13
   1.020000      6.3149242E-13
   1.080000      9.1179690E-13
   1.140000      1.0264315E-12
   1.200000      9.9230303E-13
   1.260000      8.7377588E-13
   1.320000      7.4185059E-13
   1.380000      6.2444884E-13
   1.440000      4.7096832E-13
   1.500000      1.5192855E-13
   1.560000     -4.9707347E-13
   1.620000     -1.5951832E-12
   1.680000     -3.1249001E-12
   1.740000     -4.8645072E-12
   1.800000     -6.3778735E-12
   1.860000     -7.0812657E-12
   1.920000     -6.3837932E-12
   1.980000     -3.8725303E-12
   2.040000      5.0655628E-13
   2.100000      6.3280891E-12
   2.160000      1.2674303E-11
   2.220000      1.8252313E-11
   2.280000      2.1630420E-11
   2.340000      2.1548131E-11
   2.400000      1.7230382E-11
   2.460000      8.6301860E-12
   2.520000     -3.4617153E-12
   2.580000     -1.7469810E-11
   2.640000     -3.1238810E-11
   2.700000     -4.2343143E-11
   2.760000     -4.8430548E-11
   2.820000     -4.7526837E-11
   2.880000     -3.8245900E-11
   2.940000     -1.9878776E-11
   3.000000      7.6327477E-12
   3.060000      4.3807780E-11
   3.120000      8.7781678E-11
   3.180000      1.3846420E-10
   3.240000      1.9466755E-10
   3.300000      2.5518174E-10
   3.360000      3.1878367E-10
   3.420000      3.8417497E-10
   3.480000      4.4985790E-10
   3.540000      5.1397653E-10
   3.600000      5.7417260E-10
   3.660000      6.2752070E-10
   3.720000      6.7060513E-10
   3.780000      6.9977141E-10
   3.840000      7.1153539E-10
   3.900000      7.0307443E-10
   3.960000      6.7268147E-10
   4.020000      6.2005384E-10
   4.080000      5.4632776E-10
   4.140000      4.5384299E-10
   4.200000      3.4571179E-10
   4.260000      2.2533317E-10
   4.320000      9.6012559E-11
   4.380000     -3.9191761E-11
   4.440000     -1.7736179E-10
   4.500000     -3.1542241E-10
   4.560000     -4.4980503E-10
   4.620000     -5.7624838E-10
   4.680000     -6.8987144E-10
   4.740000     -7.8555801E-10
   4.800000     -8.5857993E-10
   4.860000     -9.0530494E-10
   4.920000     -9.2380859E-10
   4.980000     -9.1425123E-10
   5.040000     -8.7896723E-10
   5.100000     -8.2229712E-10
   5.160000     -7.5024403E-10
   5.220000     -6.7003481E-10
   5.280000     -5.8962762E-10
   5.340000     -5.1716276E-10
   5.400000     -4.6034287E-10
   5.460000     -4.2576273E-10
   5.520000     -4.1826176E-10
   5.580000     -4.4042150E-10
   5.640000     -4.9232191E-10
   5.700000     -5.7160160E-10
   5.760000     -6.7376793E-10
   5.820000     -7.9261742E-10
   5.880000     -9.2060248E-10
   5.940000     -1.0490395E-09
   6.000000     -1.1681610E-09
   6.060000     -1.2671191E-09
   6.120000     -1.3340969E-09
   6.180000     -1.3566432E-09
   6.240000     -1.3222486E-09
   6.300000     -1.2190696E-09
   6.360000     -1.0366293E-09
   6.420000     -7.6632889E-10
   6.480000     -4.0165191E-10
   6.540000      6.1969117E-11
   6.600000      6.2759004E-10
   6.660000      1.2974101E-09
   6.720000      2.0735254E-09
   6.780000      2.9586231E-09
   6.840000      3.9564116E-09
   6.900000      5.0715476E-09
   6.960000      6.3088765E-09
   7.020000      7.6719155E-09
   7.080000      9.1607584E-09
   7.140000      1.0769794E-08
   7.200000      1.2485815E-08
   7.260000      1.4287063E-08
   7.320000      1.6143561E-08
   7.380000      1.8018714E-08
   7.440000      1.9871845E-08
   7.500000      2.1661023E-08
   7.560000      2.3345544E-08
   7.620000      2.4887617E-08
   7.680000      2.6253121E-08
   7.740000      2.7411629E-08
   7.800000      2.8336190E-08
   7.860000      2.9003337E-08
   7.920000      2.9393673E-08
   7.980000      2.9493140E-08
   8.040000      2.9294723E-08
   8.100000      2.8800100E-08
   8.160000      2.8020709E-08
   8.220000      2.6977695E-08
   8.280000      2.5700489E-08
   8.340000      2.4224166E-08
   8.400000      2.2585958E-08
   8.460000      2.0821670E-08
   8.520000      1.8962739E-08
   8.580000      1.7034569E-08
   8.640000      1.5056457E-08
   8.700000      1.3043005E-08
   8.760000      1.1006565E-08
   8.820000      8.9599492E-09
   8.880000      6.9186292E-09
   8.940000      4.9017466E-09
   9.000000      2.9315876E-09
   9.060000      1.0315589E-09
   9.120000     -7.7691154E-10
   9.180000     -2.4778366E-09
   9.240000     -4.0636885E-09
   9.300000     -5.5372680E-09
   9.360000     -6.9120007E-09
   9.420000     -8.2106242E-09
   9.480000     -9.4625845E-09
   9.540000     -1.0700713E-08
   9.600000     -1.1957776E-08
   9.660000     -1.3263366E-08
   9.720000     -1.4641376E-08
   9.780000     -1.6108052E-08
   9.840000     -1.7670564E-08
   9.900000     -1.9326047E-08
   9.960000     -2.1061203E-08
   10.02000     -2.2852715E-08
   10.08000     -2.4668699E-08
   10.14000     -2.6471239E-08
   10.20000     -2.8219839E-08
   10.26000     -2.9875238E-08
   10.32000     -3.1402966E-08
   10.38000     -3.2775951E-08
   10.44000     -3.3975773E-08
   10.50000     -3.4992517E-08
   10.56000     -3.5823508E-08
   10.62000     -3.6471434E-08
   10.68000     -3.6942438E-08
   10.74000     -3.7244593E-08
   10.80000     -3.7386940E-08
   10.86000     -3.7379063E-08
   10.92000     -3.7231011E-08
   10.98000     -3.6953232E-08
   11.04000     -3.6556496E-08
   11.10000     -3.6051659E-08
   11.16000     -3.5449517E-08
   11.22000     -3.4760870E-08
   11.28000     -3.3996873E-08
   11.34000     -3.3169673E-08
   11.40000     -3.2292938E-08
   11.46000     -3.1381994E-08
   11.52000     -3.0453251E-08
   11.58000     -2.9522843E-08
   11.64000     -2.8604822E-08
   11.70000     -2.7709392E-08
   11.76000     -2.6841704E-08
   11.82000     -2.6001601E-08
   11.88000     -2.5184244E-08
   11.94000     -2.4381341E-08
   12.00000     -2.3582496E-08
   12.06000     -2.2776357E-08
   12.12000     -2.1951497E-08
   12.18000     -2.1097160E-08
   12.24000     -2.0204137E-08
   12.30000     -1.9265793E-08
   12.36000     -1.8279081E-08
   12.42000     -1.7245164E-08
   12.48000     -1.6169212E-08
   12.54000     -1.5059326E-08
   12.60000     -1.3924772E-08
   12.66000     -1.2774005E-08
   12.72000     -1.1613036E-08
   12.78000     -1.0444436E-08
   12.84000     -9.2670192E-09
   12.90000     -8.0760625E-09
   12.96000     -6.8638721E-09
   13.02000     -5.6207137E-09
   13.08000     -4.3362176E-09
   13.14000     -3.0013727E-09
   13.20000     -1.6109495E-09
   13.26000     -1.6583986E-10
   13.32000      1.3254575E-09
   13.38000      2.8468936E-09
   13.44000      4.3767336E-09
   13.50000      5.8908580E-09
   13.56000      7.3665811E-09
   13.62000      8.7858654E-09
   13.68000      1.0137042E-08
   13.74000      1.1414702E-08
   13.80000      1.2618062E-08
   13.86000      1.3748524E-08
   13.92000      1.4807249E-08
   13.98000      1.5793400E-08
   14.04000      1.6703360E-08
   14.10000      1.7530962E-08
   14.16000      1.8268533E-08
   14.22000      1.8908528E-08
   14.28000      1.9445361E-08
   14.34000      1.9877044E-08
   14.40000      2.0206160E-08
   14.46000      2.0439808E-08
   14.52000      2.0588425E-08
   14.58000      2.0663746E-08
   14.64000      2.0676490E-08
   14.70000      2.0634500E-08
   14.76000      2.0541874E-08
   14.82000      2.0399202E-08
   14.88000      2.0204608E-08
   14.94000      1.9955003E-08
   15.00000      1.9647006E-08
   15.06000      1.9277339E-08
   15.12000      1.8842879E-08
   15.18000      1.8340762E-08
   15.24000      1.7768999E-08
   15.30000      1.7127565E-08
   15.36000      1.6419733E-08
   15.42000      1.5652988E-08
   15.48000      1.4839066E-08
   15.54000      1.3992818E-08
   15.60000      1.3130177E-08
   15.66000      1.2265772E-08
   15.72000      1.1410894E-08
   15.78000      1.0572378E-08
   15.84000      9.7526236E-09
   15.90000      8.9506704E-09
   15.96000      8.1639753E-09
   16.02000      7.3904385E-09
   16.08000      6.6302759E-09
   16.14000      5.8874003E-09
   16.20000      5.1700946E-09
   16.26000      4.4908939E-09
   16.32000      3.8656980E-09
   16.38000      3.3122933E-09
   16.44000      2.8485982E-09
   16.50000      2.4909985E-09
   16.56000      2.2531257E-09
   16.62000      2.1452597E-09
   16.68000      2.1743185E-09
   16.74000      2.3441737E-09
   16.80000      2.6559406E-09
   16.86000      3.1079326E-09
   16.92000      3.6952015E-09
   16.98000      4.4088542E-09
   17.04000      5.2355689E-09
   17.10000      6.1577778E-09
   17.16000      7.1548212E-09
   17.22000      8.2050367E-09
   17.28000      9.2883798E-09
   17.34000      1.0388901E-08
   17.40000      1.1496362E-08
   17.46000      1.2606506E-08
   17.52000      1.3719845E-08
   17.58000      1.4839259E-08
   17.64000      1.5967011E-08
   17.70000      1.7101875E-08
   17.76000      1.8237062E-08
   17.82000      1.9359351E-08
   17.88000      2.0449649E-08
   17.94000      2.1484839E-08
   18.00000      2.2440545E-08
   18.06000      2.3294145E-08
   18.12000      2.4027258E-08
   18.18000      2.4626919E-08
   18.24000      2.5085082E-08
   18.30000      2.5396465E-08
   18.36000      2.5555563E-08
   18.42000      2.5553991E-08
   18.48000      2.5379437E-08
   18.54000      2.5016945E-08
   18.60000      2.4452474E-08
   18.66000      2.3677616E-08
   18.72000      2.2693875E-08
   18.78000      2.1514827E-08
   18.84000      2.0165285E-08
   18.90000      1.8677593E-08
   18.96000      1.7086231E-08
   19.02000      1.5422405E-08
   19.08000      1.3710094E-08
   19.14000      1.1964394E-08
   19.20000      1.0191958E-08
   19.26000      8.3926981E-09
   19.32000      6.5616437E-09
   19.38000      4.6901474E-09
   19.44000      2.7662048E-09
   19.50000      7.7423773E-10
   19.56000     -1.3050034E-09
   19.62000     -3.4937697E-09
   19.68000     -5.8155241E-09
   19.74000     -8.2920550E-09
   19.80000     -1.0939869E-08
   19.86000     -1.3766432E-08
   19.92000     -1.6766974E-08
   19.98000     -1.9922581E-08
   20.04000     -2.3200190E-08
   20.10000     -2.6554925E-08
   20.16000     -2.9934732E-08
   20.22000     -3.3286792E-08
   20.28000     -3.6564561E-08
   20.34000     -3.9733990E-08
   20.40000     -4.2777479E-08
   20.46000     -4.5694627E-08
   20.52000     -4.8499562E-08
   20.58000     -5.1215594E-08
   20.64000     -5.3868369E-08
   20.70000     -5.6479081E-08
   20.76000     -5.9058937E-08
   20.82000     -6.1605618E-08
   20.88000     -6.4101876E-08
   20.94000     -6.6516165E-08
   21.00000     -6.8804837E-08
   21.06000     -7.0915704E-08
   21.12000     -7.2792631E-08
   21.18000     -7.4381028E-08
   21.24000     -7.5633764E-08
   21.30000     -7.6516947E-08
   21.36000     -7.7014626E-08
   21.42000     -7.7131681E-08
   21.48000     -7.6894203E-08
   21.54000     -7.6347000E-08
   21.60000     -7.5548527E-08
   21.66000     -7.4563765E-08
   21.72000     -7.3456157E-08
   21.78000     -7.2279832E-08
   21.84000     -7.1073345E-08
   21.90000     -6.9856235E-08
   21.96000     -6.8628928E-08
   22.02000     -6.7376234E-08
   22.08000     -6.6073717E-08
   22.14000     -6.4695314E-08
   22.20000     -6.3220398E-08
   22.26000     -6.1638353E-08
   22.32000     -5.9949571E-08
   22.38000     -5.8162932E-08
   22.44000     -5.6291022E-08
   22.50000     -5.4345232E-08
   22.56000     -5.2332680E-08
   22.62000     -5.0256180E-08
   22.68000     -4.8117066E-08
   22.74000     -4.5919396E-08
   22.80000     -4.3673545E-08
   22.86000     -4.1397410E-08
   22.92000     -3.9114582E-08
   22.98000     -3.6850103E-08
   23.04000     -3.4625476E-08
   23.10000     -3.2454853E-08
   23.16000     -3.0343934E-08
   23.22000     -2.8291963E-08
   23.28000     -2.6296224E-08
   23.34000     -2.4357647E-08
   23.40000     -2.2485798E-08
   23.46000     -2.0701806E-08
   23.52000     -1.9038191E-08
   23.58000     -1.7535296E-08
   23.64000     -1.6234791E-08
   23.70000     -1.5171434E-08
   23.76000     -1.4364945E-08
   23.82000     -1.3814219E-08
   23.88000     -1.3495805E-08
   23.94000     -1.3367758E-08
   24.00000     -1.3378513E-08
   24.06000     -1.3478768E-08
   24.12000     -1.3633317E-08
   24.18000     -1.3829355E-08
   24.24000     -1.4078852E-08
   24.30000     -1.4414169E-08
   24.36000     -1.4878306E-08
   24.42000     -1.5512637E-08
   24.48000     -1.6345696E-08
   24.54000     -1.7385966E-08
   24.60000     -1.8620209E-08
   24.66000     -2.0017110E-08
   24.72000     -2.1534516E-08
   24.78000     -2.3127848E-08
   24.84000     -2.4757231E-08
   24.90000     -2.6391765E-08
   24.96000     -2.8010350E-08
   25.02000     -2.9599608E-08
   25.08000     -3.1150186E-08
   25.14000     -3.2653048E-08
   25.20000     -3.4097116E-08
   25.26000     -3.5469075E-08
   25.32000     -3.6755242E-08
   25.38000     -3.7944758E-08
   25.44000     -3.9032670E-08
   25.50000     -4.0021586E-08
   25.56000     -4.0920963E-08
   25.62000     -4.1743935E-08
   25.68000     -4.2502531E-08
   25.74000     -4.3202633E-08
   25.80000     -4.3840355E-08
   25.86000     -4.4400945E-08
   25.92000     -4.4860560E-08
   25.98000     -4.5190344E-08
   26.04000     -4.5361539E-08
   26.10000     -4.5350163E-08
   26.16000     -4.5140101E-08
   26.22000     -4.4724072E-08
   26.28000     -4.4102826E-08
   26.34000     -4.3283357E-08
   26.40000     -4.2277321E-08
   26.46000     -4.1100378E-08
   26.52000     -3.9772647E-08
   26.58000     -3.8319744E-08
   26.64000     -3.6773169E-08
   26.70000     -3.5168881E-08
   26.76000     -3.3543241E-08
   26.82000     -3.1926422E-08
   26.88000     -3.0334647E-08
   26.94000     -2.8763361E-08
   27.00000     -2.7183866E-08
   27.06000     -2.5545308E-08
   27.12000     -2.3782638E-08
   27.18000     -2.1829383E-08
   27.24000     -1.9632585E-08
   27.30000     -1.7166284E-08
   27.36000     -1.4440126E-08
   27.42000     -1.1500842E-08
   27.48000     -8.4262464E-09
   27.54000     -5.3133578E-09
   27.60000     -2.2636839E-09
   27.66000      6.3072436E-10
   27.72000      3.2974430E-09
   27.78000      5.6883724E-09
   27.84000      7.7789952E-09
   27.90000      9.5636770E-09
   27.96000      1.1049364E-08
   28.02000      1.2250010E-08
   28.08000      1.3183326E-08
   28.14000      1.3870259E-08
   28.20000      1.4336387E-08
   28.26000      1.4613555E-08
   28.32000      1.4739895E-08
   28.38000      1.4756904E-08
   28.44000      1.4703270E-08
   28.50000      1.4606509E-08
   28.56000      1.4474627E-08
   28.62000      1.4290526E-08
   28.68000      1.4011573E-08
   28.74000      1.3575534E-08
   28.80000      1.2912280E-08
   28.86000      1.1958759E-08
   28.92000      1.0673470E-08
   28.98000      9.0464534E-09
   29.04000      7.1019062E-09
   29.10000      4.8926512E-09
   29.16000      2.4881279E-09
   29.22000     -4.0375984E-11
   29.28000     -2.6327618E-09
   29.34000     -5.2475979E-09
   29.40000     -7.8621918E-09
   29.46000     -1.0465977E-08
   29.52000     -1.3050250E-08
   29.58000     -1.5598454E-08
   29.64000     -1.8081007E-08
   29.70000     -2.0456959E-08
   29.76000     -2.2682437E-08
   29.82000     -2.4723285E-08
   29.88000     -2.6567827E-08
   29.94000     -2.8235245E-08
   30.00000     -2.9776219E-08
   30.06000     -3.1264694E-08
   30.12000     -3.2782161E-08
   30.18000     -3.4398354E-08
   30.24000     -3.6153423E-08
   30.30000     -3.8046586E-08
   30.36000     -4.0034784E-08
   30.42000     -4.2042100E-08
   30.48000     -4.3977959E-08
   30.54000     -4.5759453E-08
   30.60000     -4.7332065E-08
   30.66000     -4.8683418E-08
   30.72000     -4.9846435E-08
   30.78000     -5.0891273E-08
   30.84000     -5.1908227E-08
   30.90000     -5.2986291E-08
   30.96000     -5.4192881E-08
   31.02000     -5.5559809E-08
   31.08000     -5.7078616E-08
   31.14000     -5.8705712E-08
   31.20000     -6.0375193E-08
   31.26000     -6.2015175E-08
   31.32000     -6.3562993E-08
   31.38000     -6.4975197E-08
   31.44000     -6.6230179E-08
   31.50000     -6.7323889E-08
   31.56000     -6.8260817E-08
   31.62000     -6.9044077E-08
   31.68000     -6.9668253E-08
   31.74000     -7.0117594E-08
   31.80000     -7.0369907E-08
   31.86000     -7.0404823E-08
   31.92000     -7.0213211E-08
   31.98000     -6.9804244E-08
   32.04000     -6.9207502E-08
   32.10000     -6.8468680E-08
   32.16000     -6.7639967E-08
   32.22000     -6.6767299E-08
   32.28000     -6.5878261E-08
   32.34000     -6.4973932E-08
   32.40000     -6.4027404E-08
   32.46000     -6.2989855E-08
   32.52000     -6.1803135E-08
   32.58000     -6.0415928E-08
   32.64000     -5.8799515E-08
   32.70000     -5.6958577E-08
   32.76000     -5.4933981E-08
   32.82000     -5.2795972E-08
   32.88000     -5.0629072E-08
   32.94000     -4.8512291E-08
   33.00000     -4.6499917E-08
   33.06000     -4.4608221E-08
   33.12000     -4.2812079E-08
   33.18000     -4.1052676E-08
   33.24000     -3.9254495E-08
   33.30000     -3.7346847E-08
   33.36000     -3.5284039E-08
   33.42000     -3.3058313E-08
   33.48000     -3.0701941E-08
   33.54000     -2.8277809E-08
   33.60000     -2.5861237E-08
   33.66000     -2.3518345E-08
   33.72000     -2.1287486E-08
   33.78000     -1.9169336E-08
   33.84000     -1.7128942E-08
   33.90000     -1.5109242E-08
   33.96000     -1.3052206E-08
   34.02000     -1.0921118E-08
   34.08000     -8.7170200E-09
   34.14000     -6.4839742E-09
   34.20000     -4.3011923E-09
   34.26000     -2.2641471E-09
   34.32000     -4.6026385E-10
   34.38000      1.0535759E-09
   34.44000      2.2650970E-09
   34.50000      3.2083791E-09
   34.56000      3.9532151E-09
   34.62000      4.5856958E-09
   34.68000      5.1859983E-09
   34.74000      5.8098255E-09
   34.80000      6.4784698E-09
   34.86000      7.1796777E-09
   34.92000      7.8783096E-09
   34.98000      8.5330365E-09
   35.04000      9.1137160E-09
   35.10000      9.6140669E-09
   35.16000      1.0055621E-08
   35.22000      1.0481529E-08
   35.28000      1.0941845E-08
   35.34000      1.1474696E-08
   35.40000      1.2089388E-08
   35.46000      1.2757319E-08
   35.52000      1.3414538E-08
   35.58000      1.3976248E-08
   35.64000      1.4359615E-08
   35.70000      1.4508208E-08
   35.76000      1.4410423E-08
   35.82000      1.4105700E-08
   35.88000      1.3676028E-08
   35.94000      1.3224774E-08
   36.00000      1.2848854E-08
   36.06000      1.2612323E-08
   36.12000      1.2528908E-08
   36.18000      1.2558139E-08
   36.24000      1.2615577E-08
   36.30000      1.2593525E-08
   36.36000      1.2385889E-08
   36.42000      1.1910148E-08
   36.48000      1.1120851E-08
   36.54000      1.0011954E-08
   36.60000      8.6087075E-09
   36.66000      6.9528006E-09
   36.72000      5.0859934E-09
   36.78000      3.0375047E-09
   36.84000      8.1876522E-10
   36.90000     -1.5734253E-09
   36.96000     -4.1470978E-09
   37.02000     -6.9025363E-09
   37.08000     -9.8215835E-09
   37.14000     -1.2862709E-08
   37.20000     -1.5963698E-08
   37.26000     -1.9051170E-08
   37.32000     -2.2053888E-08
   37.38000     -2.4915591E-08
   37.44000     -2.7603351E-08
   37.50000     -3.0109046E-08
   37.56000     -3.2443825E-08
   37.62000     -3.4627611E-08
   37.68000     -3.6677047E-08
   37.74000     -3.8595552E-08
   37.80000     -4.0368299E-08
   37.86000     -4.1963236E-08
   37.92000     -4.3337586E-08
   37.98000     -4.4447937E-08
   38.04000     -4.5260968E-08
   38.10000     -4.5762199E-08
   38.16000     -4.5960448E-08
   38.22000     -4.5887077E-08
   38.28000     -4.5590379E-08
   38.34000     -4.5126523E-08
   38.40000     -4.4549633E-08
   38.46000     -4.3903402E-08
   38.52000     -4.3216332E-08
   38.58000     -4.2501405E-08
   38.64000     -4.1759630E-08
   38.70000     -4.0985871E-08
   38.76000     -4.0174633E-08
   38.82000     -3.9324036E-08
   38.88000     -3.8436799E-08
   38.94000     -3.7518586E-08
   39.00000     -3.6574782E-08
   39.06000     -3.5607357E-08
   39.12000     -3.4613123E-08
   39.18000     -3.3584008E-08
   39.24000     -3.2509018E-08
   39.30000     -3.1377041E-08
   39.36000     -3.0179333E-08
   39.42000     -2.8910820E-08
   39.48000     -2.7569898E-08
   39.54000     -2.6156943E-08
   39.60000     -2.4672163E-08
   39.66000     -2.3113641E-08
   39.72000     -2.1476326E-08
   39.78000     -1.9752635E-08
   39.84000     -1.7934843E-08
   39.90000     -1.6019118E-08
   39.96000     -1.4010396E-08
   40.02000     -1.1926911E-08
   40.08000     -9.8029673E-09
   40.14000     -7.6886630E-09
   40.20000     -5.6460414E-09
   40.26000     -3.7420524E-09
   40.32000     -2.0397442E-09
   40.38000     -5.8972693E-10
   40.44000      5.7604799E-10
   40.50000      1.4468126E-09
   40.56000      2.0315349E-09
   40.62000      2.3543334E-09
   40.68000      2.4483218E-09
   40.74000      2.3495761E-09
   40.80000      2.0924478E-09
   40.86000      1.7066749E-09
   40.92000      1.2159946E-09
   40.98000      6.3753886E-10
   41.04000     -1.8683121E-11
   41.10000     -7.5050527E-10
   41.16000     -1.5642652E-09
   41.22000     -2.4746820E-09
   41.28000     -3.5031014E-09
   41.34000     -4.6735509E-09
   41.40000     -6.0067409E-09
   41.46000     -7.5130187E-09
   41.52000     -9.1860253E-09
   41.58000     -1.0999096E-08
   41.64000     -1.2906067E-08
   41.70000     -1.4847043E-08
   41.76000     -1.6758198E-08
   41.82000     -1.8583332E-08
   41.88000     -2.0284078E-08
   41.94000     -2.1846024E-08
   42.00000     -2.3279098E-08
   42.06000     -2.4612481E-08
   42.12000     -2.5885811E-08
   42.18000     -2.7139430E-08
   42.24000     -2.8406296E-08
   42.30000     -2.9707090E-08
   42.36000     -3.1048828E-08
   42.42000     -3.2425991E-08
   42.48000     -3.3822914E-08
   42.54000     -3.5216321E-08
   42.60000     -3.6577607E-08
   42.66000     -3.7875164E-08
   42.72000     -3.9077030E-08
   42.78000     -4.0154205E-08
   42.84000     -4.1084224E-08
   42.90000     -4.1854303E-08
   42.96000     -4.2463387E-08
   43.02000     -4.2922611E-08
   43.08000     -4.3254271E-08
   43.14000     -4.3489607E-08
   43.20000     -4.3665842E-08
   43.26000     -4.3822624E-08
   43.32000     -4.3998018E-08
   43.38000     -4.4224088E-08
   43.44000     -4.4522753E-08
   43.50000     -4.4902784E-08
   43.56000     -4.5359226E-08
   43.62000     -4.5876202E-08
   43.68000     -4.6433101E-08
   43.74000     -4.7013206E-08
   43.80000     -4.7612723E-08
   43.86000     -4.8247959E-08
   43.92000     -4.8958690E-08
   43.98000     -4.9807021E-08
   44.04000     -5.0872121E-08
   44.10000     -5.2242470E-08
   44.16000     -5.4007842E-08
   44.22000     -5.6253217E-08
   44.28000     -5.9056305E-08
   44.34000     -6.2489462E-08
   44.40000     -6.6625908E-08
   44.46000     -7.1548982E-08
   44.52000     -7.7362770E-08
   44.58000     -8.4201965E-08
   44.64000     -9.2239290E-08
   44.70000     -1.0168952E-07
   44.76000     -1.1281045E-07
   44.82000     -1.2590210E-07
   44.88000     -1.4130653E-07
   44.94000     -1.5941001E-07
   45.00000     -1.8064907E-07
   45.06000     -2.0552005E-07
   45.12000     -2.3459125E-07
   45.18000     -2.6851549E-07
   45.24000     -3.0804136E-07
   45.30000     -3.5402255E-07
   45.36000     -4.0742466E-07
   45.42000     -4.6933243E-07
   45.48000     -5.4095824E-07
   45.54000     -6.2365427E-07
   45.60000     -7.1893027E-07
   45.66000     -8.2847686E-07
   45.72000     -9.5419227E-07
   45.78000     -1.0982116E-06
   45.84000     -1.2629356E-06
   45.90000     -1.4510553E-06
   45.96000     -1.6655704E-06
   46.02000     -1.9098031E-06
   46.08000     -2.1874059E-06
   46.14000     -2.5023685E-06
   46.20000     -2.8590268E-06
   46.26000     -3.2620771E-06
   46.32000     -3.7166010E-06
   46.38000     -4.2280913E-06
   46.44000     -4.8024854E-06
   46.50000     -5.4462012E-06
   46.56000     -6.1661590E-06
   46.62000     -6.9697967E-06
   46.68000     -7.8650792E-06
   46.74000     -8.8604920E-06
   46.80000     -9.9650415E-06
   46.86000     -1.1188244E-05
   46.92000     -1.2540125E-05
   46.98000     -1.4031217E-05
   47.04000     -1.5672547E-05
   47.10000     -1.7475633E-05
   47.16000     -1.9452447E-05
   47.22000     -2.1615389E-05
   47.28000     -2.3977214E-05
   47.34000     -2.6550973E-05
   47.40000     -2.9349932E-05
   47.46000     -3.2387503E-05
   47.52000     -3.5677145E-05
   47.58000     -3.9232313E-05
   47.64000     -4.3066360E-05
   47.70000     -4.7192461E-05
   47.76000     -5.1623527E-05
   47.82000     -5.6372097E-05
   47.88000     -6.1450242E-05
   47.94000     -6.6869419E-05
   48.00000     -7.2640330E-05
   48.06000     -7.8772784E-05
   48.12000     -8.5275511E-05
   48.18000     -9.2156042E-05
   48.24000     -9.9420526E-05
   48.30000     -1.0707365E-04
   48.36000     -1.1511845E-04
   48.42000     -1.2355628E-04
   48.48000     -1.3238669E-04
   48.54000     -1.4160729E-04
   48.60000     -1.5121372E-04
   48.66000     -1.6119957E-04
   48.72000     -1.7155630E-04
   48.78000     -1.8227313E-04
   48.84000     -1.9333709E-04
   48.90000     -2.0473292E-04
   48.96000     -2.1644306E-04
   49.02000     -2.2844783E-04
   49.08000     -2.4072538E-04
   49.14000     -2.5325184E-04
   49.20000     -2.6600139E-04
   49.26000     -2.7894633E-04
   49.32000     -2.9205746E-04
   49.38000     -3.0530398E-04
   49.44000     -3.1865377E-04
   49.50000     -3.3207366E-04
   49.56000     -3.4552961E-04
   49.62000     -3.5898710E-04
   49.68000     -3.7241116E-04
   49.74000     -3.8576682E-04
   49.80000     -3.9901948E-04
   49.86000     -4.1213504E-04
   49.92000     -4.2508027E-04
   49.98000     -4.3782304E-04
   50.04000     -4.5033250E-04
   50.10000     -4.6257957E-04
   50.16000     -4.7453685E-04
   50.22000     -4.8617925E-04
   50.28000     -4.9748411E-04
   50.34000     -5.0843135E-04
   50.40000     -5.1900384E-04
   50.46000     -5.2918738E-04
   50.52000     -5.3897081E-04
   50.58000     -5.4834614E-04
   50.64000     -5.5730867E-04
   50.70000     -5.6585664E-04
   50.76000     -5.7399162E-04
   50.82000     -5.8171822E-04
   50.88000     -5.8904383E-04
   50.94000     -5.9597893E-04
   51.00000     -6.0253631E-04
   51.06000     -6.0873141E-04
   51.12000     -6.1458180E-04
   51.18000     -6.2010711E-04
   51.24000     -6.2532863E-04
   51.30000     -6.3026900E-04
   51.36000     -6.3495192E-04
   51.42000     -6.3940149E-04
   51.48000     -6.4364227E-04
   51.54000     -6.4769865E-04
   51.60000     -6.5159443E-04
   51.66000     -6.5535266E-04
   51.72000     -6.5899559E-04
   51.78000     -6.6254381E-04
   51.84000     -6.6601660E-04
   51.90000     -6.6943094E-04
   51.96000     -6.7280198E-04
   52.02000     -6.7614223E-04
   52.08000     -6.7946152E-04
   52.14000     -6.8276736E-04
   52.20000     -6.8606430E-04
   52.26000     -6.8935391E-04
   52.32000     -6.9263525E-04
   52.38000     -6.9590466E-04
   52.44000     -6.9915573E-04
   52.50000     -7.0237974E-04
   52.56000     -7.0556568E-04
   52.62000     -7.0870039E-04
   52.68000     -7.1176881E-04
   52.74000     -7.1475434E-04
   52.80000     -7.1763905E-04
   52.86000     -7.2040403E-04
   52.92000     -7.2302943E-04
   52.98000     -7.2549545E-04
   53.04000     -7.2778208E-04
   53.10000     -7.2986976E-04
   53.16000     -7.3173974E-04
   53.22000     -7.3337433E-04
   53.28000     -7.3475711E-04
   53.34000     -7.3587307E-04
   53.40000     -7.3670916E-04
   53.46000     -7.3725433E-04
   53.52000     -7.3749968E-04
   53.58000     -7.3743879E-04
   53.64000     -7.3706778E-04
   53.70000     -7.3638535E-04
   53.76000     -7.3539279E-04
   53.82000     -7.3409412E-04
   53.88000     -7.3249562E-04
   53.94000     -7.3060591E-04
   54.00000     -7.2843616E-04
   54.06000     -7.2599953E-04
   54.12000     -7.2331104E-04
   54.18000     -7.2038756E-04
   54.24000     -7.1724731E-04
   54.30000     -7.1390980E-04
   54.36000     -7.1039534E-04
   54.42000     -7.0672459E-04
   54.48000     -7.0291845E-04
   54.54000     -6.9899752E-04
   54.60000     -6.9498189E-04
   54.66000     -6.9089106E-04
   54.72000     -6.8674353E-04
   54.78000     -6.8255677E-04
   54.84000     -6.7834678E-04
   54.90000     -6.7412801E-04
   54.96000     -6.6991290E-04
   55.02000     -6.6571159E-04
   55.08000     -6.6153205E-04
   55.14000     -6.5737992E-04
   55.20000     -6.5325864E-04
   55.26000     -6.4916961E-04
   55.32000     -6.4511213E-04
   55.38000     -6.4108364E-04
   55.44000     -6.3707959E-04
   55.50000     -6.3309335E-04
   55.56000     -6.2911643E-04