  -2.400000      0.0000000E+00
  -2.340000      0.0000000E+00
  -2.280000      0.0000000E+00
  -2.220000      0.0000000E+00
  -2.160000      0.0000000E+00
  -2.100000      9.0259115E-19
  -2.040000      7.3417805E-18
  -1.980000      3.0485262E-17
  -1.920000      8.3351973E-17
  -1.860000      1.5869037E-16
  -1.800000      1.8926124E-16
  -1.740000      1.7901482E-17
  -1.680000     -5.6241961E-16
  -1.620000     -1.6387547E-15
  -1.560000     -2.8983680E-15
  -1.500000     -3.4173282E-15
  -1.440000     -1.8323118E-15
  -1.380000      2.8600478E-15
  -1.320000      1.0040543E-14
  -1.260000      1.6529241E-14
  -1.200000      1.7135676E-14
  -1.140000      7.4066729E-15
  -1.080000     -1.2201108E-14
  -1.020000     -3.3345919E-14
 -0.9600000     -4.1406809E-14
 -0.9000000     -2.3339969E-14
 -0.8400000      2.0758619E-14
 -0.7800000      6.9511915E-14
 -0.7200000      8.4032465E-14
 -0.6600000      2.7457645E-14
 -0.6000000     -1.0586616E-13
 -0.5400000     -2.6784925E-13
 -0.4800000     -3.6002096E-13
 -0.4200000     -2.7265142E-13
 -0.3600000      5.0386314E-14
 -0.3000000      5.5165643E-13
 -0.2400000      1.0437538E-12
 -0.1800000      1.2615809E-12
 -0.1200000      9.7588365E-13
 -5.9999999E-02  1.2392149E-13
  0.0000000E+00 -1.1072066E-12
  5.9999999E-02 -2.2985119E-12
  0.1200000     -2.9315805E-12
  0.1800000     -2.5953786E-12
  0.2400000     -1.1867863E-12
  0.3000000      9.8270892E-13
  0.3600000      3.2307386E-12
  0.4200000      4.6992232E-12
  0.4800000      4.6453787E-12
  0.5400000      2.7366956E-12
  0.6000000     -7.4777077E-13
  0.6600000     -4.8850351E-12
  0.7200000     -8.2786894E-12
  0.7800000     -9.4153635E-12
  0.8400000     -7.1365305E-12
  0.9000000     -1.1061786E-12
  0.9600000      7.8757443E-12
   1.020000      1.7856931E-11
   1.080000      2.6093993E-11
   1.140000      2.9755195E-11
   1.200000      2.6786965E-11
   1.260000      1.6657608E-11
   1.320000      6.8007796E-13
   1.380000     -1.8261942E-11
   1.440000     -3.6525800E-11
   1.500000     -5.0743711E-11
   1.560000     -5.8613517E-11
   1.620000     -5.9049259E-11
   1.680000     -5.1601480E-11
   1.740000     -3.5497768E-11
   1.800000     -9.0149737E-12
   1.860000      3.0052325E-11
   1.920000      8.2442247E-11
   1.980000      1.4433933E-10
   2.040000      2.0427872E-10
   2.100000      2.4160057E-10
   2.160000      2.2777946E-10
   2.220000      1.3101517E-10
   2.280000     -7.6854918E-11
   2.340000     -4.1319814E-10
   2.400000     -8.7962942E-10
   2.460000     -1.4610260E-09
   2.520000     -2.1287685E-09
   2.580000     -2.8467555E-09
   2.640000     -3.5776246E-09
   2.700000     -4.2866906E-09
   2.760000     -4.9423523E-09
   2.820000     -5.5136091E-09
   2.880000     -5.9668936E-09
   2.940000     -6.2649215E-09
   3.000000     -6.3693411E-09
   3.060000     -6.2470762E-09
   3.120000     -5.8782890E-09
   3.180000     -5.2628013E-09
   3.240000     -4.4221977E-09
   3.300000     -3.3965164E-09
   3.360000     -2.2366751E-09
   3.420000     -9.9550479E-10
   3.480000      2.7927108E-10
   3.540000      1.5478423E-09
   3.600000      2.7766698E-09
   3.660000      3.9342805E-09
   3.720000      4.9875970E-09
   3.780000      5.9016938E-09
   3.840000      6.6443020E-09
   3.900000      7.1941666E-09
   3.960000      7.5503817E-09
   4.020000      7.7389455E-09
   4.080000      7.8133748E-09
   4.140000      7.8480760E-09
   4.200000      7.9256592E-09
   4.260000      8.1215239E-09
   4.320000      8.4901464E-09
   4.380000      9.0570467E-09
   4.440000      9.8185957E-09
   4.500000      1.0749262E-08
   4.560000      1.1813457E-08
   4.620000      1.2977724E-08
   4.680000      1.4219157E-08
   4.740000      1.5527588E-08
   4.800000      1.6901620E-08
   4.860000      1.8341082E-08
   4.920000      1.9839842E-08
   4.980000      2.1382604E-08
   5.040000      2.2947427E-08
   5.100000      2.4512870E-08
   5.160000      2.6066367E-08
   5.220000      2.7609536E-08
   5.280000      2.9157274E-08
   5.340000      3.0730387E-08
   5.400000      3.2344655E-08
   5.460000      3.4001378E-08
   5.520000      3.5684241E-08
   5.580000      3.7364792E-08
   5.640000      3.9014797E-08
   5.700000      4.0620243E-08
   5.760000      4.2190525E-08
   5.820000      4.3757904E-08
   5.880000      4.5366555E-08
   5.940000      4.7055124E-08
   6.000000      4.8839834E-08
   6.060000      5.0705165E-08
   6.120000      5.2605948E-08
   6.180000      5.4479841E-08
   6.240000      5.6264810E-08
   6.300000      5.7914296E-08
   6.360000      5.9404204E-08
   6.420000      6.0729626E-08
   6.480000      6.1893850E-08
   6.540000      6.2895232E-08
   6.600000      6.3717948E-08
   6.660000      6.4330486E-08
   6.720000      6.4691946E-08
   6.780000      6.4762958E-08
   6.840000      6.4516207E-08
   6.900000      6.3942480E-08
   6.960000      6.3050287E-08
   7.020000      6.1860362E-08
   7.080000      6.0398214E-08
   7.140000      5.8688464E-08
   7.200000      5.6753137E-08
   7.260000      5.4613988E-08
   7.320000      5.2296841E-08
   7.380000      4.9835091E-08
   7.440000      4.7270341E-08
   7.500000      4.4649685E-08
   7.560000      4.2020854E-08
   7.620000      3.9427377E-08
   7.680000      3.6905426E-08
   7.740000      3.4482905E-08
   7.800000      3.2180154E-08
   7.860000      3.0011041E-08
   7.920000      2.7983557E-08
   7.980000      2.6099768E-08
   8.040000      2.4355630E-08
   8.100000      2.2741322E-08
   8.160000      2.1242283E-08
   8.220000      1.9840668E-08
   8.280000      1.8516717E-08
   8.340000      1.7249864E-08
   8.400000      1.6019889E-08
   8.460000      1.4808575E-08
   8.520000      1.3602070E-08
   8.580000      1.2393423E-08
   8.640000      1.1184282E-08
   8.700000      9.9847144E-09
   8.760000      8.8109173E-09
   8.820000      7.6814448E-09
   8.880000      6.6132944E-09
   8.940000      5.6191207E-09
   9.000000      4.7061639E-09
   9.060000      3.8766990E-09
   9.120000      3.1292593E-09
   9.180000      2.4599178E-09
   9.240000      1.8632245E-09
   9.300000      1.3327480E-09
   9.360000      8.6126295E-10
   9.420000      4.4053880E-10
   9.480000      6.0676110E-11
   9.540000     -2.9089151E-10
   9.600000     -6.3028405E-10
   9.660000     -9.7734221E-10
   9.720000     -1.3546395E-09
   9.780000     -1.7853772E-09
   9.840000     -2.2906763E-09
   9.900000     -2.8869347E-09
   9.960000     -3.5836858E-09
   10.02000     -4.3820521E-09
   10.08000     -5.2737708E-09
   10.14000     -6.2410188E-09
   10.20000     -7.2575901E-09
   10.26000     -8.2919414E-09
   10.32000     -9.3118961E-09
   10.38000     -1.0289752E-08
   10.44000     -1.1205791E-08
   10.50000     -1.2048577E-08
   10.56000     -1.2811934E-08
   10.62000     -1.3490392E-08
   10.68000     -1.4076047E-08
   10.74000     -1.4559133E-08
   10.80000     -1.4932498E-08
   10.86000     -1.5197609E-08
   10.92000     -1.5368460E-08
   10.98000     -1.5470588E-08
   11.04000     -1.5535138E-08
   11.10000     -1.5590736E-08
   11.16000     -1.5657324E-08
   11.22000     -1.5744924E-08
   11.28000     -1.5857395E-08
   11.34000     -1.5998387E-08
   11.40000     -1.6175488E-08
   11.46000     -1.6400110E-08
   11.52000     -1.6683440E-08
   11.58000     -1.7031542E-08
   11.64000     -1.7443082E-08
   11.70000     -1.7911495E-08
   11.76000     -1.8430276E-08
   11.82000     -1.8997868E-08
   11.88000     -1.9618565E-08
   11.94000     -2.0298156E-08
   12.00000     -2.1036245E-08
   12.06000     -2.1819300E-08
   12.12000     -2.2618400E-08
   12.18000     -2.3393236E-08
   12.24000     -2.4100721E-08
   12.30000     -2.4704306E-08
   12.36000     -2.5180105E-08
   12.42000     -2.5517860E-08
   12.48000     -2.5717577E-08
   12.54000     -2.5784713E-08
   12.60000     -2.5727013E-08
   12.66000     -2.5554561E-08
   12.72000     -2.5282322E-08
   12.78000     -2.4932646E-08
   12.84000     -2.4534943E-08
   12.90000     -2.4121018E-08
   12.96000     -2.3716856E-08
   13.02000     -2.3333735E-08
   13.08000     -2.2962459E-08
   13.14000     -2.2573797E-08
   13.20000     -2.2125876E-08
   13.26000     -2.1576538E-08
   13.32000     -2.0896483E-08
   13.38000     -2.0078403E-08
   13.44000     -1.9138788E-08
   13.50000     -1.8111852E-08
   13.56000     -1.7038152E-08
   13.62000     -1.5952375E-08
   13.68000     -1.4874791E-08
   13.74000     -1.3808918E-08
   13.80000     -1.2745258E-08
   13.86000     -1.1668473E-08
   13.92000     -1.0564620E-08
   13.98000     -9.4257304E-09
   14.04000     -8.2508533E-09
   14.10000     -7.0444672E-09
   14.16000     -5.8140541E-09
   14.22000     -4.5685136E-09
   14.28000     -3.3181404E-09
   14.34000     -2.0758579E-09
   14.40000     -8.5869950E-10
   14.46000      3.1164119E-10
   14.52000      1.4100655E-09
   14.58000      2.4114033E-09
   14.64000      3.2953071E-09
   14.70000      4.0513282E-09
   14.76000      4.6821804E-09
   14.82000      5.2032019E-09
   14.88000      5.6369744E-09
   14.94000      6.0038965E-09
   15.00000      6.3115957E-09
   15.06000      6.5473515E-09
   15.12000      6.6773391E-09
   15.18000      6.6542842E-09
   15.24000      6.4317809E-09
   15.30000      5.9806049E-09
   15.36000      5.3011870E-09
   15.42000      4.4277502E-09
   15.48000      3.4228100E-09
   15.54000      2.3644229E-09
   15.60000      1.3310152E-09
   15.66000      3.8888234E-10
   15.72000     -4.1438439E-10
   15.78000     -1.0501504E-09
   15.84000     -1.5047226E-09
   15.90000     -1.7741445E-09
   15.96000     -1.8603465E-09
   16.02000     -1.7697057E-09
   16.08000     -1.5135722E-09
   16.14000     -1.1095765E-09
   16.20000     -5.8258448E-10
   16.26000      3.5262744E-11
   16.32000      7.0550332E-10
   16.38000      1.3852230E-09
   16.44000      2.0298376E-09
   16.50000      2.5967499E-09
   16.56000      3.0494998E-09
   16.62000      3.3614846E-09
   16.68000      3.5180221E-09
   16.74000      3.5158865E-09
   16.80000      3.3604721E-09
   16.86000      3.0619411E-09
   16.92000      2.6323281E-09
   16.98000      2.0851216E-09
   17.04000      1.4373867E-09
   17.10000      7.1289519E-10
   17.16000     -5.6049856E-11
   17.22000     -8.2978324E-10
   17.28000     -1.5653726E-09
   17.34000     -2.2217850E-09
   17.40000     -2.7635743E-09
   17.46000     -3.1615113E-09
   17.52000     -3.3906555E-09
   17.58000     -3.4282788E-09
   17.64000     -3.2544667E-09
   17.70000     -2.8567222E-09
   17.76000     -2.2372304E-09
   17.82000     -1.4191566E-09
   17.88000     -4.4791693E-10
   17.94000      6.1481359E-10
   18.00000      1.7033174E-09
   18.06000      2.7621916E-09
   18.12000      3.7575081E-09
   18.18000      4.6806075E-09
   18.24000      5.5433476E-09
   18.30000      6.3670189E-09
   18.36000      7.1694548E-09
   18.42000      7.9552454E-09
   18.48000      8.7124343E-09
   18.54000      9.4164809E-09
   18.60000      1.0039596E-08
   18.66000      1.0561730E-08
   18.72000      1.0979092E-08
   18.78000      1.1307062E-08
   18.84000      1.1576433E-08
   18.90000      1.1824460E-08
   18.96000      1.2084056E-08
   19.02000      1.2375249E-08
   19.08000      1.2701964E-08
   19.14000      1.3054931E-08
   19.20000      1.3418872E-08
   19.26000      1.3780345E-08
   19.32000      1.4132618E-08
   19.38000      1.4475723E-08
   19.44000      1.4812485E-08
   19.50000      1.5143524E-08
   19.56000      1.5464677E-08
   19.62000      1.5768919E-08
   19.68000      1.6052109E-08
   19.74000      1.6319531E-08
   19.80000      1.6589210E-08
   19.86000      1.6889393E-08
   19.92000      1.7250303E-08
   19.98000      1.7693427E-08
   20.04000      1.8223133E-08
   20.10000      1.8824782E-08
   20.16000      1.9470665E-08
   20.22000      2.0131571E-08
   20.28000      2.0789127E-08
   20.34000      2.1443700E-08
   20.40000      2.2114799E-08
   20.46000      2.2834348E-08
   20.52000      2.3636359E-08
   20.58000      2.4547711E-08
   20.64000      2.5583407E-08
   20.70000      2.6746902E-08
   20.76000      2.8033247E-08
   20.82000      2.9431700E-08
   20.88000      3.0925506E-08
   20.94000      3.2489105E-08
   21.00000      3.4085264E-08
   21.06000      3.5665359E-08
   21.12000      3.7174296E-08
   21.18000      3.8558902E-08
   21.24000      3.9776175E-08
   21.30000      4.0797428E-08
   21.36000      4.1606082E-08
   21.42000      4.2190319E-08
   21.48000      4.2534342E-08
   21.54000      4.2613053E-08
   21.60000      4.2393243E-08
   21.66000      4.1841215E-08
   21.72000      4.0933845E-08
   21.78000      3.9668343E-08
   21.84000      3.8066922E-08
   21.90000      3.6174612E-08
   21.96000      3.4051382E-08
   22.02000      3.1761328E-08
   22.08000      2.9362276E-08
   22.14000      2.6898208E-08
   22.20000      2.4395808E-08
   22.26000      2.1865205E-08
   22.32000      1.9304505E-08
   22.38000      1.6707148E-08
   22.44000      1.4070658E-08
   22.50000      1.1404683E-08
   22.56000      8.7358023E-09
   22.62000      6.1070455E-09
   22.68000      3.5715149E-09
   22.74000      1.1817931E-09
   22.80000     -1.0211986E-09
   22.86000     -3.0155347E-09
   22.92000     -4.7987139E-09
   22.98000     -6.3809673E-09
   23.04000     -7.7745232E-09
   23.10000     -8.9839975E-09
   23.16000     -1.0002934E-08
   23.22000     -1.0818891E-08
   23.28000     -1.1425564E-08
   23.34000     -1.1836782E-08
   23.40000     -1.2095692E-08
   23.46000     -1.2273683E-08
   23.52000     -1.2457459E-08
   23.58000     -1.2727544E-08
   23.64000     -1.3135397E-08
   23.70000     -1.3687545E-08
   23.76000     -1.4342953E-08
   23.82000     -1.5024861E-08
   23.88000     -1.5642687E-08
   23.94000     -1.6115576E-08
   24.00000     -1.6388819E-08
   24.06000     -1.6437737E-08
   24.12000     -1.6259429E-08
   24.18000     -1.5858062E-08
   24.24000     -1.5231716E-08
   24.30000     -1.4367149E-08
   24.36000     -1.3244208E-08
   24.42000     -1.1846653E-08
   24.48000     -1.0173427E-08
   24.54000     -8.2452010E-09
   24.60000     -6.1042695E-09
   24.66000     -3.8095700E-09
   24.72000     -1.4301716E-09
   24.78000      9.6036179E-10
   24.84000      3.2888652E-09
   24.90000      5.4886495E-09
   24.96000      7.5082518E-09
   25.02000      9.3217283E-09
   25.08000      1.0936382E-08
   25.14000      1.2392869E-08
   25.20000      1.3754879E-08
   25.26000      1.5090194E-08
   25.32000      1.6449535E-08
   25.38000      1.7851345E-08
   25.44000      1.9278472E-08
   25.50000      2.0687489E-08
   25.56000      2.2025837E-08
   25.62000      2.3248900E-08
   25.68000      2.4329871E-08
   25.74000      2.5259364E-08
   25.80000      2.6036659E-08
   25.86000      2.6657984E-08
   25.92000      2.7107660E-08
   25.98000      2.7355735E-08
   26.04000      2.7362210E-08
   26.10000      2.7085253E-08
   26.16000      2.6489992E-08
   26.22000      2.5555495E-08
   26.28000      2.4279405E-08
   26.34000      2.2680974E-08
   26.40000      2.0803036E-08
   26.46000      1.8712205E-08
   26.52000      1.6495282E-08
   26.58000      1.4249933E-08
   26.64000      1.2069748E-08
   26.70000      1.0026968E-08
   26.76000      8.1589686E-09
   26.82000      6.4647097E-09
   26.88000      4.9142392E-09
   26.94000      3.4688148E-09
   27.00000      2.1039017E-09
   27.06000      8.2516144E-10
   27.12000     -3.2994005E-10
   27.18000     -1.3058664E-09
   27.24000     -2.0519020E-09
   27.30000     -2.5437232E-09
   27.36000     -2.7940747E-09
   27.42000     -2.8485507E-09
   27.48000     -2.7697582E-09
   27.54000     -2.6182194E-09
   27.60000     -2.4387392E-09
   27.66000     -2.2568059E-09
   27.72000     -2.0836368E-09
   27.78000     -1.9242379E-09
   27.84000     -1.7826177E-09
   27.90000     -1.6616811E-09
   27.96000     -1.5598548E-09
   28.02000     -1.4690845E-09
   28.08000     -1.3778508E-09
   28.14000     -1.2789367E-09
   28.20000     -1.1775951E-09
   28.26000     -1.0941602E-09
   28.32000     -1.0573669E-09
   28.38000     -1.0896293E-09
   28.44000     -1.1904308E-09
   28.50000     -1.3259758E-09
   28.56000     -1.4310565E-09
   28.62000     -1.4236727E-09
   28.68000     -1.2270951E-09
   28.74000     -7.9065665E-10
   28.80000     -1.0127479E-10
   28.86000      8.1797685E-10
   28.92000      1.9202386E-09
   28.98000      3.1518397E-09
   29.04000      4.4664334E-09
   29.10000      5.8310925E-09
   29.16000      7.2233544E-09
   29.22000      8.6221403E-09
   29.28000      9.9974775E-09
   29.34000      1.1303497E-08
   29.40000      1.2477023E-08
   29.46000      1.3441622E-08
   29.52000      1.4115432E-08
   29.58000      1.4420804E-08
   29.64000      1.4294305E-08
   29.70000      1.3696067E-08
   29.76000      1.2617263E-08
   29.82000      1.1083849E-08
   29.88000      9.1543750E-09
   29.94000      6.9105375E-09
   30.00000      4.4413473E-09
   30.06000      1.8246685E-09
   30.12000     -8.8805702E-10
   30.18000     -3.6781842E-09
   30.24000     -6.5543881E-09
   30.30000     -9.5368646E-09
   30.36000     -1.2637030E-08
   30.42000     -1.5840603E-08
   30.48000     -1.9100575E-08
   30.54000     -2.2342340E-08
   30.60000     -2.5478164E-08
   30.66000     -2.8424481E-08
   30.72000     -3.1115224E-08
   30.78000     -3.3507103E-08
   30.84000     -3.5577230E-08
   30.90000     -3.7316934E-08
   30.96000     -3.8726444E-08
   31.02000     -3.9813017E-08
   31.08000     -4.0591594E-08
   31.14000     -4.1084526E-08
   31.20000     -4.1317104E-08
   31.26000     -4.1308521E-08
   31.32000     -4.1061906E-08
   31.38000     -4.0559346E-08
   31.44000     -3.9766668E-08
   31.50000     -3.8648320E-08
   31.56000     -3.7186929E-08
   31.62000     -3.5398667E-08
   31.68000     -3.3336327E-08
   31.74000     -3.1077384E-08
   31.80000     -2.8701697E-08
   31.86000     -2.6268740E-08
   31.92000     -2.3804873E-08
   31.98000     -2.1306134E-08
   32.04000     -1.8754200E-08
   32.10000     -1.6136445E-08
   32.16000     -1.3459339E-08
   32.22000     -1.0748440E-08
   32.28000     -8.0358040E-09
   32.34000     -5.3425997E-09
   32.40000     -2.6671430E-09
   32.46000      1.4740745E-11
   32.52000      2.7371765E-09
   32.58000      5.5263745E-09
   32.64000      8.3868583E-09
   32.70000      1.1298350E-08
   32.76000      1.4223439E-08
   32.82000      1.7120048E-08
   32.88000      1.9950532E-08
   32.94000      2.2682201E-08
   33.00000      2.5280146E-08
   33.06000      2.7698849E-08
   33.12000      2.9880482E-08
   33.18000      3.1764156E-08
   33.24000      3.3303561E-08
   33.30000      3.4484593E-08
   33.36000      3.5332921E-08
   33.42000      3.5905721E-08
   33.48000      3.6269441E-08
   33.54000      3.6472958E-08
   33.60000      3.6528192E-08
   33.66000      3.6407208E-08
   33.72000      3.6056974E-08
   33.78000      3.5424801E-08
   33.84000      3.4482902E-08
   33.90000      3.3241815E-08
   33.96000      3.1748559E-08
   34.02000      3.0072925E-08
   34.08000      2.8289938E-08
   34.14000      2.6466624E-08
   34.20000      2.4656742E-08
   34.26000      2.2901856E-08
   34.32000      2.1233872E-08
   34.38000      1.9674998E-08
   34.44000      1.8234786E-08
   34.50000      1.6907734E-08
   34.56000      1.5675779E-08
   34.62000      1.4517361E-08
   34.68000      1.3419884E-08
   34.74000      1.2388989E-08
   34.80000      1.1448445E-08
   34.86000      1.0629071E-08
   34.92000      9.9512691E-09
   34.98000      9.4099759E-09
   35.04000      8.9703143E-09
   35.10000      8.5769942E-09
   35.16000      8.1734397E-09
   35.22000      7.7215692E-09
   35.28000      7.2128903E-09
   35.34000      6.6661392E-09
   35.40000      6.1134879E-09
   35.46000      5.5827098E-09
   35.52000      5.0839897E-09
   35.58000      4.6070889E-09
   35.64000      4.1292045E-09
   35.70000      3.6290859E-09
   35.76000      3.1008902E-09
   35.82000      2.5623321E-09
   35.88000      2.0547271E-09
   35.94000      1.6357313E-09
   36.00000      1.3675528E-09
   36.06000      1.3038653E-09
   36.12000      1.4781010E-09
   36.18000      1.8950745E-09
   36.24000      2.5274092E-09
   36.30000      3.3178973E-09
   36.36000      4.1882395E-09
   36.42000      5.0533155E-09
   36.48000      5.8383951E-09
   36.54000      6.4951391E-09
   36.60000      7.0117099E-09
   36.66000      7.4133184E-09
   36.72000      7.7520887E-09
   36.78000      8.0885325E-09
   36.84000      8.4700620E-09
   36.90000      8.9135543E-09
   36.96000      9.3982262E-09
   37.02000      9.8718580E-09
   37.08000      1.0268722E-08
   37.14000      1.0533005E-08
   37.20000      1.0639039E-08
   37.26000      1.0600531E-08
   37.32000      1.0465044E-08
   37.38000      1.0295900E-08
   37.44000      1.0148783E-08
   37.50000      1.0052438E-08
   37.56000      1.0000903E-08
   37.62000      9.9596003E-09
   37.68000      9.8815898E-09
   37.74000      9.7263557E-09
   37.80000      9.4731814E-09
   37.86000      9.1244976E-09
   37.92000      8.6996108E-09
   37.98000      8.2233331E-09
   38.04000      7.7153555E-09
   38.10000      7.1844490E-09
   38.16000      6.6281665E-09
   38.22000      6.0357950E-09
   38.28000      5.3914353E-09
   38.34000      4.6754782E-09
   38.40000      3.8651247E-09
   38.46000      2.9361544E-09
   38.52000      1.8677424E-09
   38.58000      6.4986538E-10
   38.64000     -7.0974382E-10
   38.70000     -2.1832700E-09
   38.76000     -3.7278913E-09
   38.82000     -5.2975619E-09
   38.88000     -6.8570309E-09
   38.94000     -8.3917531E-09
   39.00000     -9.9086526E-09
   39.06000     -1.1426796E-08
   39.12000     -1.2962004E-08
   39.18000     -1.4512616E-08
   39.24000     -1.6053434E-08
   39.30000     -1.7541113E-08
   39.36000     -1.8928850E-08
   39.42000     -2.0183810E-08
   39.48000     -2.1299446E-08
   39.54000     -2.2297227E-08
   39.60000     -2.3217279E-08
   39.66000     -2.4102109E-08
   39.72000     -2.4980437E-08
   39.78000     -2.5857558E-08
   39.84000     -2.6715480E-08
   39.90000     -2.7522088E-08
   39.96000     -2.8245298E-08
   40.02000     -2.8866916E-08
   40.08000     -2.9391677E-08
   40.14000     -2.9848906E-08
   40.20000     -3.0286536E-08
   40.26000     -3.0759317E-08
   40.32000     -3.1314375E-08
   40.38000     -3.1978242E-08
   40.44000     -3.2749220E-08
   40.50000     -3.3598077E-08
   40.56000     -3.4477626E-08
   40.62000     -3.5338633E-08
   40.68000     -3.6146862E-08
   40.74000     -3.6894519E-08
   40.80000     -3.7601094E-08
   40.86000     -3.8302211E-08
   40.92000     -3.9030454E-08
   40.98000     -3.9796049E-08
   41.04000     -4.0576282E-08
   41.10000     -4.1319396E-08
   41.16000     -4.1962512E-08
   41.22000     -4.2456591E-08
   41.28000     -4.2787551E-08
   41.34000     -4.2983455E-08
   41.40000     -4.3103473E-08
   41.46000     -4.3212189E-08
   41.52000     -4.3349868E-08
   41.58000     -4.3511513E-08
   41.64000     -4.3644338E-08
   41.70000     -4.3665356E-08
   41.76000     -4.3492324E-08
   41.82000     -4.3075399E-08
   41.88000     -4.2416737E-08
   41.94000     -4.1570562E-08
   42.00000     -4.0624379E-08
   42.06000     -3.9669612E-08
   42.12000     -3.8773617E-08
   42.18000     -3.7963371E-08
   42.24000     -3.7225849E-08
   42.30000     -3.6523026E-08
   42.36000     -3.5814132E-08
   42.42000     -3.5075885E-08
   42.48000     -3.4313313E-08
   42.54000     -3.3557892E-08
   42.60000     -3.2854970E-08
   42.66000     -3.2245925E-08
   42.72000     -3.1752158E-08
   42.78000     -3.1366756E-08
   42.84000     -3.1056778E-08
   42.90000     -3.0774974E-08
   42.96000     -3.0476375E-08
   43.02000     -3.0133300E-08
   43.08000     -2.9742909E-08
   43.14000     -2.9324369E-08
   43.20000     -2.8906804E-08
   43.26000     -2.8513101E-08
   43.32000     -2.8146490E-08
   43.38000     -2.7785791E-08
   43.44000     -2.7391723E-08
   43.50000     -2.6921972E-08
   43.56000     -2.6348921E-08
   43.62000     -2.5672623E-08
   43.68000     -2.4923404E-08
   43.74000     -2.4152694E-08
   43.80000     -2.3415501E-08
   43.86000     -2.2751568E-08
   43.92000     -2.2172827E-08
   43.98000     -2.1662318E-08
   44.04000     -2.1184869E-08
   44.10000     -2.0704920E-08
   44.16000     -2.0203705E-08
   44.22000     -1.9688356E-08
   44.28000     -1.9189134E-08
   44.34000     -1.8746418E-08
   44.40000     -1.8393704E-08
   44.46000     -1.8144570E-08
   44.52000     -1.7989406E-08
   44.58000     -1.7902783E-08
   44.64000     -1.7857245E-08
   44.70000     -1.7836294E-08
   44.76000     -1.7840373E-08
   44.82000     -1.7883441E-08
   44.88000     -1.7982760E-08
   44.94000     -1.8147690E-08
   45.00000     -1.8373376E-08
   45.06000     -1.8642266E-08
   45.12000     -1.8932058E-08
   45.18000     -1.9225482E-08
   45.24000     -1.9516587E-08
   45.30000     -1.9810212E-08
   45.36000     -2.0114907E-08
   45.42000     -2.0432893E-08
   45.48000     -2.0752159E-08
   45.54000     -2.1044956E-08
   45.60000     -2.1274191E-08
   45.66000     -2.1405851E-08
   45.72000     -2.1422741E-08
   45.78000     -2.1334074E-08
   45.84000     -2.1176531E-08
   45.90000     -2.1005540E-08
   45.96000     -2.0879179E-08
   46.02000     -2.0840128E-08
   46.08000     -2.0902169E-08
   46.14000     -2.1046443E-08
   46.20000     -2.1229122E-08
   46.26000     -2.1397996E-08
   46.32000     -2.1511907E-08
   46.38000     -2.1555692E-08
   46.44000     -2.1544913E-08
   46.50000     -2.1518376E-08
   46.56000     -2.1521293E-08
   46.62000     -2.1585603E-08
   46.68000     -2.1715350E-08
   46.74000     -2.1883201E-08
   46.80000     -2.2039984E-08
   46.86000     -2.2133920E-08
   46.92000     -2.2132260E-08
   46.98000     -2.2036650E-08
   47.04000     -2.1885734E-08
   47.10000     -2.1743208E-08
   47.16000     -2.1675278E-08
   47.22000     -2.1725812E-08
   47.28000     -2.1898849E-08
   47.34000     -2.2155589E-08
   47.40000     -2.2427709E-08
   47.46000     -2.2642450E-08
   47.52000     -2.2750134E-08
   47.58000     -2.2743384E-08
   47.64000     -2.2660254E-08
   47.70000     -2.2569600E-08
   47.76000     -2.2544143E-08
   47.82000     -2.2631754E-08
   47.88000     -2.2836375E-08
   47.94000     -2.3116019E-08
   48.00000     -2.3398032E-08
   48.06000     -2.3604473E-08
   48.12000     -2.3676170E-08
   48.18000     -2.3584970E-08
   48.24000     -2.3329310E-08
   48.30000     -2.2916080E-08
   48.36000     -2.2337929E-08
   48.42000     -2.1556904E-08
   48.48000     -2.0501801E-08
   48.54000     -1.9079755E-08
   48.60000     -1.7195458E-08
   48.66000     -1.4767760E-08
   48.72000     -1.1734586E-08
   48.78000     -8.0424920E-09
   48.84000     -3.6243373E-09
   48.90000      1.6263330E-09
   48.96000      7.8744087E-09
   49.02000      1.5349679E-08
   49.08000      2.4340828E-08
   49.14000      3.5183284E-08
   49.20000      4.8250143E-08
   49.26000      6.3953628E-08
   49.32000      8.2759144E-08
   49.38000      1.0520792E-07
   49.44000      1.3194057E-07
   49.50000      1.6371546E-07
   49.56000      2.0142018E-07
   49.62000      2.4608113E-07
   49.68000      2.9887897E-07
   49.74000      3.6117601E-07
   49.80000      4.3455614E-07
   49.86000      5.2087103E-07
   49.92000      6.2228344E-07
   49.98000      7.4130224E-07
   50.04000      8.8080770E-07
   50.10000      1.0440759E-06
   50.16000      1.2348131E-06
   50.22000      1.4572047E-06
   50.28000      1.7159849E-06
   50.34000      2.0165178E-06
   50.40000      2.3648831E-06
   50.46000      2.7679589E-06
   50.52000      3.2335015E-06
   50.58000      3.7702243E-06
   50.64000      4.3878808E-06
   50.70000      5.0973531E-06
   50.76000      5.9107501E-06
   50.82000      6.8415134E-06
   50.88000      7.9045230E-06
   50.94000      9.1162065E-06
   51.00000      1.0494644E-05
   51.06000      1.2059683E-05
   51.12000      1.3833051E-05
   51.18000      1.5838470E-05
   51.24000      1.8101791E-05
   51.30000      2.0651096E-05
   51.36000      2.3516830E-05
   51.42000      2.6731899E-05
   51.48000      3.0331765E-05
   51.54000      3.4354522E-05
   51.60000      3.8840964E-05
   51.66000      4.3834651E-05
   51.72000      4.9381957E-05
   51.78000      5.5532109E-05
   51.84000      6.2337189E-05
   51.90000      6.9852118E-05
   51.96000      7.8134530E-05
   52.02000      8.7244705E-05
   52.08000      9.7245436E-05
   52.14000      1.0820186E-04
   52.20000      1.2018131E-04
   52.26000      1.3325315E-04
   52.32000      1.4748855E-04
   52.38000      1.6296018E-04
   52.44000      1.7974181E-04
   52.50000      1.9790801E-04
   52.56000      2.1753364E-04
   52.62000      2.3869348E-04
   52.68000      2.6146168E-04
   52.74000      2.8591129E-04
   52.80000      3.1211364E-04
   52.86000      3.4013786E-04
   52.92000      3.7005008E-04
   52.98000      4.0191287E-04
   53.04000      4.3578452E-04
   53.10000      4.7171843E-04
   53.16000      5.0976255E-04
   53.22000      5.4995849E-04
   53.28000      5.9234130E-04
   53.34000      6.3693832E-04
   53.40000      6.8376912E-04
   53.46000      7.3284440E-04
   53.52000      7.8416581E-04
   53.58000      8.3772512E-04
   53.64000      8.9350395E-04
   53.70000      9.5147343E-04
   53.76000      1.0115938E-03
   53.82000      1.0738146E-03
   53.88000      1.1380742E-03
   53.94000      1.2043000E-03
   54.00000      1.2724083E-03
   54.06000      1.3423043E-03
   54.12000      1.4138828E-03
   54.18000      1.4870284E-03
   54.24000      1.5616157E-03
   54.30000      1.6375103E-03
   54.36000      1.7145691E-03
   54.42000      1.7926410E-03
   54.48000      1.8715683E-03
   54.54000      1.9511868E-03
   54.60000      2.0313277E-03
   54.66000      2.1118179E-03
   54.72000      2.1924817E-03
   54.78000      2.2731416E-03
   54.84000      2.3536193E-03
   54.90000      2.4337370E-03
   54.96000      2.5133188E-03
   55.02000      2.5921918E-03
   55.08000      2.6701873E-03
   55.14000      2.7471408E-03
   55.20000      2.8228955E-03
   55.26000      2.8973001E-03
   55.32000      2.9702121E-03
   55.38000      3.0414984E-03
   55.44000      3.1110344E-03
   55.50000      3.1787064E-03
   55.56000      3.2444119E-03