  -2.400000      0.0000000E+00
  -2.340000      0.0000000E+00
  -2.280000      0.0000000E+00
  -2.220000      0.0000000E+00
  -2.160000      0.0000000E+00
  -2.100000     -2.9771326E-19
  -2.040000     -2.5099061E-18
  -1.980000     -1.0646717E-17
  -1.920000     -2.9175732E-17
  -1.860000     -5.4336492E-17
  -1.800000     -6.0816602E-17
  -1.740000      2.0460796E-18
  -1.680000      1.8395946E-16
  -1.620000      4.7333879E-16
  -1.560000      7.4076451E-16
  -1.500000      7.5967352E-16
  -1.440000      3.5503563E-16
  -1.380000     -3.7357610E-16
  -1.320000     -9.3820090E-16
  -1.260000     -6.7061737E-16
  -1.200000      7.1135330E-16
  -1.140000      2.4810876E-15
  -1.080000      2.7918265E-15
  -1.020000     -4.5891615E-16
 -0.9600000     -7.9115952E-15
 -0.9000000     -1.7103213E-14
 -0.8400000     -2.2283643E-14
 -0.7800000     -1.6635365E-14
 -0.7200000      3.5184656E-15
 -0.6600000      3.4557149E-14
 -0.6000000      6.4301727E-14
 -0.5400000      7.5645809E-14
 -0.4800000      5.4634174E-14
 -0.4200000     -3.5037417E-16
 -0.3600000     -7.3302462E-14
 -0.3000000     -1.3339232E-13
 -0.2400000     -1.4664841E-13
 -0.1800000     -9.2759744E-14
 -0.1200000      2.0345504E-14
 -5.9999999E-02  1.5212386E-13
  0.0000000E+00  2.4011498E-13
  5.9999999E-02  2.2451394E-13
  0.1200000      7.8531304E-14
  0.1800000     -1.6839262E-13
  0.2400000     -4.2761901E-13
  0.3000000     -5.7581706E-13
  0.3600000     -5.0315221E-13
  0.4200000     -1.6878916E-13
  0.4800000      3.6106160E-13
  0.5400000      9.1585116E-13
  0.6000000      1.2735492E-12
  0.6600000      1.2500893E-12
  0.7200000      7.8947938E-13
  0.7800000      9.4064381E-15
  0.8400000     -8.2999655E-13
  0.9000000     -1.4327528E-12
  0.9600000     -1.6064132E-12
   1.020000     -1.3647285E-12
   1.080000     -9.3047239E-13
   1.140000     -6.1890250E-13
   1.200000     -6.4662604E-13
   1.260000     -9.6297254E-13
   1.320000     -1.2085491E-12
   1.380000     -8.5480576E-13
   1.440000      5.1347148E-13
   1.500000      2.8994929E-12
   1.560000      5.7410994E-12
   1.620000      8.0164061E-12
   1.680000      8.6046864E-12
   1.740000      6.7655530E-12
   1.800000      2.5202499E-12
   1.860000     -3.2577374E-12
   1.920000     -9.1108883E-12
   1.980000     -1.3523663E-11
   2.040000     -1.5475723E-11
   2.100000     -1.4770997E-11
   2.160000     -1.1994160E-11
   2.220000     -8.1243979E-12
   2.280000     -3.9994119E-12
   2.340000      1.1041382E-13
   2.400000      4.6203475E-12
   2.460000      1.0402046E-11
   2.520000      1.8337061E-11
   2.580000      2.8882554E-11
   2.640000      4.1861577E-11
   2.700000      5.6570925E-11
   2.760000      7.2144853E-11
   2.820000      8.7993848E-11
   2.880000      1.0410834E-10
   2.940000      1.2108259E-10
   3.000000      1.3984090E-10
   3.060000      1.6117638E-10
   3.120000      1.8529431E-10
   3.180000      2.1155730E-10
   3.240000      2.3855620E-10
   3.300000      2.6450958E-10
   3.360000      2.8786198E-10
   3.420000      3.0786276E-10
   3.480000      3.2489608E-10
   3.540000      3.4041175E-10
   3.600000      3.5645306E-10
   3.660000      3.7493952E-10
   3.720000      3.9696343E-10
   3.780000      4.2236231E-10
   3.840000      4.4971638E-10
   3.900000      4.7674775E-10
   3.960000      5.0093624E-10
   4.020000      5.2008980E-10
   4.080000      5.3265875E-10
   4.140000      5.3772042E-10
   4.200000      5.3473337E-10
   4.260000      5.2327126E-10
   4.320000      5.0294202E-10
   4.380000      4.7358695E-10
   4.440000      4.3568621E-10
   4.500000      3.9075804E-10
   4.560000      3.4150868E-10
   4.620000      2.9158934E-10
   4.680000      2.4499242E-10
   4.740000      2.0529559E-10
   4.800000      1.7504023E-10
   4.860000      1.5547591E-10
   4.920000      1.4673873E-10
   4.980000      1.4833827E-10
   5.040000      1.5969875E-10
   5.100000      1.8048633E-10
   5.160000      2.1053644E-10
   5.220000      2.4934396E-10
   5.280000      2.9521235E-10
   5.340000      3.4426037E-10
   5.400000      3.8954340E-10
   5.460000      4.2055182E-10
   5.520000      4.2327178E-10
   5.580000      3.8084080E-10
   5.640000      2.7459557E-10
   5.700000      8.5124158E-11
   5.760000     -2.0710447E-10
   5.820000     -6.2175098E-10
   5.880000     -1.1790743E-09
   5.940000     -1.9002995E-09
   6.000000     -2.8072145E-09
   6.060000     -3.9206238E-09
   6.120000     -5.2578764E-09
   6.180000     -6.8302439E-09
   6.240000     -8.6411145E-09
   6.300000     -1.0685620E-08
   6.360000     -1.2951610E-08
   6.420000     -1.5421229E-08
   6.480000     -1.8072189E-08
   6.540000     -2.0878126E-08
   6.600000     -2.3808088E-08
   6.660000     -2.6825806E-08
   6.720000     -2.9889364E-08
   6.780000     -3.2951633E-08
   6.840000     -3.5961204E-08
   6.900000     -3.8863455E-08
   6.960000     -4.1601275E-08
   7.020000     -4.4115659E-08
   7.080000     -4.6346472E-08
   7.140000     -4.8233929E-08
   7.200000     -4.9720942E-08
   7.260000     -5.0756135E-08
   7.320000     -5.1297079E-08
   7.380000     -5.1313322E-08
   7.440000     -5.0788888E-08
   7.500000     -4.9724061E-08
   7.560000     -4.8136155E-08
   7.620000     -4.6059107E-08
   7.680000     -4.3541664E-08
   7.740000     -4.0644508E-08
   7.800000     -3.7436802E-08
   7.860000     -3.3993039E-08
   7.920000     -3.0390531E-08
   7.980000     -2.6707616E-08
   8.040000     -2.3022015E-08
   8.100000     -1.9408937E-08
   8.160000     -1.5938765E-08
   8.220000     -1.2674770E-08
   8.280000     -9.6713810E-09
   8.340000     -6.9731891E-09
   8.400000     -4.6143009E-09
   8.460000     -2.6173208E-09
   8.520000     -9.9152786E-10
   8.580000      2.6940999E-10
   8.640000      1.1890715E-09
   8.700000      1.8080264E-09
   8.760000      2.1811217E-09
   8.820000      2.3728246E-09
   8.880000      2.4519280E-09
   8.940000      2.4868985E-09
   9.000000      2.5423614E-09
   9.060000      2.6762990E-09
   9.120000      2.9371743E-09
   9.180000      3.3606451E-09
   9.240000      3.9664405E-09
   9.300000      4.7565871E-09
   9.360000      5.7159730E-09
   9.420000      6.8152914E-09
   9.480000      8.0153875E-09
   9.540000      9.2716119E-09
   9.600000      1.0537294E-08
   9.660000      1.1766415E-08
   9.720000      1.2916293E-08
   9.780000      1.3950936E-08
   9.840000      1.4844932E-08
   9.900000      1.5586789E-08
   9.960000      1.6180415E-08
   10.02000      1.6644025E-08
   10.08000      1.7006997E-08
   10.14000      1.7305934E-08
   10.20000      1.7581279E-08
   10.26000      1.7874955E-08
   10.32000      1.8228587E-08
   10.38000      1.8681448E-08
   10.44000      1.9267683E-08
   10.50000      2.0013298E-08
   10.56000      2.0933918E-08
   10.62000      2.2034197E-08
   10.68000      2.3308834E-08
   10.74000      2.4744228E-08
   10.80000      2.6319585E-08
   10.86000      2.8006852E-08
   10.92000      2.9770071E-08
   10.98000      3.1565381E-08
   11.04000      3.3342811E-08
   11.10000      3.5049936E-08
   11.16000      3.6636315E-08
   11.22000      3.8056974E-08
   11.28000      3.9273875E-08
   11.34000      4.0255387E-08
   11.40000      4.0975014E-08
   11.46000      4.1410921E-08
   11.52000      4.1547096E-08
   11.58000      4.1375792E-08
   11.64000      4.0900012E-08
   11.70000      4.0134744E-08
   11.76000      3.9106389E-08
   11.82000      3.7850736E-08
   11.88000      3.6410427E-08
   11.94000      3.4832560E-08
   12.00000      3.3166600E-08
   12.06000      3.1462086E-08
   12.12000      2.9765737E-08
   12.18000      2.8117931E-08
   12.24000      2.6549221E-08
   12.30000      2.5077759E-08
   12.36000      2.3708367E-08
   12.42000      2.2433504E-08
   12.48000      2.1235913E-08
   12.54000      2.0092532E-08
   12.60000      1.8979163E-08
   12.66000      1.7875168E-08
   12.72000      1.6767178E-08
   12.78000      1.5650549E-08
   12.84000      1.4527556E-08
   12.90000      1.3402319E-08
   12.96000      1.2273828E-08
   13.02000      1.1129613E-08
   13.08000      9.9427080E-09
   13.14000      8.6734726E-09
   13.20000      7.2758519E-09
   13.26000      5.7058913E-09
   13.32000      3.9295118E-09
   13.38000      1.9271751E-09
   13.44000     -3.0544012E-10
   13.50000     -2.7599747E-09
   13.56000     -5.4194547E-09
   13.62000     -8.2621865E-09
   13.68000     -1.1264470E-08
   13.74000     -1.4401982E-08
   13.80000     -1.7650320E-08
   13.86000     -2.0985482E-08
   13.92000     -2.4385036E-08
   13.98000     -2.7830476E-08
   14.04000     -3.1310719E-08
   14.10000     -3.4825902E-08
   14.16000     -3.8389896E-08
   14.22000     -4.2029537E-08
   14.28000     -4.5779156E-08
   14.34000     -4.9670348E-08
   14.40000     -5.3718853E-08
   14.46000     -5.7911958E-08
   14.52000     -6.2200222E-08
   14.58000     -6.6496476E-08
   14.64000     -7.0682994E-08
   14.70000     -7.4625646E-08
   14.76000     -7.8192087E-08
   14.82000     -8.1270350E-08
   14.88000     -8.3784165E-08
   14.94000     -8.5702055E-08
   15.00000     -8.7038636E-08
   15.06000     -8.7847852E-08
   15.12000     -8.8209710E-08
   15.18000     -8.8213532E-08
   15.24000     -8.7941693E-08
   15.30000     -8.7457387E-08
   15.36000     -8.6798650E-08
   15.42000     -8.5979032E-08
   15.48000     -8.4993360E-08
   15.54000     -8.3826322E-08
   15.60000     -8.2461241E-08
   15.66000     -8.0887446E-08
   15.72000     -7.9104836E-08
   15.78000     -7.7125335E-08
   15.84000     -7.4970806E-08
   15.90000     -7.2668286E-08
   15.96000     -7.0243665E-08
   16.02000     -6.7716265E-08
   16.08000     -6.5096515E-08
   16.14000     -6.2388303E-08
   16.20000     -5.9595362E-08
   16.26000     -5.6729494E-08
   16.32000     -5.3817082E-08
   16.38000     -5.0900841E-08
   16.44000     -4.8035567E-08
   16.50000     -4.5278789E-08
   16.56000     -4.2679201E-08
   16.62000     -4.0266308E-08
   16.68000     -3.8044334E-08
   16.74000     -3.5992176E-08
   16.80000     -3.4069647E-08
   16.86000     -3.2228858E-08
   16.92000     -3.0428215E-08
   16.98000     -2.8645596E-08
   17.04000     -2.6886683E-08
   17.10000     -2.5185480E-08
   17.16000     -2.3595934E-08
   17.22000     -2.2176810E-08
   17.28000     -2.0974742E-08
   17.34000     -2.0011559E-08
   17.40000     -1.9280609E-08
   17.46000     -1.8753171E-08
   17.52000     -1.8391688E-08
   17.58000     -1.8163608E-08
   17.64000     -1.8049580E-08
   17.70000     -1.8042639E-08
   17.76000     -1.8139522E-08
   17.82000     -1.8329054E-08
   17.88000     -1.8583759E-08
   17.94000     -1.8859044E-08
   18.00000     -1.9100574E-08
   18.06000     -1.9256676E-08
   18.12000     -1.9290722E-08
   18.18000     -1.9188951E-08
   18.24000     -1.8961520E-08
   18.30000     -1.8637353E-08
   18.36000     -1.8255122E-08
   18.42000     -1.7853170E-08
   18.48000     -1.7460527E-08
   18.54000     -1.7090398E-08
   18.60000     -1.6736935E-08
   18.66000     -1.6376008E-08
   18.72000     -1.5970185E-08
   18.78000     -1.5477299E-08
   18.84000     -1.4860504E-08
   18.90000     -1.4096639E-08
   18.96000     -1.3179894E-08
   19.02000     -1.2119264E-08
   19.08000     -1.0931127E-08
   19.14000     -9.6305453E-09
   19.20000     -8.2258698E-09
   19.26000     -6.7197869E-09
   19.32000     -5.1168940E-09
   19.38000     -3.4346088E-09
   19.44000     -1.7122739E-09
   19.50000     -1.3793093E-11
   19.56000      1.5782672E-09
   19.62000      2.9757050E-09
   19.68000      4.1006953E-09
   19.74000      4.8997815E-09
   19.80000      5.3519895E-09
   19.86000      5.4695346E-09
   19.92000      5.2919331E-09
   19.98000      4.8757376E-09
   20.04000      4.2824317E-09
   20.10000      3.5666696E-09
   20.16000      2.7666471E-09
   20.22000      1.8982484E-09
   20.28000      9.5444441E-10
   20.34000     -8.9276281E-11
   20.40000     -1.2641719E-09
   20.46000     -2.5949332E-09
   20.52000     -4.0880104E-09
   20.58000     -5.7258198E-09
   20.64000     -7.4691462E-09
   20.70000     -9.2668371E-09
   20.76000     -1.1068813E-08
   20.82000     -1.2837028E-08
   20.88000     -1.4550069E-08
   20.94000     -1.6200163E-08
   21.00000     -1.7784879E-08
   21.06000     -1.9298152E-08
   21.12000     -2.0725256E-08
   21.18000     -2.2044285E-08
   21.24000     -2.3233403E-08
   21.30000     -2.4280546E-08
   21.36000     -2.5190994E-08
   21.42000     -2.5989170E-08
   21.48000     -2.6713188E-08
   21.54000     -2.7403596E-08
   21.60000     -2.8089984E-08
   21.66000     -2.8780143E-08
   21.72000     -2.9455821E-08
   21.78000     -3.0076791E-08
   21.84000     -3.0592087E-08
   21.90000     -3.0954549E-08
   21.96000     -3.1133524E-08
   22.02000     -3.1121580E-08
   22.08000     -3.0933297E-08
   22.14000     -3.0597516E-08
   22.20000     -3.0146680E-08
   22.26000     -2.9607445E-08
   22.32000     -2.8995842E-08
   22.38000     -2.8317949E-08
   22.44000     -2.7575330E-08
   22.50000     -2.6772984E-08
   22.56000     -2.5927230E-08
   22.62000     -2.5070801E-08
   22.68000     -2.4252698E-08
   22.74000     -2.3531284E-08
   22.80000     -2.2960695E-08
   22.86000     -2.2573353E-08
   22.92000     -2.2363823E-08
   22.98000     -2.2280418E-08
   23.04000     -2.2229420E-08
   23.10000     -2.2092797E-08
   23.16000     -2.1755204E-08
   23.22000     -2.1132257E-08
   23.28000     -2.0191150E-08
   23.34000     -1.8957323E-08
   23.40000     -1.7505609E-08
   23.46000     -1.5939136E-08
   23.52000     -1.4362412E-08
   23.58000     -1.2855892E-08
   23.64000     -1.1458225E-08
   23.70000     -1.0160193E-08
   23.76000     -8.9117700E-09
   23.82000     -7.6408098E-09
   23.88000     -6.2789027E-09
   23.94000     -4.7874940E-09
   24.00000     -3.1763663E-09
   24.06000     -1.5081673E-09
   24.12000      1.1329775E-10
   24.18000      1.5678209E-09
   24.24000      2.7487508E-09
   24.30000      3.5883627E-09
   24.36000      4.0705430E-09
   24.42000      4.2273061E-09
   24.48000      4.1213162E-09
   24.54000      3.8211510E-09
   24.60000      3.3779721E-09
   24.66000      2.8112246E-09
   24.72000      2.1075128E-09
   24.78000      1.2322108E-09
   24.84000      1.4904518E-10
   24.90000     -1.1597809E-09
   24.96000     -2.6805178E-09
   25.02000     -4.3669046E-09
   25.08000     -6.1519141E-09
   25.14000     -7.9680129E-09
   25.20000     -9.7684687E-09
   25.26000     -1.1541861E-08
   25.32000     -1.3314500E-08
   25.38000     -1.5140062E-08
   25.44000     -1.7080206E-08
   25.50000     -1.9182981E-08
   25.56000     -2.1466205E-08
   25.62000     -2.3911253E-08
   25.68000     -2.6469298E-08
   25.74000     -2.9078333E-08
   25.80000     -3.1685897E-08
   25.86000     -3.4270347E-08
   25.92000     -3.6853120E-08
   25.98000     -3.9496694E-08
   26.04000     -4.2287120E-08
   26.10000     -4.5305399E-08
   26.16000     -4.8596622E-08
   26.22000     -5.2147257E-08
   26.28000     -5.5878981E-08
   26.34000     -5.9661843E-08
   26.40000     -6.3343187E-08
   26.46000     -6.6783421E-08
   26.52000     -6.9888110E-08
   26.58000     -7.2627344E-08
   26.64000     -7.5038031E-08
   26.70000     -7.7209037E-08
   26.76000     -7.9254143E-08
   26.82000     -8.1279751E-08
   26.88000     -8.3356156E-08
   26.94000     -8.5499721E-08
   27.00000     -8.7671346E-08
   27.06000     -8.9791776E-08
   27.12000     -9.1769429E-08
   27.18000     -9.3531717E-08
   27.24000     -9.5049266E-08
   27.30000     -9.6344372E-08
   27.36000     -9.7480672E-08
   27.42000     -9.8537853E-08
   27.48000     -9.9580618E-08
   27.54000     -1.0063319E-07
   27.60000     -1.0166757E-07
   27.66000     -1.0260901E-07
   27.72000     -1.0335557E-07
   27.78000     -1.0380491E-07
   27.84000     -1.0387969E-07
   27.90000     -1.0354457E-07
   27.96000     -1.0281104E-07
   28.02000     -1.0172953E-07
   28.08000     -1.0037201E-07
   28.14000     -9.8810197E-08
   28.20000     -9.7095523E-08
   28.26000     -9.5246293E-08
   28.32000     -9.3245589E-08
   28.38000     -9.1049912E-08
   28.44000     -8.8605496E-08
   28.50000     -8.5866603E-08
   28.56000     -8.2809905E-08
   28.62000     -7.9440404E-08
   28.68000     -7.5787817E-08
   28.74000     -7.1895329E-08
   28.80000     -6.7805217E-08
   28.86000     -6.3546523E-08
   28.92000     -5.9128947E-08
   28.98000     -5.4544664E-08
   29.04000     -4.9777309E-08
   29.10000     -4.4814769E-08
   29.16000     -3.9661391E-08
   29.22000     -3.4345309E-08
   29.28000     -2.8918423E-08
   29.34000     -2.3449193E-08
   29.40000     -1.8011056E-08
   29.46000     -1.2670908E-08
   29.52000     -7.4818303E-09
   29.58000     -2.4823079E-09
   29.64000      2.2986038E-09
   29.70000      6.8330817E-09
   29.76000      1.1087081E-08
   29.82000      1.5016580E-08
   29.88000      1.8568569E-08
   29.94000      2.1685970E-08
   30.00000      2.4314584E-08
   30.06000      2.6410195E-08
   30.12000      2.7944340E-08
   30.18000      2.8907753E-08
   30.24000      2.9310538E-08
   30.30000      2.9178478E-08
   30.36000      2.8545550E-08
   30.42000      2.7444301E-08
   30.48000      2.5897158E-08
   30.54000      2.3912273E-08
   30.60000      2.1486377E-08
   30.66000      1.8614296E-08
   30.72000      1.5301868E-08
   30.78000      1.1577059E-08
   30.84000      7.4947195E-09
   30.90000      3.1328202E-09
   30.96000     -1.4185216E-09
   31.02000     -6.0713927E-09
   31.08000     -1.0753248E-08
   31.14000     -1.5415351E-08
   31.20000     -2.0034923E-08
   31.26000     -2.4611273E-08
   31.32000     -2.9157468E-08
   31.38000     -3.3689666E-08
   31.44000     -3.8216751E-08
   31.50000     -4.2732843E-08
   31.56000     -4.7215014E-08
   31.62000     -5.1627008E-08
   31.68000     -5.5927767E-08
   31.74000     -6.0081454E-08
   31.80000     -6.4064835E-08
   31.86000     -6.7869003E-08
   31.92000     -7.1494924E-08
   31.98000     -7.4945426E-08
   32.04000     -7.8217560E-08
   32.10000     -8.1299035E-08
   32.16000     -8.4169685E-08
   32.22000     -8.6806601E-08
   32.28000     -8.9189641E-08
   32.34000     -9.1304479E-08
   32.40000     -9.3142226E-08
   32.46000     -9.4696752E-08
   32.52000     -9.5961930E-08
   32.58000     -9.6931004E-08
   32.64000     -9.7598573E-08
   32.70000     -9.7964353E-08
   32.76000     -9.8036573E-08
   32.82000     -9.7833350E-08
   32.88000     -9.7380841E-08
   32.94000     -9.6708497E-08
   33.00000     -9.5842630E-08
   33.06000     -9.4800249E-08
   33.12000     -9.3585278E-08
   33.18000     -9.2188685E-08
   33.24000     -9.0593389E-08
   33.30000     -8.8783231E-08
   33.36000     -8.6753971E-08
   33.42000     -8.4523066E-08
   33.48000     -8.2134626E-08
   33.54000     -7.9656829E-08
   33.60000     -7.7171208E-08
   33.66000     -7.4755782E-08
   33.72000     -7.2466584E-08
   33.78000     -7.0323246E-08
   33.84000     -6.8303734E-08
   33.90000     -6.6350843E-08
   33.96000     -6.4388928E-08
   34.02000     -6.2346210E-08
   34.08000     -6.0175715E-08
   34.14000     -5.7868231E-08
   34.20000     -5.5453732E-08
   34.26000     -5.2991037E-08
   34.32000     -5.0549655E-08
   34.38000     -4.8189399E-08
   34.44000     -4.5943619E-08
   34.50000     -4.3810349E-08
   34.56000     -4.1753086E-08
   34.62000     -3.9710770E-08
   34.68000     -3.7614150E-08
   34.74000     -3.5404511E-08
   34.80000     -3.3049727E-08
   34.86000     -3.0553032E-08
   34.92000     -2.7951605E-08
   34.98000     -2.5305010E-08
   35.04000     -2.2677135E-08
   35.10000     -2.0117772E-08
   35.16000     -1.7650546E-08
   35.22000     -1.5271652E-08
   35.28000     -1.2959871E-08
   35.34000     -1.0694032E-08
   35.40000     -8.4713117E-09
   35.46000     -6.3194929E-09
   35.52000     -4.2986019E-09
   35.58000     -2.4909452E-09
   35.64000     -9.8245512E-10
   35.70000      1.5904833E-10
   35.76000      9.0198282E-10
   35.82000      1.2597384E-09
   35.88000      1.2868355E-09
   35.94000      1.0630939E-09
   36.00000      6.7029732E-10
   36.06000      1.6859615E-10
   36.12000     -4.1966997E-10
   36.18000     -1.1133485E-09
   36.24000     -1.9620789E-09
   36.30000     -3.0260199E-09
   36.36000     -4.3529846E-09
   36.42000     -5.9608727E-09
   36.48000     -7.8309661E-09
   36.54000     -9.9135011E-09
   36.60000     -1.2142727E-08
   36.66000     -1.4455764E-08
   36.72000     -1.6808935E-08
   36.78000     -1.9186565E-08
   36.84000     -2.1599970E-08
   36.90000     -2.4077515E-08
   36.96000     -2.6649358E-08
   37.02000     -2.9332121E-08
   37.08000     -3.2118621E-08
   37.14000     -3.4976061E-08
   37.20000     -3.7853013E-08
   37.26000     -4.0692303E-08
   37.32000     -4.3444913E-08
   37.38000     -4.6079862E-08
   37.44000     -4.8586966E-08
   37.50000     -5.0972528E-08
   37.56000     -5.3250545E-08
   37.62000     -5.5433397E-08
   37.68000     -5.7525334E-08
   37.74000     -5.9520346E-08
   37.80000     -6.1404108E-08
   37.86000     -6.3158545E-08
   37.92000     -6.4767242E-08
   37.98000     -6.6220466E-08
   38.04000     -6.7518727E-08
   38.10000     -6.8674019E-08
   38.16000     -6.9708193E-08
   38.22000     -7.0647971E-08
   38.28000     -7.1517441E-08
   38.34000     -7.2329712E-08
   38.40000     -7.3080606E-08
   38.46000     -7.3746719E-08
   38.52000     -7.4289204E-08
   38.58000     -7.4662601E-08
   38.64000     -7.4826104E-08
   38.70000     -7.4754070E-08
   38.76000     -7.4442745E-08
   38.82000     -7.3911572E-08
   38.88000     -7.3199139E-08
   38.94000     -7.2355114E-08
   39.00000     -7.1430030E-08
   39.06000     -7.0465184E-08
   39.12000     -6.9484528E-08
   39.18000     -6.8490330E-08
   39.24000     -6.7463723E-08
   39.30000     -6.6370724E-08
   39.36000     -6.5172543E-08
   39.42000     -6.3837980E-08
   39.48000     -6.2354161E-08
   39.54000     -6.0732411E-08
   39.60000     -5.9006894E-08
   39.66000     -5.7226526E-08
   39.72000     -5.5442943E-08
   39.78000     -5.3698635E-08
   39.84000     -5.2019413E-08
   39.90000     -5.0413146E-08
   39.96000     -4.8874366E-08
   40.02000     -4.7391858E-08
   40.08000     -4.5955524E-08
   40.14000     -4.4559702E-08
   40.20000     -4.3202029E-08
   40.26000     -4.1879190E-08
   40.32000     -4.0582432E-08
   40.38000     -3.9295610E-08
   40.44000     -3.7997633E-08
   40.50000     -3.6668958E-08
   40.56000     -3.5300136E-08
   40.62000     -3.3899333E-08
   40.68000     -3.2495745E-08
   40.74000     -3.1137034E-08
   40.80000     -2.9880830E-08
   40.86000     -2.8782177E-08
   40.92000     -2.7880448E-08
   40.98000     -2.7189582E-08
   41.04000     -2.6694797E-08
   41.10000     -2.6357013E-08
   41.16000     -2.6123718E-08
   41.22000     -2.5942864E-08
   41.28000     -2.5775169E-08
   41.34000     -2.5600848E-08
   41.40000     -2.5418897E-08
   41.46000     -2.5239936E-08
   41.52000     -2.5076226E-08
   41.58000     -2.4933344E-08
   41.64000     -2.4807145E-08
   41.70000     -2.4686971E-08
   41.76000     -2.4563256E-08
   41.82000     -2.4435723E-08
   41.88000     -2.4318265E-08
   41.94000     -2.4238334E-08
   42.00000     -2.4231012E-08
   42.06000     -2.4330133E-08
   42.12000     -2.4559553E-08
   42.18000     -2.4927280E-08
   42.24000     -2.5423837E-08
   42.30000     -2.6025051E-08
   42.36000     -2.6698517E-08
   42.42000     -2.7412517E-08
   42.48000     -2.8145537E-08
   42.54000     -2.8894105E-08
   42.60000     -2.9676137E-08
   42.66000     -3.0527708E-08
   42.72000     -3.1492768E-08
   42.78000     -3.2608110E-08
   42.84000     -3.3888252E-08
   42.90000     -3.5315974E-08
   42.96000     -3.6842703E-08
   43.02000     -3.8399641E-08
   43.08000     -3.9916266E-08
   43.14000     -4.1339884E-08
   43.20000     -4.2649411E-08
   43.26000     -4.3858673E-08
   43.32000     -4.5008431E-08
   43.38000     -4.6150415E-08
   43.44000     -4.7328985E-08
   43.50000     -4.8566491E-08
   43.56000     -4.9856457E-08
   43.62000     -5.1165710E-08
   43.68000     -5.2443831E-08
   43.74000     -5.3636111E-08
   43.80000     -5.4695942E-08
   43.86000     -5.5593389E-08
   43.92000     -5.6318445E-08
   43.98000     -5.6879411E-08
   44.04000     -5.7297981E-08
   44.10000     -5.7603188E-08
   44.16000     -5.7825851E-08
   44.22000     -5.7994367E-08
   44.28000     -5.8132002E-08
   44.34000     -5.8255374E-08
   44.40000     -5.8373693E-08
   44.46000     -5.8488595E-08
   44.52000     -5.8594420E-08
   44.58000     -5.8678857E-08
   44.64000     -5.8723920E-08
   44.70000     -5.8707496E-08
   44.76000     -5.8605735E-08
   44.82000     -5.8396644E-08
   44.88000     -5.8064732E-08
   44.94000     -5.7605781E-08
   45.00000     -5.7030245E-08
   45.06000     -5.6363444E-08
   45.12000     -5.5641664E-08
   45.18000     -5.4904472E-08
   45.24000     -5.4185154E-08
   45.30000     -5.3502028E-08
   45.36000     -5.2853235E-08
   45.42000     -5.2216528E-08
   45.48000     -5.1554064E-08
   45.54000     -5.0820844E-08
   45.60000     -4.9974531E-08
   45.66000     -4.8984379E-08
   45.72000     -4.7837251E-08
   45.78000     -4.6539657E-08
   45.84000     -4.5115613E-08
   45.90000     -4.3601251E-08
   45.96000     -4.2037914E-08
   46.02000     -4.0465640E-08
   46.08000     -3.8918603E-08
   46.14000     -3.7422993E-08
   46.20000     -3.5996688E-08
   46.26000     -3.4649446E-08
   46.32000     -3.3382523E-08
   46.38000     -3.2187611E-08
   46.44000     -3.1046142E-08
   46.50000     -2.9930590E-08
   46.56000     -2.8809014E-08
   46.62000     -2.7652762E-08
   46.68000     -2.6445376E-08
   46.74000     -2.5189772E-08
   46.80000     -2.3910657E-08
   46.86000     -2.2650630E-08
   46.92000     -2.1460762E-08
   46.98000     -2.0388557E-08
   47.04000     -1.9467315E-08
   47.10000     -1.8710223E-08
   47.16000     -1.8110573E-08
   47.22000     -1.7646963E-08
   47.28000     -1.7290768E-08
   47.34000     -1.7013006E-08
   47.40000     -1.6788995E-08
   47.46000     -1.6600904E-08
   47.52000     -1.6439261E-08
   47.58000     -1.6304103E-08
   47.64000     -1.6205179E-08
   47.70000     -1.6159843E-08
   47.76000     -1.6187784E-08
   47.82000     -1.6303746E-08
   47.88000     -1.6511494E-08
   47.94000     -1.6802836E-08
   48.00000     -1.7163508E-08
   48.06000     -1.7583901E-08
   48.12000     -1.8069173E-08
   48.18000     -1.8642666E-08
   48.24000     -1.9339490E-08
   48.30000     -2.0192417E-08
   48.36000     -2.1216831E-08
   48.42000     -2.2402663E-08
   48.48000     -2.3718133E-08
   48.54000     -2.5124352E-08
   48.60000     -2.6594455E-08
   48.66000     -2.8128962E-08
   48.72000     -2.9761047E-08
   48.78000     -3.1550250E-08
   48.84000     -3.3568284E-08
   48.90000     -3.5883392E-08
   48.96000     -3.8549732E-08
   49.02000     -4.1605560E-08
   49.08000     -4.5080672E-08
   49.14000     -4.9010357E-08
   49.20000     -5.3451576E-08
   49.26000     -5.8496692E-08
   49.32000     -6.4281515E-08
   49.38000     -7.0986275E-08
   49.44000     -7.8830674E-08
   49.50000     -8.8066052E-08
   49.56000     -9.8968506E-08
   49.62000     -1.1183663E-07
   49.68000     -1.2699617E-07
   49.74000     -1.4481225E-07
   49.80000     -1.6570850E-07
   49.86000     -1.9019072E-07
   49.92000     -2.1887172E-07
   49.98000     -2.5249298E-07
   50.04000     -2.9193919E-07
   50.10000     -3.3824281E-07
   50.16000     -3.9258029E-07
   50.22000     -4.5626490E-07
   50.28000     -5.3074393E-07
   50.34000     -6.1760727E-07
   50.40000     -7.1860995E-07
   50.46000     -8.3570740E-07
   50.52000     -9.7109546E-07
   50.58000     -1.1272505E-06
   50.64000     -1.3069631E-06
   50.70000     -1.5133666E-06
   50.76000     -1.7499603E-06
   50.82000     -2.0206337E-06
   50.88000     -2.3296882E-06
   50.94000     -2.6818625E-06
   51.00000     -3.0823605E-06
   51.06000     -3.5368826E-06
   51.12000     -4.0516625E-06
   51.18000     -4.6335158E-06
   51.24000     -5.2898849E-06
   51.30000     -6.0288853E-06
   51.36000     -6.8593449E-06
   51.42000     -7.7908280E-06
   51.48000     -8.8336537E-06
   51.54000     -9.9988947E-06
   51.60000     -1.1298394E-05
   51.66000     -1.2744762E-05
   51.72000     -1.4351396E-05
   51.78000     -1.6132490E-05
   51.84000     -1.8103039E-05
   51.90000     -2.0278845E-05
   51.96000     -2.2676499E-05
   52.02000     -2.5313369E-05
   52.08000     -2.8207551E-05
   52.14000     -3.1377826E-05
   52.20000     -3.4843590E-05
   52.26000     -3.8624785E-05
   52.32000     -4.2741820E-05
   52.38000     -4.7215475E-05
   52.44000     -5.2066800E-05
   52.50000     -5.7317000E-05
   52.56000     -6.2987288E-05
   52.62000     -6.9098722E-05
   52.68000     -7.5672069E-05
   52.74000     -8.2727653E-05
   52.80000     -9.0285183E-05
   52.86000     -9.8363591E-05
   52.92000     -1.0698083E-04
   52.98000     -1.1615371E-04
   53.04000     -1.2589761E-04
   53.10000     -1.3622637E-04
   53.16000     -1.4715198E-04
   53.22000     -1.5868446E-04
   53.28000     -1.7083163E-04
   53.34000     -1.8359894E-04
   53.40000     -1.9698917E-04
   53.46000     -2.1100249E-04
   53.52000     -2.2563607E-04
   53.58000     -2.4088399E-04
   53.64000     -2.5673717E-04
   53.70000     -2.7318319E-04
   53.76000     -2.9020626E-04
   53.82000     -3.0778715E-04
   53.88000     -3.2590309E-04
   53.94000     -3.4452791E-04
   54.00000     -3.6363199E-04
   54.06000     -3.8318228E-04
   54.12000     -4.0314251E-04
   54.18000     -4.2347316E-04
   54.24000     -4.4413187E-04
   54.30000     -4.6507342E-04
   54.36000     -4.8625012E-04
   54.42000     -5.0761207E-04
   54.48000     -5.2910723E-04
   54.54000     -5.5068196E-04
   54.60000     -5.7228125E-04
   54.66000     -5.9384922E-04
   54.72000     -6.1532937E-04
   54.78000     -6.3666515E-04
   54.84000     -6.5780006E-04
   54.90000     -6.7867857E-04
   54.96000     -6.9924595E-04
   55.02000     -7.1944902E-04
   55.08000     -7.3923671E-04
   55.14000     -7.5856003E-04
   55.20000     -7.7737286E-04
   55.26000     -7.9563214E-04
   55.32000     -8.1329810E-04
   55.38000     -8.3033484E-04
   55.44000     -8.4671006E-04
   55.50000     -8.6239574E-04
   55.56000     -8.7736821E-04