  -2.400000      0.0000000E+00
  -2.340000      0.0000000E+00
  -2.280000      0.0000000E+00
  -2.220000      0.0000000E+00
  -2.160000      0.0000000E+00
  -2.100000     -1.2314113E-20
  -2.040000     -9.0905308E-20
  -1.980000     -2.5038817E-19
  -1.920000      1.7067866E-19
  -1.860000      4.3229530E-18
  -1.800000      2.0586896E-17
  -1.740000      6.3317235E-17
  -1.680000      1.4526323E-16
  -1.620000      2.5529838E-16
  -1.560000      3.2380291E-16
  -1.500000      1.9660745E-16
  -1.440000     -3.4264007E-16
  -1.380000     -1.4628110E-15
  -1.320000     -3.0902352E-15
  -1.260000     -4.7092842E-15
  -1.200000     -5.3177686E-15
  -1.140000     -3.7025419E-15
  -1.080000      9.2722420E-16
  -1.020000      8.1666258E-15
 -0.9600000      1.5982466E-14
 -0.9000000      2.1168063E-14
 -0.8400000      2.0914833E-14
 -0.7800000      1.5026896E-14
 -0.7200000      7.5041114E-15
 -0.6600000      5.8571130E-15
 -0.6000000      1.7125702E-14
 -0.5400000      4.1292101E-14
 -0.4800000      6.5060038E-14
 -0.4200000      6.0578021E-14
 -0.3600000     -6.8063044E-15
 -0.3000000     -1.6105087E-13
 -0.2400000     -3.9307771E-13
 -0.1800000     -6.4396980E-13
 -0.1200000     -8.0613662E-13
 -5.9999999E-02 -7.5074501E-13
  0.0000000E+00 -3.7911590E-13
  5.9999999E-02  3.1799528E-13
  0.1200000      1.2199463E-12
  0.1800000      2.0818330E-12
  0.2400000      2.5999172E-12
  0.3000000      2.5252103E-12
  0.3600000      1.7855053E-12
  0.4200000      5.5900120E-13
  0.4800000     -7.5140290E-13
  0.5400000     -1.6608234E-12
  0.6000000     -1.8275245E-12
  0.6600000     -1.2746540E-12
  0.7200000     -4.9778107E-13
  0.7800000     -3.6812112E-13
  0.8400000     -1.8104799E-12
  0.9000000     -5.3334585E-12
  0.9600000     -1.0579856E-11
   1.020000     -1.6104815E-11
   1.080000     -1.9548228E-11
   1.140000     -1.8245431E-11
   1.200000     -1.0150572E-11
   1.260000      5.2084600E-12
   1.320000      2.6098441E-11
   1.380000      4.8574356E-11
   1.440000      6.7218835E-11
   1.500000      7.6490307E-11
   1.560000      7.2299167E-11
   1.620000      5.3299729E-11
   1.680000      2.1434745E-11
   1.740000     -1.8498675E-11
   1.800000     -6.0146131E-11
   1.860000     -9.7305296E-11
   1.920000     -1.2540975E-10
   1.980000     -1.4220473E-10
   2.040000     -1.4733666E-10
   2.100000     -1.4103799E-10
   2.160000     -1.2253122E-10
   2.220000     -8.9013998E-11
   2.280000     -3.5990929E-11
   2.340000      4.0724139E-11
   2.400000      1.4167180E-10
   2.460000      2.6005834E-10
   2.520000      3.7906958E-10
   2.580000      4.7146148E-10
   2.640000      5.0213567E-10
   2.700000      4.3351495E-10
   2.760000      2.3259923E-10
   2.820000     -1.2205499E-10
   2.880000     -6.3528144E-10
   2.940000     -1.2935136E-09
   3.000000     -2.0666211E-09
   3.060000     -2.9126384E-09
   3.120000     -3.7838124E-09
   3.180000     -4.6321138E-09
   3.240000     -5.4127391E-09
   3.300000     -6.0850476E-09
   3.360000     -6.6114514E-09
   3.420000     -6.9556512E-09
   3.480000     -7.0818680E-09
   3.540000     -6.9563484E-09
   3.600000     -6.5514101E-09
   3.660000     -5.8511618E-09
   3.720000     -4.8570770E-09
   3.780000     -3.5913010E-09
   3.840000     -2.0960351E-09
   3.900000     -4.2846612E-10
   3.960000      1.3478816E-09
   4.020000      3.1732601E-09
   4.080000      5.0005675E-09
   4.140000      6.8005295E-09
   4.200000      8.5618215E-09
   4.260000      1.0286316E-08
   4.320000      1.1981192E-08
   4.380000      1.3650617E-08
   4.440000      1.5289869E-08
   4.500000      1.6883844E-08
   4.560000      1.8410400E-08
   4.620000      1.9847192E-08
   4.680000      2.1179362E-08
   4.740000      2.2404981E-08
   4.800000      2.3535859E-08
   4.860000      2.4592964E-08
   4.920000      2.5597647E-08
   4.980000      2.6561608E-08
   5.040000      2.7479299E-08
   5.100000      2.8325832E-08
   5.160000      2.9061832E-08
   5.220000      2.9644239E-08
   5.280000      3.0039974E-08
   5.340000      3.0238098E-08
   5.400000      3.0256334E-08
   5.460000      3.0139507E-08
   5.520000      2.9949888E-08
   5.580000      2.9752176E-08
   5.640000      2.9597462E-08
   5.700000      2.9510954E-08
   5.760000      2.9486980E-08
   5.820000      2.9492469E-08
   5.880000      2.9477365E-08
   5.940000      2.9388426E-08
   6.000000      2.9181995E-08
   6.060000      2.8832018E-08
   6.120000      2.8331467E-08
   6.180000      2.7687824E-08
   6.240000      2.6915140E-08
   6.300000      2.6026319E-08
   6.360000      2.5028758E-08
   6.420000      2.3925011E-08
   6.480000      2.2718018E-08
   6.540000      2.1418566E-08
   6.600000      2.0051766E-08
   6.660000      1.8659463E-08
   6.720000      1.7296994E-08
   6.780000      1.6024590E-08
   6.840000      1.4895677E-08
   6.900000      1.3945568E-08
   6.960000      1.3184139E-08
   7.020000      1.2595065E-08
   7.080000      1.2142296E-08
   7.140000      1.1782208E-08
   7.200000      1.1478051E-08
   7.260000      1.1212347E-08
   7.320000      1.0993313E-08
   7.380000      1.0853028E-08
   7.440000      1.0837554E-08
   7.500000      1.0991832E-08
   7.560000      1.1344037E-08
   7.620000      1.1894392E-08
   7.680000      1.2612241E-08
   7.740000      1.3442415E-08
   7.800000      1.4318839E-08
   7.860000      1.5180737E-08
   7.920000      1.5985844E-08
   7.980000      1.6716054E-08
   8.040000      1.7373608E-08
   8.100000      1.7969413E-08
   8.160000      1.8507958E-08
   8.220000      1.8974630E-08
   8.280000      1.9330342E-08
   8.340000      1.9515785E-08
   8.400000      1.9464027E-08
   8.460000      1.9117049E-08
   8.520000      1.8440335E-08
   8.580000      1.7430148E-08
   8.640000      1.6110699E-08
   8.700000      1.4522064E-08
   8.760000      1.2703132E-08
   8.820000      1.0675780E-08
   8.880000      8.4364276E-09
   8.940000      5.9586536E-09
   9.000000      3.2067897E-09
   9.060000      1.5632991E-10
   9.120000     -3.1857879E-09
   9.180000     -6.7685200E-09
   9.240000     -1.0497081E-08
   9.300000     -1.4247593E-08
   9.360000     -1.7892418E-08
   9.420000     -2.1328631E-08
   9.480000     -2.4500615E-08
   9.540000     -2.7409261E-08
   9.600000     -3.0104491E-08
   9.660000     -3.2663326E-08
   9.720000     -3.5160461E-08
   9.780000     -3.7640874E-08
   9.840000     -4.0103117E-08
   9.900000     -4.2498282E-08
   9.960000     -4.4744183E-08
   10.02000     -4.6749474E-08
   10.08000     -4.8439389E-08
   10.14000     -4.9775021E-08
   10.20000     -5.0760860E-08
   10.26000     -5.1439702E-08
   10.32000     -5.1878406E-08
   10.38000     -5.2150263E-08
   10.44000     -5.2320186E-08
   10.50000     -5.2436736E-08
   10.56000     -5.2531828E-08
   10.62000     -5.2626003E-08
   10.68000     -5.2735313E-08
   10.74000     -5.2875805E-08
   10.80000     -5.3063282E-08
   10.86000     -5.3308177E-08
   10.92000     -5.3607760E-08
   10.98000     -5.3939122E-08
   11.04000     -5.4256414E-08
   11.10000     -5.4494492E-08
   11.16000     -5.4579193E-08
   11.22000     -5.4442086E-08
   11.28000     -5.4036253E-08
   11.34000     -5.3348689E-08
   11.40000     -5.2405902E-08
   11.46000     -5.1270700E-08
   11.52000     -5.0030629E-08
   11.58000     -4.8780507E-08
   11.64000     -4.7603287E-08
   11.70000     -4.6553772E-08
   11.76000     -4.5648960E-08
   11.82000     -4.4867136E-08
   11.88000     -4.4155470E-08
   11.94000     -4.3443922E-08
   12.00000     -4.2661693E-08
   12.06000     -4.1752177E-08
   12.12000     -4.0682945E-08
   12.18000     -3.9448857E-08
   12.24000     -3.8068194E-08
   12.30000     -3.6573805E-08
   12.36000     -3.5002270E-08
   12.42000     -3.3384584E-08
   12.48000     -3.1741006E-08
   12.54000     -3.0081157E-08
   12.60000     -2.8408429E-08
   12.66000     -2.6726195E-08
   12.72000     -2.5042684E-08
   12.78000     -2.3371982E-08
   12.84000     -2.1730411E-08
   12.90000     -2.0129647E-08
   12.96000     -1.8569558E-08
   13.02000     -1.7034230E-08
   13.08000     -1.5493541E-08
   13.14000     -1.3910479E-08
   13.20000     -1.2251970E-08
   13.26000     -1.0499464E-08
   13.32000     -8.6553982E-09
   13.38000     -6.7431896E-09
   13.44000     -4.8008726E-09
   13.50000     -2.8709202E-09
   13.56000     -9.9011199E-10
   13.62000      8.1693630E-10
   13.68000      2.5386757E-09
   13.74000      4.1724748E-09
   13.80000      5.7180127E-09
   13.86000      7.1716912E-09
   13.92000      8.5249061E-09
   13.98000      9.7671133E-09
   14.04000      1.0892316E-08
   14.10000      1.1905820E-08
   14.16000      1.2827686E-08
   14.22000      1.3690390E-08
   14.28000      1.4530558E-08
   14.34000      1.5377125E-08
   14.40000      1.6240195E-08
   14.46000      1.7105062E-08
   14.52000      1.7934392E-08
   14.58000      1.8678657E-08
   14.64000      1.9291821E-08
   14.70000      1.9747052E-08
   14.76000      2.0046905E-08
   14.82000      2.0224265E-08
   14.88000      2.0333676E-08
   14.94000      2.0436257E-08
   15.00000      2.0583844E-08
   15.06000      2.0808185E-08
   15.12000      2.1118884E-08
   15.18000      2.1510102E-08
   15.24000      2.1972381E-08
   15.30000      2.2503860E-08
   15.36000      2.3115419E-08
   15.42000      2.3827097E-08
   15.48000      2.4656975E-08
   15.54000      2.5607267E-08
   15.60000      2.6653833E-08
   15.66000      2.7744287E-08
   15.72000      2.8806491E-08
   15.78000      2.9765070E-08
   15.84000      3.0560287E-08
   15.90000      3.1162511E-08
   15.96000      3.1577081E-08
   16.02000      3.1838038E-08
   16.08000      3.1993245E-08
   16.14000      3.2086533E-08
   16.20000      3.2143362E-08
   16.26000      3.2164881E-08
   16.32000      3.2131954E-08
   16.38000      3.2017081E-08
   16.44000      3.1799523E-08
   16.50000      3.1478130E-08
   16.56000      3.1077693E-08
   16.62000      3.0647069E-08
   16.68000      3.0250074E-08
   16.74000      2.9952364E-08
   16.80000      2.9808223E-08
   16.86000      2.9850717E-08
   16.92000      3.0087399E-08
   16.98000      3.0501973E-08
   17.04000      3.1060857E-08
   17.10000      3.1722465E-08
   17.16000      3.2446586E-08
   17.22000      3.3201410E-08
   17.28000      3.3966341E-08
   17.34000      3.4730022E-08
   17.40000      3.5484366E-08
   17.46000      3.6216537E-08
   17.52000      3.6901774E-08
   17.58000      3.7499692E-08
   17.64000      3.7955903E-08
   17.70000      3.8208952E-08
   17.76000      3.8200927E-08
   17.82000      3.7888668E-08
   17.88000      3.7252239E-08
   17.94000      3.6298051E-08
   18.00000      3.5055702E-08
   18.06000      3.3569684E-08
   18.12000      3.1888668E-08
   18.18000      3.0055805E-08
   18.24000      2.8103150E-08
   18.30000      2.6051744E-08
   18.36000      2.3916954E-08
   18.42000      2.1716826E-08
   18.48000      1.9480032E-08
   18.54000      1.7250105E-08
   18.60000      1.5083932E-08
   18.66000      1.3044391E-08
   18.72000      1.1189312E-08
   18.78000      9.5602406E-09
   18.84000      8.1747320E-09
   18.90000      7.0246813E-09
   18.96000      6.0810312E-09
   19.02000      5.3028648E-09
   19.08000      4.6473607E-09
   19.14000      4.0769339E-09
   19.20000      3.5612604E-09
   19.26000      3.0741707E-09
   19.32000      2.5876958E-09
   19.38000      2.0668232E-09
   19.44000      1.4682527E-09
   19.50000      7.4470180E-10
   19.56000     -1.4614557E-10
   19.62000     -1.2310840E-09
   19.68000     -2.5131459E-09
   19.74000     -3.9688519E-09
   19.80000     -5.5520717E-09
   19.86000     -7.2031239E-09
   19.92000     -8.8598506E-09
   19.98000     -1.0466919E-08
   20.04000     -1.1980653E-08
   20.10000     -1.3368845E-08
   20.16000     -1.4607216E-08
   20.22000     -1.5675569E-08
   20.28000     -1.6556587E-08
   20.34000     -1.7238708E-08
   20.40000     -1.7722286E-08
   20.46000     -1.8026348E-08
   20.52000     -1.8192488E-08
   20.58000     -1.8283302E-08
   20.64000     -1.8374811E-08
   20.70000     -1.8544672E-08
   20.76000     -1.8859634E-08
   20.82000     -1.9365924E-08
   20.88000     -2.0084936E-08
   20.94000     -2.1014474E-08
   21.00000     -2.2133740E-08
   21.06000     -2.3409259E-08
   21.12000     -2.4799299E-08
   21.18000     -2.6255771E-08
   21.24000     -2.7724374E-08
   21.30000     -2.9144827E-08
   21.36000     -3.0453108E-08
   21.42000     -3.1586570E-08
   21.48000     -3.2491290E-08
   21.54000     -3.3129886E-08
   21.60000     -3.3487591E-08
   21.66000     -3.3574935E-08
   21.72000     -3.3426630E-08
   21.78000     -3.3097106E-08
   21.84000     -3.2653904E-08
   21.90000     -3.2170171E-08
   21.96000     -3.1717015E-08
   22.02000     -3.1356628E-08
   22.08000     -3.1136619E-08
   22.14000     -3.1086557E-08
   22.20000     -3.1217439E-08
   22.26000     -3.1524451E-08
   22.32000     -3.1992368E-08
   22.38000     -3.2601900E-08
   22.44000     -3.3334604E-08
   22.50000     -3.4174434E-08
   22.56000     -3.5105291E-08
   22.62000     -3.6106030E-08
   22.68000     -3.7145728E-08
   22.74000     -3.8182556E-08
   22.80000     -3.9168199E-08
   22.86000     -4.0057369E-08
   22.92000     -4.0819213E-08
   22.98000     -4.1446036E-08
   23.04000     -4.1955065E-08
   23.10000     -4.2381451E-08
   23.16000     -4.2764228E-08
   23.22000     -4.3129983E-08
   23.28000     -4.3480558E-08
   23.34000     -4.3789747E-08
   23.40000     -4.4011042E-08
   23.46000     -4.4094101E-08
   23.52000     -4.4004441E-08
   23.58000     -4.3739391E-08
   23.64000     -4.3334623E-08
   23.70000     -4.2858932E-08
   23.76000     -4.2398923E-08
   23.82000     -4.2038657E-08
   23.88000     -4.1840661E-08
   23.94000     -4.1833967E-08
   24.00000     -4.2012058E-08
   24.06000     -4.2340233E-08
   24.12000     -4.2769074E-08
   24.18000     -4.3249099E-08
   24.24000     -4.3741991E-08
   24.30000     -4.4225423E-08
   24.36000     -4.4691078E-08
   24.42000     -4.5137686E-08
   24.48000     -4.5562508E-08
   24.54000     -4.5954920E-08
   24.60000     -4.6294844E-08
   24.66000     -4.6556718E-08
   24.72000     -4.6717744E-08
   24.78000     -4.6767184E-08
   24.84000     -4.6712884E-08
   24.90000     -4.6581881E-08
   24.96000     -4.6413739E-08
   25.02000     -4.6248040E-08
   25.08000     -4.6109854E-08
   25.14000     -4.5998227E-08
   25.20000     -4.5882476E-08
   25.26000     -4.5708525E-08
   25.32000     -4.5414247E-08
   25.38000     -4.4949179E-08
   25.44000     -4.4291877E-08
   25.50000     -4.3458570E-08
   25.56000     -4.2499181E-08
   25.62000     -4.1481552E-08
   25.68000     -4.0468855E-08
   25.74000     -3.9498229E-08
   25.80000     -3.8568540E-08
   25.86000     -3.7642124E-08
   25.92000     -3.6660346E-08
   25.98000     -3.5567528E-08
   26.04000     -3.4334494E-08
   26.10000     -3.2972924E-08
   26.16000     -3.1534832E-08
   26.22000     -3.0096988E-08
   26.28000     -2.8735650E-08
   26.34000     -2.7500590E-08
   26.40000     -2.6397732E-08
   26.46000     -2.5386816E-08
   26.52000     -2.4395103E-08
   26.58000     -2.3342595E-08
   26.64000     -2.2170196E-08
   26.70000     -2.0861275E-08
   26.76000     -1.9449317E-08
   26.82000     -1.8009041E-08
   26.88000     -1.6633910E-08
   26.94000     -1.5407439E-08
   27.00000     -1.4377797E-08
   27.06000     -1.3544110E-08
   27.12000     -1.2858989E-08
   27.18000     -1.2246486E-08
   27.24000     -1.1629518E-08
   27.30000     -1.0957669E-08
   27.36000     -1.0226183E-08
   27.42000     -9.4799155E-09
   27.48000     -8.8011989E-09
   27.54000     -8.2858245E-09
   27.60000     -8.0152587E-09
   27.66000     -8.0339904E-09
   27.72000     -8.3386968E-09
   27.78000     -8.8815018E-09
   27.84000     -9.5847010E-09
   27.90000     -1.0360838E-08
   27.96000     -1.1131058E-08
   28.02000     -1.1836319E-08
   28.08000     -1.2439443E-08
   28.14000     -1.2919645E-08
   28.20000     -1.3263660E-08
   28.26000     -1.3458230E-08
   28.32000     -1.3487311E-08
   28.38000     -1.3335060E-08
   28.44000     -1.2993080E-08
   28.50000     -1.2468756E-08
   28.56000     -1.1791044E-08
   28.62000     -1.1010980E-08
   28.68000     -1.0195811E-08
   28.74000     -9.4178016E-09
   28.80000     -8.7405052E-09
   28.86000     -8.2064506E-09
   28.92000     -7.8301223E-09
   28.98000     -7.5989259E-09
   29.04000     -7.4825364E-09
   29.10000     -7.4482789E-09
   29.16000     -7.4778352E-09
   29.22000     -7.5794873E-09
   29.28000     -7.7910096E-09
   29.34000     -8.1710745E-09
   29.40000     -8.7809804E-09
   29.46000     -9.6621964E-09
   29.52000     -1.0817315E-08
   29.58000     -1.2201388E-08
   29.64000     -1.3727464E-08
   29.70000     -1.5285385E-08
   29.76000     -1.6768219E-08
   29.82000     -1.8097969E-08
   29.88000     -1.9242400E-08
   29.94000     -2.0217872E-08
   30.00000     -2.1077888E-08
   30.06000     -2.1891875E-08
   30.12000     -2.2721560E-08
   30.18000     -2.3602610E-08
   30.24000     -2.4536735E-08
   30.30000     -2.5495551E-08
   30.36000     -2.6433515E-08
   30.42000     -2.7304761E-08
   30.48000     -2.8078055E-08
   30.54000     -2.8745557E-08
   30.60000     -2.9323502E-08
   30.66000     -2.9845651E-08
   30.72000     -3.0352158E-08
   30.78000     -3.0877484E-08
   30.84000     -3.1440774E-08
   30.90000     -3.2040951E-08
   30.96000     -3.2657571E-08
   31.02000     -3.3256693E-08
   31.08000     -3.3799925E-08
   31.14000     -3.4253720E-08
   31.20000     -3.4596180E-08
   31.26000     -3.4819230E-08
   31.32000     -3.4925783E-08
   31.38000     -3.4923204E-08
   31.44000     -3.4815915E-08
   31.50000     -3.4600291E-08
   31.56000     -3.4264204E-08
   31.62000     -3.3791675E-08
   31.68000     -3.3170963E-08
   31.74000     -3.2402983E-08
   31.80000     -3.1506634E-08
   31.86000     -3.0518844E-08
   31.92000     -2.9489014E-08
   31.98000     -2.8469666E-08
   32.04000     -2.7506315E-08
   32.10000     -2.6629847E-08
   32.16000     -2.5853540E-08
   32.22000     -2.5175366E-08
   32.28000     -2.4584390E-08
   32.34000     -2.4069008E-08
   32.40000     -2.3624260E-08
   32.46000     -2.3255845E-08
   32.52000     -2.2979595E-08
   32.58000     -2.2816591E-08
   32.64000     -2.2785583E-08
   32.70000     -2.2895515E-08
   32.76000     -2.3141146E-08
   32.82000     -2.3503949E-08
   32.88000     -2.3958588E-08
   32.94000     -2.4482993E-08
   33.00000     -2.5068207E-08
   33.06000     -2.5723514E-08
   33.12000     -2.6473744E-08
   33.18000     -2.7348365E-08
   33.24000     -2.8365486E-08
   33.30000     -2.9516514E-08
   33.36000     -3.0757743E-08
   33.42000     -3.2013208E-08
   33.48000     -3.3189089E-08
   33.54000     -3.4195526E-08
   33.60000     -3.4968593E-08
   33.66000     -3.5484501E-08
   33.72000     -3.5760870E-08
   33.78000     -3.5844458E-08
   33.84000     -3.5789803E-08
   33.90000     -3.5636422E-08
   33.96000     -3.5392908E-08
   34.02000     -3.5033352E-08
   34.08000     -3.4506858E-08
   34.14000     -3.3756276E-08
   34.20000     -3.2738903E-08
   34.26000     -3.1441726E-08
   34.32000     -2.9886174E-08
   34.38000     -2.8121466E-08
   34.44000     -2.6209936E-08
   34.50000     -2.4210172E-08
   34.56000     -2.2164253E-08
   34.62000     -2.0093159E-08
   34.68000     -1.8001140E-08
   34.74000     -1.5886428E-08
   34.80000     -1.3753562E-08
   34.86000     -1.1622463E-08
   34.92000     -9.5309831E-09
   34.98000     -7.5303390E-09
   35.04000     -5.6754925E-09
   35.10000     -4.0142014E-09
   35.16000     -2.5786342E-09
   35.22000     -1.3821669E-09
   35.28000     -4.2186971E-10
   35.34000      3.1488195E-10
   35.40000      8.4255269E-10
   35.46000      1.1713128E-09
   35.52000      1.3045713E-09
   35.58000      1.2404672E-09
   35.64000      9.7602904E-10
   35.70000      5.1182658E-10
   35.76000     -1.4500559E-10
   35.82000     -9.8056974E-10
   35.88000     -1.9767254E-09
   35.94000     -3.1150638E-09
   36.00000     -4.3805239E-09
   36.06000     -5.7630438E-09
   36.12000     -7.2564683E-09
   36.18000     -8.8550181E-09
   36.24000     -1.0548538E-08
   36.30000     -1.2318222E-08
   36.36000     -1.4134393E-08
   36.42000     -1.5957333E-08
   36.48000     -1.7741268E-08
   36.54000     -1.9440805E-08
   36.60000     -2.1018447E-08
   36.66000     -2.2451536E-08
   36.72000     -2.3737089E-08
   36.78000     -2.4893408E-08
   36.84000     -2.5957990E-08
   36.90000     -2.6981962E-08
   36.96000     -2.8021949E-08
   37.02000     -2.9130785E-08
   37.08000     -3.0348804E-08
   37.14000     -3.1697500E-08
   37.20000     -3.3176924E-08
   37.26000     -3.4767599E-08
   37.32000     -3.6436568E-08
   37.38000     -3.8146148E-08
   37.44000     -3.9863082E-08
   37.50000     -4.1565372E-08
   37.56000     -4.3244626E-08
   37.62000     -4.4903146E-08
   37.68000     -4.6546603E-08
   37.74000     -4.8174929E-08
   37.80000     -4.9774616E-08
   37.86000     -5.1315428E-08
   37.92000     -5.2752657E-08
   37.98000     -5.4034182E-08
   38.04000     -5.5109556E-08
   38.10000     -5.5937821E-08
   38.16000     -5.6491267E-08
   38.22000     -5.6754214E-08
   38.28000     -5.6718164E-08
   38.34000     -5.6376042E-08
   38.40000     -5.5718619E-08
   38.46000     -5.4735018E-08
   38.52000     -5.3417260E-08
   38.58000     -5.1766769E-08
   38.64000     -4.9799880E-08
   38.70000     -4.7549648E-08
   38.76000     -4.5062876E-08
   38.82000     -4.2393321E-08
   38.88000     -3.9593523E-08
   38.94000     -3.6708347E-08
   39.00000     -3.3772352E-08
   39.06000     -3.0811492E-08
   39.12000     -2.7847772E-08
   39.18000     -2.4904276E-08
   39.24000     -2.2008033E-08
   39.30000     -1.9189214E-08
   39.36000     -1.6476932E-08
   39.42000     -1.3893489E-08
   39.48000     -1.1449712E-08
   39.54000     -9.1436609E-09
   39.60000     -6.9636727E-09
   39.66000     -4.8949453E-09
   39.72000     -2.9273959E-09
   39.78000     -1.0619294E-09
   39.84000      6.8724060E-10
   39.90000      2.2952054E-09
   39.96000      3.7331978E-09
   40.02000      4.9775641E-09
   40.08000      6.0182175E-09
   40.14000      6.8642354E-09
   40.20000      7.5453270E-09
   40.26000      8.1091356E-09
   40.32000      8.6153422E-09
   40.38000      9.1280894E-09
   40.44000      9.7081791E-09
   40.50000      1.0406234E-08
   40.56000      1.1257609E-08
   40.62000      1.2279539E-08
   40.68000      1.3470793E-08
   40.74000      1.4813780E-08
   40.80000      1.6278653E-08
   40.86000      1.7828455E-08
   40.92000      1.9423972E-08
   40.98000      2.1027068E-08
   41.04000      2.2601801E-08
   41.10000      2.4113591E-08
   41.16000      2.5527690E-08
   41.22000      2.6808664E-08
   41.28000      2.7922368E-08
   41.34000      2.8840754E-08
   41.40000      2.9548461E-08
   41.46000      3.0048898E-08
   41.52000      3.0367211E-08
   41.58000      3.0548144E-08
   41.64000      3.0648483E-08
   41.70000      3.0725655E-08
   41.76000      3.0825607E-08
   41.82000      3.0973599E-08
   41.88000      3.1170757E-08
   41.94000      3.1397597E-08
   42.00000      3.1623408E-08
   42.06000      3.1818491E-08
   42.12000      3.1965325E-08
   42.18000      3.2064992E-08
   42.24000      3.2136697E-08
   42.30000      3.2210661E-08
   42.36000      3.2316773E-08
   42.42000      3.2473043E-08
   42.48000      3.2678081E-08
   42.54000      3.2910428E-08
   42.60000      3.3135262E-08
   42.66000      3.3316176E-08
   42.72000      3.3427902E-08
   42.78000      3.3465291E-08
   42.84000      3.3445172E-08
   42.90000      3.3400326E-08
   42.96000      3.3367765E-08
   43.02000      3.3375624E-08
   43.08000      3.3433498E-08
   43.14000      3.3529744E-08
   43.20000      3.3636727E-08
   43.26000      3.3722088E-08
   43.32000      3.3762291E-08
   43.38000      3.3753938E-08
   43.44000      3.3719811E-08
   43.50000      3.3708407E-08
   43.56000      3.3788357E-08
   43.62000      3.4040660E-08
   43.68000      3.4552194E-08
   43.74000      3.5413258E-08
   43.80000      3.6720344E-08
   43.86000      3.8583707E-08
   43.92000      4.1137614E-08
   43.98000      4.4550838E-08
   44.04000      4.9034895E-08
   44.10000      5.4848748E-08
   44.16000      6.2299854E-08
   44.22000      7.1743045E-08
   44.28000      8.3579650E-08
   44.34000      9.8259648E-08
   44.40000      1.1628939E-07
   44.46000      1.3824632E-07
   44.52000      1.6480055E-07
   44.58000      1.9674169E-07
   44.64000      2.3500824E-07
   44.70000      2.8071673E-07
   44.76000      3.3518802E-07
   44.82000      3.9996988E-07
   44.88000      4.7685694E-07
   44.94000      5.6791026E-07
   45.00000      6.7548007E-07
   45.06000      8.0223504E-07
   45.12000      9.5120134E-07
   45.18000      1.1258115E-06
   45.24000      1.3299634E-06
   45.30000      1.5680865E-06
   45.36000      1.8452115E-06
   45.42000      2.1670414E-06
   45.48000      2.5400207E-06
   45.54000      2.9714022E-06
   45.60000      3.4693126E-06
   45.66000      4.0428240E-06
   45.72000      4.7020294E-06
   45.78000      5.4581351E-06
   45.84000      6.3235652E-06
   45.90000      7.3120796E-06
   45.96000      8.4388994E-06
   46.02000      9.7208385E-06
   46.08000      1.1176418E-05
   46.14000      1.2825980E-05
   46.20000      1.4691783E-05
   46.26000      1.6798080E-05
   46.32000      1.9171204E-05
   46.38000      2.1839638E-05
   46.44000      2.4834117E-05
   46.50000      2.8187711E-05
   46.56000      3.1935931E-05
   46.62000      3.6116809E-05
   46.68000      4.0770978E-05
   46.74000      4.5941655E-05
   46.80000      5.1674684E-05
   46.86000      5.8018442E-05
   46.92000      6.5023807E-05
   46.98000      7.2744020E-05
   47.04000      8.1234612E-05
   47.10000      9.0553272E-05
   47.16000      1.0075969E-04
   47.22000      1.1191532E-04
   47.28000      1.2408329E-04
   47.34000      1.3732800E-04
   47.40000      1.5171479E-04
   47.46000      1.6730971E-04
   47.52000      1.8417886E-04
   47.58000      2.0238805E-04
   47.64000      2.2200223E-04
   47.70000      2.4308496E-04
   47.76000      2.6569783E-04
   47.82000      2.8989994E-04
   47.88000      3.1574719E-04
   47.94000      3.4329170E-04
   48.00000      3.7258118E-04
   48.06000      4.0365820E-04
   48.12000      4.3655935E-04
   48.18000      4.7131471E-04
   48.24000      5.0794723E-04
   48.30000      5.4647168E-04
   48.36000      5.8689440E-04
   48.42000      6.2921253E-04
   48.48000      6.7341368E-04
   48.54000      7.1947515E-04
   48.60000      7.6736399E-04
   48.66000      8.1703637E-04
   48.72000      8.6843717E-04
   48.78000      9.2150009E-04
   48.84000      9.7614742E-04
   48.90000      1.0322903E-03
   48.96000      1.0898282E-03
   49.02000      1.1486501E-03
   49.08000      1.2086349E-03
   49.14000      1.2696512E-03
   49.20000      1.3315589E-03
   49.26000      1.3942093E-03
   49.32000      1.4574466E-03
   49.38000      1.5211083E-03
   49.44000      1.5850269E-03
   49.50000      1.6490307E-03
   49.56000      1.7129456E-03
   49.62000      1.7765961E-03
   49.68000      1.8398064E-03
   49.74000      1.9024034E-03
   49.80000      1.9642166E-03
   49.86000      2.0250808E-03
   49.92000      2.0848373E-03
   49.98000      2.1433348E-03
   50.04000      2.2004314E-03
   50.10000      2.2559962E-03
   50.16000      2.3099100E-03
   50.22000      2.3620669E-03
   50.28000      2.4123751E-03
   50.34000      2.4607582E-03
   50.40000      2.5071560E-03
   50.46000      2.5515247E-03
   50.52000      2.5938367E-03
   50.58000      2.6340820E-03
   50.64000      2.6722676E-03
   50.70000      2.7084169E-03
   50.76000      2.7425701E-03
   50.82000      2.7747834E-03
   50.88000      2.8051275E-03
   50.94000      2.8336868E-03
   51.00000      2.8605587E-03
   51.06000      2.8858518E-03
   51.12000      2.9096846E-03
   51.18000      2.9321825E-03
   51.24000      2.9534784E-03
   51.30000      2.9737095E-03
   51.36000      2.9930149E-03
   51.42000      3.0115345E-03
   51.48000      3.0294070E-03
   51.54000      3.0467664E-03
   51.60000      3.0637428E-03
   51.66000      3.0804584E-03
   51.72000      3.0970268E-03
   51.78000      3.1135511E-03
   51.84000      3.1301230E-03
   51.90000      3.1468209E-03
   51.96000      3.1637093E-03
   52.02000      3.1808370E-03
   52.08000      3.1982372E-03
   52.14000      3.2159274E-03
   52.20000      3.2339096E-03
   52.26000      3.2521691E-03
   52.32000      3.2706759E-03
   52.38000      3.2893848E-03
   52.44000      3.3082366E-03
   52.50000      3.3271592E-03
   52.56000      3.3460679E-03
   52.62000      3.3648675E-03
   52.68000      3.3834544E-03
   52.74000      3.4017167E-03
   52.80000      3.4195385E-03
   52.86000      3.4367994E-03
   52.92000      3.4533783E-03
   52.98000      3.4691545E-03
   53.04000      3.4840093E-03
   53.10000      3.4978280E-03
   53.16000      3.5105029E-03
   53.22000      3.5219332E-03
   53.28000      3.5320281E-03
   53.34000      3.5407075E-03
   53.40000      3.5479041E-03
   53.46000      3.5535647E-03
   53.52000      3.5576487E-03
   53.58000      3.5601314E-03
   53.64000      3.5610034E-03
   53.70000      3.5602704E-03
   53.76000      3.5579535E-03
   53.82000      3.5540892E-03
   53.88000      3.5487290E-03
   53.94000      3.5419371E-03
   54.00000      3.5337913E-03
   54.06000      3.5243800E-03
   54.12000      3.5138025E-03
   54.18000      3.5021668E-03
   54.24000      3.4895872E-03
   54.30000      3.4761846E-03
   54.36000      3.4620825E-03
   54.42000      3.4474067E-03
   54.48000      3.4322825E-03
   54.54000      3.4168330E-03
   54.60000      3.4011775E-03
   54.66000      3.3854288E-03
   54.72000      3.3696932E-03
   54.78000      3.3540677E-03
   54.84000      3.3386382E-03
   54.90000      3.3234810E-03
   54.96000      3.3086583E-03
   55.02000      3.2942200E-03
   55.08000      3.2802015E-03
   55.14000      3.2666242E-03
   55.20000      3.2534944E-03
   55.26000      3.2408040E-03
   55.32000      3.2285305E-03
   55.38000      3.2166382E-03
   55.44000      3.2050777E-03
   55.50000      3.1937875E-03
   55.56000      3.1826952E-03