  -2.400000      0.0000000E+00
  -2.340000      0.0000000E+00
  -2.280000      0.0000000E+00
  -2.220000      0.0000000E+00
  -2.160000      0.0000000E+00
  -2.100000     -6.0914954E-21
  -2.040000      3.5272135E-20
  -1.980000      6.2617888E-19
  -1.920000      3.6350526E-18
  -1.860000      1.3314398E-17
  -1.800000      3.5975385E-17
  -1.740000      7.6590426E-17
  -1.680000      1.3231312E-16
  -1.620000      1.8645489E-16
  -1.560000      2.0906764E-16
  -1.500000      1.6761145E-16
  -1.440000      4.1061858E-17
  -1.380000     -1.8225944E-16
  -1.320000     -5.4633276E-16
  -1.260000     -1.2107143E-15
  -1.200000     -2.5271812E-15
  -1.140000     -5.0007140E-15
  -1.080000     -9.0011422E-15
  -1.020000     -1.4161013E-14
 -0.9600000     -1.8589254E-14
 -0.9000000     -1.8307968E-14
 -0.8400000     -7.5447207E-15
 -0.7800000      1.9517138E-14
 -0.7200000      6.5383774E-14
 -0.6600000      1.2503242E-13
 -0.6000000      1.8261567E-13
 -0.5400000      2.1154057E-13
 -0.4800000      1.8003410E-13
 -0.4200000      6.2585381E-14
 -0.3600000     -1.4521721E-13
 -0.3000000     -4.1396010E-13
 -0.2400000     -6.7690341E-13
 -0.1800000     -8.4150682E-13
 -0.1200000     -8.1696818E-13
 -5.9999999E-02 -5.5147136E-13
  0.0000000E+00 -6.5810516E-14
  5.9999999E-02  5.3308080E-13
  0.1200000      1.0714675E-12
  0.1800000      1.3627208E-12
  0.2400000      1.2820368E-12
  0.3000000      8.3442178E-13
  0.3600000      1.8341676E-13
  0.4200000     -3.8323378E-13
  0.4800000     -5.5253534E-13
  0.5400000     -1.2241874E-13
  0.6000000      8.7628597E-13
  0.6600000      2.1301793E-12
  0.7200000      3.1059296E-12
  0.7800000      3.2245341E-12
  0.8400000      2.0962837E-12
  0.9000000     -2.7381046E-13
  0.9600000     -3.4085276E-12
   1.020000     -6.4733418E-12
   1.080000     -8.5773333E-12
   1.140000     -9.1685808E-12
   1.200000     -8.3667136E-12
   1.260000     -7.0617574E-12
   1.320000     -6.6648015E-12
   1.380000     -8.5150498E-12
   1.440000     -1.3094734E-11
   1.500000     -1.9325290E-11
   1.560000     -2.4261671E-11
   1.620000     -2.3433399E-11
   1.680000     -1.1904685E-11
   1.740000      1.4113256E-11
   1.800000      5.5490793E-11
   1.860000      1.0877321E-10
   1.920000      1.6563899E-10
   1.980000      2.1353597E-10
   2.040000      2.3750599E-10
   2.100000      2.2288743E-10
   2.160000      1.5835358E-10
   2.220000      3.8684285E-11
   2.280000     -1.3320196E-10
   2.340000     -3.4516776E-10
   2.400000     -5.7565935E-10
   2.460000     -7.9414814E-10
   2.520000     -9.6197739E-10
   2.580000     -1.0335717E-09
   2.640000     -9.5823671E-10
   2.700000     -6.8297928E-10
   2.760000     -1.5675032E-10
   2.820000      6.6379297E-10
   2.880000      1.8074615E-09
   2.940000      3.2817036E-09
   3.000000      5.0672511E-09
   3.060000      7.1157671E-09
   3.120000      9.3515675E-09
   3.180000      1.1677636E-08
   3.240000      1.3985141E-08
   3.300000      1.6164769E-08
   3.360000      1.8117737E-08
   3.420000      1.9764508E-08
   3.480000      2.1049898E-08
   3.540000      2.1944260E-08
   3.600000      2.2441521E-08
   3.660000      2.2555383E-08
   3.720000      2.2315296E-08
   3.780000      2.1763276E-08
   3.840000      2.0951989E-08
   3.900000      1.9943618E-08
   3.960000      1.8808489E-08
   4.020000      1.7622291E-08
   4.080000      1.6461160E-08
   4.140000      1.5394576E-08
   4.200000      1.4477065E-08
   4.260000      1.3740239E-08
   4.320000      1.3187177E-08
   4.380000      1.2790800E-08
   4.440000      1.2497258E-08
   4.500000      1.2234242E-08
   4.560000      1.1923069E-08
   4.620000      1.1492513E-08
   4.680000      1.0891881E-08
   4.740000      1.0100933E-08
   4.800000      9.1348511E-09
   4.860000      8.0433935E-09
   4.920000      6.9044805E-09
   4.980000      5.8134026E-09
   5.040000      4.8695217E-09
   5.100000      4.1625809E-09
   5.160000      3.7606265E-09
   5.220000      3.7011136E-09
   5.280000      3.9861896E-09
   5.340000      4.5825845E-09
   5.400000      5.4259859E-09
   5.460000      6.4293575E-09
   5.520000      7.4942985E-09
   5.580000      8.5242187E-09
   5.640000      9.4378088E-09
   5.700000      1.0181026E-08
   5.760000      1.0735691E-08
   5.820000      1.1122954E-08
   5.880000      1.1400304E-08
   5.940000      1.1651808E-08
   6.000000      1.1972467E-08
   6.060000      1.2448997E-08
   6.120000      1.3140584E-08
   6.180000      1.4063690E-08
   6.240000      1.5184641E-08
   6.300000      1.6422355E-08
   6.360000      1.7661298E-08
   6.420000      1.8772282E-08
   6.480000      1.9636531E-08
   6.540000      2.0167411E-08
   6.600000      2.0324526E-08
   6.660000      2.0116772E-08
   6.720000      1.9593745E-08
   6.780000      1.8827921E-08
   6.840000      1.7892470E-08
   6.900000      1.6840666E-08
   6.960000      1.5692240E-08
   7.020000      1.4430177E-08
   7.080000      1.3008457E-08
   7.140000      1.1368423E-08
   7.200000      9.4591961E-09
   7.260000      7.2566384E-09
   7.320000      4.7759059E-09
   7.380000      2.0744140E-09
   7.440000     -7.5547729E-10
   7.500000     -3.6022003E-09
   7.560000     -6.3553593E-09
   7.620000     -8.9260572E-09
   7.680000     -1.1262704E-08
   7.740000     -1.3359037E-08
   7.800000     -1.5252860E-08
   7.860000     -1.7015980E-08
   7.920000     -1.8737436E-08
   7.980000     -2.0503453E-08
   8.040000     -2.2377959E-08
   8.100000     -2.4387592E-08
   8.160000     -2.6514298E-08
   8.220000     -2.8697269E-08
   8.280000     -3.0844220E-08
   8.340000     -3.2849872E-08
   8.400000     -3.4617848E-08
   8.460000     -3.6080838E-08
   8.520000     -3.7214271E-08
   8.580000     -3.8039872E-08
   8.640000     -3.8618140E-08
   8.700000     -3.9031754E-08
   8.760000     -3.9364437E-08
   8.820000     -3.9681240E-08
   8.880000     -4.0015731E-08
   8.940000     -4.0367386E-08
   9.000000     -4.0709416E-08
   9.060000     -4.1003975E-08
   9.120000     -4.1219508E-08
   9.180000     -4.1344602E-08
   9.240000     -4.1394070E-08
   9.300000     -4.1405812E-08
   9.360000     -4.1430020E-08
   9.420000     -4.1514827E-08
   9.480000     -4.1693134E-08
   9.540000     -4.1974712E-08
   9.600000     -4.2345413E-08
   9.660000     -4.2772719E-08
   9.720000     -4.3214989E-08
   9.780000     -4.3630784E-08
   9.840000     -4.3985320E-08
   9.900000     -4.4252623E-08
   9.960000     -4.4413945E-08
   10.02000     -4.4454218E-08
   10.08000     -4.4358888E-08
   10.14000     -4.4113008E-08
   10.20000     -4.3703206E-08
   10.26000     -4.3121904E-08
   10.32000     -4.2372232E-08
   10.38000     -4.1471626E-08
   10.44000     -4.0452523E-08
   10.50000     -3.9359072E-08
   10.56000     -3.8240028E-08
   10.62000     -3.7138712E-08
   10.68000     -3.6082170E-08
   10.74000     -3.5072045E-08
   10.80000     -3.4079882E-08
   10.86000     -3.3049119E-08
   10.92000     -3.1904502E-08
   10.98000     -3.0568003E-08
   11.04000     -2.8978022E-08
   11.10000     -2.7107317E-08
   11.16000     -2.4974584E-08
   11.22000     -2.2645828E-08
   11.28000     -2.0224100E-08
   11.34000     -1.7829402E-08
   11.40000     -1.5573502E-08
   11.46000     -1.3535960E-08
   11.52000     -1.1747557E-08
   11.58000     -1.0185143E-08
   11.64000     -8.7788345E-09
   11.70000     -7.4290729E-09
   11.76000     -6.0287664E-09
   11.82000     -4.4848529E-09
   11.88000     -2.7345080E-09
   11.94000     -7.5317141E-10
   12.00000      1.4460180E-09
   12.06000      3.8198067E-09
   12.12000      6.3066476E-09
   12.18000      8.8396952E-09
   12.24000      1.1358346E-08
   12.30000      1.3816487E-08
   12.36000      1.6186533E-08
   12.42000      1.8459220E-08
   12.48000      2.0639883E-08
   12.54000      2.2742563E-08
   12.60000      2.4783704E-08
   12.66000      2.6777116E-08
   12.72000      2.8731424E-08
   12.78000      3.0650330E-08
   12.84000      3.2534953E-08
   12.90000      3.4386773E-08
   12.96000      3.6209563E-08
   13.02000      3.8009276E-08
   13.08000      3.9791832E-08
   13.14000      4.1560096E-08
   13.20000      4.3311715E-08
   13.26000      4.5039364E-08
   13.32000      4.6733906E-08
   13.38000      4.8389410E-08
   13.44000      5.0007902E-08
   13.50000      5.1601262E-08
   13.56000      5.3188682E-08
   13.62000      5.4789709E-08
   13.68000      5.6414791E-08
   13.74000      5.8056777E-08
   13.80000      5.9686670E-08
   13.86000      6.1255889E-08
   13.92000      6.2705098E-08
   13.98000      6.3977197E-08
   14.04000      6.5030662E-08
   14.10000      6.5849271E-08
   14.16000      6.6445104E-08
   14.22000      6.6854170E-08
   14.28000      6.7126138E-08
   14.34000      6.7311156E-08
   14.40000      6.7447623E-08
   14.46000      6.7553898E-08
   14.52000      6.7625606E-08
   14.58000      6.7638787E-08
   14.64000      6.7557316E-08
   14.70000      6.7342611E-08
   14.76000      6.6963104E-08
   14.82000      6.6401576E-08
   14.88000      6.5658803E-08
   14.94000      6.4753067E-08
   15.00000      6.3715760E-08
   15.06000      6.2584192E-08
   15.12000      6.1393493E-08
   15.18000      6.0169640E-08
   15.24000      5.8925639E-08
   15.30000      5.7661989E-08
   15.36000      5.6371384E-08
   15.42000      5.5046154E-08
   15.48000      5.3685927E-08
   15.54000      5.2302696E-08
   15.60000      5.0921212E-08
   15.66000      4.9574219E-08
   15.72000      4.8293835E-08
   15.78000      4.7102070E-08
   15.84000      4.6003741E-08
   15.90000      4.4984553E-08
   15.96000      4.4015195E-08
   16.02000      4.3060155E-08
   16.08000      4.2088459E-08
   16.14000      4.1082693E-08
   16.20000      4.0043584E-08
   16.26000      3.8988919E-08
   16.32000      3.7947647E-08
   16.38000      3.6951374E-08
   16.44000      3.6026091E-08
   16.50000      3.5186325E-08
   16.56000      3.4432851E-08
   16.62000      3.3753803E-08
   16.68000      3.3128210E-08
   16.74000      3.2530867E-08
   16.80000      3.1937667E-08
   16.86000      3.1330750E-08
   16.92000      3.0703106E-08
   16.98000      3.0061720E-08
   17.04000      2.9428238E-08
   17.10000      2.8835981E-08
   17.16000      2.8322757E-08
   17.22000      2.7920382E-08
   17.28000      2.7643312E-08
   17.34000      2.7479921E-08
   17.40000      2.7389930E-08
   17.46000      2.7310028E-08
   17.52000      2.7167186E-08
   17.58000      2.6896451E-08
   17.64000      2.6458007E-08
   17.70000      2.5848122E-08
   17.76000      2.5100274E-08
   17.82000      2.4275717E-08
   17.88000      2.3446148E-08
   17.94000      2.2673630E-08
   18.00000      2.1993616E-08
   18.06000      2.1405837E-08
   18.12000      2.0875181E-08
   18.18000      2.0341673E-08
   18.24000      1.9736133E-08
   18.30000      1.8996827E-08
   18.36000      1.8082661E-08
   18.42000      1.6979877E-08
   18.48000      1.5701318E-08
   18.54000      1.4279313E-08
   18.60000      1.2754813E-08
   18.66000      1.1165959E-08
   18.72000      9.5390753E-09
   18.78000      7.8840827E-09
   18.84000      6.1949299E-09
   18.90000      4.4541504E-09
   18.96000      2.6395659E-09
   19.02000      7.3056766E-10
   19.08000     -1.2882948E-09
   19.14000     -3.4277352E-09
   19.20000     -5.6980252E-09
   19.26000     -8.1155580E-09
   19.32000     -1.0709060E-08
   19.38000     -1.3522587E-08
   19.44000     -1.6613203E-08
   19.50000     -2.0042732E-08
   19.56000     -2.3864779E-08
   19.62000     -2.8109925E-08
   19.68000     -3.2772821E-08
   19.74000     -3.7804856E-08
   19.80000     -4.3114785E-08
   19.86000     -4.8577778E-08
   19.92000     -5.4051227E-08
   19.98000     -5.9393848E-08
   20.04000     -6.4483757E-08
   20.10000     -6.9231653E-08
   20.16000     -7.3586534E-08
   20.22000     -7.7533556E-08
   20.28000     -8.1085702E-08
   20.34000     -8.4272465E-08
   20.40000     -8.7129187E-08
   20.46000     -8.9689919E-08
   20.52000     -9.1985079E-08
   20.58000     -9.4043571E-08
   20.64000     -9.5897093E-08
   20.70000     -9.7583914E-08
   20.76000     -9.9149794E-08
   20.82000     -1.0064457E-07
   20.88000     -1.0211482E-07
   20.94000     -1.0359437E-07
   21.00000     -1.0509519E-07
   21.06000     -1.0660141E-07
   21.12000     -1.0806843E-07
   21.18000     -1.0942777E-07
   21.24000     -1.1059699E-07
   21.30000     -1.1149245E-07
   21.36000     -1.1204261E-07
   21.42000     -1.1219860E-07
   21.48000     -1.1194054E-07
   21.54000     -1.1127812E-07
   21.60000     -1.1024604E-07
   21.66000     -1.0889563E-07
   21.72000     -1.0728471E-07
   21.78000     -1.0546795E-07
   21.84000     -1.0348963E-07
   21.90000     -1.0137993E-07
   21.96000     -9.9154931E-08
   22.02000     -9.6819868E-08
   22.08000     -9.4374528E-08
   22.14000     -9.1819302E-08
   22.20000     -8.9160402E-08
   22.26000     -8.6412868E-08
   22.32000     -8.3600767E-08
   22.38000     -8.0754177E-08
   22.44000     -7.7904019E-08
   22.50000     -7.5075768E-08
   22.56000     -7.2284138E-08
   22.62000     -6.9530188E-08
   22.68000     -6.6801938E-08
   22.74000     -6.4078655E-08
   22.80000     -6.1337829E-08
   22.86000     -5.8563174E-08
   22.92000     -5.5751592E-08
   22.98000     -5.2917283E-08
   23.04000     -5.0091906E-08
   23.10000     -4.7320707E-08
   23.16000     -4.4655447E-08
   23.22000     -4.2145814E-08
   23.28000     -3.9831477E-08
   23.34000     -3.7736704E-08
   23.40000     -3.5869018E-08
   23.46000     -3.4222150E-08
   23.52000     -3.2782577E-08
   23.58000     -3.1537581E-08
   23.64000     -3.0482415E-08
   23.70000     -2.9624124E-08
   23.76000     -2.8980658E-08
   23.82000     -2.8575370E-08
   23.88000     -2.8428618E-08
   23.94000     -2.8549367E-08
   24.00000     -2.8929833E-08
   24.06000     -2.9545349E-08
   24.12000     -3.0359853E-08
   24.18000     -3.1335343E-08
   24.24000     -3.2442038E-08
   24.30000     -3.3665597E-08
   24.36000     -3.5008444E-08
   24.42000     -3.6484344E-08
   24.48000     -3.8107686E-08
   24.54000     -3.9880934E-08
   24.60000     -4.1784695E-08
   24.66000     -4.3774058E-08
   24.72000     -4.5783107E-08
   24.78000     -4.7736656E-08
   24.84000     -4.9566051E-08
   24.90000     -5.1224220E-08
   24.96000     -5.2695420E-08
   25.02000     -5.3996558E-08
   25.08000     -5.5169505E-08
   25.14000     -5.6266536E-08
   25.20000     -5.7332876E-08
   25.26000     -5.8391123E-08
   25.32000     -5.9431592E-08
   25.38000     -6.0410883E-08
   25.44000     -6.1258731E-08
   25.50000     -6.1891015E-08
   25.56000     -6.2225496E-08
   25.62000     -6.2196563E-08
   25.68000     -6.1765824E-08
   25.74000     -6.0926517E-08
   25.80000     -5.9701605E-08
   25.86000     -5.8136624E-08
   25.92000     -5.6289306E-08
   25.98000     -5.4218717E-08
   26.04000     -5.1975977E-08
   26.10000     -4.9598277E-08
   26.16000     -4.7106756E-08
   26.22000     -4.4507800E-08
   26.28000     -4.1796877E-08
   26.34000     -3.8963393E-08
   26.40000     -3.5995487E-08
   26.46000     -3.2884024E-08
   26.52000     -2.9625557E-08
   26.58000     -2.6224514E-08
   26.64000     -2.2694874E-08
   26.70000     -1.9061321E-08
   26.76000     -1.5359424E-08
   26.82000     -1.1634024E-08
   26.88000     -7.9351006E-09
   26.94000     -4.3109010E-09
   27.00000     -7.9922691E-10
   27.06000      2.5812135E-09
   27.12000      5.8367458E-09
   27.18000      8.9994883E-09
   27.24000      1.2121597E-08
   27.30000      1.5263591E-08
   27.36000      1.8479367E-08
   27.42000      2.1801977E-08
   27.48000      2.5234359E-08
   27.54000      2.8747975E-08
   27.60000      3.2289840E-08
   27.66000      3.5795686E-08
   27.72000      3.9205084E-08
   27.78000      4.2473637E-08
   27.84000      4.5578723E-08
   27.90000      4.8517347E-08
   27.96000      5.1297633E-08
   28.02000      5.3927465E-08
   28.08000      5.6404303E-08
   28.14000      5.8709535E-08
   28.20000      6.0808667E-08
   28.26000      6.2656611E-08
   28.32000      6.4205850E-08
   28.38000      6.5414547E-08
   28.44000      6.6252596E-08
   28.50000      6.6704274E-08
   28.56000      6.6767882E-08
   28.62000      6.6453033E-08
   28.68000      6.5776909E-08
   28.74000      6.4760464E-08
   28.80000      6.3425190E-08
   28.86000      6.1790985E-08
   28.92000      5.9875120E-08
   28.98000      5.7692695E-08
   29.04000      5.5258290E-08
   29.10000      5.2588632E-08
   29.16000      4.9705530E-08
   29.22000      4.6638085E-08
   29.28000      4.3423228E-08
   29.34000      4.0103732E-08
   29.40000      3.6723780E-08
   29.46000      3.3322742E-08
   29.52000      2.9928746E-08
   29.58000      2.6553996E-08
   29.64000      2.3193447E-08
   29.70000      1.9827846E-08
   29.76000      1.6430768E-08
   29.82000      1.2978028E-08
   29.88000      9.4569614E-09
   29.94000      5.8729142E-09
   30.00000      2.2509676E-09
   30.06000     -1.3677069E-09
   30.12000     -4.9339377E-09
   30.18000     -8.4009173E-09
   30.24000     -1.1734136E-08
   30.30000     -1.4918445E-08
   30.36000     -1.7960627E-08
   30.42000     -2.0886953E-08
   30.48000     -2.3736170E-08
   30.54000     -2.6549147E-08
   30.60000     -2.9356855E-08
   30.66000     -3.2168895E-08
   30.72000     -3.4964962E-08
   30.78000     -3.7691681E-08
   30.84000     -4.0266752E-08
   30.90000     -4.2590852E-08
   30.96000     -4.4565795E-08
   31.02000     -4.6115201E-08
   31.08000     -4.7202452E-08
   31.14000     -4.7840508E-08
   31.20000     -4.8090115E-08
   31.26000     -4.8046019E-08
   31.32000     -4.7814730E-08
   31.38000     -4.7490225E-08
   31.44000     -4.7134876E-08
   31.50000     -4.6771362E-08
   31.56000     -4.6387672E-08
   31.62000     -4.5952934E-08
   31.68000     -4.5438359E-08
   31.74000     -4.4835986E-08
   31.80000     -4.4169166E-08
   31.86000     -4.3491784E-08
   31.92000     -4.2877172E-08
   31.98000     -4.2401069E-08
   32.04000     -4.2124441E-08
   32.10000     -4.2081481E-08
   32.16000     -4.2275722E-08
   32.22000     -4.2684309E-08
   32.28000     -4.3267974E-08
   32.34000     -4.3982812E-08
   32.40000     -4.4790411E-08
   32.46000     -4.5663803E-08
   32.52000     -4.6588607E-08
   32.58000     -4.7560025E-08
   32.64000     -4.8577213E-08
   32.70000     -4.9636622E-08
   32.76000     -5.0725806E-08
   32.82000     -5.1819015E-08
   32.88000     -5.2875436E-08
   32.94000     -5.3841092E-08
   33.00000     -5.4654567E-08
   33.06000     -5.5255985E-08
   33.12000     -5.5597507E-08
   33.18000     -5.5652606E-08
   33.24000     -5.5421204E-08
   33.30000     -5.4928524E-08
   33.36000     -5.4217445E-08
   33.42000     -5.3336240E-08
   33.48000     -5.2325532E-08
   33.54000     -5.1208605E-08
   33.60000     -4.9988301E-08
   33.66000     -4.8651366E-08
   33.72000     -4.7178276E-08
   33.78000     -4.5554877E-08
   33.84000     -4.3781572E-08
   33.90000     -4.1877197E-08
   33.96000     -3.9876934E-08
   34.02000     -3.7826126E-08
   34.08000     -3.5773123E-08
   34.14000     -3.3764081E-08
   34.20000     -3.1841171E-08
   34.26000     -3.0043488E-08
   34.32000     -2.8408534E-08
   34.38000     -2.6971847E-08
   34.44000     -2.5763597E-08
   34.50000     -2.4802835E-08
   34.56000     -2.4091772E-08
   34.62000     -2.3613108E-08
   34.68000     -2.3332333E-08
   34.74000     -2.3205011E-08
   34.80000     -2.3186757E-08
   34.86000     -2.3242363E-08
   34.92000     -2.3350603E-08
   34.98000     -2.3503018E-08
   35.04000     -2.3697249E-08
   35.10000     -2.3927651E-08
   35.16000     -2.4176922E-08
   35.22000     -2.4412046E-08
   35.28000     -2.4586168E-08
   35.34000     -2.4646026E-08
   35.40000     -2.4542643E-08
   35.46000     -2.4242159E-08
   35.52000     -2.3733689E-08
   35.58000     -2.3032008E-08
   35.64000     -2.2174250E-08
   35.70000     -2.1211344E-08
   35.76000     -2.0196220E-08
   35.82000     -1.9171774E-08
   35.88000     -1.8161836E-08
   35.94000     -1.7167890E-08
   36.00000     -1.6172866E-08
   36.06000     -1.5151302E-08
   36.12000     -1.4082992E-08
   36.18000     -1.2965761E-08
   36.24000     -1.1822788E-08
   36.30000     -1.0701335E-08
   36.36000     -9.6624646E-09
   36.42000     -8.7644887E-09
   36.48000     -8.0453582E-09
   36.54000     -7.5099518E-09
   36.60000     -7.1269581E-09
   36.66000     -6.8370687E-09
   36.72000     -6.5705481E-09
   36.78000     -6.2691683E-09
   36.84000     -5.9060690E-09
   36.90000     -5.4976490E-09
   36.96000     -5.1040407E-09
   37.02000     -4.8180171E-09
   37.08000     -4.7454578E-09
   37.14000     -4.9826507E-09
   37.20000     -5.5962568E-09
   37.26000     -6.6106765E-09
   37.32000     -8.0052409E-09
   37.38000     -9.7209485E-09
   37.44000     -1.1674064E-08
   37.50000     -1.3772594E-08
   37.56000     -1.5931583E-08
   37.62000     -1.8084307E-08
   37.68000     -2.0188066E-08
   37.74000     -2.2225088E-08
   37.80000     -2.4199874E-08
   37.86000     -2.6134693E-08
   37.92000     -2.8064154E-08
   37.98000     -3.0029174E-08
   38.04000     -3.2070105E-08
   38.10000     -3.4218981E-08
   38.16000     -3.6491592E-08
   38.22000     -3.8880891E-08
   38.28000     -4.1353665E-08
   38.34000     -4.3851905E-08
   38.40000     -4.6299160E-08
   38.46000     -4.8610453E-08
   38.52000     -5.0703349E-08
   38.58000     -5.2507389E-08
   38.64000     -5.3969920E-08
   38.70000     -5.5057765E-08
   38.76000     -5.5755589E-08
   38.82000     -5.6062646E-08
   38.88000     -5.5989524E-08
   38.94000     -5.5555713E-08
   39.00000     -5.4788217E-08
   39.06000     -5.3720605E-08
   39.12000     -5.2392195E-08
   39.18000     -5.0847301E-08
   39.24000     -4.9134616E-08
   39.30000     -4.7306845E-08
   39.36000     -4.5420016E-08
   39.42000     -4.3531429E-08
   39.48000     -4.1695241E-08
   39.54000     -3.9955584E-08
   39.60000     -3.8338474E-08
   39.66000     -3.6845190E-08
   39.72000     -3.5450167E-08
   39.78000     -3.4105522E-08
   39.84000     -3.2752077E-08
   39.90000     -3.1334174E-08
   39.96000     -2.9813766E-08
   40.02000     -2.8179198E-08
   40.08000     -2.6445814E-08
   40.14000     -2.4648665E-08
   40.20000     -2.2830397E-08
   40.26000     -2.1029196E-08
   40.32000     -1.9271274E-08
   40.38000     -1.7570239E-08
   40.44000     -1.5932743E-08
   40.50000     -1.4367219E-08
   40.56000     -1.2891415E-08
   40.62000     -1.1535286E-08
   40.68000     -1.0337939E-08
   40.74000     -9.3399191E-09
   40.80000     -8.5740517E-09
   40.86000     -8.0584961E-09
   40.92000     -7.7945677E-09
   40.98000     -7.7698088E-09
   41.04000     -7.9646627E-09
   41.10000     -8.3597707E-09
   41.16000     -8.9409715E-09
   41.22000     -9.7003623E-09
   41.28000     -1.0633657E-08
   41.34000     -1.1735722E-08
   41.40000     -1.2996836E-08
   41.46000     -1.4401589E-08
   41.52000     -1.5930844E-08
   41.58000     -1.7565414E-08
   41.64000     -1.9289134E-08
   41.70000     -2.1089122E-08
   41.76000     -2.2952401E-08
   41.82000     -2.4860030E-08
   41.88000     -2.6781352E-08
   41.94000     -2.8671517E-08
   42.00000     -3.0474379E-08
   42.06000     -3.2130764E-08
   42.12000     -3.3589920E-08
   42.18000     -3.4820545E-08
   42.24000     -3.5817759E-08
   42.30000     -3.6603851E-08
   42.36000     -3.7222726E-08
   42.42000     -3.7730121E-08
   42.48000     -3.8182534E-08
   42.54000     -3.8627686E-08
   42.60000     -3.9098332E-08
   42.66000     -3.9609741E-08
   42.72000     -4.0160465E-08
   42.78000     -4.0735653E-08
   42.84000     -4.1312550E-08
   42.90000     -4.1867722E-08
   42.96000     -4.2385455E-08
   43.02000     -4.2865764E-08
   43.08000     -4.3329603E-08
   43.14000     -4.3818748E-08
   43.20000     -4.4388827E-08
   43.26000     -4.5096243E-08
   43.32000     -4.5982215E-08
   43.38000     -4.7059274E-08
   43.44000     -4.8305466E-08
   43.50000     -4.9669499E-08
   43.56000     -5.1086587E-08
   43.62000     -5.2500642E-08
   43.68000     -5.3885913E-08
   43.74000     -5.5260966E-08
   43.80000     -5.6690133E-08
   43.86000     -5.8271887E-08
   43.92000     -6.0117827E-08
   43.98000     -6.2329335E-08
   44.04000     -6.4979510E-08
   44.10000     -6.8106282E-08
   44.16000     -7.1718823E-08
   44.22000     -7.5815151E-08
   44.28000     -8.0405449E-08
   44.34000     -8.5534204E-08
   44.40000     -9.1295227E-08
   44.46000     -9.7836136E-08
   44.52000     -1.0535251E-07
   44.58000     -1.1407521E-07
   44.64000     -1.2425609E-07
   44.70000     -1.3615751E-07
   44.76000     -1.5004991E-07
   44.82000     -1.6621833E-07
   44.88000     -1.8497752E-07
   44.94000     -2.0669198E-07
   45.00000     -2.3179737E-07
   45.06000     -2.6081912E-07
   45.12000     -2.9438618E-07
   45.18000     -3.3323792E-07
   45.24000     -3.7822645E-07
   45.30000     -4.3031616E-07
   45.36000     -4.9058519E-07
   45.42000     -5.6023202E-07
   45.48000     -6.4059174E-07
   45.54000     -7.3316147E-07
   45.60000     -8.3963420E-07
   45.66000     -9.6193492E-07
   45.72000     -1.1022535E-06
   45.78000     -1.2630695E-06
   45.84000     -1.4471651E-06
   45.90000     -1.6576272E-06
   45.96000     -1.8978460E-06
   46.02000     -2.1715148E-06
   46.08000     -2.4826402E-06
   46.14000     -2.8355655E-06
   46.20000     -3.2350072E-06
   46.26000     -3.6860947E-06
   46.32000     -4.1944149E-06
   46.38000     -4.7660451E-06
   46.44000     -5.4075749E-06
   46.50000     -6.1261135E-06
   46.56000     -6.9292937E-06
   46.62000     -7.8252679E-06
   46.68000     -8.8227071E-06
   46.74000     -9.9308008E-06
   46.80000     -1.1159264E-05
   46.86000     -1.2518338E-05
   46.92000     -1.4018787E-05
   46.98000     -1.5671889E-05
   47.04000     -1.7489416E-05
   47.10000     -1.9483597E-05
   47.16000     -2.1667100E-05
   47.22000     -2.4052966E-05
   47.28000     -2.6654569E-05
   47.34000     -2.9485536E-05
   47.40000     -3.2559699E-05
   47.46000     -3.5891000E-05
   47.52000     -3.9493414E-05
   47.58000     -4.3380849E-05
   47.64000     -4.7567053E-05
   47.70000     -5.2065516E-05
   47.76000     -5.6889345E-05
   47.82000     -6.2051156E-05
   47.88000     -6.7562949E-05
   47.94000     -7.3435913E-05
   48.00000     -7.9680365E-05
   48.06000     -8.6305510E-05
   48.12000     -9.3319344E-05
   48.18000     -1.0072846E-04
   48.24000     -1.0853794E-04
   48.30000     -1.1675124E-04
   48.36000     -1.2537002E-04
   48.42000     -1.3439408E-04
   48.48000     -1.4382125E-04
   48.54000     -1.5364727E-04
   48.60000     -1.6386577E-04
   48.66000     -1.7446806E-04
   48.72000     -1.8544319E-04
   48.78000     -1.9677792E-04
   48.84000     -2.0845672E-04
   48.90000     -2.2046175E-04
   48.96000     -2.3277292E-04
   49.02000     -2.4536799E-04
   49.08000     -2.5822266E-04
   49.14000     -2.7131056E-04
   49.20000     -2.8460351E-04
   49.26000     -2.9807157E-04
   49.32000     -3.1168340E-04
   49.38000     -3.2540620E-04
   49.44000     -3.3920625E-04
   49.50000     -3.5304899E-04
   49.56000     -3.6689936E-04
   49.62000     -3.8072211E-04
   49.68000     -3.9448202E-04
   49.74000     -4.0814449E-04
   49.80000     -4.2167548E-04
   49.86000     -4.3504193E-04
   49.92000     -4.4821214E-04
   49.98000     -4.6115607E-04
   50.04000     -4.7384549E-04
   50.10000     -4.8625446E-04
   50.16000     -4.9835944E-04
   50.22000     -5.1013974E-04
   50.28000     -5.2157772E-04
   50.34000     -5.3265871E-04
   50.40000     -5.4337137E-04
   50.46000     -5.5370783E-04
   50.52000     -5.6366337E-04
   50.58000     -5.7323714E-04
   50.64000     -5.8243162E-04
   50.70000     -5.9125276E-04
   50.76000     -5.9971010E-04
   50.82000     -6.0781627E-04
   50.88000     -6.1558699E-04
   50.94000     -6.2304072E-04
   51.00000     -6.3019851E-04
   51.06000     -6.3708372E-04
   51.12000     -6.4372172E-04
   51.18000     -6.5013947E-04
   51.24000     -6.5636542E-04
   51.30000     -6.6242873E-04
   51.36000     -6.6835905E-04
   51.42000     -6.7418610E-04
   51.48000     -6.7993888E-04
   51.54000     -6.8564562E-04
   51.60000     -6.9133326E-04
   51.66000     -6.9702737E-04
   51.72000     -7.0275145E-04
   51.78000     -7.0852699E-04
   51.84000     -7.1437249E-04
   51.90000     -7.2030385E-04
   51.96000     -7.2633330E-04
   52.02000     -7.3246984E-04
   52.08000     -7.3871878E-04
   52.14000     -7.4508181E-04
   52.20000     -7.5155718E-04
   52.26000     -7.5813936E-04
   52.32000     -7.6481939E-04
   52.38000     -7.7158475E-04
   52.44000     -7.7841949E-04
   52.50000     -7.8530464E-04
   52.56000     -7.9221831E-04
   52.62000     -7.9913600E-04
   52.68000     -8.0603111E-04
   52.74000     -8.1287511E-04
   52.80000     -8.1963814E-04
   52.86000     -8.2628947E-04
   52.92000     -8.3279761E-04
   52.98000     -8.3913078E-04
   53.04000     -8.4525772E-04
   53.10000     -8.5114758E-04
   53.16000     -8.5677078E-04
   53.22000     -8.6209923E-04
   53.28000     -8.6710701E-04
   53.34000     -8.7177043E-04
   53.40000     -8.7606849E-04
   53.46000     -8.7998301E-04
   53.52000     -8.8349875E-04
   53.58000     -8.8660384E-04
   53.64000     -8.8928972E-04
   53.70000     -8.9155126E-04
   53.76000     -8.9338701E-04
   53.82000     -8.9479901E-04
   53.88000     -8.9579291E-04
   53.94000     -8.9637726E-04
   54.00000     -8.9656381E-04
   54.06000     -8.9636690E-04
   54.12000     -8.9580321E-04
   54.18000     -8.9489168E-04
   54.24000     -8.9365308E-04
   54.30000     -8.9210965E-04
   54.36000     -8.9028460E-04
   54.42000     -8.8820176E-04
   54.48000     -8.8588515E-04
   54.54000     -8.8335859E-04
   54.60000     -8.8064536E-04
   54.66000     -8.7776745E-04
   54.72000     -8.7474578E-04
   54.78000     -8.7159924E-04
   54.84000     -8.6834485E-04
   54.90000     -8.6499710E-04
   54.96000     -8.6156791E-04
   55.02000     -8.5806631E-04
   55.08000     -8.5449836E-04
   55.14000     -8.5086719E-04
   55.20000     -8.4717292E-04
   55.26000     -8.4341253E-04
   55.32000     -8.3958008E-04
   55.38000     -8.3566702E-04
   55.44000     -8.3166186E-04
   55.50000     -8.2755100E-04
   55.56000     -8.2331849E-04