  -2.400000      0.0000000E+00
  -2.340000      0.0000000E+00
  -2.280000      0.0000000E+00
  -2.220000      0.0000000E+00
  -2.160000      0.0000000E+00
  -2.100000     -9.3168206E-19
  -2.040000     -6.8880401E-18
  -1.980000     -2.5077036E-17
  -1.920000     -5.7131955E-17
  -1.860000     -8.2087306E-17
  -1.800000     -4.7601776E-17
  -1.740000      1.0495543E-16
  -1.680000      3.7756745E-16
  -1.620000      6.6345936E-16
  -1.560000      7.9289537E-16
  -1.500000      7.1787641E-16
  -1.440000      7.2262705E-16
  -1.380000      1.3801278E-15
  -1.320000      2.9954069E-15
  -1.260000      4.6377824E-15
  -1.200000      3.4622258E-15
  -1.140000     -4.5946688E-15
  -1.080000     -2.2063191E-14
  -1.020000     -4.5860925E-14
 -0.9600000     -6.4425624E-14
 -0.9000000     -5.9455275E-14
 -0.8400000     -1.4189479E-14
 -0.7800000      7.3772924E-14
 -0.7200000      1.8175352E-13
 -0.6600000      2.6207872E-13
 -0.6000000      2.5839785E-13
 -0.5400000      1.3503306E-13
 -0.4800000     -9.3905779E-14
 -0.4200000     -3.5396179E-13
 -0.3600000     -5.3145536E-13
 -0.3000000     -5.2400337E-13
 -0.2400000     -2.9936860E-13
 -0.1800000      6.9554612E-14
 -0.1200000      4.2028165E-13
 -5.9999999E-02  5.7054388E-13
  0.0000000E+00  4.1557919E-13
  5.9999999E-02  4.3967507E-15
  0.1200000     -4.5215763E-13
  0.1800000     -6.6091506E-13
  0.2400000     -3.8955360E-13
  0.3000000      3.8835786E-13
  0.3600000      1.4201307E-12
  0.4200000      2.2230692E-12
  0.4800000      2.2559329E-12
  0.5400000      1.1564856E-12
  0.6000000     -1.0477372E-12
  0.6600000     -3.8477164E-12
  0.7200000     -6.3332551E-12
  0.7800000     -7.4351489E-12
  0.8400000     -6.2572447E-12
  0.9000000     -2.3907892E-12
  0.9600000      3.8914067E-12
   1.020000      1.1619175E-11
   1.080000      1.9280477E-11
   1.140000      2.5082859E-11
   1.200000      2.7231630E-11
   1.260000      2.4159010E-11
   1.320000      1.4700451E-11
   1.380000     -1.7174515E-12
   1.440000     -2.4781829E-11
   1.500000     -5.2836187E-11
   1.560000     -8.2323239E-11
   1.620000     -1.0734930E-10
   1.680000     -1.1972262E-10
   1.740000     -1.0984318E-10
   1.800000     -6.8689492E-11
   1.860000      9.1380323E-12
   1.920000      1.2173100E-10
   1.980000      2.5630187E-10
   2.040000      3.8667836E-10
   2.100000      4.7276810E-10
   2.160000      4.6259613E-10
   2.220000      2.9701985E-10
   2.280000     -8.3341251E-11
   2.340000     -7.2992579E-10
   2.400000     -1.6780728E-09
   2.460000     -2.9402092E-09
   2.520000     -4.5015160E-09
   2.580000     -6.3188166E-09
   2.640000     -8.3229565E-09
   2.700000     -1.0424466E-08
   2.760000     -1.2521874E-08
   2.820000     -1.4511730E-08
   2.880000     -1.6299158E-08
   2.940000     -1.7807668E-08
   3.000000     -1.8987000E-08
   3.060000     -1.9817868E-08
   3.120000     -2.0312905E-08
   3.180000     -2.0513625E-08
   3.240000     -2.0483888E-08
   3.300000     -2.0300989E-08
   3.360000     -2.0045992E-08
   3.420000     -1.9795040E-08
   3.480000     -1.9613058E-08
   3.540000     -1.9550479E-08
   3.600000     -1.9642799E-08
   3.660000     -1.9911898E-08
   3.720000     -2.0367670E-08
   3.780000     -2.1008798E-08
   3.840000     -2.1822101E-08
   3.900000     -2.2780991E-08
   3.960000     -2.3844329E-08
   4.020000     -2.4957286E-08
   4.080000     -2.6055430E-08
   4.140000     -2.7072245E-08
   4.200000     -2.7949023E-08
   4.260000     -2.8645021E-08
   4.320000     -2.9145374E-08
   4.380000     -2.9464537E-08
   4.440000     -2.9644099E-08
   4.500000     -2.9745133E-08
   4.560000     -2.9836549E-08
   4.620000     -2.9981852E-08
   4.680000     -3.0226921E-08
   4.740000     -3.0591174E-08
   4.800000     -3.1063628E-08
   4.860000     -3.1604532E-08
   4.920000     -3.2152030E-08
   4.980000     -3.2632592E-08
   5.040000     -3.2973354E-08
   5.100000     -3.3114198E-08
   5.160000     -3.3017496E-08
   5.220000     -3.2673988E-08
   5.280000     -3.2103756E-08
   5.340000     -3.1352293E-08
   5.400000     -3.0482468E-08
   5.460000     -2.9563893E-08
   5.520000     -2.8661580E-08
   5.580000     -2.7825861E-08
   5.640000     -2.7085150E-08
   5.700000     -2.6442622E-08
   5.760000     -2.5877199E-08
   5.820000     -2.5348616E-08
   5.880000     -2.4805805E-08
   5.940000     -2.4197316E-08
   6.000000     -2.3481975E-08
   6.060000     -2.2637762E-08
   6.120000     -2.1666800E-08
   6.180000     -2.0594927E-08
   6.240000     -1.9465514E-08
   6.300000     -1.8328715E-08
   6.360000     -1.7228881E-08
   6.420000     -1.6193729E-08
   6.480000     -1.5228382E-08
   6.540000     -1.4316054E-08
   6.600000     -1.3424815E-08
   6.660000     -1.2517861E-08
   6.720000     -1.1563692E-08
   6.780000     -1.0542879E-08
   6.840000     -9.4496855E-09
   6.900000     -8.2887848E-09
   6.960000     -7.0690174E-09
   7.020000     -5.7967799E-09
   7.080000     -4.4712882E-09
   7.140000     -3.0828826E-09
   7.200000     -1.6143622E-09
   7.260000     -4.4528638E-11
   7.320000      1.6471629E-09
   7.380000      3.4758447E-09
   7.440000      5.4471259E-09
   7.500000      7.5542088E-09
   7.560000      9.7767305E-09
   7.620000      1.2081713E-08
   7.680000      1.4426785E-08
   7.740000      1.6765410E-08
   7.800000      1.9053388E-08
   7.860000      2.1255399E-08
   7.920000      2.3350237E-08
   7.980000      2.5333323E-08
   8.040000      2.7215705E-08
   8.100000      2.9019391E-08
   8.160000      3.0769865E-08
   8.220000      3.2487481E-08
   8.280000      3.4179909E-08
   8.340000      3.5837715E-08
   8.400000      3.7434511E-08
   8.460000      3.8931692E-08
   8.520000      4.0286775E-08
   8.580000      4.1463093E-08
   8.640000      4.2438366E-08
   8.700000      4.3210093E-08
   8.760000      4.3796387E-08
   8.820000      4.4232301E-08
   8.880000      4.4562626E-08
   8.940000      4.4833097E-08
   9.000000      4.5082089E-08
   9.060000      4.5334829E-08
   9.120000      4.5601144E-08
   9.180000      4.5876895E-08
   9.240000      4.6148156E-08
   9.300000      4.6396590E-08
   9.360000      4.6604541E-08
   9.420000      4.6758736E-08
   9.480000      4.6852293E-08
   9.540000      4.6885205E-08
   9.600000      4.6863729E-08
   9.660000      4.6798863E-08
   9.720000      4.6704081E-08
   9.780000      4.6592429E-08
   9.840000      4.6473595E-08
   9.900000      4.6351591E-08
   9.960000      4.6224105E-08
   10.02000      4.6083787E-08
   10.08000      4.5921251E-08
   10.14000      4.5728619E-08
   10.20000      4.5502414E-08
   10.26000      4.5244764E-08
   10.32000      4.4962764E-08
   10.38000      4.4666542E-08
   10.44000      4.4366768E-08
   10.50000      4.4072294E-08
   10.56000      4.3788230E-08
   10.62000      4.3514511E-08
   10.68000      4.3245116E-08
   10.74000      4.2968317E-08
   10.80000      4.2668336E-08
   10.86000      4.2328459E-08
   10.92000      4.1934882E-08
   10.98000      4.1480071E-08
   11.04000      4.0964292E-08
   11.10000      4.0394667E-08
   11.16000      3.9782186E-08
   11.22000      3.9137984E-08
   11.28000      3.8470400E-08
   11.34000      3.7783732E-08
   11.40000      3.7078497E-08
   11.46000      3.6352247E-08
   11.52000      3.5599925E-08
   11.58000      3.4813439E-08
   11.64000      3.3981326E-08
   11.70000      3.3089599E-08
   11.76000      3.2124859E-08
   11.82000      3.1079210E-08
   11.88000      2.9955281E-08
   11.94000      2.8768859E-08
   12.00000      2.7547184E-08
   12.06000      2.6322565E-08
   12.12000      2.5123063E-08
   12.18000      2.3963501E-08
   12.24000      2.2840213E-08
   12.30000      2.1731683E-08
   12.36000      2.0605050E-08
   12.42000      1.9426293E-08
   12.48000      1.8170519E-08
   12.54000      1.6828924E-08
   12.60000      1.5410166E-08
   12.66000      1.3936070E-08
   12.72000      1.2433437E-08
   12.78000      1.0925066E-08
   12.84000      9.4232036E-09
   12.90000      7.9275537E-09
   12.96000      6.4282615E-09
   13.02000      4.9123088E-09
   13.08000      3.3705587E-09
   13.14000      1.8024542E-09
   13.20000      2.1641973E-10
   13.26000     -1.3741962E-09
   13.32000     -2.9579528E-09
   13.38000     -4.5320889E-09
   13.44000     -6.1064105E-09
   13.50000     -7.7025772E-09
   13.56000     -9.3488151E-09
   13.62000     -1.1071724E-08
   13.68000     -1.2887820E-08
   13.74000     -1.4797468E-08
   13.80000     -1.6783027E-08
   13.86000     -1.8811695E-08
   13.92000     -2.0842291E-08
   13.98000     -2.2834087E-08
   14.04000     -2.4755501E-08
   14.10000     -2.6590479E-08
   14.16000     -2.8341050E-08
   14.22000     -3.0025390E-08
   14.28000     -3.1671771E-08
   14.34000     -3.3309693E-08
   14.40000     -3.4960276E-08
   14.46000     -3.6628361E-08
   14.52000     -3.8298605E-08
   14.58000     -3.9937124E-08
   14.64000     -4.1498730E-08
   14.70000     -4.2938062E-08
   14.76000     -4.4221338E-08
   14.82000     -4.5334893E-08
   14.88000     -4.6287486E-08
   14.94000     -4.7105477E-08
   15.00000     -4.7822748E-08
   15.06000     -4.8469271E-08
   15.12000     -4.9062550E-08
   15.18000     -4.9604736E-08
   15.24000     -5.0085536E-08
   15.30000     -5.0488481E-08
   15.36000     -5.0797322E-08
   15.42000     -5.0999837E-08
   15.48000     -5.1088634E-08
   15.54000     -5.1060120E-08
   15.60000     -5.0913606E-08
   15.66000     -5.0651824E-08
   15.72000     -5.0282342E-08
   15.78000     -4.9818610E-08
   15.84000     -4.9279134E-08
   15.90000     -4.8684679E-08
   15.96000     -4.8054751E-08
   16.02000     -4.7405191E-08
   16.08000     -4.6747964E-08
   16.14000     -4.6092769E-08
   16.20000     -4.5448488E-08
   16.26000     -4.4822666E-08
   16.32000     -4.4218272E-08
   16.38000     -4.3629438E-08
   16.44000     -4.3039115E-08
   16.50000     -4.2421561E-08
   16.56000     -4.1750344E-08
   16.62000     -4.1009443E-08
   16.68000     -4.0202764E-08
   16.74000     -3.9356973E-08
   16.80000     -3.8515250E-08
   16.86000     -3.7723453E-08
   16.92000     -3.7014036E-08
   16.98000     -3.6394468E-08
   17.04000     -3.5845105E-08
   17.10000     -3.5327343E-08
   17.16000     -3.4798131E-08
   17.22000     -3.4224289E-08
   17.28000     -3.3590712E-08
   17.34000     -3.2899990E-08
   17.40000     -3.2165445E-08
   17.46000     -3.1402312E-08
   17.52000     -3.0621809E-08
   17.58000     -2.9830019E-08
   17.64000     -2.9029991E-08
   17.70000     -2.8223655E-08
   17.76000     -2.7410875E-08
   17.82000     -2.6585941E-08
   17.88000     -2.5734563E-08
   17.94000     -2.4835197E-08
   18.00000     -2.3866233E-08
   18.06000     -2.2816714E-08
   18.12000     -2.1695167E-08
   18.18000     -2.0531042E-08
   18.24000     -1.9366537E-08
   18.30000     -1.8241643E-08
   18.36000     -1.7179067E-08
   18.42000     -1.6176159E-08
   18.48000     -1.5207535E-08
   18.54000     -1.4236848E-08
   18.60000     -1.3231736E-08
   18.66000     -1.2174924E-08
   18.72000     -1.1067113E-08
   18.78000     -9.9218482E-09
   18.84000     -8.7566487E-09
   18.90000     -7.5858226E-09
   18.96000     -6.4185004E-09
   19.02000     -5.2616844E-09
   19.08000     -4.1249586E-09
   19.14000     -3.0226905E-09
   19.20000     -1.9713944E-09
   19.26000     -9.8319974E-10
   19.32000     -5.9053859E-11
   19.38000      8.1421675E-10
   19.44000      1.6607745E-09
   19.50000      2.5075833E-09
   19.56000      3.3748353E-09
   19.62000      4.2692974E-09
   19.68000      5.1831961E-09
   19.74000      6.0983276E-09
   19.80000      6.9925741E-09
   19.86000      7.8453510E-09
   19.92000      8.6399004E-09
   19.98000      9.3628172E-09
   20.04000      1.0003078E-08
   20.10000      1.0552954E-08
   20.16000      1.1011444E-08
   20.22000      1.1388456E-08
   20.28000      1.1706494E-08
   20.34000      1.1997262E-08
   20.40000      1.2293143E-08
   20.46000      1.2616504E-08
   20.52000      1.2971537E-08
   20.58000      1.3342563E-08
   20.64000      1.3699840E-08
   20.70000      1.4010408E-08
   20.76000      1.4249224E-08
   20.82000      1.4406070E-08
   20.88000      1.4486057E-08
   20.94000      1.4504721E-08
   21.00000      1.4480948E-08
   21.06000      1.4431212E-08
   21.12000      1.4367151E-08
   21.18000      1.4296331E-08
   21.24000      1.4224532E-08
   21.30000      1.4157679E-08
   21.36000      1.4102435E-08
   21.42000      1.4065582E-08
   21.48000      1.4053027E-08
   21.54000      1.4069065E-08
   21.60000      1.4116003E-08
   21.66000      1.4193840E-08
   21.72000      1.4299768E-08
   21.78000      1.4427798E-08
   21.84000      1.4569146E-08
   21.90000      1.4713971E-08
   21.96000      1.4854268E-08
   22.02000      1.4986870E-08
   22.08000      1.5115068E-08
   22.14000      1.5247599E-08
   22.20000      1.5394887E-08
   22.26000      1.5563549E-08
   22.32000      1.5751155E-08
   22.38000      1.5943209E-08
   22.44000      1.6113612E-08
   22.50000      1.6228793E-08
   22.56000      1.6254523E-08
   22.62000      1.6163705E-08
   22.68000      1.5943133E-08
   22.74000      1.5597450E-08
   22.80000      1.5149068E-08
   22.86000      1.4633793E-08
   22.92000      1.4092996E-08
   22.98000      1.3564297E-08
   23.04000      1.3073361E-08
   23.10000      1.2629274E-08
   23.16000      1.2224898E-08
   23.22000      1.1841990E-08
   23.28000      1.1459222E-08
   23.34000      1.1060308E-08
   23.40000      1.0639647E-08
   23.46000      1.0203949E-08
   23.52000      9.7698871E-09
   23.58000      9.3590886E-09
   23.64000      8.9922940E-09
   23.70000      8.6843315E-09
   23.76000      8.4408720E-09
   23.82000      8.2573344E-09
   23.88000      8.1198719E-09
   23.94000      8.0082367E-09
   24.00000      7.9000904E-09
   24.06000      7.7759745E-09
   24.12000      7.6237674E-09
   24.18000      7.4411965E-09
   24.24000      7.2353732E-09
   24.30000      7.0192301E-09
   24.36000      6.8059767E-09
   24.42000      6.6036394E-09
   24.48000      6.4118857E-09
   24.54000      6.2225154E-09
   24.60000      6.0234888E-09
   24.66000      5.8048188E-09
   24.72000      5.5637921E-09
   24.78000      5.3071663E-09
   24.84000      5.0491629E-09
   24.90000      4.8057611E-09
   24.96000      4.5872395E-09
   25.02000      4.3915964E-09
   25.08000      4.2011088E-09
   25.14000      3.9831152E-09
   25.20000      3.6946197E-09
   25.26000      3.2891498E-09
   25.32000      2.7238278E-09
   25.38000      1.9649475E-09
   25.44000      9.9114650E-10
   25.50000     -2.0589544E-10
   25.56000     -1.6228128E-09
   25.62000     -3.2474685E-09
   25.68000     -5.0630611E-09
   25.74000     -7.0530541E-09
   25.80000     -9.2062038E-09
   25.86000     -1.1520426E-08
   25.92000     -1.4003910E-08
   25.98000     -1.6672180E-08
   26.04000     -1.9541000E-08
   26.10000     -2.2616549E-08
   26.16000     -2.5885731E-08
   26.22000     -2.9309874E-08
   26.28000     -3.2824293E-08
   26.34000     -3.6344286E-08
   26.40000     -3.9776150E-08
   26.46000     -4.3030326E-08
   26.52000     -4.6033353E-08
   26.58000     -4.8736279E-08
   26.64000     -5.1118150E-08
   26.70000     -5.3184888E-08
   26.76000     -5.4964371E-08
   26.82000     -5.6499314E-08
   26.88000     -5.7839486E-08
   26.94000     -5.9035088E-08
   27.00000     -6.0132656E-08
   27.06000     -6.1174482E-08
   27.12000     -6.2201131E-08
   27.18000     -6.3255335E-08
   27.24000     -6.4384572E-08
   27.30000     -6.5639540E-08
   27.36000     -6.7067219E-08
   27.42000     -6.8699634E-08
   27.48000     -7.0541418E-08
   27.54000     -7.2560788E-08
   27.60000     -7.4687954E-08
   27.66000     -7.6822751E-08
   27.72000     -7.8850640E-08
   27.78000     -8.0663426E-08
   27.84000     -8.2179575E-08
   27.90000     -8.3358806E-08
   27.96000     -8.4207308E-08
   28.02000     -8.4771457E-08
   28.08000     -8.5121435E-08
   28.14000     -8.5328210E-08
   28.20000     -8.5439758E-08
   28.26000     -8.5463078E-08
   28.32000     -8.5357307E-08
   28.38000     -8.5040618E-08
   28.44000     -8.4409194E-08
   28.50000     -8.3363162E-08
   28.56000     -8.1832020E-08
   28.62000     -7.9792457E-08
   28.68000     -7.7274208E-08
   28.74000     -7.4353423E-08
   28.80000     -7.1136661E-08
   28.86000     -6.7740892E-08
   28.92000     -6.4274822E-08
   28.98000     -6.0825563E-08
   29.04000     -5.7452432E-08
   29.10000     -5.4187392E-08
   29.16000     -5.1040672E-08
   29.22000     -4.8009081E-08
   29.28000     -4.5085006E-08
   29.34000     -4.2264070E-08
   29.40000     -3.9550198E-08
   29.46000     -3.6957157E-08
   29.52000     -3.4506630E-08
   29.58000     -3.2223557E-08
   29.64000     -3.0130554E-08
   29.70000     -2.8243489E-08
   29.76000     -2.6570211E-08
   29.82000     -2.5113080E-08
   29.88000     -2.3874421E-08
   29.94000     -2.2862356E-08
   30.00000     -2.2093927E-08
   30.06000     -2.1593324E-08
   30.12000     -2.1385171E-08
   30.18000     -2.1485148E-08
   30.24000     -2.1891713E-08
   30.30000     -2.2582322E-08
   30.36000     -2.3515556E-08
   30.42000     -2.4638043E-08
   30.48000     -2.5893158E-08
   30.54000     -2.7228454E-08
   30.60000     -2.8600038E-08
   30.66000     -2.9974167E-08
   30.72000     -3.1327453E-08
   30.78000     -3.2646916E-08
   30.84000     -3.3930121E-08
   30.90000     -3.5184222E-08
   30.96000     -3.6422808E-08
   31.02000     -3.7660350E-08
   31.08000     -3.8905696E-08
   31.14000     -4.0157087E-08
   31.20000     -4.1400867E-08
   31.26000     -4.2614619E-08
   31.32000     -4.3773220E-08
   31.38000     -4.4855273E-08
   31.44000     -4.5847102E-08
   31.50000     -4.6742887E-08
   31.56000     -4.7541281E-08
   31.62000     -4.8240231E-08
   31.68000     -4.8832206E-08
   31.74000     -4.9301565E-08
   31.80000     -4.9624813E-08
   31.86000     -4.9773423E-08
   31.92000     -4.9718455E-08
   31.98000     -4.9436046E-08
   32.04000     -4.8913126E-08
   32.10000     -4.8152803E-08
   32.16000     -4.7178659E-08
   32.22000     -4.6036796E-08
   32.28000     -4.4793879E-08
   32.34000     -4.3529937E-08
   32.40000     -4.2325734E-08
   32.46000     -4.1246938E-08
   32.52000     -4.0329141E-08
   32.58000     -3.9568885E-08
   32.64000     -3.8924384E-08
   32.70000     -3.8326501E-08
   32.76000     -3.7696580E-08
   32.82000     -3.6965098E-08
   32.88000     -3.6085289E-08
   32.94000     -3.5038436E-08
   33.00000     -3.3831572E-08
   33.06000     -3.2491172E-08
   33.12000     -3.1056882E-08
   33.18000     -2.9577301E-08
   33.24000     -2.8107172E-08
   33.30000     -2.6703558E-08
   33.36000     -2.5419418E-08
   33.42000     -2.4295115E-08
   33.48000     -2.3350808E-08
   33.54000     -2.2582983E-08
   33.60000     -2.1966793E-08
   33.66000     -2.1462922E-08
   33.72000     -2.1025711E-08
   33.78000     -2.0609315E-08
   33.84000     -2.0170763E-08
   33.90000     -1.9671322E-08
   33.96000     -1.9078790E-08
   34.02000     -1.8372406E-08
   34.08000     -1.7549587E-08
   34.14000     -1.6631224E-08
   34.20000     -1.5661863E-08
   34.26000     -1.4702665E-08
   34.32000     -1.3818329E-08
   34.38000     -1.3061868E-08
   34.44000     -1.2462304E-08
   34.50000     -1.2019102E-08
   34.56000     -1.1704613E-08
   34.62000     -1.1472975E-08
   34.68000     -1.1272197E-08
   34.74000     -1.1055821E-08
   34.80000     -1.0791540E-08
   34.86000     -1.0465538E-08
   34.92000     -1.0082633E-08
   34.98000     -9.6631139E-09
   35.04000     -9.2373922E-09
   35.10000     -8.8395868E-09
   35.16000     -8.5010505E-09
   35.22000     -8.2447924E-09
   35.28000     -8.0817726E-09
   35.34000     -8.0099314E-09
   35.40000     -8.0163387E-09
   35.46000     -8.0820275E-09
   35.52000     -8.1881240E-09
   35.58000     -8.3212806E-09
   35.64000     -8.4766514E-09
   35.70000     -8.6577128E-09
   35.76000     -8.8737506E-09
   35.82000     -9.1368824E-09
   35.88000     -9.4604067E-09
   35.94000     -9.8590336E-09
   36.00000     -1.0349885E-08
   36.06000     -1.0952225E-08
   36.12000     -1.1684347E-08
   36.18000     -1.2557854E-08
   36.24000     -1.3571509E-08
   36.30000     -1.4707688E-08
   36.36000     -1.5933553E-08
   36.42000     -1.7206931E-08
   36.48000     -1.8484691E-08
   36.54000     -1.9730704E-08
   36.60000     -2.0921201E-08
   36.66000     -2.2047129E-08
   36.72000     -2.3114337E-08
   36.78000     -2.4142494E-08
   36.84000     -2.5162784E-08
   36.90000     -2.6213483E-08
   36.96000     -2.7332874E-08
   37.02000     -2.8550364E-08
   37.08000     -2.9878450E-08
   37.14000     -3.1308666E-08
   37.20000     -3.2813450E-08
   37.26000     -3.4353082E-08
   37.32000     -3.5884625E-08
   37.38000     -3.7369119E-08
   37.44000     -3.8774967E-08
   37.50000     -4.0078078E-08
   37.56000     -4.1261266E-08
   37.62000     -4.2315246E-08
   37.68000     -4.3241513E-08
   37.74000     -4.4054769E-08
   37.80000     -4.4781622E-08
   37.86000     -4.5453618E-08
   37.92000     -4.6095785E-08
   37.98000     -4.6714895E-08
   38.04000     -4.7292598E-08
   38.10000     -4.7786973E-08
   38.16000     -4.8142379E-08
   38.22000     -4.8304212E-08
   38.28000     -4.8233247E-08
   38.34000     -4.7915091E-08
   38.40000     -4.7362548E-08
   38.46000     -4.6611262E-08
   38.52000     -4.5710909E-08
   38.58000     -4.4714614E-08
   38.64000     -4.3668873E-08
   38.70000     -4.2605585E-08
   38.76000     -4.1537380E-08
   38.82000     -4.0457238E-08
   38.88000     -3.9342801E-08
   38.94000     -3.8165080E-08
   39.00000     -3.6899682E-08
   39.06000     -3.5537525E-08
   39.12000     -3.4091478E-08
   39.18000     -3.2596013E-08
   39.24000     -3.1099209E-08
   39.30000     -2.9649131E-08
   39.36000     -2.8279080E-08
   39.42000     -2.6997109E-08
   39.48000     -2.5783901E-08
   39.54000     -2.4600087E-08
   39.60000     -2.3400204E-08
   39.66000     -2.2147992E-08
   39.72000     -2.0827313E-08
   39.78000     -1.9445261E-08
   39.84000     -1.8027615E-08
   39.90000     -1.6609862E-08
   39.96000     -1.5228128E-08
   40.02000     -1.3913065E-08
   40.08000     -1.2687317E-08
   40.14000     -1.1565152E-08
   40.20000     -1.0552632E-08
   40.26000     -9.6478745E-09
   40.32000     -8.8425427E-09
   40.38000     -8.1259106E-09
   40.44000     -7.4913586E-09
   40.50000     -6.9427593E-09
   40.56000     -6.4968582E-09
   40.62000     -6.1788010E-09
   40.68000     -6.0112710E-09
   40.74000     -6.0015837E-09
   40.80000     -6.1330545E-09
   40.86000     -6.3656156E-09
   40.92000     -6.6464287E-09
   40.98000     -6.9263408E-09
   41.04000     -7.1751463E-09
   41.10000     -7.3892807E-09
   41.16000     -7.5893096E-09
   41.22000     -7.8092928E-09
   41.28000     -8.0833731E-09
   41.34000     -8.4352649E-09
   41.40000     -8.8741023E-09
   41.46000     -9.3967509E-09
   41.52000     -9.9941113E-09
   41.58000     -1.0658017E-08
   41.64000     -1.1386040E-08
   41.70000     -1.2182898E-08
   41.76000     -1.3058377E-08
   41.82000     -1.4022378E-08
   41.88000     -1.5078149E-08
   41.94000     -1.6215163E-08
   42.00000     -1.7403863E-08
   42.06000     -1.8594847E-08
   42.12000     -1.9724643E-08
   42.18000     -2.0728542E-08
   42.24000     -2.1558101E-08
   42.30000     -2.2198304E-08
   42.36000     -2.2677879E-08
   42.42000     -2.3067418E-08
   42.48000     -2.3463540E-08
   42.54000     -2.3962507E-08
   42.60000     -2.4631355E-08
   42.66000     -2.5486592E-08
   42.72000     -2.6488621E-08
   42.78000     -2.7554686E-08
   42.84000     -2.8586200E-08
   42.90000     -2.9500660E-08
   42.96000     -3.0256594E-08
   43.02000     -3.0862697E-08
   43.08000     -3.1368671E-08
   43.14000     -3.1842220E-08
   43.20000     -3.2341649E-08
   43.26000     -3.2894370E-08
   43.32000     -3.3488430E-08
   43.38000     -3.4078834E-08
   43.44000     -3.4604941E-08
   43.50000     -3.5011976E-08
   43.56000     -3.5269149E-08
   43.62000     -3.5379042E-08
   43.68000     -3.5376043E-08
   43.74000     -3.5315267E-08
   43.80000     -3.5255759E-08
   43.86000     -3.5243264E-08
   43.92000     -3.5297681E-08
   43.98000     -3.5409016E-08
   44.04000     -3.5543017E-08
   44.10000     -3.5654669E-08
   44.16000     -3.5705021E-08
   44.22000     -3.5675374E-08
   44.28000     -3.5573485E-08
   44.34000     -3.5429228E-08
   44.40000     -3.5280941E-08
   44.46000     -3.5157711E-08
   44.52000     -3.5064478E-08
   44.58000     -3.4976431E-08
   44.64000     -3.4845627E-08
   44.70000     -3.4617937E-08
   44.76000     -3.4254143E-08
   44.82000     -3.3746854E-08
   44.88000     -3.3126227E-08
   44.94000     -3.2451645E-08
   45.00000     -3.1792084E-08
   45.06000     -3.1202536E-08
   45.12000     -3.0705245E-08
   45.18000     -3.0282884E-08
   45.24000     -2.9885822E-08
   45.30000     -2.9450527E-08
   45.36000     -2.8922232E-08
   45.42000     -2.8274089E-08
   45.48000     -2.7516995E-08
   45.54000     -2.6697643E-08
   45.60000     -2.5886067E-08
   45.66000     -2.5156481E-08
   45.72000     -2.4566388E-08
   45.78000     -2.4139158E-08
   45.84000     -2.3854499E-08
   45.90000     -2.3649941E-08
   45.96000     -2.3434016E-08
   46.02000     -2.3108772E-08
   46.08000     -2.2595877E-08
   46.14000     -2.1858561E-08
   46.20000     -2.0912045E-08
   46.26000     -1.9818252E-08
   46.32000     -1.8665908E-08
   46.38000     -1.7542353E-08
   46.44000     -1.6506462E-08
   46.50000     -1.5571796E-08
   46.56000     -1.4705380E-08
   46.62000     -1.3841983E-08
   46.68000     -1.2908541E-08
   46.74000     -1.1850203E-08
   46.80000     -1.0649373E-08
   46.86000     -9.3318349E-09
   46.92000     -7.9584526E-09
   46.98000     -6.6055845E-09
   47.04000     -5.3408415E-09
   47.10000     -4.2021253E-09
   47.16000     -3.1867236E-09
   47.22000     -2.2539393E-09
   47.28000     -1.3403665E-09
   47.34000     -3.8279563E-10
   47.40000      6.5879985E-10
   47.46000      1.7858917E-09
   47.52000      2.9589582E-09
   47.58000      4.1090846E-09
   47.64000      5.1599383E-09
   47.70000      6.0526517E-09
   47.76000      6.7647314E-09
   47.82000      7.3158244E-09
   47.88000      7.7577083E-09
   47.94000      8.1518818E-09
   48.00000      8.5431768E-09
   48.06000      8.9397991E-09
   48.12000      9.3079162E-09
   48.18000      9.5831121E-09
   48.24000      9.6940846E-09
   48.30000      9.5890718E-09
   48.36000      9.2545971E-09
   48.42000      8.7196117E-09
   48.48000      8.0439531E-09
   48.54000      7.2956459E-09
   48.60000      6.5247643E-09
   48.66000      5.7418204E-09
   48.72000      4.9066942E-09
   48.78000      3.9311883E-09
   48.84000      2.6951064E-09
   48.90000      1.0723885E-09
   48.96000     -1.0394752E-09
   49.02000     -3.6958945E-09
   49.08000     -6.8964860E-09
   49.14000     -1.0596402E-08
   49.20000     -1.4735912E-08
   49.26000     -1.9279105E-08
   49.32000     -2.4248369E-08
   49.38000     -2.9742745E-08
   49.44000     -3.5935003E-08
   49.50000     -4.3051084E-08
   49.56000     -5.1342138E-08
   49.62000     -6.1060959E-08
   49.68000     -7.2451172E-08
   49.74000     -8.5751715E-08
   49.80000     -1.0121399E-07
   49.86000     -1.1912690E-07
   49.92000     -1.3984427E-07
   49.98000     -1.6381041E-07
   50.04000     -1.9157977E-07
   50.10000     -2.2382771E-07
   50.16000     -2.6135075E-07
   50.22000     -3.0505780E-07
   50.28000     -3.5595815E-07
   50.34000     -4.1515284E-07
   50.40000     -4.8383743E-07
   50.46000     -5.6331999E-07
   50.52000     -6.5505355E-07
   50.58000     -7.6067897E-07
   50.64000     -8.8207116E-07
   50.70000     -1.0213796E-06
   50.76000     -1.1810570E-06
   50.82000     -1.3638731E-06
   50.88000     -1.5729129E-06
   50.94000     -1.8115683E-06
   51.00000     -2.0835346E-06
   51.06000     -2.3928233E-06
   51.12000     -2.7437968E-06
   51.18000     -3.1412228E-06
   51.24000     -3.5903302E-06
   51.30000     -4.0968621E-06
   51.36000     -4.6671012E-06
   51.42000     -5.3078875E-06
   51.48000     -6.0266166E-06
   51.54000     -6.8312493E-06
   51.60000     -7.7303248E-06
   51.66000     -8.7329863E-06
   51.72000     -9.8490082E-06
   51.78000     -1.1088810E-05
   51.84000     -1.2463465E-05
   51.90000     -1.3984711E-05
   51.96000     -1.5664940E-05
   52.02000     -1.7517204E-05
   52.08000     -1.9555204E-05
   52.14000     -2.1793252E-05
   52.20000     -2.4246230E-05
   52.26000     -2.6929541E-05
   52.32000     -2.9859044E-05
   52.38000     -3.3051034E-05
   52.44000     -3.6522189E-05
   52.50000     -4.0289560E-05
   52.56000     -4.4370514E-05
   52.62000     -4.8782651E-05
   52.68000     -5.3543707E-05
   52.74000     -5.8671430E-05
   52.80000     -6.4183434E-05
   52.86000     -7.0097063E-05
   52.92000     -7.6429271E-05
   52.98000     -8.3196501E-05
   53.04000     -9.0414534E-05
   53.10000     -9.8098382E-05
   53.16000     -1.0626219E-04
   53.22000     -1.1491906E-04
   53.28000     -1.2408099E-04
   53.34000     -1.3375872E-04
   53.40000     -1.4396149E-04
   53.46000     -1.5469700E-04
   53.52000     -1.6597123E-04
   53.58000     -1.7778829E-04
   53.64000     -1.9015033E-04
   53.70000     -2.0305747E-04
   53.76000     -2.1650769E-04
   53.82000     -2.3049676E-04
   53.88000     -2.4501822E-04
   53.94000     -2.6006324E-04
   54.00000     -2.7562078E-04
   54.06000     -2.9167740E-04
   54.12000     -3.0821745E-04
   54.18000     -3.2522308E-04
   54.24000     -3.4267415E-04
   54.30000     -3.6054835E-04
   54.36000     -3.7882128E-04
   54.42000     -3.9746665E-04
   54.48000     -4.1645631E-04
   54.54000     -4.3576065E-04
   54.60000     -4.5534849E-04
   54.66000     -4.7518747E-04
   54.72000     -4.9524423E-04
   54.78000     -5.1548443E-04
   54.84000     -5.3587311E-04
   54.90000     -5.5637496E-04
   54.96000     -5.7695457E-04
   55.02000     -5.9757638E-04
   55.08000     -6.1820541E-04
   55.14000     -6.3880690E-04
   55.20000     -6.5934693E-04
   55.26000     -6.7979255E-04
   55.32000     -7.0011197E-04
   55.38000     -7.2027481E-04
   55.44000     -7.4025203E-04
   55.50000     -7.6001638E-04
   55.56000     -7.7954237E-04