  -2.400000      0.0000000E+00
  -2.340000      0.0000000E+00
  -2.280000      0.0000000E+00
  -2.220000      0.0000000E+00
  -2.160000      0.0000000E+00
  -2.100000     -6.3296644E-21
  -2.040000     -5.0043542E-20
  -1.980000     -1.9965546E-19
  -1.920000     -5.1834611E-19
  -1.860000     -9.1931044E-19
  -1.800000     -9.3843403E-19
  -1.740000      4.7651321E-19
  -1.680000      5.0760199E-18
  -1.620000      1.5392561E-17
  -1.560000      3.4989502E-17
  -1.500000      6.8696351E-17
  -1.440000      1.2140604E-16
  -1.380000      1.9223648E-16
  -1.320000      2.6025294E-16
  -1.260000      2.6130546E-16
  -1.200000      6.5010050E-17
  -1.140000     -5.2505709E-16
  -1.080000     -1.7140823E-15
  -1.020000     -3.5736257E-15
 -0.9600000     -5.8213047E-15
 -0.9000000     -7.5953173E-15
 -0.8400000     -7.3710069E-15
 -0.7800000     -3.2043089E-15
 -0.7200000      6.5671553E-15
 -0.6600000      2.2212690E-14
 -0.6000000      4.1409327E-14
 -0.5400000      5.8543224E-14
 -0.4800000      6.5192494E-14
 -0.4200000      5.2236651E-14
 -0.3600000      1.3430521E-14
 -0.3000000     -5.0551556E-14
 -0.2400000     -1.2930394E-13
 -0.1800000     -2.0295790E-13
 -0.1200000     -2.4663111E-13
 -5.9999999E-02 -2.3854074E-13
  0.0000000E+00 -1.6926865E-13
  5.9999999E-02 -4.8195921E-14
  0.1200000      9.6853230E-14
  0.1800000      2.2865515E-13
  0.2400000      3.1643167E-13
  0.3000000      3.5244819E-13
  0.3600000      3.6079465E-13
  0.4200000      3.9078731E-13
  0.4800000      4.9270072E-13
  0.5400000      6.8189464E-13
  0.6000000      9.0570682E-13
  0.6600000      1.0315830E-12
  0.7200000      8.7140299E-13
  0.7800000      2.4502527E-13
  0.8400000     -9.3124781E-13
  0.9000000     -2.5618511E-12
  0.9600000     -4.3327278E-12
   1.020000     -5.7463101E-12
   1.080000     -6.2386242E-12
   1.140000     -5.3545280E-12
   1.200000     -2.9276069E-12
   1.260000      8.0246622E-13
   1.320000      5.1912120E-12
   1.380000      9.3291304E-12
   1.440000      1.2289151E-11
   1.500000      1.3404301E-11
   1.560000      1.2475721E-11
   1.620000      9.8258780E-12
   1.680000      6.1628775E-12
   1.740000      2.2931097E-12
   1.800000     -1.2155408E-12
   1.860000     -4.2863686E-12
   1.920000     -7.3874908E-12
   1.980000     -1.1337848E-11
   2.040000     -1.6908887E-11
   2.100000     -2.4348674E-11
   2.160000     -3.2997240E-11
   2.220000     -4.1144317E-11
   2.280000     -4.6208454E-11
   2.340000     -4.5216417E-11
   2.400000     -3.5471601E-11
   2.460000     -1.5253056E-11
   2.520000      1.5604015E-11
   2.580000      5.5341391E-11
   2.640000      1.0015228E-10
   2.700000      1.4428048E-10
   2.760000      1.8032789E-10
   2.820000      1.9979558E-10
   2.880000      1.9393276E-10
   2.940000      1.5498031E-10
   3.000000      7.7831894E-11
   3.060000     -3.8010487E-11
   3.120000     -1.8650320E-10
   3.180000     -3.5363618E-10
   3.240000     -5.1706567E-10
   3.300000     -6.4724559E-10
   3.360000     -7.1021178E-10
   3.420000     -6.7176265E-10
   3.480000     -5.0235949E-10
   3.540000     -1.8177723E-10
   3.600000      2.9751662E-10
   3.660000      9.2903829E-10
   3.720000      1.6933253E-09
   3.780000      2.5610452E-09
   3.840000      3.4973542E-09
   3.900000      4.4663819E-09
   3.960000      5.4347411E-09
   4.020000      6.3733374E-09
   4.080000      7.2573108E-09
   4.140000      8.0645854E-09
   4.200000      8.7739629E-09
   4.260000      9.3638404E-09
   4.320000      9.8124433E-09
   4.380000      1.0099905E-08
   4.440000      1.0211858E-08
   4.500000      1.0143570E-08
   4.560000      9.9032826E-09
   4.620000      9.5134611E-09
   4.680000      9.0091063E-09
   4.740000      8.4330907E-09
   4.800000      7.8293159E-09
   4.860000      7.2352409E-09
   4.920000      6.6756320E-09
   4.980000      6.1591532E-09
   5.040000      5.6787499E-09
   5.100000      5.2157501E-09
   5.160000      4.7466302E-09
   5.220000      4.2506851E-09
   5.280000      3.7166861E-09
   5.340000      3.1469558E-09
   5.400000      2.5581213E-09
   5.460000      1.9786990E-09
   5.520000      1.4444610E-09
   5.580000      9.9290420E-10
   5.640000      6.5807887E-10
   5.700000      4.6658910E-10
   5.760000      4.3500165E-10
   5.820000      5.6841531E-10
   5.880000      8.5974011E-10
   5.940000      1.2893686E-09
   6.000000      1.8252769E-09
   6.060000      2.4239968E-09
   6.120000      3.0331178E-09
   6.180000      3.5958692E-09
   6.240000      4.0578603E-09
   6.300000      4.3753530E-09
   6.360000      4.5236992E-09
   6.420000      4.5040673E-09
   6.480000      4.3465311E-09
   6.540000      4.1080632E-09
   6.600000      3.8649470E-09
   6.660000      3.7003878E-09
   6.720000      3.6893650E-09
   6.780000      3.8837165E-09
   6.840000      4.3007526E-09
   6.900000      4.9182800E-09
   6.960000      5.6776854E-09
   7.020000      6.4949774E-09
   7.080000      7.2777646E-09
   7.140000      7.9445019E-09
   7.200000      8.4414991E-09
   7.260000      8.7534175E-09
   7.320000      8.9043457E-09
   7.380000      8.9488523E-09
   7.440000      8.9550181E-09
   7.500000      8.9837213E-09
   7.560000      9.0697405E-09
   7.620000      9.2100132E-09
   7.680000      9.3626777E-09
   7.740000      9.4577199E-09
   7.800000      9.4167598E-09
   7.860000      9.1768513E-09
   7.920000      8.7116634E-09
   7.980000      8.0438287E-09
   8.040000      7.2443211E-09
   8.100000      6.4181340E-09
   8.160000      5.6792682E-09
   8.220000      5.1211306E-09
   8.280000      4.7899738E-09
   8.340000      4.6684994E-09
   8.400000      4.6743009E-09
   8.460000      4.6740496E-09
   8.520000      4.5102508E-09
   8.580000      4.0341654E-09
   8.640000      3.1369201E-09
   8.700000      1.7713959E-09
   8.760000     -4.0048825E-11
   8.820000     -2.2132762E-09
   8.880000     -4.6228683E-09
   8.940000     -7.1297479E-09
   9.000000     -9.6087929E-09
   9.060000     -1.1969744E-08
   9.120000     -1.4166877E-08
   9.180000     -1.6196102E-08
   9.240000     -1.8081664E-08
   9.300000     -1.9857220E-08
   9.360000     -2.1547450E-08
   9.420000     -2.3155817E-08
   9.480000     -2.4662034E-08
   9.540000     -2.6029603E-08
   9.600000     -2.7220667E-08
   9.660000     -2.8212950E-08
   9.720000     -2.9012901E-08
   9.780000     -2.9660164E-08
   9.840000     -3.0221280E-08
   9.900000     -3.0773894E-08
   9.960000     -3.1385891E-08
   10.02000     -3.2095816E-08
   10.08000     -3.2900726E-08
   10.14000     -3.3755846E-08
   10.20000     -3.4586751E-08
   10.26000     -3.5311210E-08
   10.32000     -3.5864481E-08
   10.38000     -3.6220637E-08
   10.44000     -3.6403176E-08
   10.50000     -3.6481097E-08
   10.56000     -3.6550883E-08
   10.62000     -3.6709281E-08
   10.68000     -3.7024755E-08
   10.74000     -3.7516536E-08
   10.80000     -3.8147999E-08
   10.86000     -3.8836905E-08
   10.92000     -3.9479897E-08
   10.98000     -3.9983597E-08
   11.04000     -4.0292534E-08
   11.10000     -4.0404665E-08
   11.16000     -4.0368988E-08
   11.22000     -4.0265558E-08
   11.28000     -4.0173770E-08
   11.34000     -4.0138868E-08
   11.40000     -4.0147476E-08
   11.46000     -4.0120423E-08
   11.52000     -3.9926093E-08
   11.58000     -3.9411312E-08
   11.64000     -3.8441545E-08
   11.70000     -3.6939252E-08
   11.76000     -3.4909561E-08
   11.82000     -3.2445779E-08
   11.88000     -2.9712670E-08
   11.94000     -2.6911506E-08
   12.00000     -2.4235721E-08
   12.06000     -2.1828530E-08
   12.12000     -1.9753346E-08
   12.18000     -1.7984377E-08
   12.24000     -1.6419419E-08
   12.30000     -1.4910931E-08
   12.36000     -1.3306706E-08
   12.42000     -1.1489069E-08
   12.48000     -9.4022425E-09
   12.54000     -7.0611383E-09
   12.60000     -4.5403250E-09
   12.66000     -1.9476196E-09
   12.72000      6.0898342E-10
   12.78000      3.0508229E-09
   12.84000      5.3459654E-09
   12.90000      7.5101614E-09
   12.96000      9.5924753E-09
   13.02000      1.1651524E-08
   13.08000      1.3730924E-08
   13.14000      1.5842275E-08
   13.20000      1.7961003E-08
   13.26000      2.0035799E-08
   13.32000      2.2007704E-08
   13.38000      2.3831953E-08
   13.44000      2.5494995E-08
   13.50000      2.7021118E-08
   13.56000      2.8466847E-08
   13.62000      2.9905227E-08
   13.68000      3.1405392E-08
   13.74000      3.3013883E-08
   13.80000      3.4743262E-08
   13.86000      3.6570839E-08
   13.92000      3.8446988E-08
   13.98000      4.0309629E-08
   14.04000      4.2099884E-08
   14.10000      4.3774175E-08
   14.16000      4.5309786E-08
   14.22000      4.6703288E-08
   14.28000      4.7963745E-08
   14.34000      4.9104024E-08
   14.40000      5.0133512E-08
   14.46000      5.1054762E-08
   14.52000      5.1864642E-08
   14.58000      5.2558903E-08
   14.64000      5.3137921E-08
   14.70000      5.3611100E-08
   14.76000      5.3997969E-08
   14.82000      5.4325266E-08
   14.88000      5.4620592E-08
   14.94000      5.4904394E-08
   15.00000      5.5182614E-08
   15.06000      5.5442250E-08
   15.12000      5.5651487E-08
   15.18000      5.5764787E-08
   15.24000      5.5732070E-08
   15.30000      5.5509890E-08
   15.36000      5.5071915E-08
   15.42000      5.4415903E-08
   15.48000      5.3565341E-08
   15.54000      5.2565145E-08
   15.60000      5.1472359E-08
   15.66000      5.0344138E-08
   15.72000      4.9225960E-08
   15.78000      4.8142969E-08
   15.84000      4.7096492E-08
   15.90000      4.6066564E-08
   15.96000      4.5019689E-08
   16.02000      4.3919883E-08
   16.08000      4.2740108E-08
   16.14000      4.1471086E-08
   16.20000      4.0124952E-08
   16.26000      3.8732537E-08
   16.32000      3.7334583E-08
   16.38000      3.5969094E-08
   16.44000      3.4658342E-08
   16.50000      3.3399637E-08
   16.56000      3.2163300E-08
   16.62000      3.0899631E-08
   16.68000      2.9553807E-08
   16.74000      2.8085173E-08
   16.80000      2.6485363E-08
   16.86000      2.4789248E-08
   16.92000      2.3074374E-08
   16.98000      2.1447503E-08
   17.04000      2.0020813E-08
   17.10000      1.8883744E-08
   17.16000      1.8078291E-08
   17.22000      1.7585098E-08
   17.28000      1.7324991E-08
   17.34000      1.7176312E-08
   17.40000      1.7003853E-08
   17.46000      1.6691786E-08
   17.52000      1.6171741E-08
   17.58000      1.5438397E-08
   17.64000      1.4548542E-08
   17.70000      1.3604127E-08
   17.76000      1.2724305E-08
   17.82000      1.2014428E-08
   17.88000      1.1540603E-08
   17.94000      1.1316585E-08
   18.00000      1.1306038E-08
   18.06000      1.1438646E-08
   18.12000      1.1634564E-08
   18.18000      1.1829383E-08
   18.24000      1.1991847E-08
   18.30000      1.2128896E-08
   18.36000      1.2276581E-08
   18.42000      1.2479732E-08
   18.48000      1.2766845E-08
   18.54000      1.3128187E-08
   18.60000      1.3504511E-08
   18.66000      1.3790754E-08
   18.72000      1.3854891E-08
   18.78000      1.3567535E-08
   18.84000      1.2834539E-08
   18.90000      1.1623586E-08
   18.96000      9.9770494E-09
   19.02000      8.0070688E-09
   19.08000      5.8737246E-09
   19.14000      3.7519587E-09
   19.20000      1.7960665E-09
   19.26000      1.1108539E-10
   19.32000     -1.2619169E-09
   19.38000     -2.3440059E-09
   19.44000     -3.2023391E-09
   19.50000     -3.9262034E-09
   19.56000     -4.6031059E-09
   19.62000     -5.3019202E-09
   19.68000     -6.0669931E-09
   19.74000     -6.9231216E-09
   19.80000     -7.8878015E-09
   19.86000     -8.9852126E-09
   19.92000     -1.0256445E-08
   19.98000     -1.1762152E-08
   20.04000     -1.3576489E-08
   20.10000     -1.5773836E-08
   20.16000     -1.8411777E-08
   20.22000     -2.1514790E-08
   20.28000     -2.5062930E-08
   20.34000     -2.8988699E-08
   20.40000     -3.3183564E-08
   20.46000     -3.7513427E-08
   20.52000     -4.1840320E-08
   20.58000     -4.6045841E-08
   20.64000     -5.0051195E-08
   20.70000     -5.3829016E-08
   20.76000     -5.7403863E-08
   20.82000     -6.0841003E-08
   20.88000     -6.4225951E-08
   20.94000     -6.7639860E-08
   21.00000     -7.1136959E-08
   21.06000     -7.4729876E-08
   21.12000     -7.8386286E-08
   21.18000     -8.2037410E-08
   21.24000     -8.5595460E-08
   21.30000     -8.8974566E-08
   21.36000     -9.2109239E-08
   21.42000     -9.4965394E-08
   21.48000     -9.7541346E-08
   21.54000     -9.9859619E-08
   21.60000     -1.0195280E-07
   21.66000     -1.0384824E-07
   21.72000     -1.0555633E-07
   21.78000     -1.0706532E-07
   21.84000     -1.0834377E-07
   21.90000     -1.0934922E-07
   21.96000     -1.1004011E-07
   22.02000     -1.1038785E-07
   22.08000     -1.1038559E-07
   22.14000     -1.1005169E-07
   22.20000     -1.0942706E-07
   22.26000     -1.0856692E-07
   22.32000     -1.0752895E-07
   22.38000     -1.0636052E-07
   22.44000     -1.0508846E-07
   22.50000     -1.0371396E-07
   22.56000     -1.0221429E-07
   22.62000     -1.0055100E-07
   22.68000     -9.8682257E-08
   22.74000     -9.6575945E-08
   22.80000     -9.4219466E-08
   22.86000     -9.1624017E-08
   22.92000     -8.8822325E-08
   22.98000     -8.5861593E-08
   23.04000     -8.2794450E-08
   23.10000     -7.9671153E-08
   23.16000     -7.6535059E-08
   23.22000     -7.3421916E-08
   23.28000     -7.0361871E-08
   23.34000     -6.7382182E-08
   23.40000     -6.4508825E-08
   23.46000     -6.1765952E-08
   23.52000     -5.9173399E-08
   23.58000     -5.6743389E-08
   23.64000     -5.4477663E-08
   23.70000     -5.2366211E-08
   23.76000     -5.0388177E-08
   23.82000     -4.8514842E-08
   23.88000     -4.6714110E-08
   23.94000     -4.4955794E-08
   24.00000     -4.3216762E-08
   24.06000     -4.1485077E-08
   24.12000     -3.9762263E-08
   24.18000     -3.8063078E-08
   24.24000     -3.6412629E-08
   24.30000     -3.4841289E-08
   24.36000     -3.3378580E-08
   24.42000     -3.2047481E-08
   24.48000     -3.0860726E-08
   24.54000     -2.9819969E-08
   24.60000     -2.8917906E-08
   24.66000     -2.8142408E-08
   24.72000     -2.7481192E-08
   24.78000     -2.6925417E-08
   24.84000     -2.6471030E-08
   24.90000     -2.6117586E-08
   24.96000     -2.5865114E-08
   25.02000     -2.5710316E-08
   25.08000     -2.5643647E-08
   25.14000     -2.5648561E-08
   25.20000     -2.5703505E-08
   25.26000     -2.5786473E-08
   25.32000     -2.5880958E-08
   25.38000     -2.5981629E-08
   25.44000     -2.6097887E-08
   25.50000     -2.6253767E-08
   25.56000     -2.6483516E-08
   25.62000     -2.6823361E-08
   25.68000     -2.7301089E-08
   25.74000     -2.7925992E-08
   25.80000     -2.8682061E-08
   25.86000     -2.9526658E-08
   25.92000     -3.0395800E-08
   25.98000     -3.1215279E-08
   26.04000     -3.1915132E-08
   26.10000     -3.2443747E-08
   26.16000     -3.2777667E-08
   26.22000     -3.2924152E-08
   26.28000     -3.2915668E-08
   26.34000     -3.2797704E-08
   26.40000     -3.2613549E-08
   26.46000     -3.2390357E-08
   26.52000     -3.2130455E-08
   26.58000     -3.1809797E-08
   26.64000     -3.1383287E-08
   26.70000     -3.0794382E-08
   26.76000     -2.9985635E-08
   26.82000     -2.8907177E-08
   26.88000     -2.7521637E-08
   26.94000     -2.5805816E-08
   27.00000     -2.3750628E-08
   27.06000     -2.1360940E-08
   27.12000     -1.8656060E-08
   27.18000     -1.5670375E-08
   27.24000     -1.2452700E-08
   27.30000     -9.0629069E-09
   27.36000     -5.5654321E-09
   27.42000     -2.0207065E-09
   27.48000      1.5232325E-09
   27.54000      5.0364108E-09
   27.60000      8.5080609E-09
   27.66000      1.1942893E-08
   27.72000      1.5353633E-08
   27.78000      1.8751869E-08
   27.84000      2.2139373E-08
   27.90000      2.5501501E-08
   27.96000      2.8803639E-08
   28.02000      3.1991096E-08
   28.08000      3.4992709E-08
   28.14000      3.7728306E-08
   28.20000      4.0119627E-08
   28.26000      4.2103490E-08
   28.32000      4.3644636E-08
   28.38000      4.4744745E-08
   28.44000      4.5444292E-08
   28.50000      4.5815106E-08
   28.56000      4.5944340E-08
   28.62000      4.5913243E-08
   28.68000      4.5776535E-08
   28.74000      4.5548287E-08
   28.80000      4.5198828E-08
   28.86000      4.4663668E-08
   28.92000      4.3862016E-08
   28.98000      4.2719410E-08
   29.04000      4.1188258E-08
   29.10000      3.9261039E-08
   29.16000      3.6973553E-08
   29.22000      3.4398784E-08
   29.28000      3.1634070E-08
   29.34000      2.8785719E-08
   29.40000      2.5954638E-08
   29.46000      2.3225429E-08
   29.52000      2.0659863E-08
   29.58000      1.8294557E-08
   29.64000      1.6142078E-08
   29.70000      1.4194786E-08
   29.76000      1.2430726E-08
   29.82000      1.0821028E-08
   29.88000      9.3379082E-09
   29.94000      7.9620373E-09
   30.00000      6.6877406E-09
   30.06000      5.5246669E-09
   30.12000      4.4951749E-09
   30.18000      3.6277745E-09
   30.24000      2.9479665E-09
   30.30000      2.4687201E-09
   30.36000      2.1830482E-09
   30.42000      2.0607738E-09
   30.48000      2.0505890E-09
   30.54000      2.0872415E-09
   30.60000      2.1023356E-09
   30.66000      2.0362505E-09
   30.72000      1.8482281E-09
   30.78000      1.5220288E-09
   30.84000      1.0655540E-09
   30.90000      5.0442855E-10
   30.96000     -1.2882920E-10
   31.02000     -8.0707185E-10
   31.08000     -1.5187440E-09
   31.14000     -2.2731168E-09
   31.20000     -3.0990119E-09
   31.26000     -4.0374672E-09
   31.32000     -5.1306022E-09
   31.38000     -6.4100329E-09
   31.44000     -7.8881692E-09
   31.50000     -9.5546620E-09
   31.56000     -1.1378560E-08
   31.62000     -1.3314988E-08
   31.68000     -1.5314004E-08
   31.74000     -1.7329004E-08
   31.80000     -1.9322615E-08
   31.86000     -2.1269145E-08
   31.92000     -2.3153811E-08
   31.98000     -2.4969861E-08
   32.04000     -2.6714982E-08
   32.10000     -2.8388374E-08
   32.16000     -2.9989302E-08
   32.22000     -3.1517580E-08
   32.28000     -3.2975890E-08
   32.34000     -3.4373407E-08
   32.40000     -3.5729812E-08
   32.46000     -3.7078426E-08
   32.52000     -3.8466954E-08
   32.58000     -3.9954553E-08
   32.64000     -4.1604746E-08
   32.70000     -4.3474881E-08
   32.76000     -4.5604278E-08
   32.82000     -4.8004193E-08
   32.88000     -5.0652865E-08
   32.94000     -5.3497729E-08
   33.00000     -5.6464810E-08
   33.06000     -5.9472928E-08
   33.12000     -6.2448585E-08
   33.18000     -6.5337105E-08
   33.24000     -6.8106942E-08
   33.30000     -7.0746360E-08
   33.36000     -7.3254476E-08
   33.42000     -7.5630133E-08
   33.48000     -7.7862190E-08
   33.54000     -7.9923829E-08
   33.60000     -8.1771105E-08
   33.66000     -8.3344730E-08
   33.72000     -8.4573507E-08
   33.78000     -8.5378389E-08
   33.84000     -8.5677357E-08
   33.90000     -8.5392102E-08
   33.96000     -8.4457263E-08
   34.02000     -8.2831583E-08
   34.08000     -8.0508912E-08
   34.14000     -7.7525513E-08
   34.20000     -7.3960670E-08
   34.26000     -6.9929094E-08
   34.32000     -6.5566432E-08
   34.38000     -6.1011008E-08
   34.44000     -5.6386892E-08
   34.50000     -5.1792181E-08
   34.56000     -4.7295082E-08
   34.62000     -4.2937629E-08
   34.68000     -3.8745107E-08
   34.74000     -3.4737894E-08
   34.80000     -3.0942566E-08
   34.86000     -2.7399597E-08
   34.92000     -2.4165969E-08
   34.98000     -2.1311982E-08
   35.04000     -1.8912326E-08
   35.10000     -1.7032770E-08
   35.16000     -1.5714955E-08
   35.22000     -1.4963105E-08
   35.28000     -1.4736814E-08
   35.34000     -1.4953365E-08
   35.40000     -1.5500579E-08
   35.46000     -1.6257841E-08
   35.52000     -1.7119714E-08
   35.58000     -1.8014786E-08
   35.64000     -1.8913269E-08
   35.70000     -1.9820323E-08
   35.76000     -2.0757046E-08
   35.82000     -2.1735781E-08
   35.88000     -2.2738899E-08
   35.94000     -2.3709182E-08
   36.00000     -2.4556000E-08
   36.06000     -2.5175591E-08
   36.12000     -2.5478688E-08
   36.18000     -2.5415947E-08
   36.24000     -2.4992614E-08
   36.30000     -2.4267734E-08
   36.36000     -2.3338556E-08
   36.42000     -2.2315668E-08
   36.48000     -2.1296728E-08
   36.54000     -2.0346427E-08
   36.60000     -1.9487382E-08
   36.66000     -1.8702938E-08
   36.72000     -1.7949347E-08
   36.78000     -1.7172749E-08
   36.84000     -1.6326016E-08
   36.90000     -1.5381488E-08
   36.96000     -1.4337248E-08
   37.02000     -1.3216367E-08
   37.08000     -1.2060083E-08
   37.14000     -1.0917058E-08
   37.20000     -9.8317692E-09
   37.26000     -8.8352996E-09
   37.32000     -7.9413267E-09
   37.38000     -7.1486306E-09
   37.44000     -6.4492549E-09
   37.50000     -5.8392118E-09
   37.56000     -5.3272751E-09
   37.62000     -4.9377005E-09
   37.68000     -4.7048729E-09
   37.74000     -4.6612043E-09
   37.80000     -4.8227959E-09
   37.86000     -5.1789244E-09
   37.92000     -5.6904916E-09
   37.98000     -6.2993246E-09
   38.04000     -6.9458648E-09
   38.10000     -7.5892377E-09
   38.16000     -8.2224112E-09
   38.22000     -8.8767935E-09
   38.28000     -9.6144621E-09
   38.34000     -1.0510683E-08
   38.40000     -1.1632563E-08
   38.46000     -1.3020574E-08
   38.52000     -1.4678015E-08
   38.58000     -1.6570395E-08
   38.64000     -1.8633450E-08
   38.70000     -2.0786548E-08
   38.76000     -2.2947537E-08
   38.82000     -2.5045960E-08
   38.88000     -2.7032579E-08
   38.94000     -2.8884228E-08
   39.00000     -3.0603534E-08
   39.06000     -3.2213585E-08
   39.12000     -3.3748357E-08
   39.18000     -3.5240809E-08
   39.24000     -3.6711747E-08
   39.30000     -3.8162920E-08
   39.36000     -3.9577056E-08
   39.42000     -4.0925272E-08
   39.48000     -4.2179607E-08
   39.54000     -4.3325986E-08
   39.60000     -4.4372513E-08
   39.66000     -4.5349342E-08
   39.72000     -4.6299647E-08
   39.78000     -4.7264795E-08
   39.84000     -4.8269158E-08
   39.90000     -4.9310486E-08
   39.96000     -5.0359436E-08
   40.02000     -5.1368499E-08
   40.08000     -5.2286900E-08
   40.14000     -5.3075944E-08
   40.20000     -5.3719262E-08
   40.26000     -5.4224650E-08
   40.32000     -5.4617285E-08
   40.38000     -5.4927252E-08
   40.44000     -5.5176073E-08
   40.50000     -5.5367003E-08
   40.56000     -5.5482218E-08
   40.62000     -5.5487615E-08
   40.68000     -5.5343623E-08
   40.74000     -5.5018592E-08
   40.80000     -5.4500866E-08
   40.86000     -5.3806108E-08
   40.92000     -5.2977665E-08
   40.98000     -5.2079578E-08
   41.04000     -5.1183612E-08
   41.10000     -5.0353329E-08
   41.16000     -4.9629222E-08
   41.22000     -4.9019064E-08
   41.28000     -4.8496631E-08
   41.34000     -4.8009841E-08
   41.40000     -4.7496613E-08
   41.46000     -4.6904134E-08
   41.52000     -4.6205731E-08
   41.58000     -4.5409696E-08
   41.64000     -4.4556710E-08
   41.70000     -4.3706134E-08
   41.76000     -4.2915200E-08
   41.82000     -4.2217874E-08
   41.88000     -4.1610711E-08
   41.94000     -4.1050974E-08
   42.00000     -4.0468514E-08
   42.06000     -3.9788389E-08
   42.12000     -3.8957694E-08
   42.18000     -3.7968473E-08
   42.24000     -3.6869579E-08
   42.30000     -3.5763360E-08
   42.36000     -3.4787394E-08
   42.42000     -3.4085460E-08
   42.48000     -3.3775073E-08
   42.54000     -3.3919967E-08
   42.60000     -3.4514635E-08
   42.66000     -3.5485357E-08
   42.72000     -3.6707757E-08
   42.78000     -3.8036617E-08
   42.84000     -3.9340318E-08
   42.90000     -4.0530736E-08
   42.96000     -4.1580456E-08
   43.02000     -4.2522782E-08
   43.08000     -4.3434945E-08
   43.14000     -4.4410065E-08
   43.20000     -4.5526605E-08
   43.26000     -4.6824805E-08
   43.32000     -4.8296727E-08
   43.38000     -4.9891966E-08
   43.44000     -5.1535686E-08
   43.50000     -5.3152021E-08
   43.56000     -5.4684602E-08
   43.62000     -5.6108068E-08
   43.68000     -5.7428210E-08
   43.74000     -5.8672470E-08
   43.80000     -5.9875788E-08
   43.86000     -6.1067261E-08
   43.92000     -6.2262075E-08
   43.98000     -6.3460298E-08
   44.04000     -6.4651964E-08
   44.10000     -6.5825724E-08
   44.16000     -6.6978096E-08
   44.22000     -6.8120890E-08
   44.28000     -6.9285008E-08
   44.34000     -7.0520215E-08
   44.40000     -7.1890675E-08
   44.46000     -7.3467255E-08
   44.52000     -7.5317992E-08
   44.58000     -7.7499301E-08
   44.64000     -8.0050548E-08
   44.70000     -8.2994511E-08
   44.76000     -8.6344699E-08
   44.82000     -9.0118121E-08
   44.88000     -9.4350092E-08
   44.94000     -9.9106245E-08
   45.00000     -1.0448784E-07
   45.06000     -1.1062897E-07
   45.12000     -1.1768758E-07
   45.18000     -1.2583568E-07
   45.24000     -1.3525475E-07
   45.30000     -1.4614126E-07
   45.36000     -1.5872295E-07
   45.42000     -1.7328283E-07
   45.48000     -1.9018360E-07
   45.54000     -2.0988588E-07
   45.60000     -2.3295456E-07
   45.66000     -2.6005375E-07
   45.72000     -2.9193410E-07
   45.78000     -3.2942040E-07
   45.84000     -3.7340698E-07
   45.90000     -4.2486585E-07
   45.96000     -4.8486800E-07
   46.02000     -5.5461396E-07
   46.08000     -6.3546798E-07
   46.14000     -7.2898837E-07
   46.20000     -8.3695079E-07
   46.26000     -9.6136364E-07
   46.32000     -1.1044775E-06
   46.38000     -1.2687930E-06
   46.44000     -1.4570717E-06
   46.50000     -1.6723518E-06
   46.56000     -1.9179699E-06
   46.62000     -2.1975868E-06
   46.68000     -2.5152171E-06
   46.74000     -2.8752588E-06
   46.80000     -3.2825214E-06
   46.86000     -3.7422535E-06
   46.92000     -4.2601682E-06
   46.98000     -4.8424636E-06
   47.04000     -5.4958423E-06
   47.10000     -6.2275271E-06
   47.16000     -7.0452734E-06
   47.22000     -7.9573783E-06
   47.28000     -8.9726855E-06
   47.34000     -1.0100595E-05
   47.40000     -1.1351057E-05
   47.46000     -1.2734564E-05
   47.52000     -1.4262148E-05
   47.58000     -1.5945350E-05
   47.64000     -1.7796194E-05
   47.70000     -1.9827150E-05
   47.76000     -2.2051090E-05
   47.82000     -2.4481258E-05
   47.88000     -2.7131204E-05
   47.94000     -3.0014748E-05
   48.00000     -3.3145920E-05
   48.06000     -3.6538877E-05
   48.12000     -4.0207833E-05
   48.18000     -4.4166947E-05
   48.24000     -4.8430185E-05
   48.30000     -5.3011216E-05
   48.36000     -5.7923262E-05
   48.42000     -6.3178974E-05
   48.48000     -6.8790272E-05
   48.54000     -7.4768293E-05
   48.60000     -8.1123166E-05
   48.66000     -8.7863955E-05
   48.72000     -9.4998490E-05
   48.78000     -1.0253325E-04
   48.84000     -1.1047316E-04
   48.90000     -1.1882155E-04
   48.96000     -1.2757993E-04
   49.02000     -1.3674785E-04
   49.08000     -1.4632285E-04
   49.14000     -1.5630027E-04
   49.20000     -1.6667320E-04
   49.26000     -1.7743242E-04
   49.32000     -1.8856632E-04
   49.38000     -2.0006097E-04
   49.44000     -2.1190003E-04
   49.50000     -2.2406486E-04
   49.56000     -2.3653447E-04
   49.62000     -2.4928572E-04
   49.68000     -2.6229324E-04
   49.74000     -2.7552960E-04
   49.80000     -2.8896547E-04
   49.86000     -3.0256974E-04
   49.92000     -3.1630966E-04
   49.98000     -3.3015132E-04
   50.04000     -3.4405960E-04
   50.10000     -3.5799871E-04
   50.16000     -3.7193217E-04
   50.22000     -3.8582348E-04
   50.28000     -3.9963616E-04
   50.34000     -4.1333420E-04
   50.40000     -4.2688218E-04
   50.46000     -4.4024584E-04
   50.52000     -4.5339213E-04
   50.58000     -4.6628961E-04
   50.64000     -4.7890883E-04
   50.70000     -4.9122254E-04
   50.76000     -5.0320599E-04
   50.82000     -5.1483733E-04
   50.88000     -5.2609760E-04
   50.94000     -5.3697114E-04
   51.00000     -5.4744567E-04
   51.06000     -5.5751234E-04
   51.12000     -5.6716590E-04
   51.18000     -5.7640474E-04
   51.24000     -5.8523077E-04
   51.30000     -5.9364951E-04
   51.36000     -6.0166989E-04
   51.42000     -6.0930412E-04
   51.48000     -6.1656756E-04
   51.54000     -6.2347867E-04
   51.60000     -6.3005846E-04
   51.66000     -6.3633057E-04
   51.72000     -6.4232067E-04
   51.78000     -6.4805639E-04
   51.84000     -6.5356673E-04
   51.90000     -6.5888185E-04
   51.96000     -6.6403230E-04
   52.02000     -6.6904916E-04
   52.08000     -6.7396293E-04
   52.14000     -6.7880366E-04
   52.20000     -6.8360014E-04
   52.26000     -6.8837981E-04
   52.32000     -6.9316837E-04
   52.38000     -6.9798919E-04
   52.44000     -7.0286321E-04
   52.50000     -7.0780859E-04
   52.56000     -7.1284059E-04
   52.62000     -7.1797101E-04
   52.68000     -7.2320818E-04
   52.74000     -7.2855689E-04
   52.80000     -7.3401828E-04
   52.86000     -7.3958974E-04
   52.92000     -7.4526493E-04
   52.98000     -7.5103430E-04
   53.04000     -7.5688475E-04
   53.10000     -7.6280016E-04
   53.16000     -7.6876121E-04
   53.22000     -7.7474595E-04
   53.28000     -7.8072981E-04
   53.34000     -7.8668643E-04
   53.40000     -7.9258741E-04
   53.46000     -7.9840346E-04
   53.52000     -8.0410438E-04
   53.58000     -8.0965931E-04
   53.64000     -8.1503787E-04
   53.70000     -8.2020980E-04
   53.76000     -8.2514581E-04
   53.82000     -8.2981808E-04
   53.88000     -8.3420012E-04
   53.94000     -8.3826762E-04
   54.00000     -8.4199879E-04
   54.06000     -8.4537431E-04
   54.12000     -8.4837771E-04
   54.18000     -8.5099583E-04
   54.24000     -8.5321872E-04
   54.30000     -8.5504010E-04
   54.36000     -8.5645693E-04
   54.42000     -8.5747027E-04
   54.48000     -8.5808436E-04
   54.54000     -8.5830700E-04
   54.60000     -8.5814908E-04
   54.66000     -8.5762469E-04
   54.72000     -8.5675041E-04
   54.78000     -8.5554557E-04
   54.84000     -8.5403171E-04
   54.90000     -8.5223216E-04
   54.96000     -8.5017225E-04
   55.02000     -8.4787817E-04
   55.08000     -8.4537693E-04
   55.14000     -8.4269559E-04
   55.20000     -8.3986117E-04
   55.26000     -8.3690014E-04
   55.32000     -8.3383778E-04
   55.38000     -8.3069818E-04
   55.44000     -8.2750391E-04
   55.50000     -8.2427537E-04
   55.56000     -8.2103052E-04