  -2.400000      0.0000000E+00
  -2.340000      0.0000000E+00
  -2.280000      0.0000000E+00
  -2.220000      0.0000000E+00
  -2.160000      0.0000000E+00
  -2.100000     -2.5157924E-20
  -2.040000     -2.1491851E-19
  -1.980000     -9.1539932E-19
  -1.920000     -2.4507465E-18
  -1.860000     -4.0523318E-18
  -1.800000     -1.8832177E-18
  -1.740000      1.2323032E-17
  -1.680000      4.8427620E-17
  -1.620000      1.0707708E-16
  -1.560000      1.6176143E-16
  -1.500000      1.4447793E-16
  -1.440000     -4.4378465E-17
  -1.380000     -4.8223476E-16
  -1.320000     -1.1288410E-15
  -1.260000     -1.7323626E-15
  -1.200000     -1.8195530E-15
  -1.140000     -8.5298372E-16
  -1.080000      1.4310653E-15
  -1.020000      4.6245822E-15
 -0.9600000      7.4473415E-15
 -0.9000000      8.0357982E-15
 -0.8400000      4.8490896E-15
 -0.7800000     -2.0483834E-15
 -0.7200000     -9.9997169E-15
 -0.6600000     -1.3960358E-14
 -0.6000000     -8.5293668E-15
 -0.5400000      8.4123213E-15
 -0.4800000      3.1885979E-14
 -0.4200000      4.8224374E-14
 -0.3600000      3.8098278E-14
 -0.3000000     -1.4950567E-14
 -0.2400000     -1.1241783E-13
 -0.1800000     -2.3027424E-13
 -0.1200000     -3.1677994E-13
 -5.9999999E-02 -3.0426006E-13
  0.0000000E+00 -1.3549548E-13
  5.9999999E-02  2.0210401E-13
  0.1200000      6.4845774E-13
  0.1800000      1.0655893E-12
  0.2400000      1.2672376E-12
  0.3000000      1.0828103E-12
  0.3600000      4.3829204E-13
  0.4200000     -5.7765690E-13
  0.4800000     -1.6980754E-12
  0.5400000     -2.5362655E-12
  0.6000000     -2.7151829E-12
  0.6600000     -2.0303726E-12
  0.7200000     -5.8251131E-13
  0.7800000      1.1890450E-12
  0.8400000      2.6145039E-12
  0.9000000      3.0337007E-12
  0.9600000      2.0954098E-12
   1.020000     -2.9889777E-15
   1.080000     -2.4590228E-12
   1.140000     -4.0656888E-12
   1.200000     -3.6478672E-12
   1.260000     -6.0431282E-13
   1.320000      4.6532318E-12
   1.380000      1.0578364E-11
   1.440000      1.4815803E-11
   1.500000      1.4946442E-11
   1.560000      9.4436160E-12
   1.620000     -1.4976361E-12
   1.680000     -1.5613439E-11
   1.740000     -2.8937344E-11
   1.800000     -3.6872977E-11
   1.860000     -3.5691179E-11
   1.920000     -2.3962728E-11
   1.980000     -3.3914063E-12
   2.040000      2.1333295E-11
   2.100000      4.3724049E-11
   2.160000      5.7403388E-11
   2.220000      5.8111654E-11
   2.280000      4.5104458E-11
   2.340000      2.1402191E-11
   2.400000     -7.2505036E-12
   2.460000     -3.4374153E-11
   2.520000     -5.4963960E-11
   2.580000     -6.7059240E-11
   2.640000     -7.2013825E-11
   2.700000     -7.3291477E-11
   2.760000     -7.4209007E-11
   2.820000     -7.5535661E-11
   2.880000     -7.4024752E-11
   2.940000     -6.2704217E-11
   3.000000     -3.3140747E-11
   3.060000      2.0879857E-11
   3.120000      9.9461946E-11
   3.180000      1.9396905E-10
   3.240000      2.8686256E-10
   3.300000      3.5448441E-10
   3.360000      3.7227540E-10
   3.420000      3.2103284E-10
   3.480000      1.9234214E-10
   3.540000     -8.5309381E-12
   3.600000     -2.6325056E-10
   3.660000     -5.4436727E-10
   3.720000     -8.2135715E-10
   3.780000     -1.0667737E-09
   3.840000     -1.2605007E-09
   3.900000     -1.3907585E-09
   3.960000     -1.4516667E-09
   4.020000     -1.4384341E-09
   4.080000     -1.3421620E-09
   4.140000     -1.1464915E-09
   4.200000     -8.2776930E-10
   4.260000     -3.5919753E-10
   4.320000      2.8202224E-10
   4.380000      1.1067717E-09
   4.440000      2.1080784E-09
   4.500000      3.2595269E-09
   4.560000      4.5191331E-09
   4.620000      5.8380594E-09
   4.680000      7.1718729E-09
   4.740000      8.4910159E-09
   4.800000      9.7871826E-09
   4.860000      1.1073427E-08
   4.920000      1.2377713E-08
   4.980000      1.3731715E-08
   5.040000      1.5158262E-08
   5.100000      1.6661270E-08
   5.160000      1.8221314E-08
   5.220000      1.9798092E-08
   5.280000      2.1338845E-08
   5.340000      2.2789807E-08
   5.400000      2.4106878E-08
   5.460000      2.5262031E-08
   5.520000      2.6243585E-08
   5.580000      2.7050781E-08
   5.640000      2.7685157E-08
   5.700000      2.8142514E-08
   5.760000      2.8409097E-08
   5.820000      2.8464061E-08
   5.880000      2.8287950E-08
   5.940000      2.7874387E-08
   6.000000      2.7240684E-08
   6.060000      2.6432906E-08
   6.120000      2.5522517E-08
   6.180000      2.4594474E-08
   6.240000      2.3729585E-08
   6.300000      2.2986251E-08
   6.360000      2.2387320E-08
   6.420000      2.1916511E-08
   6.480000      2.1526072E-08
   6.540000      2.1153758E-08
   6.600000      2.0744217E-08
   6.660000      2.0268205E-08
   6.720000      1.9733584E-08
   6.780000      1.9184439E-08
   6.840000      1.8688283E-08
   6.900000      1.8315152E-08
   6.960000      1.8114928E-08
   7.020000      1.8100131E-08
   7.080000      1.8239687E-08
   7.140000      1.8466032E-08
   7.200000      1.8693598E-08
   7.260000      1.8843176E-08
   7.320000      1.8864640E-08
   7.380000      1.8751010E-08
   7.440000      1.8539501E-08
   7.500000      1.8299446E-08
   7.560000      1.8111237E-08
   7.620000      1.8043194E-08
   7.680000      1.8133807E-08
   7.740000      1.8384675E-08
   7.800000      1.8765560E-08
   7.860000      1.9228775E-08
   7.920000      1.9726972E-08
   7.980000      2.0227597E-08
   8.040000      2.0718845E-08
   8.100000      2.1205460E-08
   8.160000      2.1696536E-08
   8.220000      2.2190459E-08
   8.280000      2.2663022E-08
   8.340000      2.3063448E-08
   8.400000      2.3320162E-08
   8.460000      2.3354664E-08
   8.520000      2.3099163E-08
   8.580000      2.2512417E-08
   8.640000      2.1588956E-08
   8.700000      2.0359089E-08
   8.760000      1.8879966E-08
   8.820000      1.7220732E-08
   8.880000      1.5446387E-08
   8.940000      1.3605233E-08
   9.000000      1.1723412E-08
   9.060000      9.8077262E-09
   9.120000      7.8553004E-09
   9.180000      5.8664238E-09
   9.240000      3.8558858E-09
   9.300000      1.8586118E-09
   9.360000     -7.2775924E-11
   9.420000     -1.8781432E-09
   9.480000     -3.5047887E-09
   9.540000     -4.9223829E-09
   9.600000     -6.1328791E-09
   9.660000     -7.1717858E-09
   9.720000     -8.0998745E-09
   9.780000     -8.9874588E-09
   9.840000     -9.8959037E-09
   9.900000     -1.0862061E-08
   9.960000     -1.1890550E-08
   10.02000     -1.2956433E-08
   10.08000     -1.4017556E-08
   10.14000     -1.5032732E-08
   10.20000     -1.5980024E-08
   10.26000     -1.6869231E-08
   10.32000     -1.7744494E-08
   10.38000     -1.8675912E-08
   10.44000     -1.9742618E-08
   10.50000     -2.1012237E-08
   10.56000     -2.2522922E-08
   10.62000     -2.4273104E-08
   10.68000     -2.6221672E-08
   10.74000     -2.8297947E-08
   10.80000     -3.0417866E-08
   10.86000     -3.2501088E-08
   10.92000     -3.4483868E-08
   10.98000     -3.6324419E-08
   11.04000     -3.8000362E-08
   11.10000     -3.9500705E-08
   11.16000     -4.0816605E-08
   11.22000     -4.1935355E-08
   11.28000     -4.2840568E-08
   11.34000     -4.3518778E-08
   11.40000     -4.3970001E-08
   11.46000     -4.4217703E-08
   11.52000     -4.4313477E-08
   11.58000     -4.4333117E-08
   11.64000     -4.4363663E-08
   11.70000     -4.4484455E-08
   11.76000     -4.4747424E-08
   11.82000     -4.5162942E-08
   11.88000     -4.5696005E-08
   11.94000     -4.6274398E-08
   12.00000     -4.6806765E-08
   12.06000     -4.7205084E-08
   12.12000     -4.7404871E-08
   12.18000     -4.7377103E-08
   12.24000     -4.7128868E-08
   12.30000     -4.6693593E-08
   12.36000     -4.6114984E-08
   12.42000     -4.5430518E-08
   12.48000     -4.4659995E-08
   12.54000     -4.3802217E-08
   12.60000     -4.2839826E-08
   12.66000     -4.1749473E-08
   12.72000     -4.0512937E-08
   12.78000     -3.9125023E-08
   12.84000     -3.7595640E-08
   12.90000     -3.5945892E-08
   12.96000     -3.4200045E-08
   13.02000     -3.2376754E-08
   13.08000     -3.0482941E-08
   13.14000     -2.8512703E-08
   13.20000     -2.6451968E-08
   13.26000     -2.4287546E-08
   13.32000     -2.2017772E-08
   13.38000     -1.9661242E-08
   13.44000     -1.7260476E-08
   13.50000     -1.4878823E-08
   13.56000     -1.2590849E-08
   13.62000     -1.0468497E-08
   13.68000     -8.5667509E-09
   13.74000     -6.9127930E-09
   13.80000     -5.5016600E-09
   13.86000     -4.2994763E-09
   13.92000     -3.2530032E-09
   13.98000     -2.3024214E-09
   14.04000     -1.3934978E-09
   14.10000     -4.8588000E-10
   14.16000      4.4411130E-10
   14.22000      1.4057575E-09
   14.28000      2.3991946E-09
   14.34000      3.4208611E-09
   14.40000      4.4668171E-09
   14.46000      5.5329297E-09
   14.52000      6.6124688E-09
   14.58000      7.6928171E-09
   14.64000      8.7533332E-09
   14.70000      9.7658717E-09
   14.76000      1.0698380E-08
   14.82000      1.1520767E-08
   14.88000      1.2211435E-08
   14.94000      1.2762572E-08
   15.00000      1.3182645E-08
   15.06000      1.3495272E-08
   15.12000      1.3734619E-08
   15.18000      1.3938321E-08
   15.24000      1.4139596E-08
   15.30000      1.4360571E-08
   15.36000      1.4608587E-08
   15.42000      1.4876596E-08
   15.48000      1.5147604E-08
   15.54000      1.5401877E-08
   15.60000      1.5624609E-08
   15.66000      1.5811555E-08
   15.72000      1.5970702E-08
   15.78000      1.6119580E-08
   15.84000      1.6279353E-08
   15.90000      1.6468178E-08
   15.96000      1.6696379E-08
   16.02000      1.6965199E-08
   16.08000      1.7269068E-08
   16.14000      1.7599834E-08
   16.20000      1.7950471E-08
   16.26000      1.8316218E-08
   16.32000      1.8692617E-08
   16.38000      1.9071608E-08
   16.44000      1.9438126E-08
   16.50000      1.9769539E-08
   16.56000      2.0039023E-08
   16.62000      2.0221902E-08
   16.68000      2.0302370E-08
   16.74000      2.0277563E-08
   16.80000      2.0157042E-08
   16.86000      1.9958007E-08
   16.92000      1.9698776E-08
   16.98000      1.9394287E-08
   17.04000      1.9056587E-08
   17.10000      1.8700934E-08
   17.16000      1.8355001E-08
   17.22000      1.8066348E-08
   17.28000      1.7903091E-08
   17.34000      1.7944913E-08
   17.40000      1.8265462E-08
   17.46000      1.8911356E-08
   17.52000      1.9885267E-08
   17.58000      2.1140028E-08
   17.64000      2.2587074E-08
   17.70000      2.4117226E-08
   17.76000      2.5627047E-08
   17.82000      2.7041619E-08
   17.88000      2.8325749E-08
   17.94000      2.9480063E-08
   18.00000      3.0524188E-08
   18.06000      3.1474158E-08
   18.12000      3.2323268E-08
   18.18000      3.3033974E-08
   18.24000      3.3544044E-08
   18.30000      3.3784538E-08
   18.36000      3.3702719E-08
   18.42000      3.3281378E-08
   18.48000      3.2547451E-08
   18.54000      3.1566874E-08
   18.60000      3.0427444E-08
   18.66000      2.9215409E-08
   18.72000      2.7993350E-08
   18.78000      2.6786175E-08
   18.84000      2.5579183E-08
   18.90000      2.4328505E-08
   18.96000      2.2980476E-08
   19.02000      2.1494134E-08
   19.08000      1.9860247E-08
   19.14000      1.8111198E-08
   19.20000      1.6318634E-08
   19.26000      1.4579040E-08
   19.32000      1.2990967E-08
   19.38000      1.1630130E-08
   19.44000      1.0529661E-08
   19.50000      9.6715640E-09
   19.56000      8.9922318E-09
   19.62000      8.4004963E-09
   19.68000      7.8024778E-09
   19.74000      7.1250681E-09
   19.80000      6.3302257E-09
   19.86000      5.4155307E-09
   19.92000      4.4015702E-09
   19.98000      3.3117940E-09
   20.04000      2.1535147E-09
   20.10000      9.0836100E-10
   20.16000     -4.6324586E-10
   20.22000     -2.0047828E-09
   20.28000     -3.7401615E-09
   20.34000     -5.6537774E-09
   20.40000     -7.6829414E-09
   20.46000     -9.7271498E-09
   20.52000     -1.1672347E-08
   20.58000     -1.3422458E-08
   20.64000     -1.4927421E-08
   20.70000     -1.6197765E-08
   20.76000     -1.7300293E-08
   20.82000     -1.8335911E-08
   20.88000     -1.9406770E-08
   20.94000     -2.0583457E-08
   21.00000     -2.1882970E-08
   21.06000     -2.3264462E-08
   21.12000     -2.4643883E-08
   21.18000     -2.5922533E-08
   21.24000     -2.7020162E-08
   21.30000     -2.7902075E-08
   21.36000     -2.8591792E-08
   21.42000     -2.9165525E-08
   21.48000     -2.9730538E-08
   21.54000     -3.0394371E-08
   21.60000     -3.1234620E-08
   21.66000     -3.2278557E-08
   21.72000     -3.3498583E-08
   21.78000     -3.4824385E-08
   21.84000     -3.6167275E-08
   21.90000     -3.7448409E-08
   21.96000     -3.8621376E-08
   22.02000     -3.9681797E-08
   22.08000     -4.0660996E-08
   22.14000     -4.1606288E-08
   22.20000     -4.2555236E-08
   22.26000     -4.3513268E-08
   22.32000     -4.4443016E-08
   22.38000     -4.5269633E-08
   22.44000     -4.5900908E-08
   22.50000     -4.6255430E-08
   22.56000     -4.6289433E-08
   22.62000     -4.6012854E-08
   22.68000     -4.5489013E-08
   22.74000     -4.4817597E-08
   22.80000     -4.4106386E-08
   22.86000     -4.3441027E-08
   22.92000     -4.2862585E-08
   22.98000     -4.2360185E-08
   23.04000     -4.1880973E-08
   23.10000     -4.1353839E-08
   23.16000     -4.0719005E-08
   23.22000     -3.9953559E-08
   23.28000     -3.9084583E-08
   23.34000     -3.8185409E-08
   23.40000     -3.7356308E-08
   23.46000     -3.6695869E-08
   23.52000     -3.6272549E-08
   23.58000     -3.6105856E-08
   23.64000     -3.6163357E-08
   23.70000     -3.6374452E-08
   23.76000     -3.6655909E-08
   23.82000     -3.6940083E-08
   23.88000     -3.7195800E-08
   23.94000     -3.7434400E-08
   24.00000     -3.7699074E-08
   24.06000     -3.8041801E-08
   24.12000     -3.8496960E-08
   24.18000     -3.9061995E-08
   24.24000     -3.9692733E-08
   24.30000     -4.0315328E-08
   24.36000     -4.0850146E-08
   24.42000     -4.1238479E-08
   24.48000     -4.1461650E-08
   24.54000     -4.1545459E-08
   24.60000     -4.1548525E-08
   24.66000     -4.1539476E-08
   24.72000     -4.1572022E-08
   24.78000     -4.1667391E-08
   24.84000     -4.1810505E-08
   24.90000     -4.1960565E-08
   24.96000     -4.2071328E-08
   25.02000     -4.2112827E-08
   25.08000     -4.2086238E-08
   25.14000     -4.2026404E-08
   25.20000     -4.1991481E-08
   25.26000     -4.2043734E-08
   25.32000     -4.2228368E-08
   25.38000     -4.2557740E-08
   25.44000     -4.3005944E-08
   25.50000     -4.3515190E-08
   25.56000     -4.4011419E-08
   25.62000     -4.4423935E-08
   25.68000     -4.4702762E-08
   25.74000     -4.4828628E-08
   25.80000     -4.4812907E-08
   25.86000     -4.4688214E-08
   25.92000     -4.4493099E-08
   25.98000     -4.4256094E-08
   26.04000     -4.3984212E-08
   26.10000     -4.3659597E-08
   26.16000     -4.3245148E-08
   26.22000     -4.2696975E-08
   26.28000     -4.1979405E-08
   26.34000     -4.1077339E-08
   26.40000     -4.0001812E-08
   26.46000     -3.8786865E-08
   26.52000     -3.7478756E-08
   26.58000     -3.6121232E-08
   26.64000     -3.4741770E-08
   26.70000     -3.3343490E-08
   26.76000     -3.1905333E-08
   26.82000     -3.0390439E-08
   26.88000     -2.8759732E-08
   26.94000     -2.6986067E-08
   27.00000     -2.5064022E-08
   27.06000     -2.3012115E-08
   27.12000     -2.0866826E-08
   27.18000     -1.8670875E-08
   27.24000     -1.6460211E-08
   27.30000     -1.4254722E-08
   27.36000     -1.2056152E-08
   27.42000     -9.8540323E-09
   27.48000     -7.6371469E-09
   27.54000     -5.4057816E-09
   27.60000     -3.1794760E-09
   27.66000     -9.9658426E-10
   27.72000      1.0948856E-09
   27.78000      3.0521103E-09
   27.84000      4.8523954E-09
   27.90000      6.5022245E-09
   27.96000      8.0364053E-09
   28.02000      9.5070165E-09
   28.08000      1.0965898E-08
   28.14000      1.2447106E-08
   28.20000      1.3955978E-08
   28.26000      1.5468915E-08
   28.32000      1.6943810E-08
   28.38000      1.8336690E-08
   28.44000      1.9617627E-08
   28.50000      2.0779247E-08
   28.56000      2.1834316E-08
   28.62000      2.2803418E-08
   28.68000      2.3698062E-08
   28.74000      2.4506488E-08
   28.80000      2.5188566E-08
   28.86000      2.5682429E-08
   28.92000      2.5920802E-08
   28.98000      2.5851095E-08
   29.04000      2.5451843E-08
   29.10000      2.4739576E-08
   29.16000      2.3763915E-08
   29.22000      2.2593099E-08
   29.28000      2.1295424E-08
   29.34000      1.9923229E-08
   29.40000      1.8504556E-08
   29.46000      1.7044419E-08
   29.52000      1.5534056E-08
   29.58000      1.3963887E-08
   29.64000      1.2334998E-08
   29.70000      1.0665107E-08
   29.76000      8.9872723E-09
   29.82000      7.3423760E-09
   29.88000      5.7685003E-09
   29.94000      4.2911337E-09
   30.00000      2.9175697E-09
   30.06000      1.6371989E-09
   30.12000      4.2726189E-10
   30.18000     -7.3815615E-10
   30.24000     -1.8790776E-09
   30.30000     -3.0035097E-09
   30.36000     -4.1060320E-09
   30.42000     -5.1710969E-09
   30.48000     -6.1793806E-09
   30.54000     -7.1145112E-09
   30.60000     -7.9675484E-09
   30.66000     -8.7376266E-09
   30.72000     -9.4288488E-09
   30.78000     -1.0045103E-08
   30.84000     -1.0585449E-08
   30.90000     -1.1042543E-08
   30.96000     -1.1405406E-08
   31.02000     -1.1665998E-08
   31.08000     -1.1827322E-08
   31.14000     -1.1909867E-08
   31.20000     -1.1953399E-08
   31.26000     -1.2012695E-08
   31.32000     -1.2147938E-08
   31.38000     -1.2412665E-08
   31.44000     -1.2843334E-08
   31.50000     -1.3454289E-08
   31.56000     -1.4240146E-08
   31.62000     -1.5184899E-08
   31.68000     -1.6274466E-08
   31.74000     -1.7507698E-08
   31.80000     -1.8901138E-08
   31.86000     -2.0484823E-08
   31.92000     -2.2289678E-08
   31.98000     -2.4330395E-08
   32.04000     -2.6589886E-08
   32.10000     -2.9011419E-08
   32.16000     -3.1502434E-08
   32.22000     -3.3950212E-08
   32.28000     -3.6245407E-08
   32.34000     -3.8306570E-08
   32.40000     -4.0098037E-08
   32.46000     -4.1635371E-08
   32.52000     -4.2976531E-08
   32.58000     -4.4201393E-08
   32.64000     -4.5386034E-08
   32.70000     -4.6579718E-08
   32.76000     -4.7791588E-08
   32.82000     -4.8990685E-08
   32.88000     -5.0118668E-08
   32.94000     -5.1110398E-08
   33.00000     -5.1915279E-08
   33.06000     -5.2512249E-08
   33.12000     -5.2913553E-08
   33.18000     -5.3156516E-08
   33.24000     -5.3286644E-08
   33.30000     -5.3338557E-08
   33.36000     -5.3321990E-08
   33.42000     -5.3218606E-08
   33.48000     -5.2991268E-08
   33.54000     -5.2602832E-08
   33.60000     -5.2037702E-08
   33.66000     -5.1317528E-08
   33.72000     -5.0504326E-08
   33.78000     -4.9688332E-08
   33.84000     -4.8963823E-08
   33.90000     -4.8400818E-08
   33.96000     -4.8022823E-08
   34.02000     -4.7799027E-08
   34.08000     -4.7654453E-08
   34.14000     -4.7494822E-08
   34.20000     -4.7237403E-08
   34.26000     -4.6836632E-08
   34.32000     -4.6295064E-08
   34.38000     -4.5655845E-08
   34.44000     -4.4979789E-08
   34.50000     -4.4316192E-08
   34.56000     -4.3678874E-08
   34.62000     -4.3037030E-08
   34.68000     -4.2324860E-08
   34.74000     -4.1466613E-08
   34.80000     -4.0407922E-08
   34.86000     -3.9141618E-08
   34.92000     -3.7718102E-08
   34.98000     -3.6235924E-08
   35.04000     -3.4815393E-08
   35.10000     -3.3564145E-08
   35.16000     -3.2546733E-08
   35.22000     -3.1768682E-08
   35.28000     -3.1180758E-08
   35.34000     -3.0701717E-08
   35.40000     -3.0251684E-08
   35.46000     -2.9784340E-08
   35.52000     -2.9306793E-08
   35.58000     -2.8880175E-08
   35.64000     -2.8600768E-08
   35.70000     -2.8568204E-08
   35.76000     -2.8851566E-08
   35.82000     -2.9464957E-08
   35.88000     -3.0360660E-08
   35.94000     -3.1442099E-08
   36.00000     -3.2592098E-08
   36.06000     -3.3706900E-08
   36.12000     -3.4724689E-08
   36.18000     -3.5639140E-08
   36.24000     -3.6493809E-08
   36.30000     -3.7359328E-08
   36.36000     -3.8301067E-08
   36.42000     -3.9348148E-08
   36.48000     -4.0474141E-08
   36.54000     -4.1596042E-08
   36.60000     -4.2592088E-08
   36.66000     -4.3332800E-08
   36.72000     -4.3715204E-08
   36.78000     -4.3689145E-08
   36.84000     -4.3267278E-08
   36.90000     -4.2515833E-08
   36.96000     -4.1529908E-08
   37.02000     -4.0402195E-08
   37.08000     -3.9196141E-08
   37.14000     -3.7932708E-08
   37.20000     -3.6594603E-08
   37.26000     -3.5145405E-08
   37.32000     -3.3555409E-08
   37.38000     -3.1823792E-08
   37.44000     -2.9988264E-08
   37.50000     -2.8118412E-08
   37.56000     -2.6295334E-08
   37.62000     -2.4585542E-08
   37.68000     -2.3019233E-08
   37.74000     -2.1581300E-08
   37.80000     -2.0218486E-08
   37.86000     -1.8859719E-08
   37.92000     -1.7441732E-08
   37.98000     -1.5930173E-08
   38.04000     -1.4328449E-08
   38.10000     -1.2671561E-08
   38.16000     -1.1008221E-08
   38.22000     -9.3789874E-09
   38.28000     -7.7994153E-09
   38.34000     -6.2547598E-09
   38.40000     -4.7077875E-09
   38.46000     -3.1158360E-09
   38.52000     -1.4496820E-09
   38.58000      2.9355085E-10
   38.64000      2.0883841E-09
   38.70000      3.8901224E-09
   38.76000      5.6509455E-09
   38.82000      7.3363404E-09
   38.88000      8.9357073E-09
   38.94000      1.0463803E-08
   39.00000      1.1953494E-08
   39.06000      1.3443438E-08
   39.12000      1.4965545E-08
   39.18000      1.6536355E-08
   39.24000      1.8154267E-08
   39.30000      1.9802222E-08
   39.36000      2.1453797E-08
   39.42000      2.3080343E-08
   39.48000      2.4657346E-08
   39.54000      2.6169173E-08
   39.60000      2.7611948E-08
   39.66000      2.8994510E-08
   39.72000      3.0337088E-08
   39.78000      3.1667408E-08
   39.84000      3.3014341E-08
   39.90000      3.4400330E-08
   39.96000      3.5834894E-08
   40.02000      3.7311928E-08
   40.08000      3.8812669E-08
   40.14000      4.0314315E-08
   40.20000      4.1801531E-08
   40.26000      4.3276454E-08
   40.32000      4.4762498E-08
   40.38000      4.6299274E-08
   40.44000      4.7929454E-08
   40.50000      4.9681997E-08
   40.56000      5.1558366E-08
   40.62000      5.3527639E-08
   40.68000      5.5533146E-08
   40.74000      5.7508640E-08
   40.80000      5.9397685E-08
   40.86000      6.1168485E-08
   40.92000      6.2817975E-08
   40.98000      6.4363483E-08
   41.04000      6.5825596E-08
   41.10000      6.7209740E-08
   41.16000      6.8494487E-08
   41.22000      6.9631817E-08
   41.28000      7.0559416E-08
   41.34000      7.1219731E-08
   41.40000      7.1577851E-08
   41.46000      7.1630538E-08
   41.52000      7.1402688E-08
   41.58000      7.0932792E-08
   41.64000      7.0253378E-08
   41.70000      6.9374373E-08
   41.76000      6.8276073E-08
   41.82000      6.6913998E-08
   41.88000      6.5233451E-08
   41.94000      6.3187571E-08
   42.00000      6.0752051E-08
   42.06000      5.7931203E-08
   42.12000      5.4754178E-08
   42.18000      5.1263925E-08
   42.24000      4.7504216E-08
   42.30000      4.3510102E-08
   42.36000      3.9305160E-08
   42.42000      3.4905597E-08
   42.48000      3.0328263E-08
   42.54000      2.5598290E-08
   42.60000      2.0752674E-08
   42.66000      1.5838244E-08
   42.72000      1.0905161E-08
   42.78000      5.9988992E-09
   42.84000      1.1540566E-09
   42.90000     -3.6077634E-09
   42.96000     -8.2756904E-09
   43.02000     -1.2844352E-08
   43.08000     -1.7307897E-08
   43.14000     -2.1655156E-08
   43.20000     -2.5866758E-08
   43.26000     -2.9914052E-08
   43.32000     -3.3759164E-08
   43.38000     -3.7356063E-08
   43.44000     -4.0653074E-08
   43.50000     -4.3597812E-08
   43.56000     -4.6144880E-08
   43.62000     -4.8265374E-08
   43.68000     -4.9955300E-08
   43.74000     -5.1239169E-08
   43.80000     -5.2165369E-08
   43.86000     -5.2792512E-08
   43.92000     -5.3169185E-08
   43.98000     -5.3312966E-08
   44.04000     -5.3195901E-08
   44.10000     -5.2742202E-08
   44.16000     -5.1840019E-08
   44.22000     -5.0363809E-08
   44.28000     -4.8199308E-08
   44.34000     -4.5261572E-08
   44.40000     -4.1498488E-08
   44.46000     -3.6877424E-08
   44.52000     -3.1358990E-08
   44.58000     -2.4866868E-08
   44.64000     -1.7263901E-08
   44.70000     -8.3418952E-09
   44.76000      2.1735407E-09
   44.82000      1.4608405E-08
   44.88000      2.9325745E-08
   44.94000      4.6721382E-08
   45.00000      6.7236293E-08
   45.06000      9.1385644E-08
   45.12000      1.1979790E-07
   45.18000      1.5325406E-07
   45.24000      1.9271771E-07
   45.30000      2.3935047E-07
   45.36000      2.9451516E-07
   45.42000      3.5977320E-07
   45.48000      4.3688721E-07
   45.54000      5.2783713E-07
   45.60000      6.3485606E-07
   45.66000      7.6048252E-07
   45.72000      9.0762506E-07
   45.78000      1.0796290E-06
   45.84000      1.2803382E-06
   45.90000      1.5141485E-06
   45.96000      1.7860530E-06
   46.02000      2.1016858E-06
   46.08000      2.4673725E-06
   46.14000      2.8901920E-06
   46.20000      3.3780573E-06
   46.26000      3.9398101E-06
   46.32000      4.5853299E-06
   46.38000      5.3256431E-06
   46.44000      6.1730352E-06
   46.50000      7.1411564E-06
   46.56000      8.2451143E-06
   46.62000      9.5015666E-06
   46.68000      1.0928811E-05
   46.74000      1.2546875E-05
   46.80000      1.4377624E-05
   46.86000      1.6444867E-05
   46.92000      1.8774474E-05
   46.98000      2.1394490E-05
   47.04000      2.4335255E-05
   47.10000      2.7629489E-05
   47.16000      3.1312364E-05
   47.22000      3.5421574E-05
   47.28000      3.9997343E-05
   47.34000      4.5082426E-05
   47.40000      5.0722130E-05
   47.46000      5.6964265E-05
   47.52000      6.3859123E-05
   47.58000      7.1459413E-05
   47.64000      7.9820180E-05
   47.70000      8.8998706E-05
   47.76000      9.9054327E-05
   47.82000      1.1004825E-04
   47.88000      1.2204324E-04
   47.94000      1.3510337E-04
   48.00000      1.4929361E-04
   48.06000      1.6467951E-04
   48.12000      1.8132674E-04
   48.18000      1.9930066E-04
   48.24000      2.1866593E-04
   48.30000      2.3948586E-04
   48.36000      2.6182199E-04
   48.42000      2.8573352E-04
   48.48000      3.1127647E-04
   48.54000      3.3850316E-04
   48.60000      3.6746150E-04
   48.66000      3.9819424E-04
   48.72000      4.3073832E-04
   48.78000      4.6512409E-04
   48.84000      5.0137483E-04
   48.90000      5.3950603E-04
   48.96000      5.7952479E-04
   49.02000      6.2142912E-04
   49.08000      6.6520763E-04
   49.14000      7.1083877E-04
   49.20000      7.5829058E-04
   49.26000      8.0752035E-04
   49.32000      8.5847412E-04
   49.38000      9.1108686E-04
   49.44000      9.6528220E-04
   49.50000      1.0209727E-03
   49.56000      1.0780597E-03
   49.62000      1.1364338E-03
   49.68000      1.1959755E-03
   49.74000      1.2565557E-03
   49.80000      1.3180359E-03
   49.86000      1.3802695E-03
   49.92000      1.4431026E-03
   49.98000      1.5063749E-03
   50.04000      1.5699207E-03
   50.10000      1.6335705E-03
   50.16000      1.6971517E-03
   50.22000      1.7604907E-03
   50.28000      1.8234147E-03
   50.34000      1.8857523E-03
   50.40000      1.9473354E-03
   50.46000      2.0080009E-03
   50.52000      2.0675920E-03
   50.58000      2.1259594E-03
   50.64000      2.1829631E-03
   50.70000      2.2384741E-03
   50.76000      2.2923755E-03
   50.82000      2.3445641E-03
   50.88000      2.3949498E-03
   50.94000      2.4434589E-03
   51.00000      2.4900329E-03
   51.06000      2.5346307E-03
   51.12000      2.5772266E-03
   51.18000      2.6178132E-03
   51.24000      2.6563995E-03
   51.30000      2.6930117E-03
   51.36000      2.7276918E-03
   51.42000      2.7604979E-03
   51.48000      2.7915032E-03
   51.54000      2.8207945E-03
   51.60000      2.8484715E-03
   51.66000      2.8746449E-03
   51.72000      2.8994360E-03
   51.78000      2.9229724E-03
   51.84000      2.9453896E-03
   51.90000      2.9668261E-03
   51.96000      2.9874237E-03
   52.02000      3.0073242E-03
   52.08000      3.0266680E-03
   52.14000      3.0455922E-03
   52.20000      3.0642282E-03
   52.26000      3.0827005E-03
   52.32000      3.1011249E-03
   52.38000      3.1196058E-03
   52.44000      3.1382365E-03
   52.50000      3.1570962E-03
   52.56000      3.1762514E-03
   52.62000      3.1957510E-03
   52.68000      3.2156305E-03
   52.74000      3.2359080E-03
   52.80000      3.2565854E-03
   52.86000      3.2776487E-03
   52.92000      3.2990673E-03
   52.98000      3.3207962E-03
   53.04000      3.3427759E-03
   53.10000      3.3649327E-03
   53.16000      3.3871823E-03
   53.22000      3.4094278E-03
   53.28000      3.4315649E-03
   53.34000      3.4534798E-03
   53.40000      3.4750542E-03
   53.46000      3.4961649E-03
   53.52000      3.5166882E-03
   53.58000      3.5364998E-03
   53.64000      3.5554788E-03
   53.70000      3.5735075E-03
   53.76000      3.5904741E-03
   53.82000      3.6062745E-03
   53.88000      3.6208129E-03
   53.94000      3.6340051E-03
   54.00000      3.6457782E-03
   54.06000      3.6560732E-03
   54.12000      3.6648444E-03
   54.18000      3.6720617E-03
   54.24000      3.6777090E-03
   54.30000      3.6817864E-03
   54.36000      3.6843074E-03
   54.42000      3.6853016E-03
   54.48000      3.6848113E-03
   54.54000      3.6828935E-03
   54.60000      3.6796164E-03
   54.66000      3.6750606E-03
   54.72000      3.6693155E-03
   54.78000      3.6624789E-03
   54.84000      3.6546548E-03
   54.90000      3.6459533E-03
   54.96000      3.6364857E-03
   55.02000      3.6263654E-03
   55.08000      3.6157041E-03
   55.14000      3.6046118E-03
   55.20000      3.5931931E-03
   55.26000      3.5815465E-03
   55.32000      3.5697627E-03
   55.38000      3.5579228E-03
   55.44000      3.5460975E-03
   55.50000      3.5343457E-03
   55.56000      3.5227134E-03