  -2.400000      0.0000000E+00
  -2.340000      0.0000000E+00
  -2.280000      0.0000000E+00
  -2.220000      0.0000000E+00
  -2.160000      0.0000000E+00
  -2.100000      1.3899680E-22
  -2.040000      1.0177596E-21
  -1.980000      3.2267603E-21
  -1.920000      3.4213491E-21
  -1.860000     -1.5422569E-20
  -1.800000     -9.5514332E-20
  -1.740000     -2.9991705E-19
  -1.680000     -6.6281667E-19
  -1.620000     -1.0740690E-18
  -1.560000     -1.1273269E-18
  -1.500000     -4.6641038E-20
  -1.440000      3.1203567E-18
  -1.380000      8.8803158E-18
  -1.320000      1.6282983E-17
  -1.260000      2.1932219E-17
  -1.200000      1.9816103E-17
  -1.140000      2.8631500E-18
  -1.080000     -3.3340209E-17
  -1.020000     -8.5399371E-17
 -0.9600000     -1.3781415E-16
 -0.9000000     -1.6299190E-16
 -0.8400000     -1.2874631E-16
 -0.7800000     -1.3878110E-17
 -0.7200000      1.7234619E-16
 -0.6600000      3.7636215E-16
 -0.6000000      5.0448382E-16
 -0.5400000      4.5413322E-16
 -0.4800000      1.6980096E-16
 -0.4200000     -2.9585130E-16
 -0.3600000     -7.5097793E-16
 -0.3000000     -9.0157658E-16
 -0.2400000     -4.7446148E-16
 -0.1800000      5.9952357E-16
 -0.1200000      2.0207688E-15
 -5.9999999E-02  3.0870247E-15
  0.0000000E+00  2.8847083E-15
  5.9999999E-02  7.1303922E-16
  0.1200000     -3.3890392E-15
  0.1800000     -8.2725524E-15
  0.2400000     -1.1761271E-14
  0.3000000     -1.1361011E-14
  0.3600000     -5.4834584E-15
  0.4200000      5.2792091E-15
  0.4800000      1.7531842E-14
  0.5400000      2.5744404E-14
  0.6000000      2.4387691E-14
  0.6600000      1.0954732E-14
  0.7200000     -1.1456474E-14
  0.7800000     -3.3619896E-14
  0.8400000     -4.2844360E-14
  0.9000000     -2.8632438E-14
  0.9600000      1.0573993E-14
   1.020000      6.2799212E-14
   1.080000      1.0339899E-13
   1.140000      1.0302439E-13
   1.200000      4.1198378E-14
   1.260000     -7.9401743E-14
   1.320000     -2.2490232E-13
   1.380000     -3.3455912E-13
   1.440000     -3.3946562E-13
   1.500000     -1.9136378E-13
   1.560000      1.0869312E-13
   1.620000      4.9475436E-13
   1.680000      8.4371691E-13
   1.740000      1.0087129E-12
   1.800000      8.6983562E-13
   1.860000      3.8496756E-13
   1.920000     -3.7950049E-13
   1.980000     -1.2530471E-12
   2.040000     -2.0032840E-12
   2.100000     -2.4041457E-12
   2.160000     -2.3068041E-12
   2.220000     -1.6874010E-12
   2.280000     -6.5330277E-13
   2.340000      5.9501465E-13
   2.400000      1.8320493E-12
   2.460000      2.8787250E-12
   2.520000      3.6486794E-12
   2.580000      4.1504439E-12
   2.640000      4.4442991E-12
   2.700000      4.5717674E-12
   2.760000      4.4887453E-12
   2.820000      4.0345852E-12
   2.880000      2.9577235E-12
   2.940000      9.9731432E-13
   3.000000     -2.0026270E-12
   3.060000     -5.9860463E-12
   3.120000     -1.0626288E-11
   3.180000     -1.5343955E-11
   3.240000     -1.9403213E-11
   3.300000     -2.2058940E-11
   3.360000     -2.2704639E-11
   3.420000     -2.0963842E-11
   3.480000     -1.6679706E-11
   3.540000     -9.7871910E-12
   3.600000     -9.0984166E-14
   3.660000      1.2989503E-11
   3.720000      3.0622067E-11
   3.780000      5.4621911E-11
   3.840000      8.7306114E-11
   3.900000      1.3112962E-10
   3.960000      1.8815503E-10
   4.020000      2.5947069E-10
   4.080000      3.4470785E-10
   4.140000      4.4179954E-10
   4.200000      5.4706606E-10
   4.260000      6.5561900E-10
   4.320000      7.6197670E-10
   4.380000      8.6071866E-10
   4.440000      9.4700581E-10
   4.500000      1.0168598E-09
   4.560000      1.0672050E-09
   4.620000      1.0957845E-09
   4.680000      1.1011155E-09
   4.740000      1.0826198E-09
   4.800000      1.0409581E-09
   4.860000      9.7846242E-10
   4.920000      8.9945373E-10
   4.980000      8.1020979E-10
   5.040000      7.1843526E-10
   5.100000      6.3224626E-10
   5.160000      5.5886457E-10
   5.220000      5.0333965E-10
   5.280000      4.6764315E-10
   5.340000      4.5038415E-10
   5.400000      4.4722367E-10
   5.460000      4.5187817E-10
   5.520000      4.5745677E-10
   5.580000      4.5782031E-10
   5.640000      4.4868162E-10
   5.700000      4.2826398E-10
   5.760000      3.9745174E-10
   5.820000      3.5947570E-10
   5.880000      3.1924724E-10
   5.940000      2.8249494E-10
   6.000000      2.5486913E-10
   6.060000      2.4116750E-10
   6.120000      2.4480515E-10
   6.180000      2.6759744E-10
   6.240000      3.0985042E-10
   6.300000      3.7067679E-10
   6.360000      4.4839990E-10
   6.420000      5.4089372E-10
   6.480000      6.4575495E-10
   6.540000      7.6028994E-10
   6.600000      8.8140029E-10
   6.660000      1.0055164E-09
   6.720000      1.1287294E-09
   6.780000      1.2471942E-09
   6.840000      1.3577567E-09
   6.900000      1.4586345E-09
   6.960000      1.5499219E-09
   7.020000      1.6337177E-09
   7.080000      1.7138000E-09
   7.140000      1.7949354E-09
   7.200000      1.8820583E-09
   7.260000      1.9796174E-09
   7.320000      2.0913258E-09
   7.380000      2.2203988E-09
   7.440000      2.3701603E-09
   7.500000      2.5447517E-09
   7.560000      2.7496421E-09
   7.620000      2.9917160E-09
   7.680000      3.2789067E-09
   7.740000      3.6195069E-09
   7.800000      4.0214014E-09
   7.860000      4.4914397E-09
   7.920000      5.0350417E-09
   7.980000      5.6559899E-09
   8.040000      6.3562542E-09
   8.100000      7.1357222E-09
   8.160000      7.9917850E-09
   8.220000      8.9188923E-09
   8.280000      9.9082387E-09
   8.340000      1.0947731E-08
   8.400000      1.2022278E-08
   8.460000      1.3114332E-08
   8.520000      1.4204509E-08
   8.580000      1.5272159E-08
   8.640000      1.6295861E-08
   8.700000      1.7253852E-08
   8.760000      1.8124517E-08
   8.820000      1.8886956E-08
   8.880000      1.9521609E-08
   8.940000      2.0010877E-08
   9.000000      2.0339696E-08
   9.060000      2.0496099E-08
   9.120000      2.0471823E-08
   9.180000      2.0262966E-08
   9.240000      1.9870612E-08
   9.300000      1.9301064E-08
   9.360000      1.8565453E-08
   9.420000      1.7678456E-08
   9.480000      1.6656349E-08
   9.540000      1.5514894E-08
   9.600000      1.4267792E-08
   9.660000      1.2926257E-08
   9.720000      1.1499924E-08
   9.780000      9.9986295E-09
   9.840000      8.4343013E-09
   9.900000      6.8220216E-09
   9.960000      5.1797286E-09
   10.02000      3.5265744E-09
   10.08000      1.8804722E-09
   10.14000      2.5566876E-10
   10.20000     -1.3389382E-09
   10.26000     -2.9003593E-09
   10.32000     -4.4309849E-09
   10.38000     -5.9372853E-09
   10.44000     -7.4281115E-09
   10.50000     -8.9128926E-09
   10.56000     -1.0399900E-08
   10.62000     -1.1894721E-08
   10.68000     -1.3399096E-08
   10.74000     -1.4910361E-08
   10.80000     -1.6421609E-08
   10.86000     -1.7922620E-08
   10.92000     -1.9401259E-08
   10.98000     -2.0844990E-08
   11.04000     -2.2242014E-08
   11.10000     -2.3581794E-08
   11.16000     -2.4854886E-08
   11.22000     -2.6052316E-08
   11.28000     -2.7164782E-08
   11.34000     -2.8182004E-08
   11.40000     -2.9092476E-08
   11.46000     -2.9883648E-08
   11.52000     -3.0542626E-08
   11.58000     -3.1057198E-08
   11.64000     -3.1417073E-08
   11.70000     -3.1615070E-08
   11.76000     -3.1647943E-08
   11.82000     -3.1516706E-08
   11.88000     -3.1226257E-08
   11.94000     -3.0784594E-08
   12.00000     -3.0201882E-08
   12.06000     -2.9489689E-08
   12.12000     -2.8660796E-08
   12.18000     -2.7729376E-08
   12.24000     -2.6711376E-08
   12.30000     -2.5624566E-08
   12.36000     -2.4487942E-08
   12.42000     -2.3320354E-08
   12.48000     -2.2138600E-08
   12.54000     -2.0955513E-08
   12.60000     -1.9778621E-08
   12.66000     -1.8609823E-08
   12.72000     -1.7446224E-08
   12.78000     -1.6281973E-08
   12.84000     -1.5110663E-08
   12.90000     -1.3927823E-08
   12.96000     -1.2733025E-08
   13.02000     -1.1531252E-08
   13.08000     -1.0333329E-08
   13.14000     -9.1553112E-09
   13.20000     -8.0168849E-09
   13.26000     -6.9390267E-09
   13.32000     -5.9413074E-09
   13.38000     -5.0394120E-09
   13.44000     -4.2434087E-09
   13.50000     -3.5571381E-09
   13.56000     -2.9787104E-09
   13.62000     -2.5016929E-09
   13.68000     -2.1162925E-09
   13.74000     -1.8098263E-09
   13.80000     -1.5661006E-09
   13.86000     -1.3638769E-09
   13.92000     -1.1751460E-09
   13.98000     -9.6424402E-10
   14.04000     -6.8874756E-10
   14.10000     -3.0260264E-10
   14.16000      2.3875957E-10
   14.22000      9.7221864E-10
   14.28000      1.9209478E-09
   14.34000      3.0898399E-09
   14.40000      4.4632897E-09
   14.46000      6.0056982E-09
   14.52000      7.6645437E-09
   14.58000      9.3754462E-09
   14.64000      1.1068425E-08
   14.70000      1.2674477E-08
   14.76000      1.4131610E-08
   14.82000      1.5389611E-08
   14.88000      1.6413026E-08
   14.94000      1.7182133E-08
   15.00000      1.7692050E-08
   15.06000      1.7950470E-08
   15.12000      1.7974681E-08
   15.18000      1.7788558E-08
   15.24000      1.7419941E-08
   15.30000      1.6898580E-08
   15.36000      1.6254457E-08
   15.42000      1.5516287E-08
   15.48000      1.4709976E-08
   15.54000      1.3857197E-08
   15.60000      1.2974310E-08
   15.66000      1.2072065E-08
   15.72000      1.1156293E-08
   15.78000      1.0229510E-08
   15.84000      9.2930614E-09
   15.90000      8.3492173E-09
   15.96000      7.4027153E-09
   16.02000      6.4614860E-09
   16.08000      5.5366338E-09
   16.14000      4.6419677E-09
   16.20000      3.7933994E-09
   16.26000      3.0083469E-09
   16.32000      2.3050666E-09
   16.38000      1.7016557E-09
   16.44000      1.2145197E-09
   16.50000      8.5630181E-10
   16.56000      6.3355599E-10
   16.62000      5.4464461E-10
   16.68000      5.7836014E-10
   16.74000      7.1360634E-10
   16.80000      9.2020758E-10
   16.86000      1.1606722E-09
   16.92000      1.3926013E-09
   16.98000      1.5714083E-09
   17.04000      1.6530889E-09
   17.10000      1.5968394E-09
   17.16000      1.3674151E-09
   17.22000      9.3716335E-10
   17.28000      2.8777097E-10
   17.34000     -5.8815908E-10
   17.40000     -1.6855397E-09
   17.46000     -2.9851552E-09
   17.52000     -4.4520769E-09
   17.58000     -6.0345742E-09
   17.64000     -7.6642017E-09
   17.70000     -9.2578007E-09
   17.76000     -1.0721880E-08
   17.82000     -1.1959371E-08
   17.88000     -1.2878131E-08
   17.94000     -1.3400107E-08
   18.00000     -1.3469870E-08
   18.06000     -1.3061318E-08
   18.12000     -1.2181637E-08
   18.18000     -1.0871985E-08
   18.24000     -9.2047268E-09
   18.30000     -7.2773214E-09
   18.36000     -5.2033209E-09
   18.42000     -3.1013283E-09
   18.48000     -1.0832321E-09
   18.54000      7.5663931E-10
   18.60000      2.3497500E-09
   18.66000      3.6576799E-09
   18.72000      4.6720308E-09
   18.78000      5.4103708E-09
   18.84000      5.9094853E-09
   18.90000      6.2175762E-09
   18.96000      6.3868977E-09
   19.02000      6.4677597E-09
   19.08000      6.5041621E-09
   19.14000      6.5308479E-09
   19.20000      6.5714261E-09
   19.26000      6.6373822E-09
   19.32000      6.7280728E-09
   19.38000      6.8319062E-09
   19.44000      6.9287922E-09
   19.50000      6.9935995E-09
   19.56000      6.9999784E-09
   19.62000      6.9237456E-09
   19.68000      6.7451524E-09
   19.74000      6.4497470E-09
   19.80000      6.0280017E-09
   19.86000      5.4742495E-09
   19.92000      4.7855280E-09
   19.98000      3.9607841E-09
   20.04000      3.0005922E-09
   20.10000      1.9072695E-09
   20.16000      6.8515005E-10
   20.22000     -6.5922179E-10
   20.28000     -2.1171107E-09
   20.34000     -3.6778862E-09
   20.40000     -5.3296310E-09
   20.46000     -7.0601018E-09
   20.52000     -8.8580521E-09
   20.58000     -1.0714788E-08
   20.64000     -1.2625648E-08
   20.70000     -1.4590887E-08
   20.76000     -1.6615445E-08
   20.82000     -1.8707240E-08
   20.88000     -2.0874070E-08
   20.94000     -2.3119700E-08
   21.00000     -2.5440082E-08
   21.06000     -2.7820855E-08
   21.12000     -3.0236894E-08
   21.18000     -3.2654182E-08
   21.24000     -3.5033580E-08
   21.30000     -3.7335475E-08
   21.36000     -3.9524096E-08
   21.42000     -4.1570420E-08
   21.48000     -4.3453227E-08
   21.54000     -4.5158338E-08
   21.60000     -4.6676853E-08
   21.66000     -4.8003141E-08
   21.72000     -4.9133490E-08
   21.78000     -5.0065662E-08
   21.84000     -5.0799315E-08
   21.90000     -5.1336809E-08
   21.96000     -5.1683731E-08
   22.02000     -5.1848854E-08
   22.08000     -5.1843163E-08
   22.14000     -5.1678153E-08
   22.20000     -5.1363678E-08
   22.26000     -5.0905733E-08
   22.32000     -5.0304628E-08
   22.38000     -4.9554117E-08
   22.44000     -4.8641990E-08
   22.50000     -4.7552476E-08
   22.56000     -4.6270475E-08
   22.62000     -4.4786958E-08
   22.68000     -4.3104389E-08
   22.74000     -4.1240547E-08
   22.80000     -3.9229469E-08
   22.86000     -3.7118809E-08
   22.92000     -3.4964099E-08
   22.98000     -3.2821340E-08
   23.04000     -3.0739994E-08
   23.10000     -2.8758071E-08
   23.16000     -2.6900462E-08
   23.22000     -2.5180279E-08
   23.28000     -2.3602279E-08
   23.34000     -2.2166846E-08
   23.40000     -2.0873289E-08
   23.46000     -1.9721675E-08
   23.52000     -1.8713074E-08
   23.58000     -1.7848574E-08
   23.64000     -1.7127599E-08
   23.70000     -1.6546174E-08
   23.76000     -1.6095759E-08
   23.82000     -1.5763172E-08
   23.88000     -1.5531979E-08
   23.94000     -1.5385350E-08
   24.00000     -1.5309769E-08
   24.06000     -1.5298534E-08
   24.12000     -1.5353677E-08
   24.18000     -1.5485258E-08
   24.24000     -1.5707888E-08
   24.30000     -1.6035345E-08
   24.36000     -1.6475052E-08
   24.42000     -1.7024437E-08
   24.48000     -1.7670590E-08
   24.54000     -1.8393536E-08
   24.60000     -1.9172155E-08
   24.66000     -1.9990980E-08
   24.72000     -2.0845834E-08
   24.78000     -2.1746761E-08
   24.84000     -2.2717561E-08
   24.90000     -2.3792044E-08
   24.96000     -2.5007889E-08
   25.02000     -2.6399352E-08
   25.08000     -2.7990222E-08
   25.14000     -2.9788474E-08
   25.20000     -3.1783749E-08
   25.26000     -3.3948353E-08
   25.32000     -3.6241598E-08
   25.38000     -3.8616577E-08
   25.44000     -4.1027480E-08
   25.50000     -4.3435609E-08
   25.56000     -4.5812349E-08
   25.62000     -4.8138716E-08
   25.68000     -5.0401866E-08
   25.74000     -5.2590334E-08
   25.80000     -5.4689743E-08
   25.86000     -5.6680506E-08
   25.92000     -5.8538230E-08
   25.98000     -6.0236495E-08
   26.04000     -6.1750931E-08
   26.10000     -6.3063517E-08
   26.16000     -6.4165697E-08
   26.22000     -6.5059844E-08
   26.28000     -6.5758584E-08
   26.34000     -6.6282212E-08
   26.40000     -6.6654614E-08
   26.46000     -6.6898600E-08
   26.52000     -6.7031678E-08
   26.58000     -6.7063276E-08
   26.64000     -6.6994176E-08
   26.70000     -6.6818409E-08
   26.76000     -6.6526852E-08
   26.82000     -6.6111454E-08
   26.88000     -6.5568749E-08
   26.94000     -6.4901712E-08
   27.00000     -6.4119604E-08
   27.06000     -6.3236456E-08
   27.12000     -6.2269045E-08
   27.18000     -6.1235291E-08
   27.24000     -6.0153567E-08
   27.30000     -5.9042609E-08
   27.36000     -5.7921561E-08
   27.42000     -5.6809274E-08
   27.48000     -5.5722669E-08
   27.54000     -5.4674253E-08
   27.60000     -5.3669503E-08
   27.66000     -5.2704941E-08
   27.72000     -5.1767518E-08
   27.78000     -5.0835670E-08
   27.84000     -4.9881756E-08
   27.90000     -4.8875542E-08
   27.96000     -4.7788042E-08
   28.02000     -4.6595172E-08
   28.08000     -4.5280640E-08
   28.14000     -4.3837691E-08
   28.20000     -4.2269384E-08
   28.26000     -4.0587377E-08
   28.32000     -3.8809581E-08
   28.38000     -3.6957221E-08
   28.44000     -3.5052054E-08
   28.50000     -3.3114379E-08
   28.56000     -3.1162056E-08
   28.62000     -2.9210337E-08
   28.68000     -2.7271836E-08
   28.74000     -2.5356158E-08
   28.80000     -2.3468818E-08
   28.86000     -2.1609747E-08
   28.92000     -1.9772138E-08
   28.98000     -1.7942595E-08
   29.04000     -1.6103218E-08
   29.10000     -1.4235730E-08
   29.16000     -1.2326867E-08
   29.22000     -1.0373698E-08
   29.28000     -8.3872091E-09
   29.34000     -6.3927659E-09
   29.40000     -4.4267998E-09
   29.46000     -2.5301050E-09
   29.52000     -7.3919143E-10
   29.58000      9.2205610E-10
   29.64000      2.4479783E-09
   29.70000      3.8521168E-09
   29.76000      5.1629292E-09
   29.82000      6.4152195E-09
   29.88000      7.6397324E-09
   29.94000      8.8540970E-09
   30.00000      1.0058010E-08
   30.06000      1.1234154E-08
   30.12000      1.2354385E-08
   30.18000      1.3388839E-08
   30.24000      1.4314594E-08
   30.30000      1.5120683E-08
   30.36000      1.5807636E-08
   30.42000      1.6381781E-08
   30.48000      1.6846359E-08
   30.54000      1.7192807E-08
   30.60000      1.7395477E-08
   30.66000      1.7412075E-08
   30.72000      1.7190301E-08
   30.78000      1.6679243E-08
   30.84000      1.5842538E-08
   30.90000      1.4669609E-08
   30.96000      1.3181478E-08
   31.02000      1.1429061E-08
   31.08000      9.4836921E-09
   31.14000      7.4219888E-09
   31.20000      5.3088853E-09
   31.26000      3.1835448E-09
   31.32000      1.0522516E-09
   31.38000     -1.1095085E-09
   31.44000     -3.3463416E-09
   31.50000     -5.7068732E-09
   31.56000     -8.2273006E-09
   31.62000     -1.0919701E-08
   31.68000     -1.3768608E-08
   31.74000     -1.6736605E-08
   31.80000     -1.9776618E-08
   31.86000     -2.2846416E-08
   31.92000     -2.5920119E-08
   31.98000     -2.8992673E-08
   32.04000     -3.2075683E-08
   32.10000     -3.5186080E-08
   32.16000     -3.8331525E-08
   32.22000     -4.1497739E-08
   32.28000     -4.4642469E-08
   32.34000     -4.7698695E-08
   32.40000     -5.0586937E-08
   32.46000     -5.3233418E-08
   32.52000     -5.5589005E-08
   32.58000     -5.7643167E-08
   32.64000     -5.9428466E-08
   32.70000     -6.1013644E-08
   32.76000     -6.2486464E-08
   32.82000     -6.3930578E-08
   32.88000     -6.5402453E-08
   32.94000     -6.6914694E-08
   33.00000     -6.8430481E-08
   33.06000     -6.9870900E-08
   33.12000     -7.1133414E-08
   33.18000     -7.2116400E-08
   33.24000     -7.2742921E-08
   33.30000     -7.2976995E-08
   33.36000     -7.2827739E-08
   33.42000     -7.2340498E-08
   33.48000     -7.1578043E-08
   33.54000     -7.0598233E-08
   33.60000     -6.9435629E-08
   33.66000     -6.8093193E-08
   33.72000     -6.6547003E-08
   33.78000     -6.4762013E-08
   33.84000     -6.2713347E-08
   33.90000     -6.0405043E-08
   33.96000     -5.7879369E-08
   34.02000     -5.5212567E-08
   34.08000     -5.2497942E-08
   34.14000     -4.9821548E-08
   34.20000     -4.7238576E-08
   34.26000     -4.4758554E-08
   34.32000     -4.2344798E-08
   34.38000     -3.9928874E-08
   34.44000     -3.7436092E-08
   34.50000     -3.4814303E-08
   34.56000     -3.2057201E-08
   34.62000     -2.9214961E-08
   34.68000     -2.6388745E-08
   34.74000     -2.3710648E-08
   34.80000     -2.1314852E-08
   34.86000     -1.9308478E-08
   34.92000     -1.7750494E-08
   34.98000     -1.6644579E-08
   35.04000     -1.5947430E-08
   35.10000     -1.5589311E-08
   35.16000     -1.5499859E-08
   35.22000     -1.5630688E-08
   35.28000     -1.5967627E-08
   35.34000     -1.6528913E-08
   35.40000     -1.7350519E-08
   35.46000     -1.8463973E-08
   35.52000     -1.9874584E-08
   35.58000     -2.1547658E-08
   35.64000     -2.3407418E-08
   35.70000     -2.5349058E-08
   35.76000     -2.7259889E-08
   35.82000     -2.9042702E-08
   35.88000     -3.0634045E-08
   35.94000     -3.2011943E-08
   36.00000     -3.3191352E-08
   36.06000     -3.4209336E-08
   36.12000     -3.5105103E-08
   36.18000     -3.5900992E-08
   36.24000     -3.6589935E-08
   36.30000     -3.7132434E-08
   36.36000     -3.7463373E-08
   36.42000     -3.7506158E-08
   36.48000     -3.7190006E-08
   36.54000     -3.6465647E-08
   36.60000     -3.5315527E-08
   36.66000     -3.3756166E-08
   36.72000     -3.1832577E-08
   36.78000     -2.9606817E-08
   36.84000     -2.7143983E-08
   36.90000     -2.4499821E-08
   36.96000     -2.1713175E-08
   37.02000     -1.8805107E-08
   37.08000     -1.5784282E-08
   37.14000     -1.2656358E-08
   37.20000     -9.4338821E-09
   37.26000     -6.1432357E-09
   37.32000     -2.8263663E-09
   37.38000      4.6308293E-10
   37.44000      3.6676635E-09
   37.50000      6.7351471E-09
   37.56000      9.6255839E-09
   37.62000      1.2314196E-08
   37.68000      1.4789553E-08
   37.74000      1.7048249E-08
   37.80000      1.9088509E-08
   37.86000      2.0905450E-08
   37.92000      2.2489921E-08
   37.98000      2.3831392E-08
   38.04000      2.4923652E-08
   38.10000      2.5770902E-08
   38.16000      2.6391456E-08
   38.22000      2.6816993E-08
   38.28000      2.7086827E-08
   38.34000      2.7238377E-08
   38.40000      2.7296625E-08
   38.46000      2.7265864E-08
   38.52000      2.7126600E-08
   38.58000      2.6839041E-08
   38.64000      2.6352595E-08
   38.70000      2.5618904E-08
   38.76000      2.4604828E-08
   38.82000      2.3301590E-08
   38.88000      2.1727427E-08
   38.94000      1.9922879E-08
   39.00000      1.7940090E-08
   39.06000      1.5829205E-08
   39.12000      1.3625915E-08
   39.18000      1.1343883E-08
   39.24000      8.9743306E-09
   39.30000      6.4929382E-09
   39.36000      3.8720027E-09
   39.42000      1.0941856E-09
   39.48000     -1.8362988E-09
   39.54000     -4.8883964E-09
   39.60000     -8.0063716E-09
   39.66000     -1.1118734E-08
   39.72000     -1.4151298E-08
   39.78000     -1.7040689E-08
   39.84000     -1.9744656E-08
   39.90000     -2.2246610E-08
   39.96000     -2.4553557E-08
   40.02000     -2.6688312E-08
   40.08000     -2.8678269E-08
   40.14000     -3.0543703E-08
   40.20000     -3.2288497E-08
   40.26000     -3.3895471E-08
   40.32000     -3.5327457E-08
   40.38000     -3.6533851E-08
   40.44000     -3.7461280E-08
   40.50000     -3.8066037E-08
   40.56000     -3.8325492E-08
   40.62000     -3.8245869E-08
   40.68000     -3.7864446E-08
   40.74000     -3.7245560E-08
   40.80000     -3.6470965E-08
   40.86000     -3.5626652E-08
   40.92000     -3.4788851E-08
   40.98000     -3.4012228E-08
   41.04000     -3.3322895E-08
   41.10000     -3.2717622E-08
   41.16000     -3.2169339E-08
   41.22000     -3.1637509E-08
   41.28000     -3.1080695E-08
   41.34000     -3.0468222E-08
   41.40000     -2.9787973E-08
   41.46000     -2.9048428E-08
   41.52000     -2.8274714E-08
   41.58000     -2.7500063E-08
   41.64000     -2.6755586E-08
   41.70000     -2.6061597E-08
   41.76000     -2.5423363E-08
   41.82000     -2.4832586E-08
   41.88000     -2.4274035E-08
   41.94000     -2.3734904E-08
   42.00000     -2.3213428E-08
   42.06000     -2.2723412E-08
   42.12000     -2.2292525E-08
   42.18000     -2.1954365E-08
   42.24000     -2.1736497E-08
   42.30000     -2.1648296E-08
   42.36000     -2.1672886E-08
   42.42000     -2.1766438E-08
   42.48000     -2.1865986E-08
   42.54000     -2.1904144E-08
   42.60000     -2.1826908E-08
   42.66000     -2.1609425E-08
   42.72000     -2.1265167E-08
   42.78000     -2.0845688E-08
   42.84000     -2.0430933E-08
   42.90000     -2.0112752E-08
   42.96000     -1.9976067E-08
   43.02000     -2.0082636E-08
   43.08000     -2.0461366E-08
   43.14000     -2.1107137E-08
   43.20000     -2.1987731E-08
   43.26000     -2.3056376E-08
   43.32000     -2.4266232E-08
   43.38000     -2.5582786E-08
   43.44000     -2.6991129E-08
   43.50000     -2.8496496E-08
   43.56000     -3.0118400E-08
   43.62000     -3.1880443E-08
   43.68000     -3.3798994E-08
   43.74000     -3.5874280E-08
   43.80000     -3.8086522E-08
   43.86000     -4.0398341E-08
   43.92000     -4.2762625E-08
   43.98000     -4.5133394E-08
   44.04000     -4.7476188E-08
   44.10000     -4.9774894E-08
   44.16000     -5.2032888E-08
   44.22000     -5.4268572E-08
   44.28000     -5.6507009E-08
   44.34000     -5.8770937E-08
   44.40000     -6.1074481E-08
   44.46000     -6.3421979E-08
   44.52000     -6.5812671E-08
   44.58000     -6.8249918E-08
   44.64000     -7.0751717E-08
   44.70000     -7.3359139E-08
   44.76000     -7.6139344E-08
   44.82000     -7.9182101E-08
   44.88000     -8.2590866E-08
   44.94000     -8.6472021E-08
   45.00000     -9.0926740E-08
   45.06000     -9.6049689E-08
   45.12000     -1.0193664E-07
   45.18000     -1.0869974E-07
   45.24000     -1.1648669E-07
   45.30000     -1.2549786E-07
   45.36000     -1.3599660E-07
   45.42000     -1.4830985E-07
   45.48000     -1.6282024E-07
   45.54000     -1.7995372E-07
   45.60000     -2.0016891E-07
   45.66000     -2.2395369E-07
   45.72000     -2.5183238E-07
   45.78000     -2.8438325E-07
   45.84000     -3.2226353E-07
   45.90000     -3.6623695E-07
   45.96000     -4.1719883E-07
   46.02000     -4.7619557E-07
   46.08000     -5.4443694E-07
   46.14000     -6.2330315E-07
   46.20000     -7.1434920E-07
   46.26000     -8.1930932E-07
   46.32000     -9.4010613E-07
   46.38000     -1.0788646E-06
   46.44000     -1.2379317E-06
   46.50000     -1.4199017E-06
   46.56000     -1.6276424E-06
   46.62000     -1.8643215E-06
   46.68000     -2.1334281E-06
   46.74000     -2.4387928E-06
   46.80000     -2.7846020E-06
   46.86000     -3.1754128E-06
   46.92000     -3.6161653E-06
   46.98000     -4.1122021E-06
   47.04000     -4.6692894E-06
   47.10000     -5.2936448E-06
   47.16000     -5.9919594E-06
   47.22000     -6.7714232E-06
   47.28000     -7.6397337E-06
   47.34000     -8.6051032E-06
   47.40000     -9.6762460E-06
   47.46000     -1.0862366E-05
   47.52000     -1.2173138E-05
   47.58000     -1.3618687E-05
   47.64000     -1.5209569E-05
   47.70000     -1.6956757E-05
   47.76000     -1.8871622E-05
   47.82000     -2.0965907E-05
   47.88000     -2.3251692E-05
   47.94000     -2.5741349E-05
   48.00000     -2.8447481E-05
   48.06000     -3.1382842E-05
   48.12000     -3.4560260E-05
   48.18000     -3.7992537E-05
   48.24000     -4.1692358E-05
   48.30000     -4.5672186E-05
   48.36000     -4.9944167E-05
   48.42000     -5.4520020E-05
   48.48000     -5.9410944E-05
   48.54000     -6.4627478E-05
   48.60000     -7.0179412E-05
   48.66000     -7.6075616E-05
   48.72000     -8.2323932E-05
   48.78000     -8.8930996E-05
   48.84000     -9.5902142E-05
   48.90000     -1.0324124E-04
   48.96000     -1.1095063E-04
   49.02000     -1.1903095E-04
   49.08000     -1.2748112E-04
   49.14000     -1.3629820E-04
   49.20000     -1.4547732E-04
   49.26000     -1.5501167E-04
   49.32000     -1.6489239E-04
   49.38000     -1.7510851E-04
   49.44000     -1.8564700E-04
   49.50000     -1.9649274E-04
   49.56000     -2.0762847E-04
   49.62000     -2.1903492E-04
   49.68000     -2.3069084E-04
   49.74000     -2.4257311E-04
   49.80000     -2.5465683E-04
   49.86000     -2.6691548E-04
   49.92000     -2.7932107E-04
   49.98000     -2.9184439E-04
   50.04000     -3.0445505E-04
   50.10000     -3.1712191E-04
   50.16000     -3.2981325E-04
   50.22000     -3.4249690E-04
   50.28000     -3.5514068E-04
   50.34000     -3.6771246E-04
   50.40000     -3.8018063E-04
   50.46000     -3.9251416E-04
   50.52000     -4.0468315E-04
   50.58000     -4.1665882E-04
   50.64000     -4.2841403E-04
   50.70000     -4.3992358E-04
   50.76000     -4.5116423E-04
   50.82000     -4.6211510E-04
   50.88000     -4.7275770E-04
   50.94000     -4.8307618E-04
   51.00000     -4.9305742E-04
   51.06000     -5.0269114E-04
   51.12000     -5.1197008E-04
   51.18000     -5.2088994E-04
   51.24000     -5.2944967E-04
   51.30000     -5.3765101E-04
   51.36000     -5.4549892E-04
   51.42000     -5.5300095E-04
   51.48000     -5.6016759E-04
   51.54000     -5.6701194E-04
   51.60000     -5.7354919E-04
   51.66000     -5.7979667E-04
   51.72000     -5.8577355E-04
   51.78000     -5.9150055E-04
   51.84000     -5.9699948E-04
   51.90000     -6.0229318E-04
   51.96000     -6.0740480E-04
   52.02000     -6.1235798E-04
   52.08000     -6.1717595E-04
   52.14000     -6.2188157E-04
   52.20000     -6.2649680E-04
   52.26000     -6.3104258E-04
   52.32000     -6.3553813E-04
   52.38000     -6.4000097E-04
   52.44000     -6.4444670E-04
   52.50000     -6.4888858E-04
   52.56000     -6.5333722E-04
   52.62000     -6.5780093E-04
   52.68000     -6.6228496E-04
   52.74000     -6.6679192E-04
   52.80000     -6.7132170E-04
   52.86000     -6.7587104E-04
   52.92000     -6.8043399E-04
   52.98000     -6.8500178E-04
   53.04000     -6.8956340E-04
   53.10000     -6.9410546E-04
   53.16000     -6.9861230E-04
   53.22000     -7.0306635E-04
   53.28000     -7.0744858E-04
   53.34000     -7.1173866E-04
   53.40000     -7.1591517E-04
   53.46000     -7.1995612E-04
   53.52000     -7.2383980E-04
   53.58000     -7.2754431E-04
   53.64000     -7.3104841E-04
   53.70000     -7.3433167E-04
   53.76000     -7.3737465E-04
   53.82000     -7.4015930E-04
   53.88000     -7.4266933E-04
   53.94000     -7.4489060E-04
   54.00000     -7.4681145E-04
   54.06000     -7.4842287E-04
   54.12000     -7.4971857E-04
   54.18000     -7.5069512E-04
   54.24000     -7.5135182E-04
   54.30000     -7.5169059E-04
   54.36000     -7.5171643E-04
   54.42000     -7.5143692E-04
   54.48000     -7.5086259E-04
   54.54000     -7.5000664E-04
   54.60000     -7.4888446E-04
   54.66000     -7.4751349E-04
   54.72000     -7.4591313E-04
   54.78000     -7.4410380E-04
   54.84000     -7.4210734E-04
   54.90000     -7.3994644E-04
   54.96000     -7.3764438E-04
   55.02000     -7.3522469E-04
   55.08000     -7.3271058E-04
   55.14000     -7.3012494E-04
   55.20000     -7.2748918E-04
   55.26000     -7.2482362E-04
   55.32000     -7.2214653E-04
   55.38000     -7.1947457E-04
   55.44000     -7.1682222E-04
   55.50000     -7.1420177E-04
   55.56000     -7.1162306E-04