  -2.400000      0.0000000E+00
  -2.340000      0.0000000E+00
  -2.280000      0.0000000E+00
  -2.220000      0.0000000E+00
  -2.160000     -8.5251529E-19
  -2.100000     -6.4497158E-18
  -2.040000     -2.5086193E-17
  -1.980000     -6.4972827E-17
  -1.920000     -1.2182381E-16
  -1.860000     -1.6913347E-16
  -1.800000     -1.7574601E-16
  -1.740000     -1.6791383E-16
  -1.680000     -3.0454704E-16
  -1.620000     -8.5850776E-16
  -1.560000     -1.9584806E-15
  -1.500000     -3.0362718E-15
  -1.440000     -2.1871615E-15
  -1.380000      4.0018902E-15
  -1.320000      1.9414473E-14
  -1.260000      4.5694649E-14
  -1.200000      7.8303615E-14
  -1.140000      1.0309080E-13
  -1.080000      9.6179073E-14
  -1.020000      2.9855652E-14
 -0.9600000     -1.1476426E-13
 -0.9000000     -3.3111773E-13
 -0.8400000     -5.7339577E-13
 -0.7800000     -7.5453521E-13
 -0.7200000     -7.6327665E-13
 -0.6600000     -5.0116985E-13
 -0.6000000      6.9238255E-14
 -0.5400000      8.8288139E-13
 -0.4800000      1.7587816E-12
 -0.4200000      2.4306173E-12
 -0.3600000      2.6219491E-12
 -0.3000000      2.1466654E-12
 -0.2400000      9.9843625E-13
 -0.1800000     -6.1141375E-13
 -0.1200000     -2.2947610E-12
 -5.9999999E-02 -3.6041610E-12
  0.0000000E+00 -4.1899210E-12
  5.9999999E-02 -3.9345432E-12
  0.1200000     -3.0011156E-12
  0.1800000     -1.7609342E-12
  0.2400000     -6.1693516E-13
  0.3000000      2.0628529E-13
  0.3600000      8.0373224E-13
  0.4200000      1.5721416E-12
  0.4800000      3.0016532E-12
  0.5400000      5.3348094E-12
  0.6000000      8.2343394E-12
  0.6600000      1.0638658E-11
  0.7200000      1.0946543E-11
  0.7800000      7.5592839E-12
  0.8400000     -3.4755876E-13
  0.9000000     -1.2090668E-11
  0.9600000     -2.5111344E-11
   1.020000     -3.5237653E-11
   1.080000     -3.7653550E-11
   1.140000     -2.8393676E-11
   1.200000     -5.9423143E-12
   1.260000      2.7609163E-11
   1.320000      6.6332315E-11
   1.380000      1.0139546E-10
   1.440000      1.2302591E-10
   1.500000      1.2299453E-10
   1.560000      9.6887269E-11
   1.620000      4.5441893E-11
   1.680000     -2.5494249E-11
   1.740000     -1.0636553E-10
   1.800000     -1.8615509E-10
   1.860000     -2.5462549E-10
   1.920000     -3.0365796E-10
   1.980000     -3.2709174E-10
   2.040000     -3.1901667E-10
   2.100000     -2.7109198E-10
   2.160000     -1.6992767E-10
   2.220000      4.3184878E-12
   2.280000      2.7726868E-10
   2.340000      6.7734668E-10
   2.400000      1.2310198E-09
   2.460000      1.9574127E-09
   2.520000      2.8637117E-09
   2.580000      3.9425969E-09
   2.640000      5.1723545E-09
   2.700000      6.5195476E-09
   2.760000      7.9434308E-09
   2.820000      9.4008916E-09
   2.880000      1.0850766E-08
   2.940000      1.2256769E-08
   3.000000      1.3588921E-08
   3.060000      1.4823923E-08
   3.120000      1.5945202E-08
   3.180000      1.6943309E-08
   3.240000      1.7816843E-08
   3.300000      1.8573619E-08
   3.360000      1.9231273E-08
   3.420000      1.9816325E-08
   3.480000      2.0361101E-08
   3.540000      2.0898467E-08
   3.600000      2.1455142E-08
   3.660000      2.2045056E-08
   3.720000      2.2664466E-08
   3.780000      2.3290228E-08
   3.840000      2.3882015E-08
   3.900000      2.4388045E-08
   3.960000      2.4753078E-08
   4.020000      2.4926694E-08
   4.080000      2.4870031E-08
   4.140000      2.4559640E-08
   4.200000      2.3988299E-08
   4.260000      2.3163569E-08
   4.320000      2.2105610E-08
   4.380000      2.0845709E-08
   4.440000      1.9426283E-08
   4.500000      1.7901941E-08
   4.560000      1.6340199E-08
   4.620000      1.4819824E-08
   4.680000      1.3425257E-08
   4.740000      1.2236721E-08
   4.800000      1.1317414E-08
   4.860000      1.0700700E-08
   4.920000      1.0381034E-08
   4.980000      1.0311894E-08
   5.040000      1.0412435E-08
   5.100000      1.0582183E-08
   5.160000      1.0720703E-08
   5.220000      1.0747628E-08
   5.280000      1.0618122E-08
   5.340000      1.0330068E-08
   5.400000      9.9215391E-09
   5.460000      9.4597796E-09
   5.520000      9.0251095E-09
   5.580000      8.6942507E-09
   5.640000      8.5271825E-09
   5.700000      8.5601659E-09
   5.760000      8.8053040E-09
   5.820000      9.2550456E-09
   5.880000      9.8888249E-09
   5.940000      1.0678950E-08
   6.000000      1.1593951E-08
   6.060000      1.2599155E-08
   6.120000      1.3655807E-08
   6.180000      1.4720825E-08
   6.240000      1.5748984E-08
   6.300000      1.6698158E-08
   6.360000      1.7536484E-08
   6.420000      1.8248960E-08
   6.480000      1.8840385E-08
   6.540000      1.9332358E-08
   6.600000      1.9753838E-08
   6.660000      2.0127235E-08
   6.720000      2.0454152E-08
   6.780000      2.0705798E-08
   6.840000      2.0822373E-08
   6.900000      2.0723386E-08
   6.960000      2.0327208E-08
   7.020000      1.9574944E-08
   7.080000      1.8451329E-08
   7.140000      1.6995566E-08
   7.200000      1.5297344E-08
   7.260000      1.3477722E-08
   7.320000      1.1659375E-08
   7.380000      9.9345643E-09
   7.440000      8.3405363E-09
   7.500000      6.8502879E-09
   7.560000      5.3821765E-09
   7.620000      3.8260390E-09
   7.680000      2.0782343E-09
   7.740000      7.5066252E-11
   7.800000     -2.1855435E-09
   7.860000     -4.6406559E-09
   7.920000     -7.1780413E-09
   7.980000     -9.6660377E-09
   8.040000     -1.1988402E-08
   8.100000     -1.4073837E-08
   8.160000     -1.5911821E-08
   8.220000     -1.7550878E-08
   8.280000     -1.9080716E-08
   8.340000     -2.0604304E-08
   8.400000     -2.2208541E-08
   8.460000     -2.3942038E-08
   8.520000     -2.5806044E-08
   8.580000     -2.7760414E-08
   8.640000     -2.9742131E-08
   8.700000     -3.1690355E-08
   8.760000     -3.3570256E-08
   8.820000     -3.5388307E-08
   8.880000     -3.7194287E-08
   8.940000     -3.9068951E-08
   9.000000     -4.1100687E-08
   9.060000     -4.3357673E-08
   9.120000     -4.5863814E-08
   9.180000     -4.8585914E-08
   9.240000     -5.1436636E-08
   9.300000     -5.4293142E-08
   9.360000     -5.7026597E-08
   9.420000     -5.9534116E-08
   9.480000     -6.1763657E-08
   9.540000     -6.3724123E-08
   9.600000     -6.5477529E-08
   9.660000     -6.7115657E-08
   9.720000     -6.8728575E-08
   9.780000     -7.0375172E-08
   9.840000     -7.2065063E-08
   9.900000     -7.3757349E-08
   9.960000     -7.5375894E-08
   10.02000     -7.6835242E-08
   10.08000     -7.8067735E-08
   10.14000     -7.9042195E-08
   10.20000     -7.9768029E-08
   10.26000     -8.0283627E-08
   10.32000     -8.0633832E-08
   10.38000     -8.0844785E-08
   10.44000     -8.0905231E-08
   10.50000     -8.0761282E-08
   10.56000     -8.0326430E-08
   10.62000     -7.9504289E-08
   10.68000     -7.8217042E-08
   10.74000     -7.6430993E-08
   10.80000     -7.4171730E-08
   10.86000     -7.1524305E-08
   10.92000     -6.8618007E-08
   10.98000     -6.5599522E-08
   11.04000     -6.2601259E-08
   11.10000     -5.9712896E-08
   11.16000     -5.6963206E-08
   11.22000     -5.4316992E-08
   11.28000     -5.1687646E-08
   11.34000     -4.8962153E-08
   11.40000     -4.6031921E-08
   11.46000     -4.2821345E-08
   11.52000     -3.9306887E-08
   11.58000     -3.5522071E-08
   11.64000     -3.1548105E-08
   11.70000     -2.7493671E-08
   11.76000     -2.3470314E-08
   11.82000     -1.9570486E-08
   11.88000     -1.5853681E-08
   11.94000     -1.2343124E-08
   12.00000     -9.0320027E-09
   12.06000     -5.8955929E-09
   12.12000     -2.9045490E-09
   12.18000     -3.5241331E-11
   12.24000      2.7252358E-09
   12.30000      5.3795537E-09
   12.36000      7.9245561E-09
   12.42000      1.0357085E-08
   12.48000      1.2678808E-08
   12.54000      1.4898402E-08
   12.60000      1.7030612E-08
   12.66000      1.9092777E-08
   12.72000      2.1100172E-08
   12.78000      2.3061858E-08
   12.84000      2.4978538E-08
   12.90000      2.6843255E-08
   12.96000      2.8644884E-08
   13.02000      3.0373350E-08
   13.08000      3.2024801E-08
   13.14000      3.3604785E-08
   13.20000      3.5127972E-08
   13.26000      3.6614090E-08
   13.32000      3.8081129E-08
   13.38000      3.9538008E-08
   13.44000      4.0979373E-08
   13.50000      4.2384855E-08
   13.56000      4.3723666E-08
   13.62000      4.4963617E-08
   13.68000      4.6082114E-08
   13.74000      4.7075545E-08
   13.80000      4.7963812E-08
   13.86000      4.8787921E-08
   13.92000      4.9600782E-08
   13.98000      5.0453423E-08
   14.04000      5.1380518E-08
   14.10000      5.2389513E-08
   14.16000      5.3456596E-08
   14.22000      5.4530947E-08
   14.28000      5.5546128E-08
   14.34000      5.6435510E-08
   14.40000      5.7147549E-08
   14.46000      5.7657026E-08
   14.52000      5.7969650E-08
   14.58000      5.8119301E-08
   14.64000      5.8158989E-08
   14.70000      5.8147908E-08
   14.76000      5.8137513E-08
   14.82000      5.8159298E-08
   14.88000      5.8216759E-08
   14.94000      5.8283092E-08
   15.00000      5.8305648E-08
   15.06000      5.8216827E-08
   15.12000      5.7949837E-08
   15.18000      5.7456091E-08
   15.24000      5.6719909E-08
   15.30000      5.5765970E-08
   15.36000      5.4656304E-08
   15.42000      5.3476466E-08
   15.48000      5.2313847E-08
   15.54000      5.1234331E-08
   15.60000      5.0264504E-08
   15.66000      4.9385502E-08
   15.72000      4.8540951E-08
   15.78000      4.7656624E-08
   15.84000      4.6665345E-08
   15.90000      4.5528772E-08
   15.96000      4.4248694E-08
   16.02000      4.2864414E-08
   16.08000      4.1437673E-08
   16.14000      4.0031129E-08
   16.20000      3.8688295E-08
   16.26000      3.7422037E-08
   16.32000      3.6215184E-08
   16.38000      3.5032294E-08
   16.44000      3.3837672E-08
   16.50000      3.2612835E-08
   16.56000      3.1367279E-08
   16.62000      3.0139088E-08
   16.68000      2.8985596E-08
   16.74000      2.7967417E-08
   16.80000      2.7130969E-08
   16.86000      2.6494652E-08
   16.92000      2.6042189E-08
   16.98000      2.5724557E-08
   17.04000      2.5469632E-08
   17.10000      2.5197032E-08
   17.16000      2.4834907E-08
   17.22000      2.4335241E-08
   17.28000      2.3684681E-08
   17.34000      2.2908679E-08
   17.40000      2.2067807E-08
   17.46000      2.1246434E-08
   17.52000      2.0535564E-08
   17.58000      2.0013148E-08
   17.64000      1.9726180E-08
   17.70000      1.9679062E-08
   17.76000      1.9831608E-08
   17.82000      2.0107775E-08
   17.88000      2.0413372E-08
   17.94000      2.0658353E-08
   18.00000      2.0777669E-08
   18.06000      2.0744967E-08
   18.12000      2.0575284E-08
   18.18000      2.0316245E-08
   18.24000      2.0030706E-08
   18.30000      1.9776394E-08
   18.36000      1.9588871E-08
   18.42000      1.9472816E-08
   18.48000      1.9403732E-08
   18.54000      1.9338730E-08
   18.60000      1.9232107E-08
   18.66000      1.9050244E-08
   18.72000      1.8780913E-08
   18.78000      1.8434349E-08
   18.84000      1.8036395E-08
   18.90000      1.7616511E-08
   18.96000      1.7194921E-08
   19.02000      1.6773065E-08
   19.08000      1.6330098E-08
   19.14000      1.5826133E-08
   19.20000      1.5210871E-08
   19.26000      1.4434812E-08
   19.32000      1.3459803E-08
   19.38000      1.2265981E-08
   19.44000      1.0853349E-08
   19.50000      9.2376276E-09
   19.56000      7.4414999E-09
   19.62000      5.4835811E-09
   19.68000      3.3681047E-09
   19.74000      1.0783676E-09
   19.80000     -1.4237702E-09
   19.86000     -4.1914121E-09
   19.92000     -7.2800557E-09
   19.98000     -1.0731605E-08
   20.04000     -1.4558918E-08
   20.10000     -1.8735165E-08
   20.16000     -2.3191408E-08
   20.22000     -2.7823864E-08
   20.28000     -3.2509707E-08
   20.34000     -3.7127823E-08
   20.40000     -4.1579330E-08
   20.46000     -4.5802548E-08
   20.52000     -4.9778524E-08
   20.58000     -5.3525980E-08
   20.64000     -5.7087586E-08
   20.70000     -6.0512008E-08
   20.76000     -6.3837376E-08
   20.82000     -6.7080904E-08
   20.88000     -7.0237320E-08
   20.94000     -7.3285669E-08
   21.00000     -7.6201090E-08
   21.06000     -7.8966927E-08
   21.12000     -8.1582442E-08
   21.18000     -8.4063622E-08
   21.24000     -8.6436948E-08
   21.30000     -8.8728868E-08
   21.36000     -9.0955048E-08
   21.42000     -9.3113506E-08
   21.48000     -9.5184099E-08
   21.54000     -9.7134432E-08
   21.60000     -9.8930016E-08
   21.66000     -1.0054505E-07
   21.72000     -1.0197003E-07
   21.78000     -1.0321390E-07
   21.84000     -1.0430009E-07
   21.90000     -1.0525805E-07
   21.96000     -1.0611343E-07
   22.02000     -1.0687987E-07
   22.08000     -1.0755549E-07
   22.14000     -1.0812472E-07
   22.20000     -1.0856481E-07
   22.26000     -1.0885470E-07
   22.32000     -1.0898317E-07
   22.38000     -1.0895337E-07
   22.44000     -1.0878217E-07
   22.50000     -1.0849436E-07
   22.56000     -1.0811326E-07
   22.62000     -1.0765073E-07
   22.68000     -1.0709943E-07
   22.74000     -1.0642977E-07
   22.80000     -1.0559280E-07
   22.86000     -1.0452850E-07
   22.92000     -1.0317801E-07
   22.98000     -1.0149692E-07
   23.04000     -9.9467073E-08
   23.10000     -9.7103793E-08
   23.16000     -9.4456880E-08
   23.22000     -9.1604186E-08
   23.28000     -8.8638686E-08
   23.34000     -8.5651102E-08
   23.40000     -8.2711992E-08
   23.46000     -7.9857593E-08
   23.52000     -7.7083392E-08
   23.58000     -7.4347746E-08
   23.64000     -7.1585234E-08
   23.70000     -6.8726465E-08
   23.76000     -6.5719163E-08
   23.82000     -6.2544657E-08
   23.88000     -5.9225179E-08
   23.94000     -5.5819992E-08
   24.00000     -5.2411949E-08
   24.06000     -4.9088541E-08
   24.12000     -4.5923194E-08
   24.18000     -4.2962167E-08
   24.24000     -4.0220360E-08
   24.30000     -3.7686661E-08
   24.36000     -3.5336480E-08
   24.42000     -3.3147234E-08
   24.48000     -3.1111838E-08
   24.54000     -2.9246230E-08
   24.60000     -2.7588744E-08
   24.66000     -2.6191788E-08
   24.72000     -2.5108468E-08
   24.78000     -2.4378249E-08
   24.84000     -2.4015893E-08
   24.90000     -2.4006850E-08
   24.96000     -2.4310349E-08
   25.02000     -2.4869124E-08
   25.08000     -2.5622915E-08
   25.14000     -2.6521894E-08
   25.20000     -2.7536302E-08
   25.26000     -2.8659873E-08
   25.32000     -2.9906296E-08
   25.38000     -3.1299983E-08
   25.44000     -3.2863824E-08
   25.50000     -3.4607474E-08
   25.56000     -3.6519349E-08
   25.62000     -3.8564519E-08
   25.68000     -4.0688946E-08
   25.74000     -4.2828638E-08
   25.80000     -4.4920892E-08
   25.86000     -4.6914113E-08
   25.92000     -4.8773501E-08
   25.98000     -5.0481066E-08
   26.04000     -5.2030739E-08
   26.10000     -5.3420720E-08
   26.16000     -5.4646261E-08
   26.22000     -5.5695416E-08
   26.28000     -5.6549005E-08
   26.34000     -5.7184181E-08
   26.40000     -5.7579644E-08
   26.46000     -5.7720172E-08
   26.52000     -5.7598715E-08
   26.58000     -5.7215740E-08
   26.64000     -5.6576745E-08
   26.70000     -5.5689547E-08
   26.76000     -5.4562644E-08
   26.82000     -5.3205181E-08
   26.88000     -5.1627875E-08
   26.94000     -4.9843848E-08
   27.00000     -4.7868408E-08
   27.06000     -4.5717631E-08
   27.12000     -4.3406335E-08
   27.18000     -4.0946578E-08
   27.24000     -3.8347352E-08
   27.30000     -3.5615578E-08
   27.36000     -3.2757534E-08
   27.42000     -2.9779688E-08
   27.48000     -2.6688246E-08
   27.54000     -2.3487674E-08
   27.60000     -2.0179316E-08
   27.66000     -1.6761589E-08
   27.72000     -1.3232516E-08
   27.78000     -9.5943529E-09
   27.84000     -5.8587424E-09
   27.90000     -2.0503788E-09
   27.96000      1.7924314E-09
   28.02000      5.6206986E-09
   28.08000      9.3801509E-09
   28.14000      1.3017292E-08
   28.20000      1.6484419E-08
   28.26000      1.9742846E-08
   28.32000      2.2764731E-08
   28.38000      2.5534423E-08
   28.44000      2.8050003E-08
   28.50000      3.0324561E-08
   28.56000      3.2385692E-08
   28.62000      3.4271419E-08
   28.68000      3.6021785E-08
   28.74000      3.7667334E-08
   28.80000      3.9217831E-08
   28.86000      4.0655632E-08
   28.92000      4.1937341E-08
   28.98000      4.3004754E-08
   29.04000      4.3802675E-08
   29.10000      4.4298080E-08
   29.16000      4.4494193E-08
   29.22000      4.4434302E-08
   29.28000      4.4193538E-08
   29.34000      4.3860926E-08
   29.40000      4.3517396E-08
   29.46000      4.3216492E-08
   29.52000      4.2973323E-08
   29.58000      4.2764317E-08
   29.64000      4.2536602E-08
   29.70000      4.2223178E-08
   29.76000      4.1759023E-08
   29.82000      4.1093873E-08
   29.88000      4.0199524E-08
   29.94000      3.9071566E-08
   30.00000      3.7726881E-08
   30.06000      3.6198646E-08
   30.12000      3.4530181E-08
   30.18000      3.2768167E-08
   30.24000      3.0955448E-08
   30.30000      2.9124124E-08
   30.36000      2.7289941E-08
   30.42000      2.5449923E-08
   30.48000      2.3584507E-08
   30.54000      2.1664514E-08
   30.60000      1.9661339E-08
   30.66000      1.7557248E-08
   30.72000      1.5352230E-08
   30.78000      1.3064864E-08
   30.84000      1.0726962E-08
   30.90000      8.3741893E-09
   30.96000      6.0365637E-09
   31.02000      3.7326724E-09
   31.08000      1.4696540E-09
   31.14000     -7.5165546E-10
   31.20000     -2.9294405E-09
   31.26000     -5.0554334E-09
   31.32000     -7.1142630E-09
   31.38000     -9.0882679E-09
   31.44000     -1.0965730E-08
   31.50000     -1.2748783E-08
   31.56000     -1.4457288E-08
   31.62000     -1.6126716E-08
   31.68000     -1.7800705E-08
   31.74000     -1.9521126E-08
   31.80000     -2.1319471E-08
   31.86000     -2.3212433E-08
   31.92000     -2.5202667E-08
   31.98000     -2.7283376E-08
   32.04000     -2.9444003E-08
   32.10000     -3.1674332E-08
   32.16000     -3.3965499E-08
   32.22000     -3.6308371E-08
   32.28000     -3.8691184E-08
   32.34000     -4.1098719E-08
   32.40000     -4.3514575E-08
   32.46000     -4.5926107E-08
   32.52000     -4.8330229E-08
   32.58000     -5.0736944E-08
   32.64000     -5.3168126E-08
   32.70000     -5.5650617E-08
   32.76000     -5.8204918E-08
   32.82000     -6.0832960E-08
   32.88000     -6.3509191E-08
   32.94000     -6.6178615E-08
   33.00000     -6.8763342E-08
   33.06000     -7.1176338E-08
   33.12000     -7.3338491E-08
   33.18000     -7.5193988E-08
   33.24000     -7.6719303E-08
   33.30000     -7.7923247E-08
   33.36000     -7.8838589E-08
   33.42000     -7.9508020E-08
   33.48000     -7.9969297E-08
   33.54000     -8.0243908E-08
   33.60000     -8.0332150E-08
   33.66000     -8.0215401E-08
   33.72000     -7.9863945E-08
   33.78000     -7.9247478E-08
   33.84000     -7.8345288E-08
   33.90000     -7.7153494E-08
   33.96000     -7.5688035E-08
   34.02000     -7.3983117E-08
   34.08000     -7.2085790E-08
   34.14000     -7.0047626E-08
   34.20000     -6.7915344E-08
   34.26000     -6.5722162E-08
   34.32000     -6.3482005E-08
   34.38000     -6.1188423E-08
   34.44000     -5.8818895E-08
   34.50000     -5.6344113E-08
   34.56000     -5.3739683E-08
   34.62000     -5.0996938E-08
   34.68000     -4.8129152E-08
   34.74000     -4.5170882E-08
   34.80000     -4.2170349E-08
   34.86000     -3.9177440E-08
   34.92000     -3.6231576E-08
   34.98000     -3.3354045E-08
   35.04000     -3.0547689E-08
   35.10000     -2.7804102E-08
   35.16000     -2.5115453E-08
   35.22000     -2.2486022E-08
   35.28000     -1.9938522E-08
   35.34000     -1.7512116E-08
   35.40000     -1.5252283E-08
   35.46000     -1.3195921E-08
   35.52000     -1.1357166E-08
   35.58000     -9.7194084E-09
   35.64000     -8.2368565E-09
   35.70000     -6.8456472E-09
   35.76000     -5.4809965E-09
   35.82000     -4.0946881E-09
   35.88000     -2.6670499E-09
   35.94000     -1.2095680E-09
   36.00000      2.4238775E-10
   36.06000      1.6437816E-09
   36.12000      2.9558065E-09
   36.18000      4.1578363E-09
   36.24000      5.2514832E-09
   36.30000      6.2558514E-09
   36.36000      7.1963138E-09
   36.42000      8.0913676E-09
   36.48000      8.9425836E-09
   36.54000      9.7312407E-09
   36.60000      1.0422518E-08
   36.66000      1.0975219E-08
   36.72000      1.1353007E-08
   36.78000      1.1532811E-08
   36.84000      1.1507373E-08
   36.90000      1.1281462E-08
   36.96000      1.0863738E-08
   37.02000      1.0257939E-08
   37.08000      9.4570503E-09
   37.14000      8.4427052E-09
   37.20000      7.1897479E-09
   37.26000      5.6737925E-09
   37.32000      3.8785615E-09
   37.38000      1.8002073E-09
   37.44000     -5.5256888E-10
   37.50000     -3.1617258E-09
   37.56000     -6.0040599E-09
   37.62000     -9.0537240E-09
   37.68000     -1.2281506E-08
   37.74000     -1.5651233E-08
   37.80000     -1.9115404E-08
   37.86000     -2.2613058E-08
   37.92000     -2.6072268E-08
   37.98000     -2.9417803E-08
   38.04000     -3.2582239E-08
   38.10000     -3.5517054E-08
   38.16000     -3.8199786E-08
   38.22000     -4.0634600E-08
   38.28000     -4.2845901E-08
   38.34000     -4.4867264E-08
   38.40000     -4.6729564E-08
   38.46000     -4.8452542E-08
   38.52000     -5.0042296E-08
   38.58000     -5.1495032E-08
   38.64000     -5.2804676E-08
   38.70000     -5.3970780E-08
   38.76000     -5.5003291E-08
   38.82000     -5.5922349E-08
   38.88000     -5.6753603E-08
   38.94000     -5.7521437E-08
   39.00000     -5.8243121E-08
   39.06000     -5.8926165E-08
   39.12000     -5.9569462E-08
   39.18000     -6.0167046E-08
   39.24000     -6.0712154E-08
   39.30000     -6.1199614E-08
   39.36000     -6.1625833E-08
   39.42000     -6.1986782E-08
   39.48000     -6.2275760E-08
   39.54000     -6.2482215E-08
   39.60000     -6.2592171E-08
   39.66000     -6.2589457E-08
   39.72000     -6.2456415E-08
   39.78000     -6.2173179E-08
   39.84000     -6.1715568E-08
   39.90000     -6.1053463E-08
   39.96000     -6.0151507E-08
   40.02000     -5.8973718E-08
   40.08000     -5.7491455E-08
   40.14000     -5.5692059E-08
   40.20000     -5.3584433E-08
   40.26000     -5.1198217E-08
   40.32000     -4.8575700E-08
   40.38000     -4.5758707E-08
   40.44000     -4.2775461E-08
   40.50000     -3.9633019E-08
   40.56000     -3.6319157E-08
   40.62000     -3.2813990E-08
   40.68000     -2.9107460E-08
   40.74000     -2.5216256E-08
   40.80000     -2.1193401E-08
   40.86000     -1.7126483E-08
   40.92000     -1.3124629E-08
   40.98000     -9.2985477E-09
   41.04000     -5.7403939E-09
   41.10000     -2.5099249E-09
   41.16000      3.6935055E-10
   41.22000      2.9042821E-09
   41.28000      5.1202296E-09
   41.34000      7.0486825E-09
   41.40000      8.7190459E-09
   41.46000      1.0156663E-08
   41.52000      1.1386008E-08
   41.58000      1.2435627E-08
   41.64000      1.3340962E-08
   41.70000      1.4142582E-08
   41.76000      1.4879896E-08
   41.82000      1.5582868E-08
   41.88000      1.6265322E-08
   41.94000      1.6922959E-08
   42.00000      1.7537053E-08
   42.06000      1.8082494E-08
   42.12000      1.8536957E-08
   42.18000      1.8887750E-08
   42.24000      1.9134124E-08
   42.30000      1.9284808E-08
   42.36000      1.9352594E-08
   42.42000      1.9348633E-08
   42.48000      1.9278728E-08
   42.54000      1.9142529E-08
   42.60000      1.8934953E-08
   42.66000      1.8648212E-08
   42.72000      1.8272972E-08
   42.78000      1.7798097E-08
   42.84000      1.7209599E-08
   42.90000      1.6490036E-08
   42.96000      1.5619332E-08
   43.02000      1.4576995E-08
   43.08000      1.3344580E-08
   43.14000      1.1906863E-08
   43.20000      1.0250817E-08
   43.26000      8.3628233E-09
   43.32000      6.2260432E-09
   43.38000      3.8204377E-09
   43.44000      1.1270828E-09
   43.50000     -1.8635853E-09
   43.56000     -5.1423528E-09
   43.62000     -8.6748759E-09
   43.68000     -1.2402368E-08
   43.74000     -1.6251082E-08
   43.80000     -2.0148912E-08
   43.86000     -2.4044233E-08
   43.92000     -2.7920509E-08
   43.98000     -3.1800980E-08
   44.04000     -3.5740907E-08
   44.10000     -3.9808999E-08
   44.16000     -4.4063594E-08
   44.22000     -4.8530929E-08
   44.28000     -5.3192409E-08
   44.34000     -5.7984717E-08
   44.40000     -6.2812560E-08
   44.46000     -6.7570156E-08
   44.52000     -7.2165086E-08
   44.58000     -7.6538001E-08
   44.64000     -8.0673502E-08
   44.70000     -8.4600124E-08
   44.76000     -8.8380808E-08
   44.82000     -9.2097238E-08
   44.88000     -9.5832839E-08
   44.94000     -9.9659083E-08
   45.00000     -1.0362833E-07
   45.06000     -1.0777472E-07
   45.12000     -1.1212244E-07
   45.18000     -1.1669875E-07
   45.24000     -1.2154827E-07
   45.30000     -1.2674417E-07
   45.36000     -1.3239371E-07
   45.42000     -1.3863644E-07
   45.48000     -1.4563655E-07
   45.54000     -1.5357253E-07
   45.60000     -1.6262891E-07
   45.66000     -1.7299443E-07
   45.72000     -1.8486926E-07
   45.78000     -1.9848113E-07
   45.84000     -2.1410675E-07
   45.90000     -2.3209370E-07
   45.96000     -2.5287684E-07
   46.02000     -2.7698630E-07
   46.08000     -3.0504634E-07
   46.14000     -3.3776888E-07
   46.20000     -3.7594745E-07
   46.26000     -4.2045710E-07
   46.32000     -4.7226453E-07
   46.38000     -5.3244776E-07
   46.44000     -6.0222322E-07
   46.50000     -6.8297345E-07
   46.56000     -7.7627197E-07
   46.62000     -8.8390021E-07
   46.68000     -1.0078592E-06
   46.74000     -1.1503772E-06
   46.80000     -1.3139179E-06
   46.86000     -1.5011929E-06
   46.92000     -1.7151800E-06
   46.98000     -1.9591459E-06
   47.04000     -2.2366708E-06
   47.10000     -2.5516717E-06
   47.16000     -2.9084272E-06
   47.22000     -3.3115962E-06
   47.28000     -3.7662401E-06
   47.34000     -4.2778424E-06
   47.40000     -4.8523302E-06
   47.46000     -5.4960947E-06
   47.52000     -6.2160084E-06
   47.58000     -7.0194392E-06
   47.64000     -7.9142565E-06
   47.70000     -8.9088362E-06
   47.76000     -1.0012058E-05
   47.82000     -1.1233298E-05
   47.88000     -1.2582428E-05
   47.94000     -1.4069787E-05
   48.00000     -1.5706171E-05
   48.06000     -1.7502802E-05
   48.12000     -1.9471288E-05
   48.18000     -2.1623600E-05
   48.24000     -2.3972010E-05
   48.30000     -2.6529056E-05
   48.36000     -2.9307488E-05
   48.42000     -3.2320208E-05
   48.48000     -3.5580200E-05
   48.54000     -3.9100436E-05
   48.60000     -4.2893807E-05
   48.66000     -4.6972978E-05
   48.72000     -5.1350286E-05
   48.78000     -5.6037628E-05
   48.84000     -6.1046325E-05
   48.90000     -6.6387009E-05
   48.96000     -7.2069502E-05
   49.02000     -7.8102697E-05
   49.08000     -8.4494408E-05
   49.14000     -9.1251284E-05
   49.20000     -9.8378659E-05
   49.26000     -1.0588045E-04
   49.32000     -1.1375901E-04
   49.38000     -1.2201504E-04
   49.44000     -1.3064749E-04
   49.50000     -1.3965344E-04
   49.56000     -1.4902803E-04
   49.62000     -1.5876442E-04
   49.68000     -1.6885372E-04
   49.74000     -1.7928497E-04
   49.80000     -1.9004506E-04
   49.86000     -2.0111882E-04
   49.92000     -2.1248897E-04
   49.98000     -2.2413628E-04
   50.04000     -2.3603957E-04
   50.10000     -2.4817584E-04
   50.16000     -2.6052035E-04
   50.22000     -2.7304678E-04
   50.28000     -2.8572741E-04
   50.34000     -2.9853321E-04
   50.40000     -3.1143415E-04
   50.46000     -3.2439944E-04
   50.52000     -3.3739771E-04
   50.58000     -3.5039725E-04
   50.64000     -3.6336647E-04
   50.70000     -3.7627391E-04
   50.76000     -3.8908867E-04
   50.82000     -4.0178059E-04
   50.88000     -4.1432053E-04
   50.94000     -4.2668072E-04
   51.00000     -4.3883492E-04
   51.06000     -4.5075879E-04
   51.12000     -4.6243003E-04
   51.18000     -4.7382875E-04
   51.24000     -4.8493742E-04
   51.30000     -4.9574126E-04
   51.36000     -5.0622824E-04
   51.42000     -5.1638926E-04
   51.48000     -5.2621798E-04
   51.54000     -5.3571136E-04
   51.60000     -5.4486911E-04
   51.66000     -5.5369420E-04
   51.72000     -5.6219229E-04
   51.78000     -5.7037186E-04
   51.84000     -5.7824427E-04
   51.90000     -5.8582303E-04
   51.96000     -5.9312396E-04
   52.02000     -6.0016487E-04
   52.08000     -6.0696516E-04
   52.14000     -6.1354565E-04
   52.20000     -6.1992829E-04
   52.26000     -6.2613568E-04
   52.32000     -6.3219084E-04
   52.38000     -6.3811702E-04
   52.44000     -6.4393692E-04
   52.50000     -6.4967282E-04
   52.56000     -6.5534603E-04
   52.62000     -6.6097645E-04
   52.68000     -6.6658243E-04
   52.74000     -6.7218021E-04
   52.80000     -6.7778380E-04
   52.86000     -6.8340491E-04
   52.92000     -6.8905251E-04
   52.98000     -6.9473294E-04
   53.04000     -7.0044975E-04
   53.10000     -7.0620346E-04
   53.16000     -7.1199168E-04
   53.22000     -7.1780925E-04
   53.28000     -7.2364800E-04
   53.34000     -7.2949694E-04
   53.40000     -7.3534285E-04
   53.46000     -7.4116985E-04
   53.52000     -7.4696011E-04
   53.58000     -7.5269374E-04
   53.64000     -7.5834931E-04
   53.70000     -7.6390407E-04
   53.76000     -7.6933438E-04
   53.82000     -7.7461614E-04
   53.88000     -7.7972509E-04
   53.94000     -7.8463735E-04
   54.00000     -7.8932953E-04
   54.06000     -7.9377904E-04
   54.12000     -7.9796492E-04
   54.18000     -8.0186751E-04
   54.24000     -8.0546900E-04
   54.30000     -8.0875371E-04
   54.36000     -8.1170845E-04
   54.42000     -8.1432232E-04
   54.48000     -8.1658730E-04
   54.54000     -8.1849826E-04
   54.60000     -8.2005281E-04
   54.66000     -8.2125160E-04
   54.72000     -8.2209799E-04
   54.78000     -8.2259841E-04
   54.84000     -8.2276185E-04
   54.90000     -8.2259957E-04
   54.96000     -8.2212518E-04
   55.02000     -8.2135422E-04
   55.08000     -8.2030374E-04
   55.14000     -8.1899244E-04
   55.20000     -8.1743987E-04
   55.26000     -8.1566657E-04
   55.32000     -8.1369327E-04
   55.38000     -8.1154081E-04
   55.44000     -8.0922968E-04
   55.50000     -8.0677954E-04
   55.56000     -8.0420915E-04