  -2.400000      0.0000000E+00
  -2.340000      0.0000000E+00
  -2.280000      0.0000000E+00
  -2.220000      0.0000000E+00
  -2.160000     -2.3573856E-19
  -2.100000     -1.3465826E-18
  -2.040000     -3.7027450E-18
  -1.980000     -5.9825561E-18
  -1.920000     -4.9571644E-18
  -1.860000      9.3771934E-19
  -1.800000      4.4437954E-18
  -1.740000     -1.5587135E-17
  -1.680000     -8.7710639E-17
  -1.620000     -2.2369550E-16
  -1.560000     -3.8237010E-16
  -1.500000     -4.4221015E-16
  -1.440000     -2.1045893E-16
  -1.380000      5.1338831E-16
  -1.320000      1.8283534E-15
  -1.260000      3.6155563E-15
  -1.200000      5.4676519E-15
  -1.140000      6.7043678E-15
  -1.080000      6.4804483E-15
  -1.020000      3.9602305E-15
 -0.9600000     -1.4729724E-15
 -0.9000000     -9.9810788E-15
 -0.8400000     -2.0992322E-14
 -0.7800000     -3.2881216E-14
 -0.7200000     -4.2698514E-14
 -0.6600000     -4.6172616E-14
 -0.6000000     -3.8282457E-14
 -0.5400000     -1.4616387E-14
 -0.4800000      2.6573944E-14
 -0.4200000      8.2167447E-14
 -0.3600000      1.4274651E-13
 -0.3000000      1.9294797E-13
 -0.2400000      2.1417353E-13
 -0.1800000      1.8940101E-13
 -0.1200000      1.0889109E-13
 -5.9999999E-02 -2.5034398E-14
  0.0000000E+00 -1.9590369E-13
  5.9999999E-02 -3.7467317E-13
  0.1200000     -5.2474632E-13
  0.1800000     -6.0911373E-13
  0.2400000     -5.9776874E-13
  0.3000000     -4.7375564E-13
  0.3600000     -2.3690517E-13
  0.4200000      9.4944906E-14
  0.4800000      4.8703451E-13
  0.5400000      8.9084117E-13
  0.6000000      1.2491668E-12
  0.6600000      1.5028166E-12
  0.7200000      1.5979470E-12
  0.7800000      1.4925316E-12
  0.8400000      1.1603732E-12
  0.9000000      5.9225823E-13
  0.9600000     -2.0397918E-13
   1.020000     -1.2006114E-12
   1.080000     -2.3401999E-12
   1.140000     -3.5174914E-12
   1.200000     -4.5577062E-12
   1.260000     -5.2029670E-12
   1.320000     -5.1229702E-12
   1.380000     -3.9638900E-12
   1.440000     -1.4390143E-12
   1.500000      2.5520541E-12
   1.560000      7.8061628E-12
   1.620000      1.3741954E-11
   1.680000      1.9405267E-11
   1.740000      2.3574316E-11
   1.800000      2.4956757E-11
   1.860000      2.2442895E-11
   1.920000      1.5361533E-11
   1.980000      3.6834299E-12
   2.040000     -1.1868251E-11
   2.100000     -2.9817496E-11
   2.160000     -4.8038677E-11
   2.220000     -6.3941241E-11
   2.280000     -7.4707698E-11
   2.340000     -7.7557474E-11
   2.400000     -7.0010935E-11
   2.460000     -5.0127864E-11
   2.520000     -1.6692271E-11
   2.580000      3.0684642E-11
   2.640000      9.1564874E-11
   2.700000      1.6479361E-10
   2.760000      2.4870206E-10
   2.820000      3.4136333E-10
   2.880000      4.4084517E-10
   2.940000      5.4540017E-10
   3.000000      6.5354933E-10
   3.060000      7.6404677E-10
   3.120000      8.7575286E-10
   3.180000      9.8747932E-10
   3.240000      1.0978833E-09
   3.300000      1.2054727E-09
   3.360000      1.3087350E-09
   3.420000      1.4063417E-09
   3.480000      1.4973375E-09
   3.540000      1.5812200E-09
   3.600000      1.6578700E-09
   3.660000      1.7273706E-09
   3.720000      1.7898310E-09
   3.780000      1.8453284E-09
   3.840000      1.8940314E-09
   3.900000      1.9364370E-09
   3.960000      1.9735589E-09
   4.020000      2.0068707E-09
   4.080000      2.0378896E-09
   4.140000      2.0674544E-09
   4.200000      2.0949209E-09
   4.260000      2.1175950E-09
   4.320000      2.1306852E-09
   4.380000      2.1278885E-09
   4.440000      2.1025151E-09
   4.500000      2.0488653E-09
   4.560000      1.9635056E-09
   4.620000      1.8461239E-09
   4.680000      1.6997879E-09
   4.740000      1.5305950E-09
   4.800000      1.3468614E-09
   4.860000      1.1580992E-09
   4.920000      9.7407316E-10
   4.980000      8.0418955E-10
   5.040000      6.5736000E-10
   5.100000      5.4229887E-10
   5.160000      4.6802867E-10
   5.220000      4.4423823E-10
   5.280000      4.8116122E-10
   5.340000      5.8881872E-10
   5.400000      7.7576873E-10
   5.460000      1.0477743E-09
   5.520000      1.4069182E-09
   5.580000      1.8515621E-09
   5.640000      2.3772202E-09
   5.700000      2.9780343E-09
   5.760000      3.6482881E-09
   5.820000      4.3833968E-09
   5.880000      5.1800559E-09
   5.940000      6.0356045E-09
   6.000000      6.9469435E-09
   6.060000      7.9094660E-09
   6.120000      8.9163059E-09
   6.180000      9.9580122E-09
   6.240000      1.1022506E-08
   6.300000      1.2095196E-08
   6.360000      1.3159177E-08
   6.420000      1.4195606E-08
   6.480000      1.5184426E-08
   6.540000      1.6105524E-08
   6.600000      1.6940163E-08
   6.660000      1.7672392E-08
   6.720000      1.8289994E-08
   6.780000      1.8784730E-08
   6.840000      1.9151933E-08
   6.900000      1.9389748E-08
   6.960000      1.9498538E-08
   7.020000      1.9480707E-08
   7.080000      1.9340998E-08
   7.140000      1.9086883E-08
   7.200000      1.8728558E-08
   7.260000      1.8278158E-08
   7.320000      1.7748219E-08
   7.380000      1.7149837E-08
   7.440000      1.6491231E-08
   7.500000      1.5777374E-08
   7.560000      1.5010897E-08
   7.620000      1.4194012E-08
   7.680000      1.3330689E-08
   7.740000      1.2428274E-08
   7.800000      1.1497928E-08
   7.860000      1.0553774E-08
   7.920000      9.6110337E-09
   7.980000      8.6837435E-09
   8.040000      7.7825870E-09
   8.100000      6.9132420E-09
   8.160000      6.0754144E-09
   8.220000      5.2626756E-09
   8.280000      4.4631898E-09
   8.340000      3.6614112E-09
   8.400000      2.8406737E-09
   8.460000      1.9862638E-09
   8.520000      1.0882296E-09
   8.580000      1.4302932E-10
   8.640000     -8.4665575E-10
   8.700000     -1.8740234E-09
   8.760000     -2.9315173E-09
   8.820000     -4.0142809E-09
   8.880000     -5.1224824E-09
   8.940000     -6.2617729E-09
   9.000000     -7.4419360E-09
   9.060000     -8.6744611E-09
   9.120000     -9.9700435E-09
   9.180000     -1.1336772E-08
   9.240000     -1.2779190E-08
   9.300000     -1.4297935E-08
   9.360000     -1.5889462E-08
   9.420000     -1.7545633E-08
   9.480000     -1.9253365E-08
   9.540000     -2.0994877E-08
   9.600000     -2.2748882E-08
   9.660000     -2.4492799E-08
   9.720000     -2.6205356E-08
   9.780000     -2.7868783E-08
   9.840000     -2.9469897E-08
   9.900000     -3.0999903E-08
   9.960000     -3.2453329E-08
   10.02000     -3.3826829E-08
   10.08000     -3.5118330E-08
   10.14000     -3.6326650E-08
   10.20000     -3.7451127E-08
   10.26000     -3.8490704E-08
   10.32000     -3.9442234E-08
   10.38000     -4.0298300E-08
   10.44000     -4.1045318E-08
   10.50000     -4.1662847E-08
   10.56000     -4.2124640E-08
   10.62000     -4.2401172E-08
   10.68000     -4.2463167E-08
   10.74000     -4.2285105E-08
   10.80000     -4.1848327E-08
   10.86000     -4.1143430E-08
   10.92000     -4.0172260E-08
   10.98000     -3.8949544E-08
   11.04000     -3.7503849E-08
   11.10000     -3.5877296E-08
   11.16000     -3.4123207E-08
   11.22000     -3.2301408E-08
   11.28000     -3.0471689E-08
   11.34000     -2.8686699E-08
   11.40000     -2.6985976E-08
   11.46000     -2.5392570E-08
   11.52000     -2.3912841E-08
   11.58000     -2.2539119E-08
   11.64000     -2.1254143E-08
   11.70000     -2.0035982E-08
   11.76000     -1.8862460E-08
   11.82000     -1.7714704E-08
   11.88000     -1.6579746E-08
   11.94000     -1.5452347E-08
   12.00000     -1.4335881E-08
   12.06000     -1.3241997E-08
   12.12000     -1.2188659E-08
   12.18000     -1.1196619E-08
   12.24000     -1.0284855E-08
   12.30000     -9.4661035E-09
   12.36000     -8.7436876E-09
   12.42000     -8.1104758E-09
   12.48000     -7.5501019E-09
   12.54000     -7.0398176E-09
   12.60000     -6.5539516E-09
   12.66000     -6.0670406E-09
   12.72000     -5.5561835E-09
   12.78000     -5.0027364E-09
   12.84000     -4.3937782E-09
   12.90000     -3.7237047E-09
   12.96000     -2.9958829E-09
   13.02000     -2.2238431E-09
   13.08000     -1.4312461E-09
   13.14000     -6.5003380E-10
   13.20000      8.3354906E-11
   13.26000      7.3322065E-10
   13.32000      1.2703839E-09
   13.38000      1.6774450E-09
   13.44000      1.9526032E-09
   13.50000      2.1114182E-09
   13.56000      2.1862292E-09
   13.62000      2.2232451E-09
   13.68000      2.2775823E-09
   13.74000      2.4068016E-09
   13.80000      2.6637732E-09
   13.86000      3.0899125E-09
   13.92000      3.7098555E-09
   13.98000      4.5284465E-09
   14.04000      5.5304668E-09
   14.10000      6.6830341E-09
   14.16000      7.9401277E-09
   14.22000      9.2484322E-09
   14.28000      1.0553598E-08
   14.34000      1.1806076E-08
   14.40000      1.2965793E-08
   14.46000      1.4005115E-08
   14.52000      1.4909723E-08
   14.58000      1.5677378E-08
   14.64000      1.6314944E-08
   14.70000      1.6834404E-08
   14.76000      1.7248846E-08
   14.82000      1.7569329E-08
   14.88000      1.7803229E-08
   14.94000      1.7954093E-08
   15.00000      1.8022710E-08
   15.06000      1.8008761E-08
   15.12000      1.7912482E-08
   15.18000      1.7735992E-08
   15.24000      1.7484071E-08
   15.30000      1.7164311E-08
   15.36000      1.6786675E-08
   15.42000      1.6362433E-08
   15.48000      1.5902629E-08
   15.54000      1.5416461E-08
   15.60000      1.4910134E-08
   15.66000      1.4386738E-08
   15.72000      1.3847439E-08
   15.78000      1.3293730E-08
   15.84000      1.2729978E-08
   15.90000      1.2165177E-08
   15.96000      1.1613019E-08
   16.02000      1.1089927E-08
   16.08000      1.0611505E-08
   16.14000      1.0188443E-08
   16.20000      9.8232293E-09
   16.26000      9.5087911E-09
   16.32000      9.2295842E-09
   16.38000      8.9649337E-09
   16.44000      8.6937995E-09
   16.50000      8.3997485E-09
   16.56000      8.0748919E-09
   16.62000      7.7218072E-09
   16.68000      7.3529711E-09
   16.74000      6.9878956E-09
   16.80000      6.6487496E-09
   16.86000      6.3557053E-09
   16.92000      6.1233045E-09
   16.98000      5.9587988E-09
   17.04000      5.8627494E-09
   17.10000      5.8313736E-09
   17.16000      5.8595804E-09
   17.22000      5.9434471E-09
   17.28000      6.0812537E-09
   17.34000      6.2728098E-09
   17.40000      6.5175088E-09
   17.46000      6.8119812E-09
   17.52000      7.1482789E-09
   17.58000      7.5132771E-09
   17.64000      7.8895610E-09
   17.70000      8.2576701E-09
   17.76000      8.5993346E-09
   17.82000      8.9011545E-09
   17.88000      9.1580521E-09
   17.94000      9.3757473E-09
   18.00000      9.5714459E-09
   18.06000      9.7721635E-09
   18.12000      1.0010576E-08
   18.18000      1.0318984E-08
   18.24000      1.0722730E-08
   18.30000      1.1234764E-08
   18.36000      1.1852912E-08
   18.42000      1.2560636E-08
   18.48000      1.3331023E-08
   18.54000      1.4132693E-08
   18.60000      1.4935800E-08
   18.66000      1.5716495E-08
   18.72000      1.6458904E-08
   18.78000      1.7154694E-08
   18.84000      1.7801113E-08
   18.90000      1.8398628E-08
   18.96000      1.8949130E-08
   19.02000      1.9454998E-08
   19.08000      1.9918758E-08
   19.14000      2.0342691E-08
   19.20000      2.0727752E-08
   19.26000      2.1071539E-08
   19.32000      2.1365485E-08
   19.38000      2.1591756E-08
   19.44000      2.1720586E-08
   19.50000      2.1708844E-08
   19.56000      2.1500465E-08
   19.62000      2.1029420E-08
   19.68000      2.0225508E-08
   19.74000      1.9022881E-08
   19.80000      1.7370425E-08
   19.86000      1.5242360E-08
   19.92000      1.2646677E-08
   19.98000      9.6289927E-09
   20.04000      6.2700676E-09
   20.10000      2.6765963E-09
   20.16000     -1.0333226E-09
   20.22000     -4.7471396E-09
   20.28000     -8.3736014E-09
   20.34000     -1.1853984E-08
   20.40000     -1.5166792E-08
   20.46000     -1.8325636E-08
   20.52000     -2.1371633E-08
   20.58000     -2.4362670E-08
   20.64000     -2.7362063E-08
   20.70000     -3.0428676E-08
   20.76000     -3.3609677E-08
   20.82000     -3.6936189E-08
   20.88000     -4.0421558E-08
   20.94000     -4.4061334E-08
   21.00000     -4.7834359E-08
   21.06000     -5.1704131E-08
   21.12000     -5.5620198E-08
   21.18000     -5.9519714E-08
   21.24000     -6.3329580E-08
   21.30000     -6.6969967E-08
   21.36000     -7.0359789E-08
   21.42000     -7.3424253E-08
   21.48000     -7.6103724E-08
   21.54000     -7.8362419E-08
   21.60000     -8.0194781E-08
   21.66000     -8.1627675E-08
   21.72000     -8.2716987E-08
   21.78000     -8.3538879E-08
   21.84000     -8.4176953E-08
   21.90000     -8.4707906E-08
   21.96000     -8.5188624E-08
   22.02000     -8.5647372E-08
   22.08000     -8.6080831E-08
   22.14000     -8.6457341E-08
   22.20000     -8.6725279E-08
   22.26000     -8.6824642E-08
   22.32000     -8.6699025E-08
   22.38000     -8.6305604E-08
   22.44000     -8.5621224E-08
   22.50000     -8.4643737E-08
   22.56000     -8.3389104E-08
   22.62000     -8.1885631E-08
   22.68000     -8.0167212E-08
   22.74000     -7.8267625E-08
   22.80000     -7.6217027E-08
   22.86000     -7.4041317E-08
   22.92000     -7.1763750E-08
   22.98000     -6.9407733E-08
   23.04000     -6.6999363E-08
   23.10000     -6.4568653E-08
   23.16000     -6.2148608E-08
   23.22000     -5.9772333E-08
   23.28000     -5.7468824E-08
   23.34000     -5.5258489E-08
   23.40000     -5.3149645E-08
   23.46000     -5.1137032E-08
   23.52000     -4.9202942E-08
   23.58000     -4.7321130E-08
   23.64000     -4.5462869E-08
   23.70000     -4.3604182E-08
   23.76000     -4.1732704E-08
   23.82000     -3.9852623E-08
   23.88000     -3.7986325E-08
   23.94000     -3.6172171E-08
   24.00000     -3.4458605E-08
   24.06000     -3.2895837E-08
   24.12000     -3.1527136E-08
   24.18000     -3.0381777E-08
   24.24000     -2.9471391E-08
   24.30000     -2.8790369E-08
   24.36000     -2.8319883E-08
   24.42000     -2.8034036E-08
   24.48000     -2.7906243E-08
   24.54000     -2.7914121E-08
   24.60000     -2.8041818E-08
   24.66000     -2.8279585E-08
   24.72000     -2.8621214E-08
   24.78000     -2.9060406E-08
   24.84000     -2.9587264E-08
   24.90000     -3.0186012E-08
   24.96000     -3.0834713E-08
   25.02000     -3.1507358E-08
   25.08000     -3.2178232E-08
   25.14000     -3.2827696E-08
   25.20000     -3.3447964E-08
   25.26000     -3.4046924E-08
   25.32000     -3.4648295E-08
   25.38000     -3.5287080E-08
   25.44000     -3.6000685E-08
   25.50000     -3.6817720E-08
   25.56000     -3.7747501E-08
   25.62000     -3.8773575E-08
   25.68000     -3.9853592E-08
   25.74000     -4.0926039E-08
   25.80000     -4.1922156E-08
   25.86000     -4.2779853E-08
   25.92000     -4.3455856E-08
   25.98000     -4.3932872E-08
   26.04000     -4.4220247E-08
   26.10000     -4.4348589E-08
   26.16000     -4.4360252E-08
   26.22000     -4.4298709E-08
   26.28000     -4.4199506E-08
   26.34000     -4.4084917E-08
   26.40000     -4.3962956E-08
   26.46000     -4.3830205E-08
   26.52000     -4.3676955E-08
   26.58000     -4.3492623E-08
   26.64000     -4.3269605E-08
   26.70000     -4.3004416E-08
   26.76000     -4.2695948E-08
   26.82000     -4.2341696E-08
   26.88000     -4.1933578E-08
   26.94000     -4.1455287E-08
   27.00000     -4.0882497E-08
   27.06000     -4.0186514E-08
   27.12000     -3.9340573E-08
   27.18000     -3.8327087E-08
   27.24000     -3.7143632E-08
   27.30000     -3.5805748E-08
   27.36000     -3.4345515E-08
   27.42000     -3.2806142E-08
   27.48000     -3.1233935E-08
   27.54000     -2.9669785E-08
   27.60000     -2.8142283E-08
   27.66000     -2.6664043E-08
   27.72000     -2.5231758E-08
   27.78000     -2.3829605E-08
   27.84000     -2.2434765E-08
   27.90000     -2.1023514E-08
   27.96000     -1.9576497E-08
   28.02000     -1.8082202E-08
   28.08000     -1.6538310E-08
   28.14000     -1.4951130E-08
   28.20000     -1.3333796E-08
   28.26000     -1.1704053E-08
   28.32000     -1.0082338E-08
   28.38000     -8.4905789E-09
   28.44000     -6.9517077E-09
   28.50000     -5.4894871E-09
   28.56000     -4.1280792E-09
   28.62000     -2.8908267E-09
   28.68000     -1.7980786E-09
   28.74000     -8.6435542E-10
   28.80000     -9.5593866E-11
   28.86000      5.1260596E-10
   28.92000      9.7494701E-10
   28.98000      1.3143137E-09
   29.04000      1.5578812E-09
   29.10000      1.7323313E-09
   29.16000      1.8593450E-09
   29.22000      1.9524411E-09
   29.28000      2.0158117E-09
   29.34000      2.0452144E-09
   29.40000      2.0304349E-09
   29.46000      1.9584934E-09
   29.52000      1.8167521E-09
   29.58000      1.5952945E-09
   29.64000      1.2883188E-09
   29.70000      8.9462510E-10
   29.76000      4.1747972E-10
   29.82000     -1.3583716E-10
   29.88000     -7.5459927E-10
   29.94000     -1.4252727E-09
   30.00000     -2.1322837E-09
   30.06000     -2.8589993E-09
   30.12000     -3.5889374E-09
   30.18000     -4.3071298E-09
   30.24000     -5.0014868E-09
   30.30000     -5.6639857E-09
   30.36000     -6.2915242E-09
   30.42000     -6.8863009E-09
   30.48000     -7.4556512E-09
   30.54000     -8.0112583E-09
   30.60000     -8.5677563E-09
   30.66000     -9.1408232E-09
   30.72000     -9.7450092E-09
   30.78000     -1.0391681E-08
   30.84000     -1.1087539E-08
   30.90000     -1.1834110E-08
   30.96000     -1.2628427E-08
   31.02000     -1.3464773E-08
   31.08000     -1.4337066E-08
   31.14000     -1.5241175E-08
   31.20000     -1.6176449E-08
   31.26000     -1.7145894E-08
   31.32000     -1.8154937E-08
   31.38000     -1.9209168E-08
   31.44000     -2.0311923E-08
   31.50000     -2.1462716E-08
   31.56000     -2.2657284E-08
   31.62000     -2.3889346E-08
   31.68000     -2.5153515E-08
   31.74000     -2.6448102E-08
   31.80000     -2.7776474E-08
   31.86000     -2.9146067E-08
   31.92000     -3.0565090E-08
   31.98000     -3.2037967E-08
   32.04000     -3.3561260E-08
   32.10000     -3.5121779E-08
   32.16000     -3.6697912E-08
   32.22000     -3.8263863E-08
   32.28000     -3.9795484E-08
   32.34000     -4.1275495E-08
   32.40000     -4.2696289E-08
   32.46000     -4.4059238E-08
   32.52000     -4.5370768E-08
   32.58000     -4.6636647E-08
   32.64000     -4.7856549E-08
   32.70000     -4.9020894E-08
   32.76000     -5.0111005E-08
   32.82000     -5.1102788E-08
   32.88000     -5.1972521E-08
   32.94000     -5.2703040E-08
   33.00000     -5.3288069E-08
   33.06000     -5.3733178E-08
   33.12000     -5.4052894E-08
   33.18000     -5.4264795E-08
   33.24000     -5.4382504E-08
   33.30000     -5.4410009E-08
   33.36000     -5.4339392E-08
   33.42000     -5.4152832E-08
   33.48000     -5.3828309E-08
   33.54000     -5.3346934E-08
   33.60000     -5.2699342E-08
   33.66000     -5.1888794E-08
   33.72000     -5.0930002E-08
   33.78000     -4.9844108E-08
   33.84000     -4.8651788E-08
   33.90000     -4.7366914E-08
   33.96000     -4.5992955E-08
   34.02000     -4.4523233E-08
   34.08000     -4.2944759E-08
   34.14000     -4.1244313E-08
   34.20000     -3.9414658E-08
   34.26000     -3.7458939E-08
   34.32000     -3.5391853E-08
   34.38000     -3.3237313E-08
   34.44000     -3.1023287E-08
   34.50000     -2.8775547E-08
   34.56000     -2.6512573E-08
   34.62000     -2.4243459E-08
   34.68000     -2.1969990E-08
   34.74000     -1.9692495E-08
   34.80000     -1.7417630E-08
   34.86000     -1.5165302E-08
   34.92000     -1.2971805E-08
   34.98000     -1.0887412E-08
   35.04000     -8.9683816E-09
   35.10000     -7.2654345E-09
   35.16000     -5.8120975E-09
   35.22000     -4.6166333E-09
   35.28000     -3.6602021E-09
   35.34000     -2.9020242E-09
   35.40000     -2.2901472E-09
   35.46000     -1.7747701E-09
   35.52000     -1.3204491E-09
   35.58000     -9.1401281E-10
   35.64000     -5.6640925E-10
   35.70000     -3.0847311E-10
   35.76000     -1.8220449E-10
   35.82000     -2.3014175E-10
   35.88000     -4.8560894E-10
   35.94000     -9.6606845E-10
   36.00000     -1.6707473E-09
   36.06000     -2.5824802E-09
   36.12000     -3.6726799E-09
   36.18000     -4.9077324E-09
   36.24000     -6.2550480E-09
   36.30000     -7.6874214E-09
   36.36000     -9.1850252E-09
   36.42000     -1.0735105E-08
   36.48000     -1.2330004E-08
   36.54000     -1.3964420E-08
   36.60000     -1.5632796E-08
   36.66000     -1.7327501E-08
   36.72000     -1.9038159E-08
   36.78000     -2.0752140E-08
   36.84000     -2.2455980E-08
   36.90000     -2.4137321E-08
   36.96000     -2.5786857E-08
   37.02000     -2.7399791E-08
   37.08000     -2.8976389E-08
   37.14000     -3.0521353E-08
   37.20000     -3.2041960E-08
   37.26000     -3.3545202E-08
   37.32000     -3.5034351E-08
   37.38000     -3.6505703E-08
   37.44000     -3.7946229E-08
   37.50000     -3.9332988E-08
   37.56000     -4.0634617E-08
   37.62000     -4.1815099E-08
   37.68000     -4.2838995E-08
   37.74000     -4.3677197E-08
   37.80000     -4.4311690E-08
   37.86000     -4.4738194E-08
   37.92000     -4.4966050E-08
   37.98000     -4.5015483E-08
   38.04000     -4.4913349E-08
   38.10000     -4.4688591E-08
   38.16000     -4.4368800E-08
   38.22000     -4.3978567E-08
   38.28000     -4.3539497E-08
   38.34000     -4.3071182E-08
   38.40000     -4.2591999E-08
   38.46000     -4.2119048E-08
   38.52000     -4.1666855E-08
   38.58000     -4.1245396E-08
   38.64000     -4.0858261E-08
   38.70000     -4.0501952E-08
   38.76000     -4.0166906E-08
   38.82000     -3.9840131E-08
   38.88000     -3.9508844E-08
   38.94000     -3.9163975E-08
   39.00000     -3.8802529E-08
   39.06000     -3.8428006E-08
   39.12000     -3.8048899E-08
   39.18000     -3.7675640E-08
   39.24000     -3.7317022E-08
   39.30000     -3.6977024E-08
   39.36000     -3.6652835E-08
   39.42000     -3.6334377E-08
   39.48000     -3.6005115E-08
   39.54000     -3.5643655E-08
   39.60000     -3.5225550E-08
   39.66000     -3.4724859E-08
   39.72000     -3.4115402E-08
   39.78000     -3.3371791E-08
   39.84000     -3.2470645E-08
   39.90000     -3.1392094E-08
   39.96000     -3.0121555E-08
   40.02000     -2.8651517E-08
   40.08000     -2.6982724E-08
   40.14000     -2.5124386E-08
   40.20000     -2.3093051E-08
   40.26000     -2.0910246E-08
   40.32000     -1.8599309E-08
   40.38000     -1.6182124E-08
   40.44000     -1.3676573E-08
   40.50000     -1.1095340E-08
   40.56000     -8.4464054E-09
   40.62000     -5.7351275E-09
   40.68000     -2.9673506E-09
   40.74000     -1.5269802E-10
   40.80000      2.6928484E-09
   40.86000      5.5458242E-09
   40.92000      8.3759426E-09
   40.98000      1.1148401E-08
   41.04000      1.3827248E-08
   41.10000      1.6378955E-08
   41.16000      1.8775314E-08
   41.22000      2.0994984E-08
   41.28000      2.3023393E-08
   41.34000      2.4851170E-08
   41.40000      2.6471618E-08
   41.46000      2.7878094E-08
   41.52000      2.9062022E-08
   41.58000      3.0012213E-08
   41.64000      3.0715690E-08
   41.70000      3.1159814E-08
   41.76000      3.1335173E-08
   41.82000      3.1238368E-08
   41.88000      3.0873974E-08
   41.94000      3.0255059E-08
   42.00000      2.9402143E-08
   42.06000      2.8340738E-08
   42.12000      2.7098073E-08
   42.18000      2.5699775E-08
   42.24000      2.4167253E-08
   42.30000      2.2516494E-08
   42.36000      2.0758556E-08
   42.42000      1.8901753E-08
   42.48000      1.6954974E-08
   42.54000      1.4931283E-08
   42.60000      1.2850789E-08
   42.66000      1.0741792E-08
   42.72000      8.6396552E-09
   42.78000      6.5833898E-09
   42.84000      4.6105604E-09
   42.90000      2.7515519E-09
   42.96000      1.0244401E-09
   43.02000     -5.6842880E-10
   43.08000     -2.0414055E-09
   43.14000     -3.4238199E-09
   43.20000     -4.7558495E-09
   43.26000     -6.0826970E-09
   43.32000     -7.4480875E-09
   43.38000     -8.8882555E-09
   43.44000     -1.0427471E-08
   43.50000     -1.2075870E-08
   43.56000     -1.3829766E-08
   43.62000     -1.5674086E-08
   43.68000     -1.7586036E-08
   43.74000     -1.9538973E-08
   43.80000     -2.1505681E-08
   43.86000     -2.3460725E-08
   43.92000     -2.5382088E-08
   43.98000     -2.7252570E-08
   44.04000     -2.9061301E-08
   44.10000     -3.0805278E-08
   44.16000     -3.2490362E-08
   44.22000     -3.4130927E-08
   44.28000     -3.5747743E-08
   44.34000     -3.7364217E-08
   44.40000     -3.9002096E-08
   44.46000     -4.0677996E-08
   44.52000     -4.2402089E-08
   44.58000     -4.4179441E-08
   44.64000     -4.6013486E-08
   44.70000     -4.7910358E-08
   44.76000     -4.9882473E-08
   44.82000     -5.1950291E-08
   44.88000     -5.4142003E-08
   44.94000     -5.6491821E-08
   45.00000     -5.9037969E-08
   45.06000     -6.1821545E-08
   45.12000     -6.4886777E-08
   45.18000     -6.8282702E-08
   45.24000     -7.2065831E-08
   45.30000     -7.6303138E-08
   45.36000     -8.1075143E-08
   45.42000     -8.6478728E-08
   45.48000     -9.2630053E-08
   45.54000     -9.9667446E-08
   45.60000     -1.0775450E-07
   45.66000     -1.1708334E-07
   45.72000     -1.2787815E-07
   45.78000     -1.4039922E-07
   45.84000     -1.5494763E-07
   45.90000     -1.7187099E-07
   45.96000     -1.9157036E-07
   46.02000     -2.1450775E-07
   46.08000     -2.4121425E-07
   46.14000     -2.7229831E-07
   46.20000     -3.0845371E-07
   46.26000     -3.5046804E-07
   46.32000     -3.9923160E-07
   46.38000     -4.5574740E-07
   46.44000     -5.2114325E-07
   46.50000     -5.9668565E-07
   46.56000     -6.8379552E-07
   46.62000     -7.8406566E-07
   46.68000     -8.9927937E-07
   46.74000     -1.0314302E-06
   46.80000     -1.1827412E-06
   46.86000     -1.3556845E-06
   46.92000     -1.5529998E-06
   46.98000     -1.7777123E-06
   47.04000     -2.0331490E-06
   47.10000     -2.3229559E-06
   47.16000     -2.6511127E-06
   47.22000     -3.0219524E-06
   47.28000     -3.4401796E-06
   47.34000     -3.9108913E-06
   47.40000     -4.4395997E-06
   47.46000     -5.0322524E-06
   47.52000     -5.6952558E-06
   47.58000     -6.4354913E-06
   47.64000     -7.2603270E-06
   47.70000     -8.1776252E-06
   47.76000     -9.1957381E-06
   47.82000     -1.0323510E-05
   47.88000     -1.1570255E-05
   47.94000     -1.2945751E-05
   48.00000     -1.4460218E-05
   48.06000     -1.6124297E-05
   48.12000     -1.7949031E-05
   48.18000     -1.9945826E-05
   48.24000     -2.2126427E-05
   48.30000     -2.4502871E-05
   48.36000     -2.7087433E-05
   48.42000     -2.9892568E-05
   48.48000     -3.2930835E-05
   48.54000     -3.6214831E-05
   48.60000     -3.9757088E-05
   48.66000     -4.3569984E-05
   48.72000     -4.7665653E-05
   48.78000     -5.2055875E-05
   48.84000     -5.6751975E-05
   48.90000     -6.1764724E-05
   48.96000     -6.7104222E-05
   49.02000     -7.2779745E-05
   49.08000     -7.8799669E-05
   49.14000     -8.5171298E-05
   49.20000     -9.1900751E-05
   49.26000     -9.8992845E-05
   49.32000     -1.0645097E-04
   49.38000     -1.1427700E-04
   49.44000     -1.2247115E-04
   49.50000     -1.3103195E-04
   49.56000     -1.3995619E-04
   49.62000     -1.4923872E-04
   49.68000     -1.5887257E-04
   49.74000     -1.6884877E-04
   49.80000     -1.7915646E-04
   49.86000     -1.8978269E-04
   49.92000     -2.0071265E-04
   49.98000     -2.1192954E-04
   50.04000     -2.2341471E-04
   50.10000     -2.3514769E-04
   50.16000     -2.4710631E-04
   50.22000     -2.5926676E-04
   50.28000     -2.7160384E-04
   50.34000     -2.8409105E-04
   50.40000     -2.9670075E-04
   50.46000     -3.0940451E-04
   50.52000     -3.2217335E-04
   50.58000     -3.3497773E-04
   50.64000     -3.4778795E-04
   50.70000     -3.6057434E-04
   50.76000     -3.7330750E-04
   50.82000     -3.8595856E-04
   50.88000     -3.9849945E-04
   50.94000     -4.1090322E-04
   51.00000     -4.2314417E-04
   51.06000     -4.3519834E-04
   51.12000     -4.4704354E-04
   51.18000     -4.5865963E-04
   51.24000     -4.7002861E-04
   51.30000     -4.8113483E-04
   51.36000     -4.9196515E-04
   51.42000     -5.0250901E-04
   51.48000     -5.1275856E-04
   51.54000     -5.2270869E-04
   51.60000     -5.3235720E-04
   51.66000     -5.4170424E-04
   51.72000     -5.5075320E-04
   51.78000     -5.5950979E-04
   51.84000     -5.6798215E-04
   51.90000     -5.7618087E-04
   51.96000     -5.8411877E-04
   52.02000     -5.9181033E-04
   52.08000     -5.9927179E-04
   52.14000     -6.0652068E-04
   52.20000     -6.1357568E-04
   52.26000     -6.2045635E-04
   52.32000     -6.2718254E-04
   52.38000     -6.3377433E-04
   52.44000     -6.4025162E-04
   52.50000     -6.4663368E-04
   52.56000     -6.5293891E-04
   52.62000     -6.5918441E-04
   52.68000     -6.6538603E-04
   52.74000     -6.7155750E-04
   52.80000     -6.7771075E-04
   52.86000     -6.8385544E-04
   52.92000     -6.8999856E-04
   52.98000     -6.9614465E-04
   53.04000     -7.0229545E-04
   53.10000     -7.0844975E-04
   53.16000     -7.1460370E-04
   53.22000     -7.2075037E-04
   53.28000     -7.2688021E-04
   53.34000     -7.3298096E-04
   53.40000     -7.3903776E-04
   53.46000     -7.4503344E-04
   53.52000     -7.5094850E-04
   53.58000     -7.5676176E-04
   53.64000     -7.6245045E-04
   53.70000     -7.6799042E-04
   53.76000     -7.7335659E-04
   53.82000     -7.7852333E-04
   53.88000     -7.8346487E-04
   53.94000     -7.8815588E-04
   54.00000     -7.9257140E-04
   54.06000     -7.9668738E-04
   54.12000     -8.0048124E-04
   54.18000     -8.0393202E-04
   54.24000     -8.0702070E-04
   54.30000     -8.0973067E-04
   54.36000     -8.1204786E-04
   54.42000     -8.1396149E-04
   54.48000     -8.1546354E-04
   54.54000     -8.1654941E-04
   54.60000     -8.1721775E-04
   54.66000     -8.1747060E-04
   54.72000     -8.1731356E-04
   54.78000     -8.1675540E-04
   54.84000     -8.1580854E-04
   54.90000     -8.1448827E-04
   54.96000     -8.1281294E-04
   55.02000     -8.1080385E-04
   55.08000     -8.0848468E-04
   55.14000     -8.0588146E-04
   55.20000     -8.0302224E-04
   55.26000     -7.9993671E-04
   55.32000     -7.9665566E-04
   55.38000     -7.9321087E-04
   55.44000     -7.8963418E-04
   55.50000     -7.8595750E-04
   55.56000     -7.8221236E-04