  -2.400000      0.0000000E+00
  -2.340000      0.0000000E+00
  -2.280000      0.0000000E+00
  -2.220000      0.0000000E+00
  -2.160000      0.0000000E+00
  -2.100000      0.0000000E+00
  -2.040000      0.0000000E+00
  -1.980000      0.0000000E+00
  -1.920000      4.0071043E-25
  -1.860000      5.8060589E-24
  -1.800000      4.0462560E-23
  -1.740000      1.7764814E-22
  -1.680000      5.3246425E-22
  -1.620000      1.0573309E-21
  -1.560000      9.4802340E-22
  -1.500000     -2.1498769E-21
  -1.440000     -1.1919198E-20
  -1.380000     -2.9856664E-20
  -1.320000     -4.7027451E-20
  -1.260000     -3.4640486E-20
  -1.200000      5.4471595E-20
  -1.140000      2.5619787E-19
  -1.080000      5.3042135E-19
  -1.020000      6.8842308E-19
 -0.9600000      3.8634895E-19
 -0.9000000     -7.2122953E-19
 -0.8400000     -2.6331727E-18
 -0.7800000     -4.5868579E-18
 -0.7200000     -4.9092499E-18
 -0.6600000     -1.5541799E-18
 -0.6000000      6.4778226E-18
 -0.5400000      1.7250764E-17
 -0.4800000      2.4735245E-17
 -0.4200000      2.0007833E-17
 -0.3600000     -4.1505673E-18
 -0.3000000     -4.6122658E-17
 -0.2400000     -8.9350362E-17
 -0.1800000     -1.0275850E-16
 -0.1200000     -5.2342183E-17
 -5.9999999E-02  7.6421390E-17
  0.0000000E+00  2.5384712E-16
  5.9999999E-02  3.9500177E-16
  0.1200000      3.7929376E-16
  0.1800000      1.0724121E-16
  0.2400000     -4.2043388E-16
  0.3000000     -1.0403753E-15
  0.3600000     -1.4317681E-15
  0.4200000     -1.2248424E-15
  0.4800000     -2.0123846E-16
  0.5400000      1.4903925E-15
  0.6000000      3.2301549E-15
  0.6600000      4.0555480E-15
  0.7200000      3.0604285E-15
  0.7800000     -4.6066155E-17
  0.8400000     -4.4801229E-15
  0.9000000     -8.3421022E-15
  0.9600000     -9.2060208E-15
   1.020000     -5.2735445E-15
   1.080000      3.3302430E-15
   1.140000      1.3798749E-14
   1.200000      2.1071488E-14
   1.260000      1.9684466E-14
   1.320000      6.5819242E-15
   1.380000     -1.6270573E-14
   1.440000     -4.0945291E-14
   1.500000     -5.5385136E-14
   1.560000     -4.8029174E-14
   1.620000     -1.3806680E-14
   1.680000      4.1083412E-14
   1.740000      9.8380092E-14
   1.800000      1.3257087E-13
   1.860000      1.2062668E-13
   1.920000      5.3390208E-14
   1.980000     -5.6337151E-14
   2.040000     -1.7368238E-13
   2.100000     -2.5163435E-13
   2.160000     -2.4887541E-13
   2.220000     -1.4916433E-13
   2.280000      2.6246115E-14
   2.340000      2.2032892E-13
   2.400000      3.5831472E-13
   2.460000      3.7712371E-13
   2.520000      2.5499031E-13
   2.580000      2.7697652E-14
   2.640000     -2.1867332E-13
   2.700000     -3.7961762E-13
   2.760000     -3.7845185E-13
   2.820000     -2.0770169E-13
   2.880000      5.5407668E-14
   2.940000      2.7257569E-13
   3.000000      3.0444077E-13
   3.060000      8.5853965E-14
   3.120000     -3.1744049E-13
   3.180000     -7.0419777E-13
   3.240000     -8.0208203E-13
   3.300000     -3.8911612E-13
   3.360000      5.7059685E-13
   3.420000      1.8383114E-12
   3.480000      2.9153823E-12
   3.540000      3.1847133E-12
   3.600000      2.1504630E-12
   3.660000     -3.0407182E-13
   3.720000     -3.7482773E-12
   3.780000     -7.2195579E-12
   3.840000     -9.4574643E-12
   3.900000     -9.3061435E-12
   3.960000     -6.1549090E-12
   4.020000     -2.4962638E-13
   4.080000      7.2632651E-12
   4.140000      1.4605825E-11
   4.200000      1.9873362E-11
   4.260000      2.1595102E-11
   4.320000      1.9138467E-11
   4.380000      1.2804379E-11
   4.440000      3.5946270E-12
   4.500000     -7.2166036E-12
   4.560000     -1.8477905E-11
   4.620000     -2.9304979E-11
   4.680000     -3.8883882E-11
   4.740000     -4.6037202E-11
   4.800000     -4.8828164E-11
   4.860000     -4.4534192E-11
   4.920000     -3.0214112E-11
   4.980000     -3.8454890E-12
   5.040000      3.4284752E-11
   5.100000      8.0461658E-11
   5.160000      1.2723494E-10
   5.220000      1.6424609E-10
   5.280000      1.8012970E-10
   5.340000      1.6502305E-10
   5.400000      1.1295675E-10
   5.460000      2.3402329E-11
   5.520000     -9.8463807E-11
   5.580000     -2.4276381E-10
   5.640000     -3.9672340E-10
   5.700000     -5.4656224E-10
   5.760000     -6.7880973E-10
   5.820000     -7.8073165E-10
   5.880000     -8.4003698E-10
   5.940000     -8.4444035E-10
   6.000000     -7.8179269E-10
   6.060000     -6.4127320E-10
   6.120000     -4.1563647E-10
   6.180000     -1.0392989E-10
   6.240000      2.8630437E-10
   6.300000      7.3835132E-10
   6.360000      1.2277712E-09
   6.420000      1.7258659E-09
   6.480000      2.2043123E-09
   6.540000      2.6396405E-09
   6.600000      3.0162397E-09
   6.660000      3.3271053E-09
   6.720000      3.5723642E-09
   6.780000      3.7564694E-09
   6.840000      3.8854036E-09
   6.900000      3.9651447E-09
   6.960000      4.0019841E-09
   7.020000      4.0043453E-09
   7.080000      3.9849342E-09
   7.140000      3.9617216E-09
   7.200000      3.9566230E-09
   7.260000      3.9916950E-09
   7.320000      4.0837982E-09
   7.380000      4.2395509E-09
   7.440000      4.4525401E-09
   7.500000      4.7040847E-09
   7.560000      4.9675735E-09
   7.620000      5.2149938E-09
   7.680000      5.4233800E-09
   7.740000      5.5788885E-09
   7.800000      5.6771361E-09
   7.860000      5.7199663E-09
   7.920000      5.7102856E-09
   7.980000      5.6474123E-09
   8.040000      5.5251430E-09
   8.100000      5.3335225E-09
   8.160000      5.0636277E-09
   8.220000      4.7132667E-09
   8.280000      4.2909574E-09
   8.340000      3.8162118E-09
   8.400000      3.3156760E-09
   8.460000      2.8164702E-09
   8.520000      2.3393663E-09
   8.580000      1.8945883E-09
   8.640000      1.4820171E-09
   8.700000      1.0957568E-09
   8.760000      7.3118678E-10
   8.820000      3.9152304E-10
   8.880000      9.1048051E-11
   8.940000     -1.4651989E-10
   9.000000     -2.9407388E-10
   9.060000     -3.2931879E-10
   9.120000     -2.4194408E-10
   9.180000     -3.6957371E-11
   9.240000      2.6711211E-10
   9.300000      6.4438038E-10
   9.360000      1.0696347E-09
   9.420000      1.5249914E-09
   9.480000      2.0025739E-09
   9.540000      2.5023199E-09
   9.600000      3.0261218E-09
   9.660000      3.5711207E-09
   9.720000      4.1253787E-09
   9.780000      4.6681863E-09
   9.840000      5.1752691E-09
   9.900000      5.6270064E-09
   9.960000      6.0163239E-09
   10.02000      6.3529026E-09
   10.08000      6.6616832E-09
   10.14000      6.9759127E-09
   10.20000      7.3271837E-09
   10.26000      7.7361664E-09
   10.32000      8.2075111E-09
   10.38000      8.7307575E-09
   10.44000      9.2867296E-09
   10.50000      9.8567305E-09
   10.56000      1.0430746E-08
   10.62000      1.1011318E-08
   10.68000      1.1611467E-08
   10.74000      1.2247409E-08
   10.80000      1.2928911E-08
   10.86000      1.3651038E-08
   10.92000      1.4390532E-08
   10.98000      1.5108272E-08
   11.04000      1.5756967E-08
   11.10000      1.6291322E-08
   11.16000      1.6677170E-08
   11.22000      1.6896767E-08
   11.28000      1.6949173E-08
   11.34000      1.6846842E-08
   11.40000      1.6610924E-08
   11.46000      1.6268093E-08
   11.52000      1.5850604E-08
   11.58000      1.5399262E-08
   11.64000      1.4967190E-08
   11.70000      1.4621268E-08
   11.76000      1.4438729E-08
   11.82000      1.4498077E-08
   11.88000      1.4865877E-08
   11.94000      1.5582815E-08
   12.00000      1.6653095E-08
   12.06000      1.8040366E-08
   12.12000      1.9671464E-08
   12.18000      2.1446864E-08
   12.24000      2.3254946E-08
   12.30000      2.4986436E-08
   12.36000      2.6545795E-08
   12.42000      2.7857780E-08
   12.48000      2.8868918E-08
   12.54000      2.9545244E-08
   12.60000      2.9868332E-08
   12.66000      2.9831710E-08
   12.72000      2.9439176E-08
   12.78000      2.8705269E-08
   12.84000      2.7657206E-08
   12.90000      2.6336608E-08
   12.96000      2.4799322E-08
   13.02000      2.3112133E-08
   13.08000      2.1346370E-08
   13.14000      1.9569645E-08
   13.20000      1.7837857E-08
   13.26000      1.6189617E-08
   13.32000      1.4644494E-08
   13.38000      1.3205110E-08
   13.44000      1.1861884E-08
   13.50000      1.0598572E-08
   13.56000      9.3967989E-09
   13.62000      8.2386036E-09
   13.68000      7.1069293E-09
   13.74000      5.9848078E-09
   13.80000      4.8542765E-09
   13.86000      3.6959622E-09
   13.92000      2.4898308E-09
   13.98000      1.2171646E-09
   14.04000     -1.3658968E-10
   14.10000     -1.5787157E-09
   14.16000     -3.1065919E-09
   14.22000     -4.7061564E-09
   14.28000     -6.3518244E-09
   14.34000     -8.0077829E-09
   14.40000     -9.6302646E-09
   14.46000     -1.1170262E-08
   14.52000     -1.2576370E-08
   14.58000     -1.3797844E-08
   14.64000     -1.4788212E-08
   14.70000     -1.5509771E-08
   14.76000     -1.5938697E-08
   14.82000     -1.6069842E-08
   14.88000     -1.5919785E-08
   14.94000     -1.5526764E-08
   15.00000     -1.4946862E-08
   15.06000     -1.4246918E-08
   15.12000     -1.3495644E-08
   15.18000     -1.2754890E-08
   15.24000     -1.2072872E-08
   15.30000     -1.1480397E-08
   15.36000     -1.0990396E-08
   15.42000     -1.0600271E-08
   15.48000     -1.0296221E-08
   15.54000     -1.0058582E-08
   15.60000     -9.8671915E-09
   15.66000     -9.7058805E-09
   15.72000     -9.5653467E-09
   15.78000     -9.4438599E-09
   15.84000     -9.3456904E-09
   15.90000     -9.2775938E-09
   15.96000     -9.2442249E-09
   16.02000     -9.2437284E-09
   16.08000     -9.2648440E-09
   16.14000     -9.2866275E-09
   16.20000     -9.2812176E-09
   16.26000     -9.2192103E-09
   16.32000     -9.0762446E-09
   16.38000     -8.8388434E-09
   16.44000     -8.5076364E-09
   16.50000     -8.0968316E-09
   16.56000     -7.6301205E-09
   16.62000     -7.1344299E-09
   16.68000     -6.6337176E-09
   16.74000     -6.1448575E-09
   16.80000     -5.6767564E-09
   16.86000     -5.2325362E-09
   16.92000     -4.8135043E-09
   16.98000     -4.4231356E-09
   17.04000     -4.0695274E-09
   17.10000     -3.7655536E-09
   17.16000     -3.5268908E-09
   17.22000     -3.3687890E-09
   17.28000     -3.3027918E-09
   17.34000     -3.3344472E-09
   17.40000     -3.4625789E-09
   17.46000     -3.6800258E-09
   17.52000     -3.9752104E-09
   17.58000     -4.3336508E-09
   17.64000     -4.7387818E-09
   17.70000     -5.1720863E-09
   17.76000     -5.6132956E-09
   17.82000     -6.0418035E-09
   17.88000     -6.4400969E-09
   17.94000     -6.7989356E-09
   18.00000     -7.1226198E-09
   18.06000     -7.4317681E-09
   18.12000     -7.7612157E-09
   18.18000     -8.1521394E-09
   18.24000     -8.6397902E-09
   18.30000     -9.2403303E-09
   18.36000     -9.9412167E-09
   18.42000     -1.0698829E-08
   18.48000     -1.1444781E-08
   18.54000     -1.2099568E-08
   18.60000     -1.2589727E-08
   18.66000     -1.2863602E-08
   18.72000     -1.2901236E-08
   18.78000     -1.2715839E-08
   18.84000     -1.2346819E-08
   18.90000     -1.1846985E-08
   18.96000     -1.1268257E-08
   19.02000     -1.0650581E-08
   19.08000     -1.0017573E-08
   19.14000     -9.3798889E-09
   19.20000     -8.7443484E-09
   19.26000     -8.1245108E-09
   19.32000     -7.5476088E-09
   19.38000     -7.0542074E-09
   19.44000     -6.6899570E-09
   19.50000     -6.4922885E-09
   19.56000     -6.4773098E-09
   19.62000     -6.6323698E-09
   19.68000     -6.9175830E-09
   19.74000     -7.2760562E-09
   19.80000     -7.6490991E-09
   19.86000     -7.9908489E-09
   19.92000     -8.2771932E-09
   19.98000     -8.5063352E-09
   20.04000     -8.6916288E-09
   20.10000     -8.8501331E-09
   20.16000     -8.9915551E-09
   20.22000     -9.1116537E-09
   20.28000     -9.1921439E-09
   20.34000     -9.2065831E-09
   20.40000     -9.1296375E-09
   20.46000     -8.9461869E-09
   20.52000     -8.6571896E-09
   20.58000     -8.2807894E-09
   20.64000     -7.8491516E-09
   20.70000     -7.4030351E-09
   20.76000     -6.9866153E-09
   20.82000     -6.6441967E-09
   20.88000     -6.4188175E-09
   20.94000     -6.3510450E-09
   21.00000     -6.4756334E-09
   21.06000     -6.8145671E-09
   21.12000     -7.3671851E-09
   21.18000     -8.1004714E-09
   21.24000     -8.9439993E-09
   21.30000     -9.7933741E-09
   21.36000     -1.0523411E-08
   21.42000     -1.1008649E-08
   21.48000     -1.1145768E-08
   21.54000     -1.0871403E-08
   21.60000     -1.0170329E-08
   21.66000     -9.0723553E-09
   21.72000     -7.6401205E-09
   21.78000     -5.9525895E-09
   21.84000     -4.0896491E-09
   21.90000     -2.1215705E-09
   21.96000     -1.0439918E-10
   22.02000      1.9202075E-09
   22.08000      3.9234047E-09
   22.14000      5.8881797E-09
   22.20000      7.8097484E-09
   22.26000      9.6964081E-09
   22.32000      1.1568957E-08
   22.38000      1.3457141E-08
   22.44000      1.5392915E-08
   22.50000      1.7402028E-08
   22.56000      1.9496508E-08
   22.62000      2.1670642E-08
   22.68000      2.3901723E-08
   22.74000      2.6155059E-08
   22.80000      2.8391158E-08
   22.86000      3.0572338E-08
   22.92000      3.2666645E-08
   22.98000      3.4648441E-08
   23.04000      3.6496655E-08
   23.10000      3.8192706E-08
   23.16000      3.9719932E-08
   23.22000      4.1065476E-08
   23.28000      4.2223970E-08
   23.34000      4.3201290E-08
   23.40000      4.4016303E-08
   23.46000      4.4699277E-08
   23.52000      4.5286889E-08
   23.58000      4.5815334E-08
   23.64000      4.6313868E-08
   23.70000      4.6801123E-08
   23.76000      4.7285489E-08
   23.82000      4.7769280E-08
   23.88000      4.8254670E-08
   23.94000      4.8748646E-08
   24.00000      4.9264269E-08
   24.06000      4.9817285E-08
   24.12000      5.0419036E-08
   24.18000      5.1068710E-08
   24.24000      5.1748778E-08
   24.30000      5.2426493E-08
   24.36000      5.3062166E-08
   24.42000      5.3621743E-08
   24.48000      5.4089103E-08
   24.54000      5.4472864E-08
   24.60000      5.4804364E-08
   24.66000      5.5126677E-08
   24.72000      5.5478360E-08
   24.78000      5.5877798E-08
   24.84000      5.6314192E-08
   24.90000      5.6748373E-08
   24.96000      5.7122868E-08
   25.02000      5.7376653E-08
   25.08000      5.7458372E-08
   25.14000      5.7332553E-08
   25.20000      5.6976727E-08
   25.26000      5.6371697E-08
   25.32000      5.5490332E-08
   25.38000      5.4291299E-08
   25.44000      5.2721877E-08
   25.50000      5.0730119E-08
   25.56000      4.8282121E-08
   25.62000      4.5377490E-08
   25.68000      4.2056580E-08
   25.74000      3.8395783E-08
   25.80000      3.4492302E-08
   25.86000      3.0443818E-08
   25.92000      2.6330605E-08
   25.98000      2.2206457E-08
   26.04000      1.8100980E-08
   26.10000      1.4030967E-08
   26.16000      1.0014972E-08
   26.22000      6.0842131E-09
   26.28000      2.2851294E-09
   26.34000     -1.3269642E-09
   26.40000     -4.6995181E-09
   26.46000     -7.7938731E-09
   26.52000     -1.0590758E-08
   26.58000     -1.3088115E-08
   26.64000     -1.5293102E-08
   26.70000     -1.7212717E-08
   26.76000     -1.8847709E-08
   26.82000     -2.0192212E-08
   26.88000     -2.1238233E-08
   26.94000     -2.1981620E-08
   27.00000     -2.2425651E-08
   27.06000     -2.2580046E-08
   27.12000     -2.2456256E-08
   27.18000     -2.2062173E-08
   27.24000     -2.1400067E-08
   27.30000     -2.0470019E-08
   27.36000     -1.9278207E-08
   27.42000     -1.7846773E-08
   27.48000     -1.6220762E-08
   27.54000     -1.4468560E-08
   27.60000     -1.2674779E-08
   27.66000     -1.0927519E-08
   27.72000     -9.3040731E-09
   27.78000     -7.8595317E-09
   27.84000     -6.6215149E-09
   27.90000     -5.5918274E-09
   27.96000     -4.7534194E-09
   28.02000     -4.0794128E-09
   28.08000     -3.5407515E-09
   28.14000     -3.1101224E-09
   28.20000     -2.7616944E-09
   28.26000     -2.4681823E-09
   28.32000     -2.1978896E-09
   28.38000     -1.9143920E-09
   28.44000     -1.5802141E-09
   28.50000     -1.1638673E-09
   28.56000     -6.4771583E-10
   28.62000     -3.3258406E-11
   28.68000      6.5892353E-10
   28.74000      1.3951996E-09
   28.80000      2.1388560E-09
   28.86000      2.8598783E-09
   28.92000      3.5401437E-09
   28.98000      4.1714729E-09
   29.04000      4.7473514E-09
   29.10000      5.2524949E-09
   29.16000      5.6560339E-09
   29.22000      5.9129346E-09
   29.28000      5.9745533E-09
   29.34000      5.8046128E-09
   29.40000      5.3936451E-09
   29.46000      4.7648450E-09
   29.52000      3.9676804E-09
   29.58000      3.0611069E-09
   29.64000      2.0932420E-09
   29.70000      1.0863724E-09
   29.76000      3.4138973E-11
   29.82000     -1.0876230E-09
   29.88000     -2.3010203E-09
   29.94000     -3.6059788E-09
   30.00000     -4.9687925E-09
   30.06000     -6.3245023E-09
   30.12000     -7.5922744E-09
   30.18000     -8.6974952E-09
   30.24000     -9.5917212E-09
   30.30000     -1.0262854E-08
   30.36000     -1.0732307E-08
   30.42000     -1.1041341E-08
   30.48000     -1.1232864E-08
   30.54000     -1.1336308E-08
   30.60000     -1.1361196E-08
   30.66000     -1.1300910E-08
   30.72000     -1.1143869E-08
   30.78000     -1.0886453E-08
   30.84000     -1.0541940E-08
   30.90000     -1.0141931E-08
   30.96000     -9.7303676E-09
   31.02000     -9.3533599E-09
   31.08000     -9.0494607E-09
   31.14000     -8.8442471E-09
   31.20000     -8.7506509E-09
   31.26000     -8.7737675E-09
   31.32000     -8.9170218E-09
   31.38000     -9.1864187E-09
   31.44000     -9.5909360E-09
   31.50000     -1.0139209E-08
   31.56000     -1.0834430E-08
   31.62000     -1.1670177E-08
   31.68000     -1.2629338E-08
   31.74000     -1.3686887E-08
   31.80000     -1.4815571E-08
   31.86000     -1.5992198E-08
   31.92000     -1.7201984E-08
   31.98000     -1.8439074E-08
   32.04000     -1.9702986E-08
   32.10000     -2.0992427E-08
   32.16000     -2.2299179E-08
   32.22000     -2.3604686E-08
   32.28000     -2.4880826E-08
   32.34000     -2.6094369E-08
   32.40000     -2.7212886E-08
   32.46000     -2.8209396E-08
   32.52000     -2.9063841E-08
   32.58000     -2.9761486E-08
   32.64000     -3.0290078E-08
   32.70000     -3.0638429E-08
   32.76000     -3.0798017E-08
   32.82000     -3.0767406E-08
   32.88000     -3.0557050E-08
   32.94000     -3.0191469E-08
   33.00000     -2.9706639E-08
   33.06000     -2.9142610E-08
   33.12000     -2.8533938E-08
   33.18000     -2.7901661E-08
   33.24000     -2.7250271E-08
   33.30000     -2.6570959E-08
   33.36000     -2.5849920E-08
   33.42000     -2.5078219E-08
   33.48000     -2.4259064E-08
   33.54000     -2.3409340E-08
   33.60000     -2.2554467E-08
   33.66000     -2.1718488E-08
   33.72000     -2.0913312E-08
   33.78000     -2.0131708E-08
   33.84000     -1.9347471E-08
   33.90000     -1.8523387E-08
   33.96000     -1.7624414E-08
   34.02000     -1.6631120E-08
   34.08000     -1.5547895E-08
   34.14000     -1.4402436E-08
   34.20000     -1.3236599E-08
   34.26000     -1.2092434E-08
   34.32000     -1.0999358E-08
   34.38000     -9.9678585E-09
   34.44000     -8.9920338E-09
   34.50000     -8.0591489E-09
   34.56000     -7.1611419E-09
   34.62000     -6.3023222E-09
   34.68000     -5.4995635E-09
   34.74000     -4.7751616E-09
   34.80000     -4.1462251E-09
   34.86000     -3.6161467E-09
   34.92000     -3.1726166E-09
   34.98000     -2.7933003E-09
   35.04000     -2.4564577E-09
   35.10000     -2.1512481E-09
   35.16000     -1.8825173E-09
   35.22000     -1.6674555E-09
   35.28000     -1.5253956E-09
   35.34000     -1.4653705E-09
   35.40000     -1.4772790E-09
   35.46000     -1.5310238E-09
   35.52000     -1.5844595E-09
   35.58000     -1.5970268E-09
   35.64000     -1.5433420E-09
   35.70000     -1.4209646E-09
   35.76000     -1.2490944E-09
   35.82000     -1.0589213E-09
   35.88000     -8.7998675E-10
   35.94000     -7.2858791E-10
   36.00000     -6.0324035E-10
   36.06000     -4.8901022E-10
   36.12000     -3.6856998E-10
   36.18000     -2.3486732E-10
   36.24000     -9.9598378E-11
   36.30000      6.5293157E-12
   36.36000      4.2298779E-11
   36.42000     -2.9839804E-11
   36.48000     -2.2934754E-10
   36.54000     -5.4853799E-10
   36.60000     -9.5251607E-10
   36.66000     -1.3884411E-09
   36.72000     -1.8010399E-09
   36.78000     -2.1489810E-09
   36.84000     -2.4162679E-09
   36.90000     -2.6144094E-09
   36.96000     -2.7742975E-09
   37.02000     -2.9304603E-09
   37.08000     -3.1034180E-09
   37.14000     -3.2870016E-09
   37.20000     -3.4460805E-09
   37.26000     -3.5264005E-09
   37.32000     -3.4734657E-09
   37.38000     -3.2534770E-09
   37.44000     -2.8680802E-09
   37.50000     -2.3568725E-09
   37.56000     -1.7865371E-09
   37.62000     -1.2310455E-09
   37.68000     -7.5107376E-10
   37.74000     -3.8085562E-10
   37.80000     -1.2704791E-10
   37.86000      2.1447932E-11
   37.92000      7.8695064E-11
   37.98000      4.9838113E-11
   38.04000     -7.1982975E-11
   38.10000     -2.9878505E-10
   38.16000     -6.3494843E-10
   38.22000     -1.0654371E-09
   38.28000     -1.5514718E-09
   38.34000     -2.0364543E-09
   38.40000     -2.4600442E-09
   38.46000     -2.7745077E-09
   38.52000     -2.9564950E-09
   38.58000     -3.0095715E-09
   38.64000     -2.9570124E-09
   38.70000     -2.8285603E-09
   38.76000     -2.6471922E-09
   38.82000     -2.4214863E-09
   38.88000     -2.1463067E-09
   38.94000     -1.8106127E-09
   39.00000     -1.4080944E-09
   39.06000     -9.4530483E-10
   39.12000     -4.4341328E-10
   39.18000      6.7211361E-11
   39.24000      5.5708882E-10
   39.30000      1.0078900E-09
   39.36000      1.4184350E-09
   39.42000      1.8039477E-09
   39.48000      2.1889544E-09
   39.54000      2.5967211E-09
   39.60000      3.0392635E-09
   39.66000      3.5114720E-09
   39.72000      3.9911239E-09
   39.78000      4.4443902E-09
   39.84000      4.8346371E-09
   39.90000      5.1315094E-09
   39.96000      5.3174838E-09
   40.02000      5.3901270E-09
   40.08000      5.3597553E-09
   40.14000      5.2435793E-09
   40.20000      5.0584386E-09
   40.26000      4.8145736E-09
   40.32000      4.5125135E-09
   40.38000      4.1441250E-09
   40.44000      3.6974566E-09
   40.50000      3.1636378E-09
   40.56000      2.5432136E-09
   40.62000      1.8493093E-09
   40.68000      1.1060267E-09
   40.74000      3.4224376E-10
   40.80000     -4.1709344E-10
   40.86000     -1.1587892E-09
   40.92000     -1.8849127E-09
   40.98000     -2.6100433E-09
   41.04000     -3.3527978E-09
   41.10000     -4.1247787E-09
   41.16000     -4.9215476E-09
   41.22000     -5.7198091E-09
   41.28000     -6.4826260E-09
   41.34000     -7.1711370E-09
   41.40000     -7.7583353E-09
   41.46000     -8.2394163E-09
   41.52000     -8.6344691E-09
   41.58000     -8.9824983E-09
   41.64000     -9.3292725E-09
   41.70000     -9.7139417E-09
   41.76000     -1.0159484E-08
   41.82000     -1.0670064E-08
   41.88000     -1.1235215E-08
   41.94000     -1.1838051E-08
   42.00000     -1.2463476E-08
   42.06000     -1.3103172E-08
   42.12000     -1.3756177E-08
   42.18000     -1.4426134E-08
   42.24000     -1.5117662E-08
   42.30000     -1.5834138E-08
   42.36000     -1.6577999E-08
   42.42000     -1.7353003E-08
   42.48000     -1.8166755E-08
   42.54000     -1.9031770E-08
   42.60000     -1.9964064E-08
   42.66000     -2.0979734E-08
   42.72000     -2.2090797E-08
   42.78000     -2.3301997E-08
   42.84000     -2.4609649E-08
   42.90000     -2.6002720E-08
   42.96000     -2.7465362E-08
   43.02000     -2.8979777E-08
   43.08000     -3.0528405E-08
   43.14000     -3.2095020E-08
   43.20000     -3.3664925E-08
   43.26000     -3.5224740E-08
   43.32000     -3.6762298E-08
   43.38000     -3.8266979E-08
   43.44000     -3.9730431E-08
   43.50000     -4.1147587E-08
   43.56000     -4.2517815E-08
   43.62000     -4.3845915E-08
   43.68000     -4.5142549E-08
   43.74000     -4.6423484E-08
   43.80000     -4.7707019E-08
   43.86000     -4.9009380E-08
   43.92000     -5.0338883E-08
   43.98000     -5.1690645E-08
   44.04000     -5.3044261E-08
   44.10000     -5.4366481E-08
   44.16000     -5.5619093E-08
   44.22000     -5.6769924E-08
   44.28000     -5.7802847E-08
   44.34000     -5.8722268E-08
   44.40000     -5.9549425E-08
   44.46000     -6.0311159E-08
   44.52000     -6.1025425E-08
   44.58000     -6.1689654E-08
   44.64000     -6.2277181E-08
   44.70000     -6.2743382E-08
   44.76000     -6.3038790E-08
   44.82000     -6.3123338E-08
   44.88000     -6.2975559E-08
   44.94000     -6.2593500E-08
   45.00000     -6.1988572E-08
   45.06000     -6.1176600E-08
   45.12000     -6.0171821E-08
   45.18000     -5.8986785E-08
   45.24000     -5.7637553E-08
   45.30000     -5.6150071E-08
   45.36000     -5.4562761E-08
   45.42000     -5.2922410E-08
   45.48000     -5.1274146E-08
   45.54000     -4.9649657E-08
   45.60000     -4.8058997E-08
   45.66000     -4.6489731E-08
   45.72000     -4.4913804E-08
   45.78000     -4.3299128E-08
   45.84000     -4.1621192E-08
   45.90000     -3.9870500E-08
   45.96000     -3.8054022E-08
   46.02000     -3.6191377E-08
   46.08000     -3.4308517E-08
   46.14000     -3.2431814E-08
   46.20000     -3.0584740E-08
   46.26000     -2.8787586E-08
   46.32000     -2.7059441E-08
   46.38000     -2.5420777E-08
   46.44000     -2.3894886E-08
   46.50000     -2.2507040E-08
   46.56000     -2.1281110E-08
   46.62000     -2.0234499E-08
   46.68000     -1.9373108E-08
   46.74000     -1.8688231E-08
   46.80000     -1.8156806E-08
   46.86000     -1.7745036E-08
   46.92000     -1.7414084E-08
   46.98000     -1.7125625E-08
   47.04000     -1.6845130E-08
   47.10000     -1.6541980E-08
   47.16000     -1.6186879E-08
   47.22000     -1.5748130E-08
   47.28000     -1.5188508E-08
   47.34000     -1.4463758E-08
   47.40000     -1.3522693E-08
   47.46000     -1.2308061E-08
   47.52000     -1.0757033E-08
   47.58000     -8.8002974E-09
   47.64000     -6.3590213E-09
   47.70000     -3.3393881E-09
   47.76000      3.7504813E-10
   47.82000      4.9321622E-09
   47.88000      1.0519435E-08
   47.94000      1.7369537E-08
   48.00000      2.5762208E-08
   48.06000      3.6023327E-08
   48.12000      4.8524097E-08
   48.18000      6.3684723E-08
   48.24000      8.1986045E-08
   48.30000      1.0398998E-07
   48.36000      1.3036637E-07
   48.42000      1.6192126E-07
   48.48000      1.9962168E-07
   48.54000      2.4461451E-07
   48.60000      2.9824056E-07
   48.66000      3.6204872E-07
   48.72000      4.3781469E-07
   48.78000      5.2756928E-07
   48.84000      6.3363655E-07
   48.90000      7.5868013E-07
   48.96000      9.0575423E-07
   49.02000      1.0783559E-06
   49.08000      1.2804787E-06
   49.14000      1.5166672E-06
   49.20000      1.7920771E-06
   49.26000      2.1125438E-06
   49.32000      2.4846593E-06
   49.38000      2.9158593E-06
   49.44000      3.4145153E-06
   49.50000      3.9900301E-06
   49.56000      4.6529381E-06
   49.62000      5.4150014E-06
   49.68000      6.2893164E-06
   49.74000      7.2904240E-06
   49.80000      8.4344301E-06
   49.86000      9.7391276E-06
   49.92000      1.1224131E-05
   49.98000      1.2911000E-05
   50.04000      1.4823371E-05
   50.10000      1.6987073E-05
   50.16000      1.9430247E-05
   50.22000      2.2183462E-05
   50.28000      2.5279815E-05
   50.34000      2.8755052E-05
   50.40000      3.2647658E-05
   50.46000      3.6998954E-05
   50.52000      4.1853167E-05
   50.58000      4.7257508E-05
   50.64000      5.3262171E-05
   50.70000      5.9920374E-05
   50.76000      6.7288303E-05
   50.82000      7.5425058E-05
   50.88000      8.4392581E-05
   50.94000      9.4255491E-05
   51.00000      1.0508099E-04
   51.06000      1.1693866E-04
   51.12000      1.2990025E-04
   51.18000      1.4403941E-04
   51.24000      1.5943139E-04
   51.30000      1.7615259E-04
   51.36000      1.9428025E-04
   51.42000      2.1389188E-04
   51.48000      2.3506489E-04
   51.54000      2.5787586E-04
   51.60000      2.8240011E-04
   51.66000      3.0871111E-04
   51.72000      3.3687963E-04
   51.78000      3.6697317E-04
   51.84000      3.9905531E-04
   51.90000      4.3318499E-04
   51.96000      4.6941551E-04
   52.02000      5.0779403E-04
   52.08000      5.4836058E-04
   52.14000      5.9114769E-04
   52.20000      6.3617935E-04
   52.26000      6.8347034E-04
   52.32000      7.3302590E-04
   52.38000      7.8484108E-04
   52.44000      8.3889981E-04
   52.50000      8.9517498E-04
   52.56000      9.5362769E-04
   52.62000      1.0142071E-03
   52.68000      1.0768505E-03
   52.74000      1.1414826E-03
   52.80000      1.2080161E-03
   52.86000      1.2763517E-03
   52.92000      1.3463788E-03
   52.98000      1.4179751E-03
   53.04000      1.4910074E-03
   53.10000      1.5653326E-03
   53.16000      1.6407983E-03
   53.22000      1.7172438E-03
   53.28000      1.7945010E-03
   53.34000      1.8723950E-03
   53.40000      1.9507468E-03
   53.46000      2.0293726E-03
   53.52000      2.1080868E-03
   53.58000      2.1867030E-03
   53.64000      2.2650347E-03
   53.70000      2.3428977E-03
   53.76000      2.4201111E-03
   53.82000      2.4964986E-03
   53.88000      2.5718911E-03
   53.94000      2.6461256E-03
   54.00000      2.7190496E-03
   54.06000      2.7905207E-03
   54.12000      2.8604064E-03
   54.18000      2.9285883E-03
   54.24000      2.9949597E-03
   54.30000      3.0594284E-03
   54.36000      3.1219157E-03
   54.42000      3.1823590E-03
   54.48000      3.2407090E-03
   54.54000      3.2969315E-03
   54.60000      3.3510076E-03
   54.66000      3.4029314E-03
   54.72000      3.4527110E-03
   54.78000      3.5003673E-03
   54.84000      3.5459327E-03
   54.90000      3.5894513E-03
   54.96000      3.6309764E-03
   55.02000      3.6705695E-03
   55.08000      3.7082997E-03
   55.14000      3.7442404E-03
   55.20000      3.7784686E-03
   55.26000      3.8110639E-03
   55.32000      3.8421073E-03
   55.38000      3.8716772E-03
   55.44000      3.8998513E-03
   55.50000      3.9267018E-03
   55.56000      3.9522974E-03