  -2.400000      0.0000000E+00
  -2.340000      0.0000000E+00
  -2.280000      0.0000000E+00
  -2.220000      0.0000000E+00
  -2.160000      0.0000000E+00
  -2.100000      0.0000000E+00
  -2.040000      0.0000000E+00
  -1.980000      0.0000000E+00
  -1.920000     -6.5837425E-26
  -1.860000     -3.6331497E-25
  -1.800000      5.7630179E-25
  -1.740000      1.4011520E-23
  -1.680000      7.6689977E-23
  -1.620000      2.5138485E-22
  -1.560000      5.4976153E-22
  -1.500000      7.1621048E-22
  -1.440000     -5.2716968E-23
  -1.380000     -3.0952509E-21
  -1.320000     -9.4133331E-21
  -1.260000     -1.7688322E-20
  -1.200000     -2.2024724E-20
  -1.140000     -1.1681147E-20
  -1.080000      2.4577494E-20
  -1.020000      8.8981835E-20
 -0.9600000      1.6411594E-19
 -0.9000000      2.0945564E-19
 -0.8400000      1.7334958E-19
 -0.7800000      2.1622818E-20
 -0.7200000     -2.2812881E-19
 -0.6600000     -4.8794779E-19
 -0.6000000     -6.1923082E-19
 -0.5400000     -5.0148647E-19
 -0.4800000     -1.3737428E-19
 -0.4200000      2.4952738E-19
 -0.3600000      1.9936526E-19
 -0.3000000     -8.2437952E-19
 -0.2400000     -3.0370000E-18
 -0.1800000     -5.7518674E-18
 -0.1200000     -6.8929415E-18
 -5.9999999E-02 -3.1161670E-18
  0.0000000E+00  8.8947459E-18
  5.9999999E-02  2.9789547E-17
  0.1200000      5.4339132E-17
  0.1800000      6.9585543E-17
  0.2400000      5.6901265E-17
  0.3000000     -3.7462273E-19
  0.3600000     -1.0483408E-16
  0.4200000     -2.3340766E-16
  0.4800000     -3.3406688E-16
  0.5400000     -3.3775087E-16
  0.6000000     -1.8655656E-16
  0.6600000      1.3022409E-16
  0.7200000      5.4908318E-16
  0.7800000      9.3276814E-16
  0.8400000      1.1079005E-15
  0.9000000      9.3197638E-16
  0.9600000      3.6387421E-16
   1.020000     -4.9613854E-16
   1.080000     -1.4216886E-15
   1.140000     -2.1307478E-15
   1.200000     -2.3823543E-15
   1.260000     -2.0549229E-15
   1.320000     -1.1706206E-15
   1.380000      1.3763483E-16
   1.440000      1.6829031E-15
   1.500000      3.2544105E-15
   1.560000      4.5919346E-15
   1.620000      5.3280249E-15
   1.680000      4.9750281E-15
   1.740000      3.0446453E-15
   1.800000     -6.7156245E-16
   1.860000     -5.7484975E-15
   1.920000     -1.0902010E-14
   1.980000     -1.4122227E-14
   2.040000     -1.3285385E-14
   2.100000     -7.1279186E-15
   2.160000      3.7930741E-15
   2.220000      1.6662800E-14
   2.280000      2.6895407E-14
   2.340000      2.9585729E-14
   2.400000      2.1497905E-14
   2.460000      2.8123705E-15
   2.520000     -2.2173034E-14
   2.580000     -4.5838675E-14
   2.640000     -5.9397216E-14
   2.700000     -5.5721839E-14
   2.760000     -3.1916469E-14
   2.820000      9.1681067E-15
   2.880000      5.8880675E-14
   2.940000      1.0419127E-13
   3.000000      1.3037038E-13
   3.060000      1.2461209E-13
   3.120000      8.0128680E-14
   3.180000     -1.3532990E-16
   3.240000     -1.0151876E-13
   3.300000     -1.9892756E-13
   3.360000     -2.6231101E-13
   3.420000     -2.6568122E-13
   3.480000     -1.9701169E-13
   3.540000     -6.4986082E-14
   3.600000      1.0103068E-13
   3.660000      2.5892941E-13
   3.720000      3.6715279E-13
   3.780000      3.9786271E-13
   3.840000      3.4419445E-13
   3.900000      2.1878395E-13
   3.960000      4.5639650E-14
   4.020000     -1.4860788E-13
   4.080000     -3.3777381E-13
   4.140000     -4.9143843E-13
   4.200000     -5.6715814E-13
   4.260000     -5.0922173E-13
   4.320000     -2.6293889E-13
   4.380000      1.9411525E-13
   4.440000      8.1405331E-13
   4.500000      1.4535182E-12
   4.560000      1.8823816E-12
   4.620000      1.8374161E-12
   4.680000      1.1136570E-12
   4.740000     -3.3335498E-13
   4.800000     -2.3129285E-12
   4.860000     -4.3880238E-12
   4.920000     -5.9458753E-12
   4.980000     -6.3420770E-12
   5.040000     -5.0834909E-12
   5.100000     -1.9991266E-12
   5.160000      2.6518666E-12
   5.220000      8.1694625E-12
   5.280000      1.3505938E-11
   5.340000      1.7439565E-11
   5.400000      1.8782703E-11
   5.460000      1.6570386E-11
   5.520000      1.0185582E-11
   5.580000     -5.9771844E-13
   5.640000     -1.5641662E-11
   5.700000     -3.4505180E-11
   5.760000     -5.6494028E-11
   5.820000     -8.0671060E-11
   5.880000     -1.0583021E-10
   5.940000     -1.3047363E-10
   6.000000     -1.5285230E-10
   6.060000     -1.7112142E-10
   6.120000     -1.8362201E-10
   6.180000     -1.8924164E-10
   6.240000     -1.8775728E-10
   6.300000     -1.8004596E-10
   6.360000     -1.6807826E-10
   6.420000     -1.5467751E-10
   6.480000     -1.4310690E-10
   6.540000     -1.3660323E-10
   6.600000     -1.3798378E-10
   6.660000     -1.4941037E-10
   6.720000     -1.7232107E-10
   6.780000     -2.0747137E-10
   6.840000     -2.5499669E-10
   6.900000     -3.1442451E-10
   6.960000     -3.8462056E-10
   7.020000     -4.6371357E-10
   7.080000     -5.4907923E-10
   7.140000     -6.3745709E-10
   7.200000     -7.2522910E-10
   7.260000     -8.0882506E-10
   7.320000     -8.8517044E-10
   7.380000     -9.5207020E-10
   7.440000     -1.0084351E-09
   7.500000     -1.0543004E-09
   7.560000     -1.0906359E-09
   7.620000     -1.1189979E-09
   7.680000     -1.1411071E-09
   7.740000     -1.1584532E-09
   7.800000     -1.1720189E-09
   7.860000     -1.1821872E-09
   7.920000     -1.1888494E-09
   7.980000     -1.1916736E-09
   8.040000     -1.1904466E-09
   8.100000     -1.1853706E-09
   8.160000     -1.1772127E-09
   8.220000     -1.1672472E-09
   8.280000     -1.1570076E-09
   8.340000     -1.1479377E-09
   8.400000     -1.1410801E-09
   8.460000     -1.1369312E-09
   8.520000     -1.1355283E-09
   8.580000     -1.1367391E-09
   8.640000     -1.1406243E-09
   8.700000     -1.1477037E-09
   8.760000     -1.1589909E-09
   8.820000     -1.1757573E-09
   8.880000     -1.1991224E-09
   8.940000     -1.2296459E-09
   9.000000     -1.2671088E-09
   9.060000     -1.3105766E-09
   9.120000     -1.3587128E-09
   9.180000     -1.4101923E-09
   9.240000     -1.4640414E-09
   9.300000     -1.5197904E-09
   9.360000     -1.5774398E-09
   9.420000     -1.6373455E-09
   9.480000     -1.7001403E-09
   9.540000     -1.7667591E-09
   9.600000     -1.8385207E-09
   9.660000     -1.9171373E-09
   9.720000     -2.0045212E-09
   9.780000     -2.1023350E-09
   9.840000     -2.2113682E-09
   9.900000     -2.3309290E-09
   9.960000     -2.4584876E-09
   10.02000     -2.5897469E-09
   10.08000     -2.7191946E-09
   10.14000     -2.8410416E-09
   10.20000     -2.9503162E-09
   10.26000     -3.0438312E-09
   10.32000     -3.1207488E-09
   10.38000     -3.1825607E-09
   10.44000     -3.2324490E-09
   10.50000     -3.2741529E-09
   10.56000     -3.3106025E-09
   10.62000     -3.3426617E-09
   10.68000     -3.3682934E-09
   10.74000     -3.3823548E-09
   10.80000     -3.3770777E-09
   10.86000     -3.3431151E-09
   10.92000     -3.2709384E-09
   10.98000     -3.1523311E-09
   11.04000     -2.9818017E-09
   11.10000     -2.7578393E-09
   11.16000     -2.4840550E-09
   11.22000     -2.1703135E-09
   11.28000     -1.8339146E-09
   11.34000     -1.5007531E-09
   11.40000     -1.2061975E-09
   11.46000     -9.9526032E-10
   11.52000     -9.2157859E-10
   11.58000     -1.0448334E-09
   11.64000     -1.4265080E-09
   11.70000     -2.1242479E-09
   11.76000     -3.1854268E-09
   11.82000     -4.6407425E-09
   11.88000     -6.4987042E-09
   11.94000     -8.7417735E-09
   12.00000     -1.1324707E-08
   12.06000     -1.4175446E-08
   12.12000     -1.7198689E-08
   12.18000     -2.0282032E-08
   12.24000     -2.3304322E-08
   12.30000     -2.6145502E-08
   12.36000     -2.8696931E-08
   12.42000     -3.0870911E-08
   12.48000     -3.2608163E-08
   12.54000     -3.3882159E-08
   12.60000     -3.4699720E-08
   12.66000     -3.5097813E-08
   12.72000     -3.5137049E-08
   12.78000     -3.4892881E-08
   12.84000     -3.4445705E-08
   12.90000     -3.3871082E-08
   12.96000     -3.3231277E-08
   13.02000     -3.2568810E-08
   13.08000     -3.1902594E-08
   13.14000     -3.1226865E-08
   13.20000     -3.0513025E-08
   13.26000     -2.9714444E-08
   13.32000     -2.8774132E-08
   13.38000     -2.7634831E-08
   13.44000     -2.6250559E-08
   13.50000     -2.4597853E-08
   13.56000     -2.2684581E-08
   13.62000     -2.0554127E-08
   13.68000     -1.8283448E-08
   13.74000     -1.5974795E-08
   13.80000     -1.3742445E-08
   13.86000     -1.1696982E-08
   13.92000     -9.9303259E-09
   13.98000     -8.5044238E-09
   14.04000     -7.4454758E-09
   14.10000     -6.7442358E-09
   14.16000     -6.3614829E-09
   14.22000     -6.2368173E-09
   14.28000     -6.2984942E-09
   14.34000     -6.4722370E-09
   14.40000     -6.6876971E-09
   14.46000     -6.8822401E-09
   14.52000     -7.0027131E-09
   14.58000     -7.0064807E-09
   14.64000     -6.8630253E-09
   14.70000     -6.5567831E-09
   14.76000     -6.0908500E-09
   14.82000     -5.4901794E-09
   14.88000     -4.8023683E-09
   14.94000     -4.0944239E-09
   15.00000     -3.4449468E-09
   15.06000     -2.9326126E-09
   15.12000     -2.6231533E-09
   15.18000     -2.5577220E-09
   15.24000     -2.7453619E-09
   15.30000     -3.1613716E-09
   15.36000     -3.7520191E-09
   15.42000     -4.4446655E-09
   15.48000     -5.1613003E-09
   15.54000     -5.8328418E-09
   15.60000     -6.4114669E-09
   15.66000     -6.8785577E-09
   15.72000     -7.2466526E-09
   15.78000     -7.5549407E-09
   15.84000     -7.8592137E-09
   15.90000     -8.2185290E-09
   15.96000     -8.6817566E-09
   16.02000     -9.2773869E-09
   16.08000     -1.0009157E-08
   16.14000     -1.0858520E-08
   16.20000     -1.1792895E-08
   16.26000     -1.2776917E-08
   16.32000     -1.3782943E-08
   16.38000     -1.4797335E-08
   16.44000     -1.5820603E-08
   16.50000     -1.6861611E-08
   16.56000     -1.7928269E-08
   16.62000     -1.9018479E-08
   16.68000     -2.0115081E-08
   16.74000     -2.1187248E-08
   16.80000     -2.2198382E-08
   16.86000     -2.3118178E-08
   16.92000     -2.3934779E-08
   16.98000     -2.4662565E-08
   17.04000     -2.5342308E-08
   17.10000     -2.6032760E-08
   17.16000     -2.6795508E-08
   17.22000     -2.7677132E-08
   17.28000     -2.8693780E-08
   17.34000     -2.9822637E-08
   17.40000     -3.1002923E-08
   17.46000     -3.2146335E-08
   17.52000     -3.3154191E-08
   17.58000     -3.3936942E-08
   17.64000     -3.4431107E-08
   17.70000     -3.4609865E-08
   17.76000     -3.4485353E-08
   17.82000     -3.4103124E-08
   17.88000     -3.3531101E-08
   17.94000     -3.2846469E-08
   18.00000     -3.2123669E-08
   18.06000     -3.1425863E-08
   18.12000     -3.0800599E-08
   18.18000     -3.0279306E-08
   18.24000     -2.9879100E-08
   18.30000     -2.9605483E-08
   18.36000     -2.9454595E-08
   18.42000     -2.9414450E-08
   18.48000     -2.9465124E-08
   18.54000     -2.9578441E-08
   18.60000     -2.9717992E-08
   18.66000     -2.9840390E-08
   18.72000     -2.9898491E-08
   18.78000     -2.9846735E-08
   18.84000     -2.9648099E-08
   18.90000     -2.9281376E-08
   18.96000     -2.8746937E-08
   19.02000     -2.8069168E-08
   19.08000     -2.7294288E-08
   19.14000     -2.6483281E-08
   19.20000     -2.5700887E-08
   19.26000     -2.5002572E-08
   19.32000     -2.4422164E-08
   19.38000     -2.3962905E-08
   19.44000     -2.3594446E-08
   19.50000     -2.3257398E-08
   19.56000     -2.2875721E-08
   19.62000     -2.2375342E-08
   19.68000     -2.1705358E-08
   19.74000     -2.0856556E-08
   19.80000     -1.9871592E-08
   19.86000     -1.8842471E-08
   19.92000     -1.7894047E-08
   19.98000     -1.7156477E-08
   20.04000     -1.6733267E-08
   20.10000     -1.6673749E-08
   20.16000     -1.6958071E-08
   20.22000     -1.7499485E-08
   20.28000     -1.8163565E-08
   20.34000     -1.8798904E-08
   20.40000     -1.9270487E-08
   20.46000     -1.9486327E-08
   20.52000     -1.9410354E-08
   20.58000     -1.9059069E-08
   20.64000     -1.8484448E-08
   20.70000     -1.7749583E-08
   20.76000     -1.6905327E-08
   20.82000     -1.5975257E-08
   20.88000     -1.4953237E-08
   20.94000     -1.3813550E-08
   21.00000     -1.2529655E-08
   21.06000     -1.1094924E-08
   21.12000     -9.5382973E-09
   21.18000     -7.9293780E-09
   21.24000     -6.3707990E-09
   21.30000     -4.9794759E-09
   21.36000     -3.8618109E-09
   21.42000     -3.0898721E-09
   21.48000     -2.6855727E-09
   21.54000     -2.6178357E-09
   21.60000     -2.8140743E-09
   21.66000     -3.1830578E-09
   21.72000     -3.6425900E-09
   21.78000     -4.1436095E-09
   21.84000     -4.6830975E-09
   21.90000     -5.3014464E-09
   21.96000     -6.0648460E-09
   22.02000     -7.0381230E-09
   22.08000     -8.2567366E-09
   22.14000     -9.7071080E-09
   22.20000     -1.1321925E-08
   22.26000     -1.2992433E-08
   22.32000     -1.4594424E-08
   22.38000     -1.6020435E-08
   22.44000     -1.7208754E-08
   22.50000     -1.8160749E-08
   22.56000     -1.8941398E-08
   22.62000     -1.9662631E-08
   22.68000     -2.0454044E-08
   22.74000     -2.1429122E-08
   22.80000     -2.2656376E-08
   22.86000     -2.4143487E-08
   22.92000     -2.5838682E-08
   22.98000     -2.7648563E-08
   23.04000     -2.9466655E-08
   23.10000     -3.1203729E-08
   23.16000     -3.2810544E-08
   23.22000     -3.4286174E-08
   23.28000     -3.5669704E-08
   23.34000     -3.7018449E-08
   23.40000     -3.8380193E-08
   23.46000     -3.9768818E-08
   23.52000     -4.1151576E-08
   23.58000     -4.2452630E-08
   23.64000     -4.3572030E-08
   23.70000     -4.4414374E-08
   23.76000     -4.4918103E-08
   23.82000     -4.5075726E-08
   23.88000     -4.4938187E-08
   23.94000     -4.4601208E-08
   24.00000     -4.4177305E-08
   24.06000     -4.3761730E-08
   24.12000     -4.3402647E-08
   24.18000     -4.3084782E-08
   24.24000     -4.2731699E-08
   24.30000     -4.2226254E-08
   24.36000     -4.1443315E-08
   24.42000     -4.0285116E-08
   24.48000     -3.8708901E-08
   24.54000     -3.6738829E-08
   24.60000     -3.4458743E-08
   24.66000     -3.1988247E-08
   24.72000     -2.9449255E-08
   24.78000     -2.6933273E-08
   24.84000     -2.4479222E-08
   24.90000     -2.2068395E-08
   24.96000     -1.9637870E-08
   25.02000     -1.7107819E-08
   25.08000     -1.4413787E-08
   25.14000     -1.1533359E-08
   25.20000     -8.4985139E-09
   25.26000     -5.3895710E-09
   25.32000     -2.3128610E-09
   25.38000      6.3031980E-10
   25.44000      3.3728444E-09
   25.50000      5.8988685E-09
   25.56000      8.2427585E-09
   25.62000      1.0469766E-08
   25.68000      1.2644590E-08
   25.74000      1.4798185E-08
   25.80000      1.6903932E-08
   25.86000      1.8871400E-08
   25.92000      2.0560247E-08
   25.98000      2.1810457E-08
   26.04000      2.2479991E-08
   26.10000      2.2478849E-08
   26.16000      2.1789988E-08
   26.22000      2.0471827E-08
   26.28000      1.8642760E-08
   26.34000      1.6453205E-08
   26.40000      1.4053662E-08
   26.46000      1.1567479E-08
   26.52000      9.0745251E-09
   26.58000      6.6080874E-09
   26.64000      4.1632156E-09
   26.70000      1.7118954E-09
   26.76000     -7.8057949E-10
   26.82000     -3.3427601E-09
   26.88000     -5.9902625E-09
   26.94000     -8.7250607E-09
   27.00000     -1.1538868E-08
   27.06000     -1.4417791E-08
   27.12000     -1.7345860E-08
   27.18000     -2.0306366E-08
   27.24000     -2.3281471E-08
   27.30000     -2.6251636E-08
   27.36000     -2.9196512E-08
   27.42000     -3.2098001E-08
   27.48000     -3.4944691E-08
   27.54000     -3.7735681E-08
   27.60000     -4.0481385E-08
   27.66000     -4.3199904E-08
   27.72000     -4.5909502E-08
   27.78000     -4.8619608E-08
   27.84000     -5.1323951E-08
   27.90000     -5.3998843E-08
   27.96000     -5.6607668E-08
   28.02000     -5.9110043E-08
   28.08000     -6.1471994E-08
   28.14000     -6.3672942E-08
   28.20000     -6.5706722E-08
   28.26000     -6.7576231E-08
   28.32000     -6.9284084E-08
   28.38000     -7.0823205E-08
   28.44000     -7.2171495E-08
   28.50000     -7.3293130E-08
   28.56000     -7.4146712E-08
   28.62000     -7.4697923E-08
   28.68000     -7.4932736E-08
   28.74000     -7.4866726E-08
   28.80000     -7.4546655E-08
   28.86000     -7.4043164E-08
   28.92000     -7.3435679E-08
   28.98000     -7.2793533E-08
   29.04000     -7.2159025E-08
   29.10000     -7.1537627E-08
   29.16000     -7.0898999E-08
   29.22000     -7.0188584E-08
   29.28000     -6.9346427E-08
   29.34000     -6.8327104E-08
   29.40000     -6.7114286E-08
   29.46000     -6.5725594E-08
   29.52000     -6.4206382E-08
   29.58000     -6.2615150E-08
   29.64000     -6.1005906E-08
   29.70000     -5.9413694E-08
   29.76000     -5.7848112E-08
   29.82000     -5.6296951E-08
   29.88000     -5.4738560E-08
   29.94000     -5.3158441E-08
   30.00000     -5.1564054E-08
   30.06000     -4.9992195E-08
   30.12000     -4.8505719E-08
   30.18000     -4.7179597E-08
   30.24000     -4.6080373E-08
   30.30000     -4.5245365E-08
   30.36000     -4.4668781E-08
   30.42000     -4.4300062E-08
   30.48000     -4.4056037E-08
   30.54000     -4.3844022E-08
   30.60000     -4.3588969E-08
   30.66000     -4.3255984E-08
   30.72000     -4.2860549E-08
   30.78000     -4.2462702E-08
   30.84000     -4.2146773E-08
   30.90000     -4.1993630E-08
   30.96000     -4.2055117E-08
   31.02000     -4.2339842E-08
   31.08000     -4.2815191E-08
   31.14000     -4.3424322E-08
   31.20000     -4.4110962E-08
   31.26000     -4.4842171E-08
   31.32000     -4.5619895E-08
   31.38000     -4.6477126E-08
   31.44000     -4.7460489E-08
   31.50000     -4.8606555E-08
   31.56000     -4.9921510E-08
   31.62000     -5.1372357E-08
   31.68000     -5.2893355E-08
   31.74000     -5.4405671E-08
   31.80000     -5.5843223E-08
   31.86000     -5.7175395E-08
   31.92000     -5.8418060E-08
   31.98000     -5.9628242E-08
   32.04000     -6.0883416E-08
   32.10000     -6.2251765E-08
   32.16000     -6.3763572E-08
   32.22000     -6.5393593E-08
   32.28000     -6.7061499E-08
   32.34000     -6.8650579E-08
   32.40000     -7.0039135E-08
   32.46000     -7.1133975E-08
   32.52000     -7.1894974E-08
   32.58000     -7.2342615E-08
   32.64000     -7.2546683E-08
   32.70000     -7.2600443E-08
   32.76000     -7.2589280E-08
   32.82000     -7.2564362E-08
   32.88000     -7.2529332E-08
   32.94000     -7.2443854E-08
   33.00000     -7.2242116E-08
   33.06000     -7.1859823E-08
   33.12000     -7.1260651E-08
   33.18000     -7.0453090E-08
   33.24000     -6.9491854E-08
   33.30000     -6.8462839E-08
   33.36000     -6.7456334E-08
   33.42000     -6.6537247E-08
   33.48000     -6.5722702E-08
   33.54000     -6.4974621E-08
   33.60000     -6.4210191E-08
   33.66000     -6.3326539E-08
   33.72000     -6.2231379E-08
   33.78000     -6.0869546E-08
   33.84000     -5.9237227E-08
   33.90000     -5.7380230E-08
   33.96000     -5.5377935E-08
   34.02000     -5.3318946E-08
   34.08000     -5.1276416E-08
   34.14000     -4.9290492E-08
   34.20000     -4.7362676E-08
   34.26000     -4.5463047E-08
   34.32000     -4.3547288E-08
   34.38000     -4.1577451E-08
   34.44000     -3.9539241E-08
   34.50000     -3.7449777E-08
   34.56000     -3.5352954E-08
   34.62000     -3.3304282E-08
   34.68000     -3.1350812E-08
   34.74000     -2.9513940E-08
   34.80000     -2.7781711E-08
   34.86000     -2.6113657E-08
   34.92000     -2.4456352E-08
   34.98000     -2.2763729E-08
   35.04000     -2.1014648E-08
   35.10000     -1.9221439E-08
   35.16000     -1.7426785E-08
   35.22000     -1.5690677E-08
   35.28000     -1.4072485E-08
   35.34000     -1.2614734E-08
   35.40000     -1.1333940E-08
   35.46000     -1.0221212E-08
   35.52000     -9.2516768E-09
   35.58000     -8.3987892E-09
   35.64000     -7.6479703E-09
   35.70000     -7.0045019E-09
   35.76000     -6.4928241E-09
   35.82000     -6.1476597E-09
   35.88000     -6.0005010E-09
   35.94000     -6.0666974E-09
   36.00000     -6.3380416E-09
   36.06000     -6.7835200E-09
   36.12000     -7.3576736E-09
   36.18000     -8.0131555E-09
   36.24000     -8.7127265E-09
   36.30000     -9.4365618E-09
   36.36000     -1.0182839E-08
   36.42000     -1.0962338E-08
   36.48000     -1.1789832E-08
   36.54000     -1.2675940E-08
   36.60000     -1.3622381E-08
   36.66000     -1.4622005E-08
   36.72000     -1.5663019E-08
   36.78000     -1.6735308E-08
   36.84000     -1.7836063E-08
   36.90000     -1.8972282E-08
   36.96000     -2.0158872E-08
   37.02000     -2.1412694E-08
   37.08000     -2.2744423E-08
   37.14000     -2.4151074E-08
   37.20000     -2.5612007E-08
   37.26000     -2.7090255E-08
   37.32000     -2.8539283E-08
   37.38000     -2.9913444E-08
   37.44000     -3.1179184E-08
   37.50000     -3.2323634E-08
   37.56000     -3.3358116E-08
   37.62000     -3.4315462E-08
   37.68000     -3.5241907E-08
   37.74000     -3.6185835E-08
   37.80000     -3.7186162E-08
   37.86000     -3.8263412E-08
   37.92000     -3.9415315E-08
   37.98000     -4.0617827E-08
   38.04000     -4.1830866E-08
   38.10000     -4.3006999E-08
   38.16000     -4.4100858E-08
   38.22000     -4.5077048E-08
   38.28000     -4.5915051E-08
   38.34000     -4.6610513E-08
   38.40000     -4.7173330E-08
   38.46000     -4.7623374E-08
   38.52000     -4.7985171E-08
   38.58000     -4.8282647E-08
   38.64000     -4.8534829E-08
   38.70000     -4.8753282E-08
   38.76000     -4.8941459E-08
   38.82000     -4.9095995E-08
   38.88000     -4.9209348E-08
   38.94000     -4.9272874E-08
   39.00000     -4.9279333E-08
   39.06000     -4.9223971E-08
   39.12000     -4.9104067E-08
   39.18000     -4.8917286E-08
   39.24000     -4.8659846E-08
   39.30000     -4.8325344E-08
   39.36000     -4.7904869E-08
   39.42000     -4.7388411E-08
   39.48000     -4.6767088E-08
   39.54000     -4.6035744E-08
   39.60000     -4.5195428E-08
   39.66000     -4.4255618E-08
   39.72000     -4.3235918E-08
   39.78000     -4.2166935E-08
   39.84000     -4.1089688E-08
   39.90000     -4.0052726E-08
   39.96000     -3.9106517E-08
   40.02000     -3.8295354E-08
   40.08000     -3.7648110E-08
   40.14000     -3.7170064E-08
   40.20000     -3.6838628E-08
   40.26000     -3.6605204E-08
   40.32000     -3.6404266E-08
   40.38000     -3.6168540E-08
   40.44000     -3.5847037E-08
   40.50000     -3.5421106E-08
   40.56000     -3.4913267E-08
   40.62000     -3.4385259E-08
   40.68000     -3.3924326E-08
   40.74000     -3.3620786E-08
   40.80000     -3.3542843E-08
   40.86000     -3.3716251E-08
   40.92000     -3.4115352E-08
   40.98000     -3.4668791E-08
   41.04000     -3.5278795E-08
   41.10000     -3.5848554E-08
   41.16000     -3.6309622E-08
   41.22000     -3.6641389E-08
   41.28000     -3.6876855E-08
   41.34000     -3.7093137E-08
   41.40000     -3.7389441E-08
   41.46000     -3.7858641E-08
   41.52000     -3.8560518E-08
   41.58000     -3.9504094E-08
   41.64000     -4.0644146E-08
   41.70000     -4.1893284E-08
   41.76000     -4.3146350E-08
   41.82000     -4.4310454E-08
   41.88000     -4.5331802E-08
   41.94000     -4.6211131E-08
   42.00000     -4.7002892E-08
   42.06000     -4.7798164E-08
   42.12000     -4.8696538E-08
   42.18000     -4.9775640E-08
   42.24000     -5.1067577E-08
   42.30000     -5.2549122E-08
   42.36000     -5.4147907E-08
   42.42000     -5.5762030E-08
   42.48000     -5.7286815E-08
   42.54000     -5.8641003E-08
   42.60000     -5.9785563E-08
   42.66000     -6.0730621E-08
   42.72000     -6.1529200E-08
   42.78000     -6.2259595E-08
   42.84000     -6.3001032E-08
   42.90000     -6.3808706E-08
   42.96000     -6.4695080E-08
   43.02000     -6.5622849E-08
   43.08000     -6.6512214E-08
   43.14000     -6.7260885E-08
   43.20000     -6.7771445E-08
   43.26000     -6.7978206E-08
   43.32000     -6.7865699E-08
   43.38000     -6.7473628E-08
   43.44000     -6.6887139E-08
   43.50000     -6.6215740E-08
   43.56000     -6.5567136E-08
   43.62000     -6.5023222E-08
   43.68000     -6.4624125E-08
   43.74000     -6.4364031E-08
   43.80000     -6.4198716E-08
   43.86000     -6.4062391E-08
   43.92000     -6.3888827E-08
   43.98000     -6.3631106E-08
   44.04000     -6.3274776E-08
   44.10000     -6.2841060E-08
   44.16000     -6.2379520E-08
   44.22000     -6.1952662E-08
   44.28000     -6.1617264E-08
   44.34000     -6.1407960E-08
   44.40000     -6.1327711E-08
   44.46000     -6.1347443E-08
   44.52000     -6.1414404E-08
   44.58000     -6.1465961E-08
   44.64000     -6.1444581E-08
   44.70000     -6.1309407E-08
   44.76000     -6.1041590E-08
   44.82000     -6.0642407E-08
   44.88000     -6.0125544E-08
   44.94000     -5.9506668E-08
   45.00000     -5.8793884E-08
   45.06000     -5.7982067E-08
   45.12000     -5.7052890E-08
   45.18000     -5.5980102E-08
   45.24000     -5.4738237E-08
   45.30000     -5.3311883E-08
   45.36000     -5.1702660E-08
   45.42000     -4.9931860E-08
   45.48000     -4.8038082E-08
   45.54000     -4.6070610E-08
   45.60000     -4.4080565E-08
   45.66000     -4.2112646E-08
   45.72000     -4.0200121E-08
   45.78000     -3.8364909E-08
   45.84000     -3.6622911E-08
   45.90000     -3.4992627E-08
   45.96000     -3.3503763E-08
   46.02000     -3.2201751E-08
   46.08000     -3.1145390E-08
   46.14000     -3.0397128E-08
   46.20000     -3.0008490E-08
   46.26000     -3.0005427E-08
   46.32000     -3.0379042E-08
   46.38000     -3.1085442E-08
   46.44000     -3.2055631E-08
   46.50000     -3.3212444E-08
   46.56000     -3.4489144E-08
   46.62000     -3.5843421E-08
   46.68000     -3.7262222E-08
   46.74000     -3.8756081E-08
   46.80000     -4.0345260E-08
   46.86000     -4.2042792E-08
   46.92000     -4.3840465E-08
   46.98000     -4.5702549E-08
   47.04000     -4.7569330E-08
   47.10000     -4.9369270E-08
   47.16000     -5.1035716E-08
   47.22000     -5.2522751E-08
   47.28000     -5.3815139E-08
   47.34000     -5.4929167E-08
   47.40000     -5.5904181E-08
   47.46000     -5.6787602E-08
   47.52000     -5.7618465E-08
   47.58000     -5.8415363E-08
   47.64000     -5.9173427E-08
   47.70000     -5.9872320E-08
   47.76000     -6.0493520E-08
   47.82000     -6.1041909E-08
   47.88000     -6.1565096E-08
   47.94000     -6.2164233E-08
   48.00000     -6.2992875E-08
   48.06000     -6.4244269E-08
   48.12000     -6.6131079E-08
   48.18000     -6.8864288E-08
   48.24000     -7.2638102E-08
   48.30000     -7.7626026E-08
   48.36000     -8.3990209E-08
   48.42000     -9.1901704E-08
   48.48000     -1.0156680E-07
   48.54000     -1.1325226E-07
   48.60000     -1.2730338E-07
   48.66000     -1.4415140E-07
   48.72000     -1.6431051E-07
   48.78000     -1.8836934E-07
   48.84000     -2.1698352E-07
   48.90000     -2.5087621E-07
   48.96000     -2.9085083E-07
   49.02000     -3.3781572E-07
   49.08000     -3.9281704E-07
   49.14000     -4.5707270E-07
   49.20000     -5.3200142E-07
   49.26000     -6.1924095E-07
   49.32000     -7.2065689E-07
   49.38000     -8.3834414E-07
   49.44000     -9.7462862E-07
   49.50000     -1.1320769E-06
   49.56000     -1.3135200E-06
   49.62000     -1.5220917E-06
   49.68000     -1.7612817E-06
   49.74000     -2.0349917E-06
   49.80000     -2.3475893E-06
   49.86000     -2.7039498E-06
   49.92000     -3.1094849E-06
   49.98000     -3.5701569E-06
   50.04000     -4.0924901E-06
   50.10000     -4.6835789E-06
   50.16000     -5.3511089E-06
   50.22000     -6.1033843E-06
   50.28000     -6.9493722E-06
   50.34000     -7.8987496E-06
   50.40000     -8.9619562E-06
   50.46000     -1.0150240E-05
   50.52000     -1.1475685E-05
   50.58000     -1.2951228E-05
   50.64000     -1.4590651E-05
   50.70000     -1.6408561E-05
   50.76000     -1.8420360E-05
   50.82000     -2.0642212E-05
   50.88000     -2.3091019E-05
   50.94000     -2.5784386E-05
   51.00000     -2.8740607E-05
   51.06000     -3.1978627E-05
   51.12000     -3.5517980E-05
   51.18000     -3.9378752E-05
   51.24000     -4.3581451E-05
   51.30000     -4.8146885E-05
   51.36000     -5.3096046E-05
   51.42000     -5.8449939E-05
   51.48000     -6.4229447E-05
   51.54000     -7.0455149E-05
   51.60000     -7.7147211E-05
   51.66000     -8.4325162E-05
   51.72000     -9.2007780E-05
   51.78000     -1.0021291E-04
   51.84000     -1.0895723E-04
   51.90000     -1.1825607E-04
   51.96000     -1.2812317E-04
   52.02000     -1.3857042E-04
   52.08000     -1.4960761E-04
   52.14000     -1.6124229E-04
   52.20000     -1.7347948E-04
   52.26000     -1.8632147E-04
   52.32000     -1.9976778E-04
   52.38000     -2.1381484E-04
   52.44000     -2.2845600E-04
   52.50000     -2.4368131E-04
   52.56000     -2.5947738E-04
   52.62000     -2.7582730E-04
   52.68000     -2.9271064E-04
   52.74000     -3.1010329E-04
   52.80000     -3.2797758E-04
   52.86000     -3.4630243E-04
   52.92000     -3.6504309E-04
   52.98000     -3.8416154E-04
   53.04000     -4.0361652E-04
   53.10000     -4.2336382E-04
   53.16000     -4.4335652E-04
   53.22000     -4.6354515E-04
   53.28000     -4.8387810E-04
   53.34000     -5.0430192E-04
   53.40000     -5.2476174E-04
   53.46000     -5.4520147E-04
   53.52000     -5.6556449E-04
   53.58000     -5.8579381E-04
   53.64000     -6.0583273E-04
   53.70000     -6.2562519E-04
   53.76000     -6.4511609E-04
   53.82000     -6.6425221E-04
   53.88000     -6.8298198E-04
   53.94000     -7.0125668E-04
   54.00000     -7.1903027E-04
   54.06000     -7.3626020E-04
   54.12000     -7.5290754E-04
   54.18000     -7.6893729E-04
   54.24000     -7.8431901E-04
   54.30000     -7.9902651E-04
   54.36000     -8.1303855E-04
   54.42000     -8.2633895E-04
   54.48000     -8.3891640E-04
   54.54000     -8.5076474E-04
   54.60000     -8.6188281E-04
   54.66000     -8.7227445E-04
   54.72000     -8.8194833E-04
   54.78000     -8.9091784E-04
   54.84000     -8.9920074E-04
   54.90000     -9.0681895E-04
   54.96000     -9.1379823E-04
   55.02000     -9.2016766E-04
   55.08000     -9.2595909E-04
   55.14000     -9.3120697E-04
   55.20000     -9.3594758E-04
   55.26000     -9.4021880E-04
   55.32000     -9.4405940E-04
   55.38000     -9.4750873E-04
   55.44000     -9.5060602E-04
   55.50000     -9.5338962E-04
   55.56000     -9.5589703E-04