  -2.400000      0.0000000E+00
  -2.340000      0.0000000E+00
  -2.280000      0.0000000E+00
  -2.220000      0.0000000E+00
  -2.160000      0.0000000E+00
  -2.100000      0.0000000E+00
  -2.040000      0.0000000E+00
  -1.980000      0.0000000E+00
  -1.920000     -5.1577915E-25
  -1.860000     -5.0813110E-24
  -1.800000     -2.2564033E-23
  -1.740000     -5.0985901E-23
  -1.680000     -8.7663485E-24
  -1.620000      3.7483752E-22
  -1.560000      1.5209709E-21
  -1.500000      3.3987692E-21
  -1.440000      4.0697928E-21
  -1.380000     -1.8723235E-21
  -1.320000     -2.2292316E-20
  -1.260000     -6.0026713E-20
  -1.200000     -9.7623513E-20
  -1.140000     -8.1898099E-20
  -1.080000      7.1542838E-20
  -1.020000      4.2822073E-19
 -0.9600000      9.3105806E-19
 -0.9000000      1.2836627E-18
 -0.8400000      9.2484728E-19
 -0.7800000     -7.7210207E-19
 -0.7200000     -4.0108706E-18
 -0.6600000     -7.9275501E-18
 -0.6000000     -1.0189367E-17
 -0.5400000     -7.3969352E-18
 -0.4800000      3.3183668E-18
 -0.4200000      2.1732888E-17
 -0.3600000      4.2160208E-17
 -0.3000000      5.3150550E-17
 -0.2400000      4.0968145E-17
 -0.1800000     -2.9894514E-18
 -0.1200000     -7.3343736E-17
 -5.9999999E-02 -1.4556084E-16
  0.0000000E+00 -1.8014466E-16
  5.9999999E-02 -1.3887927E-16
  0.1200000     -9.1898401E-18
  0.1800000      1.7498120E-16
  0.2400000      3.3143163E-16
  0.3000000      3.5838994E-16
  0.3600000      1.9062103E-16
  0.4200000     -1.3998057E-16
  0.4800000     -4.7723795E-16
  0.5400000     -5.8238386E-16
  0.6000000     -2.5261053E-16
  0.6600000      5.2217225E-16
  0.7200000      1.4477520E-15
  0.7800000      1.9550010E-15
  0.8400000      1.4223108E-15
  0.9000000     -4.5519455E-16
  0.9600000     -3.3111196E-15
   1.020000     -5.9954826E-15
   1.080000     -6.8851535E-15
   1.140000     -4.6175006E-15
   1.200000      1.0098053E-15
   1.260000      8.4374646E-15
   1.320000      1.4516130E-14
   1.380000      1.5653819E-14
   1.440000      9.6461620E-15
   1.500000     -2.6094792E-15
   1.560000     -1.6533907E-14
   1.620000     -2.5141769E-14
   1.680000     -2.2084649E-14
   1.740000     -5.3515588E-15
   1.800000      2.0197358E-14
   1.860000      4.3200364E-14
   1.920000      4.9734647E-14
   1.980000      2.9772724E-14
   2.040000     -1.6504525E-14
   2.100000     -7.5786423E-14
   2.160000     -1.2437906E-13
   2.220000     -1.3654304E-13
   2.280000     -9.5566967E-14
   2.340000     -2.8780665E-15
   2.400000      1.1931085E-13
   2.460000      2.3386482E-13
   2.520000      3.0136478E-13
   2.580000      2.9443204E-13
   2.640000      2.0748269E-13
   2.700000      5.7526161E-14
   2.760000     -1.2412220E-13
   2.820000     -3.0467247E-13
   2.880000     -4.6006455E-13
   2.940000     -5.7646786E-13
   3.000000     -6.4176068E-13
   3.060000     -6.3207648E-13
   3.120000     -5.0332042E-13
   3.180000     -1.9780426E-13
   3.240000      3.2936400E-13
   3.300000      1.0693032E-12
   3.360000      1.9192018E-12
   3.420000      2.6642317E-12
   3.480000      3.0004484E-12
   3.540000      2.6061720E-12
   3.600000      1.2516511E-12
   3.660000     -1.0813475E-12
   3.720000     -4.1099680E-12
   3.780000     -7.2302056E-12
   3.840000     -9.5915342E-12
   3.900000     -1.0266182E-11
   3.960000     -8.4840364E-12
   4.020000     -3.8803002E-12
   4.080000      3.3077239E-12
   4.140000      1.2152248E-11
   4.200000      2.1090808E-11
   4.260000      2.8131183E-11
   4.320000      3.1178875E-11
   4.380000      2.8436697E-11
   4.440000      1.8813928E-11
   4.500000      2.2815333E-12
   4.560000     -1.9883650E-11
   4.620000     -4.5014908E-11
   4.680000     -6.9173021E-11
   4.740000     -8.7496468E-11
   4.800000     -9.4797892E-11
   4.860000     -8.6386877E-11
   4.920000     -5.9049043E-11
   4.980000     -1.2050520E-11
   5.040000      5.2017075E-11
   5.100000      1.2676227E-10
   5.160000      2.0207876E-10
   5.220000      2.6489982E-10
   5.280000      3.0060654E-10
   5.340000      2.9492828E-10
   5.400000      2.3604599E-10
   5.460000      1.1653910E-10
   5.520000     -6.5176302E-11
   5.580000     -3.0417835E-10
   5.640000     -5.8925215E-10
   5.700000     -9.0392915E-10
   5.760000     -1.2281555E-09
   5.820000     -1.5403079E-09
   5.880000     -1.8192609E-09
   5.940000     -2.0462556E-09
   6.000000     -2.2064048E-09
   6.060000     -2.2897508E-09
   6.120000     -2.2918651E-09
   6.180000     -2.2140143E-09
   6.240000     -2.0629347E-09
   6.300000     -1.8502689E-09
   6.360000     -1.5917152E-09
   6.420000     -1.3059590E-09
   6.480000     -1.0134632E-09
   6.540000     -7.3519502E-10
   6.600000     -4.9135540E-10
   6.660000     -3.0015537E-10
   6.720000     -1.7665674E-10
   6.780000     -1.3168834E-10
   6.840000     -1.7085967E-10
   6.900000     -2.9373662E-10
   6.960000     -4.9329846E-10
   7.020000     -7.5584539E-10
   7.080000     -1.0615425E-09
   7.140000     -1.3857487E-09
   7.200000     -1.7011739E-09
   7.260000     -1.9807436E-09
   7.320000     -2.2008628E-09
   7.380000     -2.3445965E-09
   7.440000     -2.4042028E-09
   7.500000     -2.3824942E-09
   7.560000     -2.2926778E-09
   7.620000     -2.1566331E-09
   7.680000     -2.0019022E-09
   7.740000     -1.8579477E-09
   7.800000     -1.7523683E-09
   7.860000     -1.7077012E-09
   7.920000     -1.7392427E-09
   7.980000     -1.8540258E-09
   8.040000     -2.0508375E-09
   8.100000     -2.3210063E-09
   8.160000     -2.6496758E-09
   8.220000     -3.0173752E-09
   8.280000     -3.4018079E-09
   8.340000     -3.7798409E-09
   8.400000     -4.1296233E-09
   8.460000     -4.4326520E-09
   8.520000     -4.6754516E-09
   8.580000     -4.8505036E-09
   8.640000     -4.9561630E-09
   8.700000     -4.9955160E-09
   8.760000     -4.9744524E-09
   8.820000     -4.8994382E-09
   8.880000     -4.7755617E-09
   8.940000     -4.6053024E-09
   9.000000     -4.3881876E-09
   9.060000     -4.1212194E-09
   9.120000     -3.7997130E-09
   9.180000     -3.4181575E-09
   9.240000     -2.9708414E-09
   9.300000     -2.4521969E-09
   9.360000     -1.8570546E-09
   9.420000     -1.1810607E-09
   9.480000     -4.2142756E-10
   9.540000      4.2202752E-10
   9.600000      1.3458613E-09
   9.660000      2.3424649E-09
   9.720000      3.4004439E-09
   9.780000      4.5061230E-09
   9.840000      5.6460032E-09
   9.900000      6.8095929E-09
   9.960000      7.9917815E-09
   10.02000      9.1939016E-09
   10.08000      1.0422922E-08
   10.14000      1.1688729E-08
   10.20000      1.3000072E-08
   10.26000      1.4360245E-08
   10.32000      1.5763792E-08
   10.38000      1.7195347E-08
   10.44000      1.8631178E-08
   10.50000      2.0043220E-08
   10.56000      2.1404666E-08
   10.62000      2.2695591E-08
   10.68000      2.3907068E-08
   10.74000      2.5042548E-08
   10.80000      2.6116091E-08
   10.86000      2.7147914E-08
   10.92000      2.8158571E-08
   10.98000      2.9163367E-08
   11.04000      3.0168618E-08
   11.10000      3.1170661E-08
   11.16000      3.2157658E-08
   11.22000      3.3113398E-08
   11.28000      3.4021770E-08
   11.34000      3.4870471E-08
   11.40000      3.5653077E-08
   11.46000      3.6369151E-08
   11.52000      3.7022875E-08
   11.58000      3.7620985E-08
   11.64000      3.8170892E-08
   11.70000      3.8679421E-08
   11.76000      3.9152226E-08
   11.82000      3.9593431E-08
   11.88000      4.0004998E-08
   11.94000      4.0385466E-08
   12.00000      4.0728157E-08
   12.06000      4.1019479E-08
   12.12000      4.1238177E-08
   12.18000      4.1356472E-08
   12.24000      4.1343650E-08
   12.30000      4.1171930E-08
   12.36000      4.0823593E-08
   12.42000      4.0297671E-08
   12.48000      3.9614040E-08
   12.54000      3.8813184E-08
   12.60000      3.7950635E-08
   12.66000      3.7086718E-08
   12.72000      3.6273661E-08
   12.78000      3.5543398E-08
   12.84000      3.4899550E-08
   12.90000      3.4316400E-08
   12.96000      3.3745724E-08
   13.02000      3.3130100E-08
   13.08000      3.2419273E-08
   13.14000      3.1584985E-08
   13.20000      3.0629863E-08
   13.26000      2.9587737E-08
   13.32000      2.8515002E-08
   13.38000      2.7475437E-08
   13.44000      2.6522702E-08
   13.50000      2.5685495E-08
   13.56000      2.4959485E-08
   13.62000      2.4308308E-08
   13.68000      2.3673238E-08
   13.74000      2.2988838E-08
   13.80000      2.2200277E-08
   13.86000      2.1277609E-08
   13.92000      2.0223206E-08
   13.98000      1.9070399E-08
   14.04000      1.7873694E-08
   14.10000      1.6693168E-08
   14.16000      1.5577125E-08
   14.22000      1.4547701E-08
   14.28000      1.3593372E-08
   14.34000      1.2670698E-08
   14.40000      1.1715219E-08
   14.46000      1.0658966E-08
   14.52000      9.4500452E-09
   14.58000      8.0689082E-09
   14.64000      6.5365637E-09
   14.70000      4.9119819E-09
   14.76000      3.2789584E-09
   14.82000      1.7257806E-09
   14.88000      3.2322961E-10
   14.94000     -8.9288743E-10
   15.00000     -1.9297255E-09
   15.06000     -2.8336968E-09
   15.12000     -3.6762884E-09
   15.18000     -4.5336548E-09
   15.24000     -5.4659561E-09
   15.30000     -6.5022809E-09
   15.36000     -7.6351263E-09
   15.42000     -8.8254168E-09
   15.48000     -1.0015899E-08
   15.54000     -1.1148458E-08
   15.60000     -1.2180059E-08
   15.66000     -1.3092874E-08
   15.72000     -1.3896305E-08
   15.78000     -1.4621204E-08
   15.84000     -1.5309004E-08
   15.90000     -1.5999641E-08
   15.96000     -1.6722115E-08
   16.02000     -1.7490221E-08
   16.08000     -1.8304011E-08
   16.14000     -1.9155644E-08
   16.20000     -2.0036969E-08
   16.26000     -2.0945905E-08
   16.32000     -2.1889445E-08
   16.38000     -2.2882427E-08
   16.44000     -2.3942743E-08
   16.50000     -2.5084841E-08
   16.56000     -2.6313742E-08
   16.62000     -2.7621512E-08
   16.68000     -2.8987133E-08
   16.74000     -3.0379674E-08
   16.80000     -3.1763605E-08
   16.86000     -3.3104779E-08
   16.92000     -3.4375411E-08
   16.98000     -3.5557164E-08
   17.04000     -3.6641797E-08
   17.10000     -3.7629704E-08
   17.16000     -3.8526952E-08
   17.22000     -3.9341781E-08
   17.28000     -4.0081321E-08
   17.34000     -4.0749295E-08
   17.40000     -4.1344961E-08
   17.46000     -4.1863377E-08
   17.52000     -4.2296652E-08
   17.58000     -4.2635666E-08
   17.64000     -4.2871729E-08
   17.70000     -4.2997733E-08
   17.76000     -4.3008665E-08
   17.82000     -4.2901590E-08
   17.88000     -4.2675559E-08
   17.94000     -4.2331791E-08
   18.00000     -4.1874369E-08
   18.06000     -4.1311296E-08
   18.12000     -4.0655394E-08
   18.18000     -3.9924295E-08
   18.24000     -3.9139060E-08
   18.30000     -3.8321300E-08
   18.36000     -3.7489592E-08
   18.42000     -3.6656306E-08
   18.48000     -3.5826265E-08
   18.54000     -3.4997889E-08
   18.60000     -3.4166735E-08
   18.66000     -3.3329954E-08
   18.72000     -3.2489904E-08
   18.78000     -3.1655212E-08
   18.84000     -3.0838667E-08
   18.90000     -3.0052774E-08
   18.96000     -2.9304701E-08
   19.02000     -2.8592897E-08
   19.08000     -2.7906756E-08
   19.14000     -2.7229616E-08
   19.20000     -2.6543955E-08
   19.26000     -2.5836950E-08
   19.32000     -2.5104391E-08
   19.38000     -2.4351690E-08
   19.44000     -2.3591609E-08
   19.50000     -2.2839364E-08
   19.56000     -2.2106509E-08
   19.62000     -2.1395390E-08
   19.68000     -2.0696060E-08
   19.74000     -1.9986922E-08
   19.80000     -1.9239559E-08
   19.86000     -1.8426658E-08
   19.92000     -1.7530805E-08
   19.98000     -1.6551132E-08
   20.04000     -1.5505144E-08
   20.10000     -1.4424589E-08
   20.16000     -1.3346372E-08
   20.22000     -1.2301489E-08
   20.28000     -1.1305928E-08
   20.34000     -1.0356902E-08
   20.40000     -9.4358752E-09
   20.46000     -8.5173051E-09
   20.52000     -7.5799242E-09
   20.58000     -6.6164372E-09
   20.64000     -5.6380758E-09
   20.70000     -4.6722421E-09
   20.76000     -3.7538541E-09
   20.82000     -2.9131677E-09
   20.88000     -2.1641351E-09
   20.94000     -1.4973537E-09
   21.00000     -8.8036595E-10
   21.06000     -2.6583288E-10
   21.12000      3.9446382E-10
   21.18000      1.1338941E-09
   21.24000      1.9585027E-09
   21.30000      2.8420606E-09
   21.36000      3.7307895E-09
   21.42000      4.5569681E-09
   21.48000      5.2578306E-09
   21.54000      5.7943943E-09
   21.60000      6.1646817E-09
   21.66000      6.4072574E-09
   21.72000      6.5936789E-09
   21.78000      6.8115891E-09
   21.84000      7.1428405E-09
   21.90000      7.6425986E-09
   21.96000      8.3252347E-09
   22.02000      9.1610488E-09
   22.08000      1.0084809E-08
   22.14000      1.1013659E-08
   22.20000      1.1869102E-08
   22.26000      1.2596507E-08
   22.32000      1.3176353E-08
   22.38000      1.3623986E-08
   22.44000      1.3978301E-08
   22.50000      1.4283177E-08
   22.56000      1.4567681E-08
   22.62000      1.4831354E-08
   22.68000      1.5039195E-08
   22.74000      1.5128006E-08
   22.80000      1.5022252E-08
   22.86000      1.4654781E-08
   22.92000      1.3986262E-08
   22.98000      1.3017587E-08
   23.04000      1.1791559E-08
   23.10000      1.0383401E-08
   23.16000      8.8830197E-09
   23.22000      7.3743314E-09
   23.28000      5.9177205E-09
   23.34000      4.5405049E-09
   23.40000      3.2375882E-09
   23.46000      1.9813209E-09
   23.52000      7.3693845E-10
   23.58000     -5.2134902E-10
   23.64000     -1.7982709E-09
   23.70000     -3.0724845E-09
   23.76000     -4.2994737E-09
   23.82000     -5.4209712E-09
   23.88000     -6.3779027E-09
   23.94000     -7.1231439E-09
   24.00000     -7.6307165E-09
   24.06000     -7.8992901E-09
   24.12000     -7.9496711E-09
   24.18000     -7.8177802E-09
   24.24000     -7.5459416E-09
   24.30000     -7.1756143E-09
   24.36000     -6.7438357E-09
   24.42000     -6.2840657E-09
   24.48000     -5.8302674E-09
   24.54000     -5.4218083E-09
   24.60000     -5.1064428E-09
   24.66000     -4.9393827E-09
   24.72000     -4.9779025E-09
   24.78000     -5.2724922E-09
   24.84000     -5.8567613E-09
   24.90000     -6.7387589E-09
   24.96000     -7.8960554E-09
   25.02000     -9.2759542E-09
   25.08000     -1.0800924E-08
   25.14000     -1.2378093E-08
   25.20000     -1.3910829E-08
   25.26000     -1.5310182E-08
   25.32000     -1.6504467E-08
   25.38000     -1.7446023E-08
   25.44000     -1.8114998E-08
   25.50000     -1.8520490E-08
   25.56000     -1.8699188E-08
   25.62000     -1.8711372E-08
   25.68000     -1.8633916E-08
   25.74000     -1.8550224E-08
   25.80000     -1.8538065E-08
   25.86000     -1.8657405E-08
   25.92000     -1.8941105E-08
   25.98000     -1.9391265E-08
   26.04000     -1.9982634E-08
   26.10000     -2.0672488E-08
   26.16000     -2.1414456E-08
   26.22000     -2.2172371E-08
   26.28000     -2.2930370E-08
   26.34000     -2.3696584E-08
   26.40000     -2.4499716E-08
   26.46000     -2.5379876E-08
   26.52000     -2.6376528E-08
   26.58000     -2.7517018E-08
   26.64000     -2.8808838E-08
   26.70000     -3.0237576E-08
   26.76000     -3.1770924E-08
   26.82000     -3.3367378E-08
   26.88000     -3.4987028E-08
   26.94000     -3.6601261E-08
   27.00000     -3.8198614E-08
   27.06000     -3.9785139E-08
   27.12000     -4.1379298E-08
   27.18000     -4.3002917E-08
   27.24000     -4.4671044E-08
   27.30000     -4.6383668E-08
   27.36000     -4.8121798E-08
   27.42000     -4.9849060E-08
   27.48000     -5.1518271E-08
   27.54000     -5.3080978E-08
   27.60000     -5.4496880E-08
   27.66000     -5.5740294E-08
   27.72000     -5.6801749E-08
   27.78000     -5.7684726E-08
   27.84000     -5.8399042E-08
   27.90000     -5.8953827E-08
   27.96000     -5.9352757E-08
   28.02000     -5.9593230E-08
   28.08000     -5.9669382E-08
   28.14000     -5.9577381E-08
   28.20000     -5.9320591E-08
   28.26000     -5.8912541E-08
   28.32000     -5.8376582E-08
   28.38000     -5.7742387E-08
   28.44000     -5.7040474E-08
   28.50000     -5.6296280E-08
   28.56000     -5.5525366E-08
   28.62000     -5.4730926E-08
   28.68000     -5.3904337E-08
   28.74000     -5.3028849E-08
   28.80000     -5.2085756E-08
   28.86000     -5.1061591E-08
   28.92000     -4.9954231E-08
   28.98000     -4.8775799E-08
   29.04000     -4.7550898E-08
   29.10000     -4.6310163E-08
   29.16000     -4.5080796E-08
   29.22000     -4.3876877E-08
   29.28000     -4.2692562E-08
   29.34000     -4.1500563E-08
   29.40000     -4.0256634E-08
   29.46000     -3.8909253E-08
   29.52000     -3.7412320E-08
   29.58000     -3.5737880E-08
   29.64000     -3.3886046E-08
   29.70000     -3.1889638E-08
   29.76000     -2.9812025E-08
   29.82000     -2.7738047E-08
   29.88000     -2.5759395E-08
   29.94000     -2.3957652E-08
   30.00000     -2.2389205E-08
   30.06000     -2.1076350E-08
   30.12000     -2.0007519E-08
   30.18000     -1.9146853E-08
   30.24000     -1.8450281E-08
   30.30000     -1.7882950E-08
   30.36000     -1.7432125E-08
   30.42000     -1.7111233E-08
   30.48000     -1.6953674E-08
   30.54000     -1.6998712E-08
   30.60000     -1.7274372E-08
   30.66000     -1.7783330E-08
   30.72000     -1.8496646E-08
   30.78000     -1.9357540E-08
   30.84000     -2.0294179E-08
   30.90000     -2.1237607E-08
   30.96000     -2.2139444E-08
   31.02000     -2.2984068E-08
   31.08000     -2.3791690E-08
   31.14000     -2.4611293E-08
   31.20000     -2.5505436E-08
   31.26000     -2.6531294E-08
   31.32000     -2.7723420E-08
   31.38000     -2.9083353E-08
   31.44000     -3.0579152E-08
   31.50000     -3.2154876E-08
   31.56000     -3.3747078E-08
   31.62000     -3.5302982E-08
   31.68000     -3.6794663E-08
   31.74000     -3.8224723E-08
   31.80000     -3.9621845E-08
   31.86000     -4.1027846E-08
   31.92000     -4.2480639E-08
   31.98000     -4.3998796E-08
   32.04000     -4.5572797E-08
   32.10000     -4.7165720E-08
   32.16000     -4.8723127E-08
   32.22000     -5.0188834E-08
   32.28000     -5.1521461E-08
   32.34000     -5.2706426E-08
   32.40000     -5.3759610E-08
   32.46000     -5.4721390E-08
   32.52000     -5.5642808E-08
   32.58000     -5.6568009E-08
   32.64000     -5.7517997E-08
   32.70000     -5.8480691E-08
   32.76000     -5.9410194E-08
   32.82000     -6.0235784E-08
   32.88000     -6.0878435E-08
   32.94000     -6.1270569E-08
   33.00000     -6.1373910E-08
   33.06000     -6.1190597E-08
   33.12000     -6.0764599E-08
   33.18000     -6.0172596E-08
   33.24000     -5.9506579E-08
   33.30000     -5.8852542E-08
   33.36000     -5.8270668E-08
   33.42000     -5.7782550E-08
   33.48000     -5.7368826E-08
   33.54000     -5.6978067E-08
   33.60000     -5.6544259E-08
   33.66000     -5.6007721E-08
   33.72000     -5.5333167E-08
   33.78000     -5.4519429E-08
   33.84000     -5.3598011E-08
   33.90000     -5.2621182E-08
   33.96000     -5.1643735E-08
   34.02000     -5.0704394E-08
   34.08000     -4.9812879E-08
   34.14000     -4.8946546E-08
   34.20000     -4.8057366E-08
   34.26000     -4.7086697E-08
   34.32000     -4.5983114E-08
   34.38000     -4.4717822E-08
   34.44000     -4.3293131E-08
   34.50000     -4.1741856E-08
   34.56000     -4.0118064E-08
   34.62000     -3.8482177E-08
   34.68000     -3.6884906E-08
   34.74000     -3.5354795E-08
   34.80000     -3.3892920E-08
   34.86000     -3.2476205E-08
   34.92000     -3.1068012E-08
   34.98000     -2.9632517E-08
   35.04000     -2.8148172E-08
   35.10000     -2.6615949E-08
   35.16000     -2.5059876E-08
   35.22000     -2.3520016E-08
   35.28000     -2.2040464E-08
   35.34000     -2.0656541E-08
   35.40000     -1.9385331E-08
   35.46000     -1.8222401E-08
   35.52000     -1.7145348E-08
   35.58000     -1.6122600E-08
   35.64000     -1.5124355E-08
   35.70000     -1.4132150E-08
   35.76000     -1.3144313E-08
   35.82000     -1.2176064E-08
   35.88000     -1.1254778E-08
   35.94000     -1.0412325E-08
   36.00000     -9.6769783E-09
   36.06000     -9.0671168E-09
   36.12000     -8.5880139E-09
   36.18000     -8.2318294E-09
   36.24000     -7.9799971E-09
   36.30000     -7.8068298E-09
   36.36000     -7.6833668E-09
   36.42000     -7.5810345E-09
   36.48000     -7.4751254E-09
   36.54000     -7.3482171E-09
   36.60000     -7.1932962E-09
   36.66000     -7.0158923E-09
   36.72000     -6.8342674E-09
   36.78000     -6.6770225E-09
   36.84000     -6.5782855E-09
   36.90000     -6.5716224E-09
   36.96000     -6.6843957E-09
   37.02000     -6.9341537E-09
   37.08000     -7.3277540E-09
   37.14000     -7.8627806E-09
   37.20000     -8.5299678E-09
   37.26000     -9.3152845E-09
   37.32000     -1.0201003E-08
   37.38000     -1.1166008E-08
   37.44000     -1.2186296E-08
   37.50000     -1.3236521E-08
   37.56000     -1.4292814E-08
   37.62000     -1.5336234E-08
   37.68000     -1.6355813E-08
   37.74000     -1.7350262E-08
   37.80000     -1.8328111E-08
   37.86000     -1.9306555E-08
   37.92000     -2.0309574E-08
   37.98000     -2.1365521E-08
   38.04000     -2.2503988E-08
   38.10000     -2.3751708E-08
   38.16000     -2.5127626E-08
   38.22000     -2.6638050E-08
   38.28000     -2.8273396E-08
   38.34000     -3.0007900E-08
   38.40000     -3.1802859E-08
   38.46000     -3.3612590E-08
   38.52000     -3.5391498E-08
   38.58000     -3.7100083E-08
   38.64000     -3.8708603E-08
   38.70000     -4.0197804E-08
   38.76000     -4.1557520E-08
   38.82000     -4.2784084E-08
   38.88000     -4.3877662E-08
   38.94000     -4.4840146E-08
   39.00000     -4.5673733E-08
   39.06000     -4.6380155E-08
   39.12000     -4.6960391E-08
   39.18000     -4.7414748E-08
   39.24000     -4.7743175E-08
   39.30000     -4.7945768E-08
   39.36000     -4.8023239E-08
   39.42000     -4.7977412E-08
   39.48000     -4.7811742E-08
   39.54000     -4.7531849E-08
   39.60000     -4.7146088E-08
   39.66000     -4.6665892E-08
   39.72000     -4.6105523E-08
   39.78000     -4.5480984E-08
   39.84000     -4.4808026E-08
   39.90000     -4.4099647E-08
   39.96000     -4.3363666E-08
   40.02000     -4.2601155E-08
   40.08000     -4.1806256E-08
   40.14000     -4.0967549E-08
   40.20000     -4.0070844E-08
   40.26000     -3.9102744E-08
   40.32000     -3.8054399E-08
   40.38000     -3.6924728E-08
   40.44000     -3.5722440E-08
   40.50000     -3.4466389E-08
   40.56000     -3.3184005E-08
   40.62000     -3.1907827E-08
   40.68000     -3.0670673E-08
   40.74000     -2.9500406E-08
   40.80000     -2.8415625E-08
   40.86000     -2.7423647E-08
   40.92000     -2.6521638E-08
   40.98000     -2.5700947E-08
   41.04000     -2.4953577E-08
   41.10000     -2.4278844E-08
   41.16000     -2.3687958E-08
   41.22000     -2.3204738E-08
   41.28000     -2.2861791E-08
   41.34000     -2.2692909E-08
   41.40000     -2.2723734E-08
   41.46000     -2.2963320E-08
   41.52000     -2.3399107E-08
   41.58000     -2.3996915E-08
   41.64000     -2.4706301E-08
   41.70000     -2.5470179E-08
   41.76000     -2.6236481E-08
   41.82000     -2.6969001E-08
   41.88000     -2.7654655E-08
   41.94000     -2.8305243E-08
   42.00000     -2.8953259E-08
   42.06000     -2.9642903E-08
   42.12000     -3.0418743E-08
   42.18000     -3.1315043E-08
   42.24000     -3.2348275E-08
   42.30000     -3.3514219E-08
   42.36000     -3.4789675E-08
   42.42000     -3.6137628E-08
   42.48000     -3.7514237E-08
   42.54000     -3.8875896E-08
   42.60000     -4.0185139E-08
   42.66000     -4.1414456E-08
   42.72000     -4.2547832E-08
   42.78000     -4.3580041E-08
   42.84000     -4.4514486E-08
   42.90000     -4.5360355E-08
   42.96000     -4.6130062E-08
   43.02000     -4.6837300E-08
   43.08000     -4.7495529E-08
   43.14000     -4.8116199E-08
   43.20000     -4.8706106E-08
   43.26000     -4.9264084E-08
   43.32000     -4.9778080E-08
   43.38000     -5.0224195E-08
   43.44000     -5.0569106E-08
   43.50000     -5.0775942E-08
   43.56000     -5.0812289E-08
   43.62000     -5.0657761E-08
   43.68000     -5.0308685E-08
   43.74000     -4.9778194E-08
   43.80000     -4.9091874E-08
   43.86000     -4.8280548E-08
   43.92000     -4.7372612E-08
   43.98000     -4.6388223E-08
   44.04000     -4.5336812E-08
   44.10000     -4.4218307E-08
   44.16000     -4.3027320E-08
   44.22000     -4.1758828E-08
   44.28000     -4.0413649E-08
   44.34000     -3.9001936E-08
   44.40000     -3.7543714E-08
   44.46000     -3.6066055E-08
   44.52000     -3.4597690E-08
   44.58000     -3.3162596E-08
   44.64000     -3.1774430E-08
   44.70000     -3.0433533E-08
   44.76000     -2.9127344E-08
   44.82000     -2.7834101E-08
   44.88000     -2.6528708E-08
   44.94000     -2.5189077E-08
   45.00000     -2.3801269E-08
   45.06000     -2.2362265E-08
   45.12000     -2.0879975E-08
   45.18000     -1.9370972E-08
   45.24000     -1.7857051E-08
   45.30000     -1.6361726E-08
   45.36000     -1.4907501E-08
   45.42000     -1.3514066E-08
   45.48000     -1.2197082E-08
   45.54000     -1.0967137E-08
   45.60000     -9.8287760E-09
   45.66000     -8.7800078E-09
   45.72000     -7.8130151E-09
   45.78000     -6.9165038E-09
   45.84000     -6.0794170E-09
   45.90000     -5.2949458E-09
   45.96000     -4.5633781E-09
   46.02000     -3.8926555E-09
   46.08000     -3.2963454E-09
   46.14000     -2.7896925E-09
   46.20000     -2.3849818E-09
   46.26000     -2.0874713E-09
   46.32000     -1.8927988E-09
   46.38000     -1.7863567E-09
   46.44000     -1.7448546E-09
   46.50000     -1.7400830E-09
   46.56000     -1.7445357E-09
   46.62000     -1.7379437E-09
   46.68000     -1.7131082E-09
   46.74000     -1.6791508E-09
   46.80000     -1.6607478E-09
   46.86000     -1.6930818E-09
   46.92000     -1.8136531E-09
   46.98000     -2.0531163E-09
   47.04000     -2.4275251E-09
   47.10000     -2.9337814E-09
   47.16000     -3.5491574E-09
   47.22000     -4.2348685E-09
   47.28000     -4.9431068E-09
   47.34000     -5.6265037E-09
   47.40000     -6.2485341E-09
   47.46000     -6.7928569E-09
   47.52000     -7.2693314E-09
   47.58000     -7.7148803E-09
   47.64000     -8.1886702E-09
   47.70000     -8.7628296E-09
   47.76000     -9.5114974E-09
   47.82000     -1.0501552E-08
   47.88000     -1.1787655E-08
   47.94000     -1.3412707E-08
   48.00000     -1.5412963E-08
   48.06000     -1.7826006E-08
   48.12000     -2.0699424E-08
   48.18000     -2.4098567E-08
   48.24000     -2.8112424E-08
   48.30000     -3.2857443E-08
   48.36000     -3.8479250E-08
   48.42000     -4.5152802E-08
   48.48000     -5.3081511E-08
   48.54000     -6.2496397E-08
   48.60000     -7.3656437E-08
   48.66000     -8.6851365E-08
   48.72000     -1.0240782E-07
   48.78000     -1.2069897E-07
   48.84000     -1.4215740E-07
   48.90000     -1.6728991E-07
   48.96000     -1.9669295E-07
   49.02000     -2.3106662E-07
   49.08000     -2.7122593E-07
   49.14000     -3.1810825E-07
   49.20000     -3.7277755E-07
   49.26000     -4.3642703E-07
   49.32000     -5.1038325E-07
   49.38000     -5.9611529E-07
   49.44000     -6.9525123E-07
   49.50000     -8.0960370E-07
   49.56000     -9.4120287E-07
   49.62000     -1.0923343E-06
   49.68000     -1.2655777E-06
   49.74000     -1.4638410E-06
   49.80000     -1.6903892E-06
   49.86000     -1.9488623E-06
   49.92000     -2.2432882E-06
   49.98000     -2.5780914E-06
   50.04000     -2.9581010E-06
   50.10000     -3.3885658E-06
   50.16000     -3.8751778E-06
   50.22000     -4.4241083E-06
   50.28000     -5.0420490E-06
   50.34000     -5.7362581E-06
   50.40000     -6.5146000E-06
   50.46000     -7.3855763E-06
   50.52000     -8.3583427E-06
   50.58000     -9.4427105E-06
   50.64000     -1.0649138E-05
   50.70000     -1.1988718E-05
   50.76000     -1.3473171E-05
   50.82000     -1.5114823E-05
   50.88000     -1.6926611E-05
   50.94000     -1.8922085E-05
   51.00000     -2.1115386E-05
   51.06000     -2.3521246E-05
   51.12000     -2.6154947E-05
   51.18000     -2.9032270E-05
   51.24000     -3.2169424E-05
   51.30000     -3.5582962E-05
   51.36000     -3.9289695E-05
   51.42000     -4.3306580E-05
   51.48000     -4.7650643E-05
   51.54000     -5.2338848E-05
   51.60000     -5.7388002E-05
   51.66000     -6.2814637E-05
   51.72000     -6.8634879E-05
   51.78000     -7.4864329E-05
   51.84000     -8.1517916E-05
   51.90000     -8.8609711E-05
   51.96000     -9.6152784E-05
   52.02000     -1.0415896E-04
   52.08000     -1.1263873E-04
   52.14000     -1.2160103E-04
   52.20000     -1.3105314E-04
   52.26000     -1.4100048E-04
   52.32000     -1.5144660E-04
   52.38000     -1.6239296E-04
   52.44000     -1.7383888E-04
   52.50000     -1.8578129E-04
   52.56000     -1.9821475E-04
   52.62000     -2.1113122E-04
   52.68000     -2.2452007E-04
   52.74000     -2.3836805E-04
   52.80000     -2.5265917E-04
   52.86000     -2.6737482E-04
   52.92000     -2.8249365E-04
   52.98000     -2.9799182E-04
   53.04000     -3.1384299E-04
   53.10000     -3.3001858E-04
   53.16000     -3.4648774E-04
   53.22000     -3.6321743E-04
   53.28000     -3.8017298E-04
   53.34000     -3.9731781E-04
   53.40000     -4.1461395E-04
   53.46000     -4.3202221E-04
   53.52000     -4.4950246E-04
   53.58000     -4.6701386E-04
   53.64000     -4.8451530E-04
   53.70000     -5.0196564E-04
   53.76000     -5.1932398E-04
   53.82000     -5.3655036E-04
   53.88000     -5.5360573E-04
   53.94000     -5.7045225E-04
   54.00000     -5.8705360E-04
   54.06000     -6.0337537E-04
   54.12000     -6.1938528E-04
   54.18000     -6.3505315E-04
   54.24000     -6.5035193E-04
   54.30000     -6.6525716E-04
   54.36000     -6.7974755E-04
   54.42000     -6.9380505E-04
   54.48000     -7.0741493E-04
   54.54000     -7.2056567E-04
   54.60000     -7.3324912E-04
   54.66000     -7.4546039E-04
   54.72000     -7.5719802E-04
   54.78000     -7.6846383E-04
   54.84000     -7.7926274E-04
   54.90000     -7.8960287E-04
   54.96000     -7.9949485E-04
   55.02000     -8.0895214E-04
   55.08000     -8.1799028E-04
   55.14000     -8.2662678E-04
   55.20000     -8.3488086E-04
   55.26000     -8.4277318E-04
   55.32000     -8.5032557E-04
   55.38000     -8.5756049E-04
   55.44000     -8.6450076E-04
   55.50000     -8.7116944E-04
   55.56000     -8.7758928E-04