  -2.400000      0.0000000E+00
  -2.340000      0.0000000E+00
  -2.280000      0.0000000E+00
  -2.220000      0.0000000E+00
  -2.160000      0.0000000E+00
  -2.100000      0.0000000E+00
  -2.040000      0.0000000E+00
  -1.980000      0.0000000E+00
  -1.920000     -3.4832230E-26
  -1.860000     -4.4445853E-25
  -1.800000     -2.9001487E-24
  -1.740000     -1.2837227E-23
  -1.680000     -4.3060115E-23
  -1.620000     -1.1540651E-22
  -1.560000     -2.5190893E-22
  -1.500000     -4.3965725E-22
  -1.440000     -5.4995071E-22
  -1.380000     -2.0897006E-22
  -1.320000      1.3163195E-21
  -1.260000      5.0196341E-21
  -1.200000      1.1507943E-20
  -1.140000      1.9535284E-20
  -1.080000      2.4025112E-20
  -1.020000      1.5067591E-20
 -0.9600000     -1.9460427E-20
 -0.9000000     -8.5414457E-20
 -0.8400000     -1.6950270E-19
 -0.7800000     -2.3031839E-19
 -0.7200000     -2.0734732E-19
 -0.6600000     -5.8509464E-20
 -0.6000000      1.8289709E-19
 -0.5400000      3.7307195E-19
 -0.4800000      3.0811795E-19
 -0.4200000     -9.8635394E-20
 -0.3600000     -5.6222629E-19
 -0.3000000     -2.8133025E-19
 -0.2400000      1.8197614E-18
 -0.1800000      6.2761047E-18
 -0.1200000      1.1864373E-17
 -5.9999999E-02  1.4690135E-17
  0.0000000E+00  8.6858092E-18
  5.9999999E-02 -1.1576762E-17
  0.1200000     -4.5972511E-17
  0.1800000     -8.3858360E-17
  0.2400000     -1.0275439E-16
  0.3000000     -7.4432213E-17
  0.3600000      2.0469537E-17
  0.4200000      1.7338190E-16
  0.4800000      3.3406503E-16
  0.5400000      4.1453062E-16
  0.6000000      3.1890486E-16
  0.6600000     -4.1700507E-18
  0.7200000     -5.0584384E-16
  0.7800000     -1.0095311E-15
  0.8400000     -1.2423471E-15
  0.9000000     -9.3712983E-16
  0.9600000      1.8098565E-17
   1.020000      1.4435832E-15
   1.080000      2.8242577E-15
   1.140000      3.4234603E-15
   1.200000      2.5617622E-15
   1.260000     -1.3980615E-17
   1.320000     -3.8216572E-15
   1.380000     -7.5722213E-15
   1.440000     -9.4606347E-15
   1.500000     -7.8133834E-15
   1.560000     -1.9136861E-15
   1.620000      7.3188653E-15
   1.680000      1.7156098E-14
   1.740000      2.3640888E-14
   1.800000      2.2897186E-14
   1.860000      1.2813457E-14
   1.920000     -5.5305335E-15
   1.980000     -2.7392661E-14
   2.040000     -4.5328853E-14
   2.100000     -5.1562717E-14
   2.160000     -4.1115111E-14
   2.220000     -1.4531848E-14
   2.280000      2.1090465E-14
   2.340000      5.3678223E-14
   2.400000      7.0337643E-14
   2.460000      6.2915967E-14
   2.520000      3.2828839E-14
   2.580000     -7.2559502E-15
   2.640000     -3.6557217E-14
   2.700000     -3.4133002E-14
   2.760000      1.0521236E-14
   2.820000      8.8207639E-14
   2.880000      1.6665574E-13
   2.940000      1.9640522E-13
   3.000000      1.2638600E-13
   3.060000     -7.4168089E-14
   3.120000     -3.9420412E-13
   3.180000     -7.6799998E-13
   3.240000     -1.0780799E-12
   3.300000     -1.1771630E-12
   3.360000     -9.2691642E-13
   3.420000     -2.4572033E-13
   3.480000      8.4634882E-13
   3.540000      2.1984712E-12
   3.600000      3.5275131E-12
   3.660000      4.4512189E-12
   3.720000      4.5571763E-12
   3.780000      3.5009081E-12
   3.840000      1.1181215E-12
   3.900000     -2.4718036E-12
   3.960000     -6.7996680E-12
   4.020000     -1.1047059E-11
   4.080000     -1.4136392E-11
   4.140000     -1.4917328E-11
   4.200000     -1.2432788E-11
   4.260000     -6.2203849E-12
   4.320000      3.4187273E-12
   4.380000      1.5263655E-11
   4.440000      2.7203611E-11
   4.500000      3.6498818E-11
   4.560000      4.0269659E-11
   4.620000      3.6152244E-11
   4.680000      2.3000652E-11
   4.740000      1.4745795E-12
   4.800000     -2.5660097E-11
   4.860000     -5.3660847E-11
   4.920000     -7.6438501E-11
   4.980000     -8.7650658E-11
   5.040000     -8.2098432E-11
   5.100000     -5.7157938E-11
   5.160000     -1.3915313E-11
   5.220000      4.2314430E-11
   5.280000      1.0231002E-10
   5.340000      1.5416694E-10
   5.400000      1.8527768E-10
   5.460000      1.8473861E-10
   5.520000      1.4573129E-10
   5.580000      6.7405997E-11
   5.640000     -4.4114275E-11
   5.700000     -1.7581257E-10
   5.760000     -3.0892064E-10
   5.820000     -4.2089762E-10
   5.880000     -4.8786680E-10
   5.940000     -4.8707421E-10
   6.000000     -3.9897063E-10
   6.060000     -2.0863580E-10
   6.120000      9.3564829E-11
   6.180000      5.1202220E-10
   6.240000      1.0464031E-09
   6.300000      1.6923369E-09
   6.360000      2.4419620E-09
   6.420000      3.2841097E-09
   6.480000      4.2040766E-09
   6.540000      5.1831317E-09
   6.600000      6.1980621E-09
   6.660000      7.2211370E-09
   6.720000      8.2208240E-09
   6.780000      9.1633927E-09
   6.840000      1.0015301E-08
   6.900000      1.0745999E-08
   6.960000      1.1330663E-08
   7.020000      1.1752325E-08
   7.080000      1.2003072E-08
   7.140000      1.2084194E-08
   7.200000      1.2005450E-08
   7.260000      1.1783719E-08
   7.320000      1.1441371E-08
   7.380000      1.1004502E-08
   7.440000      1.0501037E-08
   7.500000      9.9585185E-09
   7.560000      9.4014325E-09
   7.620000      8.8480840E-09
   7.680000      8.3073450E-09
   7.740000      7.7759443E-09
   7.800000      7.2371722E-09
   7.860000      6.6618244E-09
   7.920000      6.0118444E-09
   7.980000      5.2465072E-09
   8.040000      4.3302606E-09
   8.100000      3.2407119E-09
   8.160000      1.9749629E-09
   8.220000      5.5265875E-10
   8.280000     -9.8523756E-10
   8.340000     -2.5819413E-09
   8.400000     -4.1735411E-09
   8.460000     -5.6989640E-09
   8.520000     -7.1088984E-09
   8.580000     -8.3715888E-09
   8.640000     -9.4742285E-09
   8.700000     -1.0419849E-08
   8.760000     -1.1220797E-08
   8.820000     -1.1890854E-08
   8.880000     -1.2438353E-08
   8.940000     -1.2862365E-08
   9.000000     -1.3153079E-08
   9.060000     -1.3296296E-08
   9.120000     -1.3280708E-08
   9.180000     -1.3105856E-08
   9.240000     -1.2788387E-08
   9.300000     -1.2364803E-08
   9.360000     -1.1889819E-08
   9.420000     -1.1430692E-08
   9.480000     -1.1058932E-08
   9.540000     -1.0841341E-08
   9.600000     -1.0832324E-08
   9.660000     -1.1068776E-08
   9.720000     -1.1567971E-08
   9.780000     -1.2328018E-08
   9.840000     -1.3329863E-08
   9.900000     -1.4539767E-08
   9.960000     -1.5911521E-08
   10.02000     -1.7388290E-08
   10.08000     -1.8904501E-08
   10.14000     -2.0388550E-08
   10.20000     -2.1766935E-08
   10.26000     -2.2969996E-08
   10.32000     -2.3938687E-08
   10.38000     -2.4631158E-08
   10.44000     -2.5027552E-08
   10.50000     -2.5131547E-08
   10.56000     -2.4967818E-08
   10.62000     -2.4575652E-08
   10.68000     -2.4000116E-08
   10.74000     -2.3283086E-08
   10.80000     -2.2456705E-08
   10.86000     -2.1541275E-08
   10.92000     -2.0548290E-08
   10.98000     -1.9487635E-08
   11.04000     -1.8376372E-08
   11.10000     -1.7245830E-08
   11.16000     -1.6143892E-08
   11.22000     -1.5130864E-08
   11.28000     -1.4269404E-08
   11.34000     -1.3611081E-08
   11.40000     -1.3183506E-08
   11.46000     -1.2982151E-08
   11.52000     -1.2969680E-08
   11.58000     -1.3083381E-08
   11.64000     -1.3248811E-08
   11.70000     -1.3395749E-08
   11.76000     -1.3471776E-08
   11.82000     -1.3449504E-08
   11.88000     -1.3325393E-08
   11.94000     -1.3110721E-08
   12.00000     -1.2817804E-08
   12.06000     -1.2446149E-08
   12.12000     -1.1973413E-08
   12.18000     -1.1354730E-08
   12.24000     -1.0531432E-08
   12.30000     -9.4472794E-09
   12.36000     -8.0677784E-09
   12.42000     -6.3969186E-09
   12.48000     -4.4860733E-09
   12.54000     -2.4318620E-09
   12.60000     -3.6282713E-10
   12.66000      1.5820233E-09
   12.72000      3.2774139E-09
   12.78000      4.6325521E-09
   12.84000      5.6032454E-09
   12.90000      6.1926460E-09
   12.96000      6.4410779E-09
   13.02000      6.4083752E-09
   13.08000      6.1541017E-09
   13.14000      5.7213834E-09
   13.20000      5.1288365E-09
   13.26000      4.3725219E-09
   13.32000      3.4367988E-09
   13.38000      2.3102102E-09
   13.44000      1.0009517E-09
   13.50000     -4.5344725E-10
   13.56000     -1.9858002E-09
   13.62000     -3.5089016E-09
   13.68000     -4.9324145E-09
   13.74000     -6.1817986E-09
   13.80000     -7.2132096E-09
   13.86000     -8.0194571E-09
   13.92000     -8.6249541E-09
   13.98000     -9.0712353E-09
   14.04000     -9.3977413E-09
   14.10000     -9.6242241E-09
   14.16000     -9.7406039E-09
   14.22000     -9.7076915E-09
   14.28000     -9.4686063E-09
   14.34000     -8.9672572E-09
   14.40000     -8.1679126E-09
   14.46000     -7.0695618E-09
   14.52000     -5.7103167E-09
   14.58000     -4.1602441E-09
   14.64000     -2.5045068E-09
   14.70000     -8.2168455E-10
   14.76000      8.3640228E-10
   14.82000      2.4574662E-09
   14.88000      4.0703965E-09
   14.94000      5.7353216E-09
   15.00000      7.5250135E-09
   15.06000      9.5030108E-09
   15.12000      1.1704692E-08
   15.18000      1.4126470E-08
   15.24000      1.6725751E-08
   15.30000      1.9431143E-08
   15.36000      2.2159416E-08
   15.42000      2.4834153E-08
   15.48000      2.7400878E-08
   15.54000      2.9834919E-08
   15.60000      3.2140736E-08
   15.66000      3.4343884E-08
   15.72000      3.6478866E-08
   15.78000      3.8576843E-08
   15.84000      4.0656840E-08
   15.90000      4.2722679E-08
   15.96000      4.4765784E-08
   16.02000      4.6772300E-08
   16.08000      4.8731419E-08
   16.14000      5.0641606E-08
   16.20000      5.2511972E-08
   16.26000      5.4357855E-08
   16.32000      5.6191514E-08
   16.38000      5.8010961E-08
   16.44000      5.9790764E-08
   16.50000      6.1478680E-08
   16.56000      6.3000165E-08
   16.62000      6.4270743E-08
   16.68000      6.5213435E-08
   16.74000      6.5776639E-08
   16.80000      6.5947589E-08
   16.86000      6.5757334E-08
   16.92000      6.5275650E-08
   16.98000      6.4597224E-08
   17.04000      6.3822853E-08
   17.10000      6.3040595E-08
   17.16000      6.2311919E-08
   17.22000      6.1665965E-08
   17.28000      6.1102540E-08
   17.34000      6.0602041E-08
   17.40000      6.0138440E-08
   17.46000      5.9691089E-08
   17.52000      5.9251743E-08
   17.58000      5.8825158E-08
   17.64000      5.8423879E-08
   17.70000      5.8059442E-08
   17.76000      5.7733441E-08
   17.82000      5.7431407E-08
   17.88000      5.7121522E-08
   17.94000      5.6758385E-08
   18.00000      5.6290602E-08
   18.06000      5.5669933E-08
   18.12000      5.4859477E-08
   18.18000      5.3839109E-08
   18.24000      5.2607042E-08
   18.30000      5.1177750E-08
   18.36000      4.9577160E-08
   18.42000      4.7836625E-08
   18.48000      4.5987019E-08
   18.54000      4.4054193E-08
   18.60000      4.2056261E-08
   18.66000      4.0002817E-08
   18.72000      3.7895735E-08
   18.78000      3.5730952E-08
   18.84000      3.3500751E-08
   18.90000      3.1196123E-08
   18.96000      2.8808978E-08
   19.02000      2.6334069E-08
   19.08000      2.3770516E-08
   19.14000      2.1122778E-08
   19.20000      1.8400979E-08
   19.26000      1.5620527E-08
   19.32000      1.2801225E-08
   19.38000      9.9662101E-09
   19.44000      7.1411383E-09
   19.50000      4.3539008E-09
   19.56000      1.6347861E-09
   19.62000     -9.8339581E-10
   19.68000     -3.4659919E-09
   19.74000     -5.7787086E-09
   19.80000     -7.8916091E-09
   19.86000     -9.7844461E-09
   19.92000     -1.1452076E-08
   19.98000     -1.2908202E-08
   20.04000     -1.4185743E-08
   20.10000     -1.5332793E-08
   20.16000     -1.6404302E-08
   20.22000     -1.7451011E-08
   20.28000     -1.8508247E-08
   20.34000     -1.9587668E-08
   20.40000     -2.0674578E-08
   20.46000     -2.1732108E-08
   20.52000     -2.2711696E-08
   20.58000     -2.3567290E-08
   20.64000     -2.4269468E-08
   20.70000     -2.4815394E-08
   20.76000     -2.5231612E-08
   20.82000     -2.5568738E-08
   20.88000     -2.5889600E-08
   20.94000     -2.6254343E-08
   21.00000     -2.6706900E-08
   21.06000     -2.7266610E-08
   21.12000     -2.7927038E-08
   21.18000     -2.8661615E-08
   21.24000     -2.9433728E-08
   21.30000     -3.0207751E-08
   21.36000     -3.0957654E-08
   21.42000     -3.1671025E-08
   21.48000     -3.2347931E-08
   21.54000     -3.2995707E-08
   21.60000     -3.3621703E-08
   21.66000     -3.4226318E-08
   21.72000     -3.4798386E-08
   21.78000     -3.5314205E-08
   21.84000     -3.5740587E-08
   21.90000     -3.6041406E-08
   21.96000     -3.6186158E-08
   22.02000     -3.6158447E-08
   22.08000     -3.5962007E-08
   22.14000     -3.5622243E-08
   22.20000     -3.5182367E-08
   22.26000     -3.4694665E-08
   22.32000     -3.4209176E-08
   22.38000     -3.3762991E-08
   22.44000     -3.3373613E-08
   22.50000     -3.3038614E-08
   22.56000     -3.2741880E-08
   22.62000     -3.2464488E-08
   22.68000     -3.2196645E-08
   22.74000     -3.1946474E-08
   22.80000     -3.1742577E-08
   22.86000     -3.1629096E-08
   22.92000     -3.1654618E-08
   22.98000     -3.1858370E-08
   23.04000     -3.2258001E-08
   23.10000     -3.2843044E-08
   23.16000     -3.3576264E-08
   23.22000     -3.4402692E-08
   23.28000     -3.5263792E-08
   23.34000     -3.6112532E-08
   23.40000     -3.6924956E-08
   23.46000     -3.7704901E-08
   23.52000     -3.8480852E-08
   23.58000     -3.9296097E-08
   23.64000     -4.0195530E-08
   23.70000     -4.1213095E-08
   23.76000     -4.2363379E-08
   23.82000     -4.3639311E-08
   23.88000     -4.5015849E-08
   23.94000     -4.6457831E-08
   24.00000     -4.7929007E-08
   24.06000     -4.9399482E-08
   24.12000     -5.0849540E-08
   24.18000     -5.2269204E-08
   24.24000     -5.3654325E-08
   24.30000     -5.5000857E-08
   24.36000     -5.6299552E-08
   24.42000     -5.7532887E-08
   24.48000     -5.8675592E-08
   24.54000     -5.9698728E-08
   24.60000     -6.0576532E-08
   24.66000     -6.1293917E-08
   24.72000     -6.1852290E-08
   24.78000     -6.2271461E-08
   24.84000     -6.2586217E-08
   24.90000     -6.2837948E-08
   24.96000     -6.3063148E-08
   25.02000     -6.3282080E-08
   25.08000     -6.3491207E-08
   25.14000     -6.3662156E-08
   25.20000     -6.3748075E-08
   25.26000     -6.3695907E-08
   25.32000     -6.3460902E-08
   25.38000     -6.3019172E-08
   25.44000     -6.2374340E-08
   25.50000     -6.1556726E-08
   25.56000     -6.0615712E-08
   25.62000     -5.9608432E-08
   25.68000     -5.8588636E-08
   25.74000     -5.7599149E-08
   25.80000     -5.6669386E-08
   25.86000     -5.5817502E-08
   25.92000     -5.5054841E-08
   25.98000     -5.4390021E-08
   26.04000     -5.3830775E-08
   26.10000     -5.3382848E-08
   26.16000     -5.3047110E-08
   26.22000     -5.2816375E-08
   26.28000     -5.2673606E-08
   26.34000     -5.2592288E-08
   26.40000     -5.2538752E-08
   26.46000     -5.2475698E-08
   26.52000     -5.2366062E-08
   26.58000     -5.2176819E-08
   26.64000     -5.1882601E-08
   26.70000     -5.1469240E-08
   26.76000     -5.0936897E-08
   26.82000     -5.0301963E-08
   26.88000     -4.9596618E-08
   26.94000     -4.8865115E-08
   27.00000     -4.8156718E-08
   27.06000     -4.7516433E-08
   27.12000     -4.6975568E-08
   27.18000     -4.6544518E-08
   27.24000     -4.6209760E-08
   27.30000     -4.5935799E-08
   27.36000     -4.5671413E-08
   27.42000     -4.5358568E-08
   27.48000     -4.4941757E-08
   27.54000     -4.4375859E-08
   27.60000     -4.3631221E-08
   27.66000     -4.2695635E-08
   27.72000     -4.1573653E-08
   27.78000     -4.0284000E-08
   27.84000     -3.8855980E-08
   27.90000     -3.7325428E-08
   27.96000     -3.5730661E-08
   28.02000     -3.4108389E-08
   28.08000     -3.2489844E-08
   28.14000     -3.0897343E-08
   28.20000     -2.9341976E-08
   28.26000     -2.7823040E-08
   28.32000     -2.6329833E-08
   28.38000     -2.4845756E-08
   28.44000     -2.3353891E-08
   28.50000     -2.1842574E-08
   28.56000     -2.0309136E-08
   28.62000     -1.8760510E-08
   28.68000     -1.7210418E-08
   28.74000     -1.5674134E-08
   28.80000     -1.4162926E-08
   28.86000     -1.2680399E-08
   28.92000     -1.1222265E-08
   28.98000     -9.7796162E-09
   29.04000     -8.3442906E-09
   29.10000     -6.9140063E-09
   29.16000     -5.4950964E-09
   29.22000     -4.1018309E-09
   29.28000     -2.7528981E-09
   29.34000     -1.4669453E-09
   29.40000     -2.5945962E-10
   29.46000      8.5743068E-10
   29.52000      1.8721833E-09
   29.58000      2.7696132E-09
   29.64000      3.5276537E-09
   29.70000      4.1173545E-09
   29.76000      4.5071440E-09
   29.82000      4.6706328E-09
   29.88000      4.5956865E-09
   29.94000      4.2917900E-09
   30.00000      3.7930605E-09
   30.06000      3.1555154E-09
   30.12000      2.4488682E-09
   30.18000      1.7446338E-09
   30.24000      1.1033005E-09
   30.30000      5.6350130E-10
   30.36000      1.3560061E-10
   30.42000     -1.9897825E-10
   30.48000     -4.8271109E-10
   30.54000     -7.7258311E-10
   30.60000     -1.1287474E-09
   30.66000     -1.6040381E-09
   30.72000     -2.2367888E-09
   30.78000     -3.0483069E-09
   30.84000     -4.0448254E-09
   30.90000     -5.2223048E-09
   30.96000     -6.5716681E-09
   31.02000     -8.0822264E-09
   31.08000     -9.7421538E-09
   31.14000     -1.1536393E-08
   31.20000     -1.3443620E-08
   31.26000     -1.5434281E-08
   31.32000     -1.7471065E-08
   31.38000     -1.9511790E-08
   31.44000     -2.1513383E-08
   31.50000     -2.3435014E-08
   31.56000     -2.5238897E-08
   31.62000     -2.6888564E-08
   31.68000     -2.8345898E-08
   31.74000     -2.9569071E-08
   31.80000     -3.0513313E-08
   31.86000     -3.1135293E-08
   31.92000     -3.1400248E-08
   31.98000     -3.1289801E-08
   32.04000     -3.0807993E-08
   32.10000     -2.9983731E-08
   32.16000     -2.8868886E-08
   32.22000     -2.7532645E-08
   32.28000     -2.6053302E-08
   32.34000     -2.4508978E-08
   32.40000     -2.2968505E-08
   32.46000     -2.1483642E-08
   32.52000     -2.0083620E-08
   32.58000     -1.8773168E-08
   32.64000     -1.7534758E-08
   32.70000     -1.6335326E-08
   32.76000     -1.5136456E-08
   32.82000     -1.3905960E-08
   32.88000     -1.2628110E-08
   32.94000     -1.1309925E-08
   33.00000     -9.9820303E-09
   33.06000     -8.6942045E-09
   33.12000     -7.5071513E-09
   33.18000     -6.4829244E-09
   33.24000     -5.6763527E-09
   33.30000     -5.1290763E-09
   33.36000     -4.8667301E-09
   33.42000     -4.8989017E-09
   33.48000     -5.2209757E-09
   33.54000     -5.8168994E-09
   33.60000     -6.6621131E-09
   33.66000     -7.7261975E-09
   33.72000     -8.9750687E-09
   33.78000     -1.0372760E-08
   33.84000     -1.1882908E-08
   33.90000     -1.3470095E-08
   33.96000     -1.5101021E-08
   34.02000     -1.6745343E-08
   34.08000     -1.8375813E-08
   34.14000     -1.9967461E-08
   34.20000     -2.1495866E-08
   34.26000     -2.2935179E-08
   34.32000     -2.4256932E-08
   34.38000     -2.5430820E-08
   34.44000     -2.6427941E-08
   34.50000     -2.7225925E-08
   34.56000     -2.7814311E-08
   34.62000     -2.8197936E-08
   34.68000     -2.8396627E-08
   34.74000     -2.8440894E-08
   34.80000     -2.8365026E-08
   34.86000     -2.8200235E-08
   34.92000     -2.7970458E-08
   34.98000     -2.7692188E-08
   35.04000     -2.7377672E-08
   35.10000     -2.7039166E-08
   35.16000     -2.6691401E-08
   35.22000     -2.6350454E-08
   35.28000     -2.6029188E-08
   35.34000     -2.5731458E-08
   35.40000     -2.5448212E-08
   35.46000     -2.5158068E-08
   35.52000     -2.4832936E-08
   35.58000     -2.4447104E-08
   35.64000     -2.3986487E-08
   35.70000     -2.3454582E-08
   35.76000     -2.2872813E-08
   35.82000     -2.2275115E-08
   35.88000     -2.1698469E-08
   35.94000     -2.1172488E-08
   36.00000     -2.0711280E-08
   36.06000     -2.0309974E-08
   36.12000     -1.9946942E-08
   36.18000     -1.9591077E-08
   36.24000     -1.9212218E-08
   36.30000     -1.8791745E-08
   36.36000     -1.8330407E-08
   36.42000     -1.7850962E-08
   36.48000     -1.7394845E-08
   36.54000     -1.7013917E-08
   36.60000     -1.6760131E-08
   36.66000     -1.6676657E-08
   36.72000     -1.6793333E-08
   36.78000     -1.7127403E-08
   36.84000     -1.7687970E-08
   36.90000     -1.8480803E-08
   36.96000     -1.9509892E-08
   37.02000     -2.0773651E-08
   37.08000     -2.2256557E-08
   37.14000     -2.3919764E-08
   37.20000     -2.5695542E-08
   37.26000     -2.7489618E-08
   37.32000     -2.9192746E-08
   37.38000     -3.0699212E-08
   37.44000     -3.1927058E-08
   37.50000     -3.2833775E-08
   37.56000     -3.3422527E-08
   37.62000     -3.3737024E-08
   37.68000     -3.3846892E-08
   37.74000     -3.3828282E-08
   37.80000     -3.3745795E-08
   37.86000     -3.3640841E-08
   37.92000     -3.3529243E-08
   37.98000     -3.3407805E-08
   38.04000     -3.3266506E-08
   38.10000     -3.3101561E-08
   38.16000     -3.2924294E-08
   38.22000     -3.2762497E-08
   38.28000     -3.2653542E-08
   38.34000     -3.2631633E-08
   38.40000     -3.2713643E-08
   38.46000     -3.2888970E-08
   38.52000     -3.3117370E-08
   38.58000     -3.3336264E-08
   38.64000     -3.3475338E-08
   38.70000     -3.3473732E-08
   38.76000     -3.3293720E-08
   38.82000     -3.2926209E-08
   38.88000     -3.2386055E-08
   38.94000     -3.1699194E-08
   39.00000     -3.0886454E-08
   39.06000     -2.9950346E-08
   39.12000     -2.8869943E-08
   39.18000     -2.7606015E-08
   39.24000     -2.6114835E-08
   39.30000     -2.4365676E-08
   39.36000     -2.2355811E-08
   39.42000     -2.0117444E-08
   39.48000     -1.7713925E-08
   39.54000     -1.5226341E-08
   39.60000     -1.2734933E-08
   39.66000     -1.0301677E-08
   39.72000     -7.9599856E-09
   39.78000     -5.7150604E-09
   39.84000     -3.5547156E-09
   39.90000     -1.4668375E-09
   39.96000      5.4272709E-10
   40.02000      2.4383042E-09
   40.08000      4.1529882E-09
   40.14000      5.5986145E-09
   40.20000      6.6841457E-09
   40.26000      7.3366797E-09
   40.32000      7.5184312E-09
   40.38000      7.2344850E-09
   40.44000      6.5292576E-09
   40.50000      5.4733582E-09
   40.56000      4.1455923E-09
   40.62000      2.6161373E-09
   40.68000      9.3611130E-10
   40.74000     -8.6381052E-10
   40.80000     -2.7664124E-09
   40.86000     -4.7561404E-09
   40.92000     -6.8074857E-09
   40.98000     -8.8780991E-09
   41.04000     -1.0909137E-08
   41.10000     -1.2832521E-08
   41.16000     -1.4582330E-08
   41.22000     -1.6106279E-08
   41.28000     -1.7373553E-08
   41.34000     -1.8376937E-08
   41.40000     -1.9129324E-08
   41.46000     -1.9656545E-08
   41.52000     -1.9989328E-08
   41.58000     -2.0156845E-08
   41.64000     -2.0183235E-08
   41.70000     -2.0087127E-08
   41.76000     -1.9883224E-08
   41.82000     -1.9584558E-08
   41.88000     -1.9204311E-08
   41.94000     -1.8756566E-08
   42.00000     -1.8255834E-08
   42.06000     -1.7715635E-08
   42.12000     -1.7146505E-08
   42.18000     -1.6554022E-08
   42.24000     -1.5937470E-08
   42.30000     -1.5289761E-08
   42.36000     -1.4599079E-08
   42.42000     -1.3852225E-08
   42.48000     -1.3038933E-08
   42.54000     -1.2155866E-08
   42.60000     -1.1208694E-08
   42.66000     -1.0211030E-08
   42.72000     -9.1798791E-09
   42.78000     -8.1284508E-09
   42.84000     -7.0581900E-09
   42.90000     -5.9522076E-09
   42.96000     -4.7719237E-09
   43.02000     -3.4576557E-09
   43.08000     -1.9326274E-09
   43.14000     -1.0884466E-10
   43.20000      2.1071398E-09
   43.26000      4.8103761E-09
   43.32000      8.0967304E-09
   43.38000      1.2065525E-08
   43.44000      1.6825297E-08
   43.50000      2.2501982E-08
   43.56000      2.9248666E-08
   43.62000      3.7256068E-08
   43.68000      4.6763162E-08
   43.74000      5.8067307E-08
   43.80000      7.1533741E-08
   43.86000      8.7604136E-08
   43.92000      1.0680449E-07
   43.98000      1.2975265E-07
   44.04000      1.5716645E-07
   44.10000      1.8987350E-07
   44.16000      2.2882435E-07
   44.22000      2.7511010E-07
   44.28000      3.2998588E-07
   44.34000      3.9489962E-07
   44.40000      4.7152599E-07
   44.46000      5.6180386E-07
   44.52000      6.6797531E-07
   44.58000      7.9262662E-07
   44.64000      9.3873075E-07
   44.70000      1.1096919E-06
   44.76000      1.3093954E-06
   44.82000      1.5422625E-06
   44.88000      1.8133129E-06
   44.94000      2.1282333E-06
   45.00000      2.4934507E-06
   45.06000      2.9162109E-06
   45.12000      3.4046586E-06
   45.18000      3.9679221E-06
   45.24000      4.6161986E-06
   45.30000      5.3608483E-06
   45.36000      6.2144936E-06
   45.42000      7.1911268E-06
   45.48000      8.3062259E-06
   45.54000      9.5768764E-06
   45.60000      1.1021901E-05
   45.66000      1.2661977E-05
   45.72000      1.4519764E-05
   45.78000      1.6620008E-05
   45.84000      1.8989647E-05
   45.90000      2.1657916E-05
   45.96000      2.4656412E-05
   46.02000      2.8019189E-05
   46.08000      3.1782820E-05
   46.14000      3.5986450E-05
   46.20000      4.0671865E-05
   46.26000      4.5883498E-05
   46.32000      5.1668478E-05
   46.38000      5.8076595E-05
   46.44000      6.5160290E-05
   46.50000      7.2974552E-05
   46.56000      8.1576793E-05
   46.62000      9.1026734E-05
   46.68000      1.0138617E-04
   46.74000      1.1271874E-04
   46.80000      1.2508965E-04
   46.86000      1.3856542E-04
   46.92000      1.5321339E-04
   46.98000      1.6910149E-04
   47.04000      1.8629762E-04
   47.10000      2.0486930E-04
   47.16000      2.2488306E-04
   47.22000      2.4640386E-04
   47.28000      2.6949451E-04
   47.34000      2.9421490E-04
   47.40000      3.2062145E-04
   47.46000      3.4876625E-04
   47.52000      3.7869636E-04
   47.58000      4.1045313E-04
   47.64000      4.4407125E-04
   47.70000      4.7957839E-04
   47.76000      5.1699392E-04
   47.82000      5.5632868E-04
   47.88000      5.9758400E-04
   47.94000      6.4075127E-04
   48.00000      6.8581104E-04
   48.06000      7.3273288E-04
   48.12000      7.8147475E-04
   48.18000      8.3198270E-04
   48.24000      8.8419061E-04
   48.30000      9.3802006E-04
   48.36000      9.9338032E-04
   48.42000      1.0501684E-03
   48.48000      1.1082691E-03
   48.54000      1.1675559E-03
   48.60000      1.2278907E-03
   48.66000      1.2891251E-03
   48.72000      1.3511010E-03
   48.78000      1.4136514E-03
   48.84000      1.4766017E-03
   48.90000      1.5397705E-03
   48.96000      1.6029719E-03
   49.02000      1.6660157E-03
   49.08000      1.7287097E-03
   49.14000      1.7908610E-03
   49.20000      1.8522777E-03
   49.26000      1.9127711E-03
   49.32000      1.9721568E-03
   49.38000      2.0302567E-03
   49.44000      2.0869006E-03
   49.50000      2.1419281E-03
   49.56000      2.1951909E-03
   49.62000      2.2465528E-03
   49.68000      2.2958925E-03
   49.74000      2.3431045E-03
   49.80000      2.3880997E-03
   49.86000      2.4308066E-03
   49.92000      2.4711734E-03
   49.98000      2.5091670E-03
   50.04000      2.5447742E-03
   50.10000      2.5780017E-03
   50.16000      2.6088762E-03
   50.22000      2.6374434E-03
   50.28000      2.6637681E-03
   50.34000      2.6879327E-03
   50.40000      2.7100367E-03
   50.46000      2.7301954E-03
   50.52000      2.7485392E-03
   50.58000      2.7652101E-03
   50.64000      2.7803623E-03
   50.70000      2.7941582E-03
   50.76000      2.8067662E-03
   50.82000      2.8183607E-03
   50.88000      2.8291168E-03
   50.94000      2.8392107E-03
   51.00000      2.8488154E-03
   51.06000      2.8581007E-03
   51.12000      2.8672293E-03
   51.18000      2.8763553E-03
   51.24000      2.8856215E-03
   51.30000      2.8951589E-03
   51.36000      2.9050829E-03
   51.42000      2.9154937E-03
   51.48000      2.9264744E-03
   51.54000      2.9380911E-03
   51.60000      2.9503899E-03
   51.66000      2.9633995E-03
   51.72000      2.9771288E-03
   51.78000      2.9915678E-03
   51.84000      3.0066881E-03
   51.90000      3.0224428E-03
   51.96000      3.0387684E-03
   52.02000      3.0555862E-03
   52.08000      3.0728022E-03
   52.14000      3.0903101E-03
   52.20000      3.1079929E-03
   52.26000      3.1257244E-03
   52.32000      3.1433720E-03
   52.38000      3.1607985E-03
   52.44000      3.1778645E-03
   52.50000      3.1944304E-03
   52.56000      3.2103593E-03
   52.62000      3.2255184E-03
   52.68000      3.2397816E-03
   52.74000      3.2530308E-03
   52.80000      3.2651587E-03
   52.86000      3.2760703E-03
   52.92000      3.2856844E-03
   52.98000      3.2939345E-03
   53.04000      3.3007702E-03
   53.10000      3.3061577E-03
   53.16000      3.3100804E-03
   53.22000      3.3125391E-03
   53.28000      3.3135519E-03
   53.34000      3.3131535E-03
   53.40000      3.3113959E-03
   53.46000      3.3083456E-03
   53.52000      3.3040838E-03
   53.58000      3.2987052E-03
   53.64000      3.2923154E-03
   53.70000      3.2850299E-03
   53.76000      3.2769726E-03
   53.82000      3.2682728E-03
   53.88000      3.2590646E-03
   53.94000      3.2494823E-03
   54.00000      3.2396605E-03
   54.06000      3.2297305E-03
   54.12000      3.2198187E-03
   54.18000      3.2100447E-03
   54.24000      3.2005198E-03
   54.30000      3.1913442E-03
   54.36000      3.1826065E-03
   54.42000      3.1743820E-03
   54.48000      3.1667303E-03
   54.54000      3.1596953E-03
   54.60000      3.1533048E-03
   54.66000      3.1475688E-03
   54.72000      3.1424805E-03
   54.78000      3.1380153E-03
   54.84000      3.1341324E-03
   54.90000      3.1307747E-03
   54.96000      3.1278695E-03
   55.02000      3.1253288E-03
   55.08000      3.1230517E-03
   55.14000      3.1209246E-03
   55.20000      3.1188235E-03
   55.26000      3.1166165E-03
   55.32000      3.1141636E-03
   55.38000      3.1113215E-03
   55.44000      3.1079429E-03
   55.50000      3.1038800E-03
   55.56000      3.0989856E-03