  -2.400000      0.0000000E+00
  -2.340000      0.0000000E+00
  -2.280000      0.0000000E+00
  -2.220000      0.0000000E+00
  -2.160000      0.0000000E+00
  -2.100000      0.0000000E+00
  -2.040000      0.0000000E+00
  -1.980000      0.0000000E+00
  -1.920000      2.0039047E-26
  -1.860000      2.1411743E-25
  -1.800000      1.0467468E-24
  -1.740000      2.6929816E-24
  -1.680000      1.1949043E-24
  -1.620000     -2.1066030E-23
  -1.560000     -1.0504776E-22
  -1.500000     -2.9870818E-22
  -1.440000     -5.6719382E-22
  -1.380000     -6.0292591E-22
  -1.320000      3.7082930E-22
  -1.260000      3.4897866E-21
  -1.200000      9.3587521E-21
  -1.140000      1.6146057E-20
  -1.080000      1.7369848E-20
  -1.020000      1.5613572E-21
 -0.9600000     -4.3065530E-20
 -0.9000000     -1.1717077E-19
 -0.8400000     -1.9520609E-19
 -0.7800000     -2.1700683E-19
 -0.7200000     -1.0084009E-19
 -0.6600000      2.1264729E-19
 -0.6000000      6.9521770E-19
 -0.5400000      1.1810145E-18
 -0.4800000      1.3841113E-18
 -0.4200000      1.0175131E-18
 -0.3600000     -1.5550428E-20
 -0.3000000     -1.4709655E-18
 -0.2400000     -2.8094271E-18
 -0.1800000     -3.5247626E-18
 -0.1200000     -3.6371458E-18
 -5.9999999E-02 -3.9789426E-18
  0.0000000E+00 -5.7907250E-18
  5.9999999E-02 -9.3945557E-18
  0.1200000     -1.2384618E-17
  0.1800000     -8.6194246E-18
  0.2400000      1.0267213E-17
  0.3000000      4.9766852E-17
  0.3600000      1.0475151E-16
  0.4200000      1.5283062E-16
  0.4800000      1.5461186E-16
  0.5400000      6.5989935E-17
  0.6000000     -1.3708618E-16
  0.6600000     -4.2885069E-16
  0.7200000     -7.1430664E-16
  0.7800000     -8.3821099E-16
  0.8400000     -6.3364640E-16
  0.9000000     -4.2826631E-18
  0.9600000      9.8761808E-16
   1.020000      2.0718669E-15
   1.080000      2.8032162E-15
   1.140000      2.6951250E-15
   1.200000      1.4285827E-15
   1.260000     -9.3740925E-16
   1.320000     -3.8537441E-15
   1.380000     -6.3527031E-15
   1.440000     -7.3268714E-15
   1.500000     -5.9488682E-15
   1.560000     -2.0827532E-15
   1.620000      3.4947099E-15
   1.680000      9.2003457E-15
   1.740000      1.3099339E-14
   1.800000      1.3581062E-14
   1.860000      1.0011208E-14
   1.920000      3.0875270E-15
   1.980000     -5.2863432E-15
   2.040000     -1.2615094E-14
   2.100000     -1.6715233E-14
   2.160000     -1.6563629E-14
   2.220000     -1.2728594E-14
   2.280000     -7.1515347E-15
   2.340000     -2.2906407E-15
   2.400000      8.7802423E-17
   2.460000     -1.8071943E-17
   2.520000     -4.4051145E-16
   2.580000      2.5295345E-15
   2.640000      1.2472136E-14
   2.700000      3.0580824E-14
   2.760000      5.3686734E-14
   2.820000      7.3609332E-14
   2.880000      7.8653480E-14
   2.940000      5.7397439E-14
   3.000000      3.9303642E-15
   3.060000     -7.7255266E-14
   3.120000     -1.6897302E-13
   3.180000     -2.4349785E-13
   3.240000     -2.6963986E-13
   3.300000     -2.2323635E-13
   3.360000     -9.7739681E-14
   3.420000      8.9221761E-14
   3.480000      2.9663061E-13
   3.540000      4.6919315E-13
   3.600000      5.5266051E-13
   3.660000      5.1064475E-13
   3.720000      3.3727226E-13
   3.780000      6.1239865E-14
   3.840000     -2.6021988E-13
   3.900000     -5.5548881E-13
   3.960000     -7.5628593E-13
   4.020000     -8.1371097E-13
   4.080000     -7.0858255E-13
   4.140000     -4.5442911E-13
   4.200000     -9.3871857E-14
   4.260000      3.0944320E-13
   4.320000      6.8106415E-13
   4.380000      9.4657550E-13
   4.440000      1.0425151E-12
   4.500000      9.2734587E-13
   4.560000      5.9222982E-13
   4.620000      7.0436854E-14
   4.680000     -5.5705126E-13
   4.740000     -1.1632888E-12
   4.800000     -1.5883474E-12
   4.860000     -1.6662165E-12
   4.920000     -1.2650037E-12
   4.980000     -3.3452302E-13
   5.040000      1.0507054E-12
   5.100000      2.6692548E-12
   5.160000      4.1670734E-12
   5.220000      5.1165248E-12
   5.280000      5.1148738E-12
   5.340000      3.9009781E-12
   5.400000      1.4570788E-12
   5.460000     -1.9392652E-12
   5.520000     -5.7369300E-12
   5.580000     -9.2090294E-12
   5.640000     -1.1604752E-11
   5.700000     -1.2315364E-11
   5.760000     -1.1010288E-11
   5.820000     -7.7099516E-12
   5.880000     -2.7825108E-12
   5.940000      3.1274657E-12
   6.000000      9.2173890E-12
   6.060000      1.4669601E-11
   6.120000      1.8803122E-11
   6.180000      2.1225586E-11
   6.240000      2.1977104E-11
   6.300000      2.1649410E-11
   6.360000      2.1451176E-11
   6.420000      2.3184264E-11
   6.480000      2.9105073E-11
   6.540000      4.1671496E-11
   6.600000      6.3212338E-11
   6.660000      9.5587864E-11
   6.720000      1.3992080E-10
   6.780000      1.9645847E-10
   6.840000      2.6458552E-10
   6.900000      3.4295497E-10
   6.960000      4.2966919E-10
   7.020000      5.2243443E-10
   7.080000      6.1863814E-10
   7.140000      7.1534795E-10
   7.200000      8.0928247E-10
   7.260000      8.9683488E-10
   7.320000      9.7422814E-10
   7.380000      1.0378425E-09
   7.440000      1.0846997E-09
   7.500000      1.1130222E-09
   7.560000      1.1227471E-09
   7.620000      1.1158614E-09
   7.680000      1.0964554E-09
   7.740000      1.0704472E-09
   7.800000      1.0450142E-09
   7.860000      1.0278345E-09
   7.920000      1.0262923E-09
   7.980000      1.0467933E-09
   8.040000      1.0942872E-09
   8.100000      1.1719966E-09
   8.160000      1.2812624E-09
   8.220000      1.4213521E-09
   8.280000      1.5890959E-09
   8.340000      1.7783135E-09
   8.400000      1.9791384E-09
   8.460000      2.1774911E-09
   8.520000      2.3550151E-09
   8.580000      2.4897462E-09
   8.640000      2.5576139E-09
   8.700000      2.5346560E-09
   8.760000      2.3996169E-09
   8.820000      2.1364963E-09
   8.880000      1.7366296E-09
   8.940000      1.2000214E-09
   9.000000      5.3584182E-10
   9.060000     -2.3783306E-10
   9.120000     -1.0948560E-09
   9.180000     -2.0022219E-09
   9.240000     -2.9215110E-09
   9.300000     -3.8104697E-09
   9.360000     -4.6247126E-09
   9.420000     -5.3195417E-09
   9.480000     -5.8519238E-09
   9.540000     -6.1826690E-09
   9.600000     -6.2788614E-09
   9.660000     -6.1165553E-09
   9.720000     -5.6836469E-09
   9.780000     -4.9826561E-09
   9.840000     -4.0329451E-09
   9.900000     -2.8717293E-09
   9.960000     -1.5532138E-09
   10.02000     -1.4535194E-10
   10.08000      1.2758754E-09
   10.14000      2.6342160E-09
   10.20000      3.8619299E-09
   10.26000      4.9081819E-09
   10.32000      5.7454885E-09
   10.38000      6.3729226E-09
   10.44000      6.8153287E-09
   10.50000      7.1186164E-09
   10.56000      7.3419781E-09
   10.62000      7.5485076E-09
   10.68000      7.7959799E-09
   10.74000      8.1293985E-09
   10.80000      8.5764391E-09
   10.86000      9.1461949E-09
   10.92000      9.8309059E-09
   10.98000      1.0609785E-08
   11.04000      1.1453808E-08
   11.10000      1.2330410E-08
   11.16000      1.3207390E-08
   11.22000      1.4055734E-08
   11.28000      1.4851512E-08
   11.34000      1.5577184E-08
   11.40000      1.6222678E-08
   11.46000      1.6786348E-08
   11.52000      1.7275671E-08
   11.58000      1.7707277E-08
   11.64000      1.8105842E-08
   11.70000      1.8501499E-08
   11.76000      1.8925753E-08
   11.82000      1.9406356E-08
   11.88000      1.9961979E-08
   11.94000      2.0597865E-08
   12.00000      2.1303576E-08
   12.06000      2.2053648E-08
   12.12000      2.2811415E-08
   12.18000      2.3535456E-08
   12.24000      2.4187347E-08
   12.30000      2.4739014E-08
   12.36000      2.5177785E-08
   12.42000      2.5507722E-08
   12.48000      2.5746640E-08
   12.54000      2.5919302E-08
   12.60000      2.6048367E-08
   12.66000      2.6145354E-08
   12.72000      2.6204075E-08
   12.78000      2.6198483E-08
   12.84000      2.6085909E-08
   12.90000      2.5815217E-08
   12.96000      2.5338183E-08
   13.02000      2.4621283E-08
   13.08000      2.3654891E-08
   13.14000      2.2457249E-08
   13.20000      2.1071868E-08
   13.26000      1.9558701E-08
   13.32000      1.7981142E-08
   13.38000      1.6392242E-08
   13.44000      1.4823941E-08
   13.50000      1.3282418E-08
   13.56000      1.1751105E-08
   13.62000      1.0200673E-08
   13.68000      8.6032292E-09
   13.74000      6.9465962E-09
   13.80000      5.2443561E-09
   13.86000      3.5384298E-09
   13.92000      1.8931132E-09
   13.98000      3.8195758E-10
   14.04000     -9.2895619E-10
   14.10000     -1.9966893E-09
   14.16000     -2.8116647E-09
   14.22000     -3.3996046E-09
   14.28000     -3.8147645E-09
   14.34000     -4.1265715E-09
   14.40000     -4.4036188E-09
   14.46000     -4.6996114E-09
   14.52000     -5.0450732E-09
   14.58000     -5.4467217E-09
   14.64000     -5.8939964E-09
   14.70000     -6.3700560E-09
   14.76000     -6.8633379E-09
   14.82000     -7.3758102E-09
   14.88000     -7.9252960E-09
   14.94000     -8.5412202E-09
   15.00000     -9.2551913E-09
   15.06000     -1.0089376E-08
   15.12000     -1.1046139E-08
   15.18000     -1.2102012E-08
   15.24000     -1.3207743E-08
   15.30000     -1.4294563E-08
   15.36000     -1.5285174E-08
   15.42000     -1.6106865E-08
   15.48000     -1.6703668E-08
   15.54000     -1.7044743E-08
   15.60000     -1.7127121E-08
   15.66000     -1.6972294E-08
   15.72000     -1.6617673E-08
   15.78000     -1.6105274E-08
   15.84000     -1.5470716E-08
   15.90000     -1.4735602E-08
   15.96000     -1.3905400E-08
   16.02000     -1.2973411E-08
   16.08000     -1.1929504E-08
   16.14000     -1.0770820E-08
   16.20000     -9.5108863E-09
   16.26000     -8.1839184E-09
   16.32000     -6.8424884E-09
   16.38000     -5.5487130E-09
   16.44000     -4.3611501E-09
   16.50000     -3.3210323E-09
   16.56000     -2.4418318E-09
   16.62000     -1.7053223E-09
   16.68000     -1.0655467E-09
   16.74000     -4.5985893E-10
   16.80000      1.7579412E-10
   16.86000      8.9141550E-10
   16.92000      1.7114719E-09
   16.98000      2.6304321E-09
   17.04000      3.6164245E-09
   17.10000      4.6218340E-09
   17.16000      5.5977289E-09
   17.22000      6.5079542E-09
   17.28000      7.3388988E-09
   17.34000      8.1022238E-09
   17.40000      8.8299013E-09
   17.46000      9.5631458E-09
   17.52000      1.0338547E-08
   17.58000      1.1175440E-08
   17.64000      1.2068147E-08
   17.70000      1.2985223E-08
   17.76000      1.3875840E-08
   17.82000      1.4681432E-08
   17.88000      1.5349347E-08
   17.94000      1.5844794E-08
   18.00000      1.6158038E-08
   18.06000      1.6305217E-08
   18.12000      1.6322955E-08
   18.18000      1.6258706E-08
   18.24000      1.6159746E-08
   18.30000      1.6064005E-08
   18.36000      1.5995216E-08
   18.42000      1.5963373E-08
   18.48000      1.5969860E-08
   18.54000      1.6015084E-08
   18.60000      1.6105604E-08
   18.66000      1.6257923E-08
   18.72000      1.6497182E-08
   18.78000      1.6850755E-08
   18.84000      1.7338605E-08
   18.90000      1.7963595E-08
   18.96000      1.8705267E-08
   19.02000      1.9519609E-08
   19.08000      2.0345553E-08
   19.14000      2.1116634E-08
   19.20000      2.1774467E-08
   19.26000      2.2280043E-08
   19.32000      2.2619444E-08
   19.38000      2.2802398E-08
   19.44000      2.2854380E-08
   19.50000      2.2804992E-08
   19.56000      2.2676323E-08
   19.62000      2.2474859E-08
   19.68000      2.2189132E-08
   19.74000      2.1793513E-08
   19.80000      2.1256627E-08
   19.86000      2.0551756E-08
   19.92000      1.9666098E-08
   19.98000      1.8606384E-08
   20.04000      1.7399417E-08
   20.10000      1.6087535E-08
   20.16000      1.4720372E-08
   20.22000      1.3345192E-08
   20.28000      1.1998350E-08
   20.34000      1.0700088E-08
   20.40000      9.4537365E-09
   20.46000      8.2491480E-09
   20.52000      7.0688491E-09
   20.58000      5.8946057E-09
   20.64000      4.7120916E-09
   20.70000      3.5120744E-09
   20.76000      2.2878441E-09
   20.82000      1.0299671E-09
   20.88000     -2.7953848E-10
   20.94000     -1.6712201E-09
   21.00000     -3.1885010E-09
   21.06000     -4.8834412E-09
   21.12000     -6.8084338E-09
   21.18000     -9.0054861E-09
   21.24000     -1.1495464E-08
   21.30000     -1.4269831E-08
   21.36000     -1.7286936E-08
   21.42000     -2.0473967E-08
   21.48000     -2.3734451E-08
   21.54000     -2.6959885E-08
   21.60000     -3.0043154E-08
   21.66000     -3.2890863E-08
   21.72000     -3.5432155E-08
   21.78000     -3.7622378E-08
   21.84000     -3.9441606E-08
   21.90000     -4.0889269E-08
   21.96000     -4.1977252E-08
   22.02000     -4.2723837E-08
   22.08000     -4.3150337E-08
   22.14000     -4.3280959E-08
   22.20000     -4.3145214E-08
   22.26000     -4.2781124E-08
   22.32000     -4.2237378E-08
   22.38000     -4.1572875E-08
   22.44000     -4.0853052E-08
   22.50000     -4.0143334E-08
   22.56000     -3.9501018E-08
   22.62000     -3.8967347E-08
   22.68000     -3.8561623E-08
   22.74000     -3.8278969E-08
   22.80000     -3.8092633E-08
   22.86000     -3.7960778E-08
   22.92000     -3.7836706E-08
   22.98000     -3.7680380E-08
   23.04000     -3.7468666E-08
   23.10000     -3.7201861E-08
   23.16000     -3.6904854E-08
   23.22000     -3.6622744E-08
   23.28000     -3.6412047E-08
   23.34000     -3.6329926E-08
   23.40000     -3.6423970E-08
   23.46000     -3.6724831E-08
   23.52000     -3.7242806E-08
   23.58000     -3.7968437E-08
   23.64000     -3.8876188E-08
   23.70000     -3.9929745E-08
   23.76000     -4.1087620E-08
   23.82000     -4.2307924E-08
   23.88000     -4.3551719E-08
   23.94000     -4.4784880E-08
   24.00000     -4.5978734E-08
   24.06000     -4.7110081E-08
   24.12000     -4.8161226E-08
   24.18000     -4.9120622E-08
   24.24000     -4.9984170E-08
   24.30000     -5.0756803E-08
   24.36000     -5.1453469E-08
   24.42000     -5.2098382E-08
   24.48000     -5.2721944E-08
   24.54000     -5.3355283E-08
   24.60000     -5.4023609E-08
   24.66000     -5.4739978E-08
   24.72000     -5.5501452E-08
   24.78000     -5.6288908E-08
   24.84000     -5.7070675E-08
   24.90000     -5.7809086E-08
   24.96000     -5.8468100E-08
   25.02000     -5.9020163E-08
   25.08000     -5.9450734E-08
   25.14000     -5.9759977E-08
   25.20000     -5.9961806E-08
   25.26000     -6.0081113E-08
   25.32000     -6.0150121E-08
   25.38000     -6.0204606E-08
   25.44000     -6.0280421E-08
   25.50000     -6.0410223E-08
   25.56000     -6.0620621E-08
   25.62000     -6.0929381E-08
   25.68000     -6.1343052E-08
   25.74000     -6.1855204E-08
   25.80000     -6.2445736E-08
   25.86000     -6.3081643E-08
   25.92000     -6.3719611E-08
   25.98000     -6.4310321E-08
   26.04000     -6.4804084E-08
   26.10000     -6.5156961E-08
   26.16000     -6.5336152E-08
   26.22000     -6.5323789E-08
   26.28000     -6.5118222E-08
   26.34000     -6.4732831E-08
   26.40000     -6.4192633E-08
   26.46000     -6.3529541E-08
   26.52000     -6.2777289E-08
   26.58000     -6.1966738E-08
   26.64000     -6.1122137E-08
   26.70000     -6.0258678E-08
   26.76000     -5.9381410E-08
   26.82000     -5.8485593E-08
   26.88000     -5.7558250E-08
   26.94000     -5.6580710E-08
   27.00000     -5.5531611E-08
   27.06000     -5.4389737E-08
   27.12000     -5.3136244E-08
   27.18000     -5.1756121E-08
   27.24000     -5.0239048E-08
   27.30000     -4.8580130E-08
   27.36000     -4.6780865E-08
   27.42000     -4.4850218E-08
   27.48000     -4.2805311E-08
   27.54000     -4.0670859E-08
   27.60000     -3.8476689E-08
   27.66000     -3.6253315E-08
   27.72000     -3.4026471E-08
   27.78000     -3.1812103E-08
   27.84000     -2.9613485E-08
   27.90000     -2.7421477E-08
   27.96000     -2.5217947E-08
   28.02000     -2.2981276E-08
   28.08000     -2.0692156E-08
   28.14000     -1.8338005E-08
   28.20000     -1.5914914E-08
   28.26000     -1.3427131E-08
   28.32000     -1.0884851E-08
   28.38000     -8.3016305E-09
   28.44000     -5.6925278E-09
   28.50000     -3.0735954E-09
   28.56000     -4.6259740E-10
   28.62000      2.1197031E-09
   28.68000      4.6486166E-09
   28.74000      7.0957848E-09
   28.80000      9.4310462E-09
   28.86000      1.1625811E-08
   28.92000      1.3657278E-08
   28.98000      1.5512484E-08
   29.04000      1.7191036E-08
   29.10000      1.8705622E-08
   29.16000      2.0079943E-08
   29.22000      2.1344382E-08
   29.28000      2.2530436E-08
   29.34000      2.3665283E-08
   29.40000      2.4767806E-08
   29.46000      2.5846965E-08
   29.52000      2.6902615E-08
   29.58000      2.7928136E-08
   29.64000      2.8913778E-08
   29.70000      2.9849556E-08
   29.76000      3.0726842E-08
   29.82000      3.1538420E-08
   29.88000      3.2277352E-08
   29.94000      3.2935386E-08
   30.00000      3.3501795E-08
   30.06000      3.3963225E-08
   30.12000      3.4304872E-08
   30.18000      3.4512709E-08
   30.24000      3.4576221E-08
   30.30000      3.4490807E-08
   30.36000      3.4259084E-08
   30.42000      3.3890615E-08
   30.48000      3.3399857E-08
   30.54000      3.2802848E-08
   30.60000      3.2113380E-08
   30.66000      3.1339749E-08
   30.72000      3.0483040E-08
   30.78000      2.9537535E-08
   30.84000      2.8493170E-08
   30.90000      2.7339325E-08
   30.96000      2.6068816E-08
   31.02000      2.4680924E-08
   31.08000      2.3182634E-08
   31.14000      2.1587930E-08
   31.20000      1.9915678E-08
   31.26000      1.8186945E-08
   31.32000      1.6422673E-08
   31.38000      1.4642171E-08
   31.44000      1.2862410E-08
   31.50000      1.1097590E-08
   31.56000      9.3584704E-09
   31.62000      7.6511206E-09
   31.68000      5.9753247E-09
   31.74000      4.3232515E-09
   31.80000      2.6791871E-09
   31.86000      1.0208894E-09
   31.92000     -6.7738193E-10
   31.98000     -2.4406555E-09
   32.04000     -4.2887343E-09
   32.10000     -6.2323129E-09
   32.16000     -8.2704439E-09
   32.22000     -1.0389662E-08
   32.28000     -1.2564739E-08
   32.34000     -1.4760760E-08
   32.40000     -1.6936156E-08
   32.46000     -1.9046219E-08
   32.52000     -2.1046683E-08
   32.58000     -2.2896883E-08
   32.64000     -2.4562073E-08
   32.70000     -2.6014629E-08
   32.76000     -2.7234135E-08
   32.82000     -2.8206699E-08
   32.88000     -2.8924079E-08
   32.94000     -2.9383219E-08
   33.00000     -2.9586539E-08
   33.06000     -2.9542853E-08
   33.12000     -2.9268435E-08
   33.18000     -2.8787467E-08
   33.24000     -2.8131302E-08
   33.30000     -2.7336345E-08
   33.36000     -2.6440874E-08
   33.42000     -2.5481500E-08
   33.48000     -2.4490056E-08
   33.54000     -2.3491534E-08
   33.60000     -2.2503357E-08
   33.66000     -2.1536000E-08
   33.72000     -2.0594728E-08
   33.78000     -1.9682270E-08
   33.84000     -1.8802082E-08
   33.90000     -1.7961822E-08
   33.96000     -1.7176385E-08
   34.02000     -1.6469610E-08
   34.08000     -1.5873933E-08
   34.14000     -1.5427474E-08
   34.20000     -1.5168894E-08
   34.26000     -1.5131077E-08
   34.32000     -1.5335287E-08
   34.38000     -1.5787478E-08
   34.44000     -1.6477863E-08
   34.50000     -1.7383940E-08
   34.56000     -1.8476051E-08
   34.62000     -1.9723940E-08
   34.68000     -2.1102508E-08
   34.74000     -2.2595382E-08
   34.80000     -2.4195577E-08
   34.86000     -2.5903317E-08
   34.92000     -2.7721708E-08
   34.98000     -2.9651400E-08
   35.04000     -3.1685492E-08
   35.10000     -3.3805893E-08
   35.16000     -3.5982158E-08
   35.22000     -3.8173184E-08
   35.28000     -4.0331713E-08
   35.34000     -4.2410726E-08
   35.40000     -4.4370289E-08
   35.46000     -4.6183278E-08
   35.52000     -4.7838505E-08
   35.58000     -4.9340589E-08
   35.64000     -5.0706628E-08
   35.70000     -5.1960605E-08
   35.76000     -5.3126904E-08
   35.82000     -5.4224440E-08
   35.88000     -5.5262671E-08
   35.94000     -5.6240225E-08
   36.00000     -5.7146369E-08
   36.06000     -5.7964826E-08
   36.12000     -5.8678975E-08
   36.18000     -5.9277152E-08
   36.24000     -5.9756637E-08
   36.30000     -6.0125423E-08
   36.36000     -6.0401590E-08
   36.42000     -6.0610738E-08
   36.48000     -6.0782654E-08
   36.54000     -6.0948459E-08
   36.60000     -6.1138657E-08
   36.66000     -6.1382032E-08
   36.72000     -6.1704476E-08
   36.78000     -6.2126894E-08
   36.84000     -6.2661925E-08
   36.90000     -6.3310303E-08
   36.96000     -6.4058440E-08
   37.02000     -6.4878918E-08
   37.08000     -6.5734568E-08
   37.14000     -6.6585493E-08
   37.20000     -6.7396883E-08
   37.26000     -6.8144985E-08
   37.32000     -6.8819219E-08
   37.38000     -6.9419940E-08
   37.44000     -6.9953167E-08
   37.50000     -7.0424470E-08
   37.56000     -7.0834602E-08
   37.62000     -7.1178384E-08
   37.68000     -7.1446834E-08
   37.74000     -7.1631483E-08
   37.80000     -7.1728962E-08
   37.86000     -7.1744353E-08
   37.92000     -7.1691971E-08
   37.98000     -7.1593433E-08
   38.04000     -7.1473146E-08
   38.10000     -7.1352005E-08
   38.16000     -7.1240578E-08
   38.22000     -7.1133250E-08
   38.28000     -7.1005346E-08
   38.34000     -7.0814536E-08
   38.40000     -7.0507248E-08
   38.46000     -7.0029046E-08
   38.52000     -6.9336515E-08
   38.58000     -6.8407218E-08
   38.64000     -6.7244471E-08
   38.70000     -6.5875319E-08
   38.76000     -6.4342217E-08
   38.82000     -6.2691072E-08
   38.88000     -6.0959700E-08
   38.94000     -5.9169967E-08
   39.00000     -5.7325849E-08
   39.06000     -5.5417093E-08
   39.12000     -5.3426483E-08
   39.18000     -5.1337828E-08
   39.24000     -4.9142056E-08
   39.30000     -4.6839865E-08
   39.36000     -4.4440839E-08
   39.42000     -4.1959904E-08
   39.48000     -3.9412704E-08
   39.54000     -3.6811340E-08
   39.60000     -3.4161737E-08
   39.66000     -3.1463454E-08
   39.72000     -2.8711995E-08
   39.78000     -2.5903239E-08
   39.84000     -2.3038794E-08
   39.90000     -2.0130573E-08
   39.96000     -1.7202893E-08
   40.02000     -1.4290995E-08
   40.08000     -1.1435953E-08
   40.14000     -8.6774232E-09
   40.20000     -6.0465628E-09
   40.26000     -3.5615944E-09
   40.32000     -1.2276451E-09
   40.38000      9.5906494E-10
   40.44000      3.0042018E-09
   40.50000      4.9079638E-09
   40.56000      6.6599273E-09
   40.62000      8.2377296E-09
   40.68000      9.6098667E-09
   40.74000      1.0741555E-08
   40.80000      1.1601826E-08
   40.86000      1.2169829E-08
   40.92000      1.2438714E-08
   40.98000      1.2416191E-08
   41.04000      1.2121656E-08
   41.10000      1.1580656E-08
   41.16000      1.0818137E-08
   41.22000      9.8523918E-09
   41.28000      8.6916376E-09
   41.34000      7.3345450E-09
   41.40000      5.7748726E-09
   41.46000      4.0089501E-09
   41.52000      2.0435433E-09
   41.58000     -9.8719907E-11
   41.64000     -2.3785278E-09
   41.70000     -4.7442752E-09
   41.76000     -7.1404345E-09
   41.82000     -9.5172883E-09
   41.88000     -1.1839034E-08
   41.94000     -1.4087988E-08
   42.00000     -1.6264126E-08
   42.06000     -1.8380705E-08
   42.12000     -2.0457735E-08
   42.18000     -2.2515261E-08
   42.24000     -2.4567976E-08
   42.30000     -2.6621885E-08
   42.36000     -2.8673211E-08
   42.42000     -3.0709302E-08
   42.48000     -3.2711224E-08
   42.54000     -3.4657543E-08
   42.60000     -3.6528551E-08
   42.66000     -3.8309867E-08
   42.72000     -3.9994482E-08
   42.78000     -4.1582528E-08
   42.84000     -4.3079023E-08
   42.90000     -4.4490701E-08
   42.96000     -4.5823345E-08
   43.02000     -4.7081080E-08
   43.08000     -4.8268035E-08
   43.14000     -4.9391755E-08
   43.20000     -5.0466948E-08
   43.26000     -5.1518068E-08
   43.32000     -5.2579718E-08
   43.38000     -5.3695043E-08
   43.44000     -5.4912817E-08
   43.50000     -5.6284584E-08
   43.56000     -5.7862717E-08
   43.62000     -5.9699907E-08
   43.68000     -6.1849981E-08
   43.74000     -6.4369743E-08
   43.80000     -6.7321665E-08
   43.86000     -7.0777283E-08
   43.92000     -7.4821216E-08
   43.98000     -7.9555605E-08
   44.04000     -8.5104332E-08
   44.10000     -9.1616542E-08
   44.16000     -9.9269066E-08
   44.22000     -1.0826820E-07
   44.28000     -1.1885174E-07
   44.34000     -1.3129230E-07
   44.40000     -1.4590275E-07
   44.46000     -1.6304378E-07
   44.52000     -1.8313224E-07
   44.58000     -2.0664957E-07
   44.64000     -2.3414874E-07
   44.70000     -2.6626037E-07
   44.76000     -3.0369841E-07
   44.82000     -3.4726838E-07
   44.88000     -3.9787835E-07
   44.94000     -4.5655517E-07
   45.00000     -5.2446433E-07
   45.06000     -6.0293263E-07
   45.12000     -6.9347169E-07
   45.18000     -7.9779960E-07
   45.24000     -9.1786040E-07
   45.30000     -1.0558390E-06
   45.36000     -1.2141738E-06
   45.42000     -1.3955657E-06
   45.48000     -1.6029877E-06
   45.54000     -1.8396960E-06
   45.60000     -2.1092455E-06
   45.66000     -2.4155117E-06
   45.72000     -2.7627168E-06
   45.78000     -3.1554609E-06
   45.84000     -3.5987550E-06
   45.90000     -4.0980490E-06
   45.96000     -4.6592559E-06
   46.02000     -5.2887676E-06
   46.08000     -5.9934682E-06
   46.14000     -6.7807337E-06
   46.20000     -7.6584347E-06
   46.26000     -8.6349364E-06
   46.32000     -9.7190905E-06
   46.38000     -1.0920240E-05
   46.44000     -1.2248204E-05
   46.50000     -1.3713276E-05
   46.56000     -1.5326199E-05
   46.62000     -1.7098153E-05
   46.68000     -1.9040710E-05
   46.74000     -2.1165804E-05
   46.80000     -2.3485682E-05
   46.86000     -2.6012825E-05
   46.92000     -2.8759901E-05
   46.98000     -3.1739670E-05
   47.04000     -3.4964898E-05
   47.10000     -3.8448270E-05
   47.16000     -4.2202293E-05
   47.22000     -4.6239180E-05
   47.28000     -5.0570739E-05
   47.34000     -5.5208271E-05
   47.40000     -6.0162427E-05
   47.46000     -6.5443070E-05
   47.52000     -7.1059141E-05
   47.58000     -7.7018543E-05
   47.64000     -8.3327963E-05
   47.70000     -8.9992784E-05
   47.76000     -9.7016913E-05
   47.82000     -1.0440267E-04
   47.88000     -1.1215067E-04
   47.94000     -1.2025968E-04
   48.00000     -1.2872650E-04
   48.06000     -1.3754594E-04
   48.12000     -1.4671068E-04
   48.18000     -1.5621122E-04
   48.24000     -1.6603585E-04
   48.30000     -1.7617061E-04
   48.36000     -1.8659927E-04
   48.42000     -1.9730336E-04
   48.48000     -2.0826227E-04
   48.54000     -2.1945324E-04
   48.60000     -2.3085152E-04
   48.66000     -2.4243050E-04
   48.72000     -2.5416180E-04
   48.78000     -2.6601547E-04
   48.84000     -2.7796024E-04
   48.90000     -2.8996353E-04
   48.96000     -3.0199185E-04
   49.02000     -3.1401118E-04
   49.08000     -3.2598694E-04
   49.14000     -3.3788464E-04
   49.20000     -3.4966983E-04
   49.26000     -3.6130869E-04
   49.32000     -3.7276815E-04
   49.38000     -3.8401631E-04
   49.44000     -3.9502274E-04
   49.50000     -4.0575876E-04
   49.56000     -4.1619790E-04
   49.62000     -4.2631599E-04
   49.68000     -4.3609150E-04
   49.74000     -4.4550572E-04
   49.80000     -4.5454298E-04
   49.86000     -4.6319087E-04
   49.92000     -4.7144023E-04
   49.98000     -4.7928552E-04
   50.04000     -4.8672469E-04
   50.10000     -4.9375935E-04
   50.16000     -5.0039450E-04
   50.22000     -5.0663884E-04
   50.28000     -5.1250443E-04
   50.34000     -5.1800651E-04
   50.40000     -5.2316330E-04
   50.46000     -5.2799570E-04
   50.52000     -5.3252722E-04
   50.58000     -5.3678348E-04
   50.64000     -5.4079201E-04
   50.70000     -5.4458191E-04
   50.76000     -5.4818334E-04
   50.82000     -5.5162708E-04
   50.88000     -5.5494427E-04
   50.94000     -5.5816589E-04
   51.00000     -5.6132232E-04
   51.06000     -5.6444283E-04
   51.12000     -5.6755560E-04
   51.18000     -5.7068677E-04
   51.24000     -5.7386042E-04
   51.30000     -5.7709799E-04
   51.36000     -5.8041821E-04
   51.42000     -5.8383658E-04
   51.48000     -5.8736542E-04
   51.54000     -5.9101364E-04
   51.60000     -5.9478648E-04
   51.66000     -5.9868552E-04
   51.72000     -6.0270872E-04
   51.78000     -6.0685031E-04
   51.84000     -6.1110093E-04
   51.90000     -6.1544759E-04
   51.96000     -6.1987428E-04
   52.02000     -6.2436186E-04
   52.08000     -6.2888843E-04
   52.14000     -6.3342979E-04
   52.20000     -6.3795963E-04
   52.26000     -6.4245012E-04
   52.32000     -6.4687210E-04
   52.38000     -6.5119570E-04
   52.44000     -6.5539061E-04
   52.50000     -6.5942644E-04
   52.56000     -6.6327327E-04
   52.62000     -6.6690223E-04
   52.68000     -6.7028555E-04
   52.74000     -6.7339744E-04
   52.80000     -6.7621417E-04
   52.86000     -6.7871442E-04
   52.92000     -6.8087963E-04
   52.98000     -6.8269426E-04
   53.04000     -6.8414595E-04
   53.10000     -6.8522565E-04
   53.16000     -6.8592769E-04
   53.22000     -6.8625034E-04
   53.28000     -6.8619504E-04
   53.34000     -6.8576686E-04
   53.40000     -6.8497413E-04
   53.46000     -6.8382820E-04
   53.52000     -6.8234326E-04
   53.58000     -6.8053626E-04
   53.64000     -6.7842647E-04
   53.70000     -6.7603536E-04
   53.76000     -6.7338621E-04
   53.82000     -6.7050371E-04
   53.88000     -6.6741346E-04
   53.94000     -6.6414161E-04
   54.00000     -6.6071446E-04
   54.06000     -6.5715815E-04
   54.12000     -6.5349787E-04
   54.18000     -6.4975809E-04
   54.24000     -6.4596155E-04
   54.30000     -6.4212928E-04
   54.36000     -6.3828018E-04
   54.42000     -6.3443085E-04
   54.48000     -6.3059531E-04
   54.54000     -6.2678498E-04
   54.60000     -6.2300835E-04
   54.66000     -6.1927113E-04
   54.72000     -6.1557599E-04
   54.78000     -6.1192259E-04
   54.84000     -6.0830772E-04
   54.90000     -6.0472515E-04
   54.96000     -6.0116610E-04
   55.02000     -5.9761910E-04
   55.08000     -5.9407036E-04
   55.14000     -5.9050415E-04
   55.20000     -5.8690290E-04
   55.26000     -5.8324769E-04
   55.32000     -5.7951850E-04
   55.38000     -5.7569443E-04
   55.44000     -5.7175430E-04
   55.50000     -5.6767662E-04
   55.56000     -5.6344038E-04