  -2.400000      0.0000000E+00
  -2.340000      0.0000000E+00
  -2.280000      0.0000000E+00
  -2.220000      0.0000000E+00
  -2.160000      0.0000000E+00
  -2.100000      0.0000000E+00
  -2.040000      0.0000000E+00
  -1.980000      0.0000000E+00
  -1.920000     -9.3043555E-27
  -1.860000     -5.8363695E-26
  -1.800000      8.9918255E-26
  -1.740000      2.7736442E-24
  -1.680000      1.7856616E-23
  -1.620000      7.0522347E-23
  -1.560000      1.9699043E-22
  -1.500000      3.9255004E-22
  -1.440000      4.7308774E-22
  -1.380000     -1.2272665E-22
  -1.320000     -2.3942781E-21
  -1.260000     -7.3057294E-21
  -1.200000     -1.4389884E-20
  -1.140000     -1.9580614E-20
  -1.080000     -1.3589080E-20
  -1.020000      1.6610950E-20
 -0.9600000      8.0550350E-20
 -0.9000000      1.7112963E-19
 -0.8400000      2.5066607E-19
 -0.7800000      2.4700663E-19
 -0.7200000      7.2439237E-20
 -0.6600000     -3.2860163E-19
 -0.6000000     -9.1348533E-19
 -0.5400000     -1.4883181E-18
 -0.4800000     -1.7131207E-18
 -0.4200000     -1.2044033E-18
 -0.3600000      2.5993872E-19
 -0.3000000      2.4880755E-18
 -0.2400000      4.6970628E-18
 -0.1800000      5.5804284E-18
 -0.1200000      3.7719440E-18
 -5.9999999E-02 -1.2699603E-18
  0.0000000E+00 -8.1899475E-18
  5.9999999E-02 -1.3049816E-17
  0.1200000     -9.8681158E-18
  0.1800000      6.8596351E-18
  0.2400000      3.7621703E-17
  0.3000000      7.2709043E-17
  0.3600000      8.9471515E-17
  0.4200000      5.6080251E-17
  0.4800000     -5.5173619E-17
  0.5400000     -2.4598377E-16
  0.6000000     -4.6889775E-16
  0.6600000     -6.1667217E-16
  0.7200000     -5.3993543E-16
  0.7800000     -1.0263564E-16
  0.8400000      7.3148632E-16
  0.9000000      1.8105225E-15
  0.9600000      2.7521487E-15
   1.020000      2.9981712E-15
   1.080000      1.9927361E-15
   1.140000     -5.3983845E-16
   1.200000     -4.3058005E-15
   1.260000     -8.2795234E-15
   1.320000     -1.0809707E-14
   1.380000     -1.0070448E-14
   1.440000     -4.8013741E-15
   1.500000      4.8804946E-15
   1.560000      1.6938684E-14
   1.620000      2.7499128E-14
   1.680000      3.1761801E-14
   1.740000      2.5649560E-14
   1.800000      7.7387141E-15
   1.860000     -1.9264580E-14
   1.920000     -4.8278926E-14
   1.980000     -6.9315816E-14
   2.040000     -7.2545472E-14
   2.100000     -5.2125103E-14
   2.160000     -9.4049948E-15
   2.220000      4.5957531E-14
   2.280000      9.7908687E-14
   2.340000      1.2879280E-13
   2.400000      1.2563496E-13
   2.460000      8.5598141E-14
   2.520000      1.8208591E-14
   2.580000     -5.7104285E-14
   2.640000     -1.1781513E-13
   2.700000     -1.4712003E-13
   2.760000     -1.4108636E-13
   2.820000     -1.1053146E-13
   2.880000     -7.5792623E-14
   2.940000     -5.5581167E-14
   3.000000     -5.4306016E-14
   3.060000     -5.4167459E-14
   3.120000     -1.7756777E-14
   3.180000      9.6535532E-14
   3.240000      3.0950240E-13
   3.300000      5.9535162E-13
   3.360000      8.6740684E-13
   3.420000      9.8648292E-13
   3.480000      7.9702976E-13
   3.540000      1.8614799E-13
   3.600000     -8.5022430E-13
   3.660000     -2.1572145E-12
   3.720000     -3.4109811E-12
   3.780000     -4.1648698E-12
   3.840000     -3.9526520E-12
   3.900000     -2.4310300E-12
   3.960000      4.7287207E-13
   4.020000      4.4520273E-12
   4.080000      8.7883563E-12
   4.140000      1.2425928E-11
   4.200000      1.4151605E-11
   4.260000      1.2860184E-11
   4.320000      7.8580423E-12
   4.380000     -8.5595002E-13
   4.440000     -1.2398105E-11
   4.500000     -2.4955833E-11
   4.560000     -3.5935109E-11
   4.620000     -4.2317466E-11
   4.680000     -4.1210389E-11
   4.740000     -3.0533114E-11
   4.800000     -9.7326340E-12
   4.860000      1.9619702E-11
   4.920000      5.3529233E-11
   4.980000      8.5750039E-11
   5.040000      1.0854732E-10
   5.100000      1.1405946E-10
   5.160000      9.6114464E-11
   5.220000      5.2185676E-11
   5.280000     -1.4962923E-11
   5.340000     -9.6442396E-11
   5.400000     -1.7764043E-10
   5.460000     -2.4007421E-10
   5.520000     -2.6459593E-10
   5.580000     -2.3550087E-10
   5.640000     -1.4479104E-10
   5.700000      4.3103524E-12
   5.760000      1.9545511E-10
   5.820000      3.9948606E-10
   5.880000      5.7716626E-10
   5.940000      6.8402489E-10
   6.000000      6.7657513E-10
   6.060000      5.1885274E-10
   6.120000      1.8814163E-10
   6.180000     -3.2110373E-10
   6.240000     -9.9578312E-10
   6.300000     -1.8053091E-09
   6.360000     -2.7051226E-09
   6.420000     -3.6419101E-09
   6.480000     -4.5596615E-09
   6.540000     -5.4056764E-09
   6.600000     -6.1357661E-09
   6.660000     -6.7181483E-09
   6.720000     -7.1358062E-09
   6.780000     -7.3873232E-09
   6.840000     -7.4863609E-09
   6.900000     -7.4599926E-09
   6.960000     -7.3460891E-09
   7.020000     -7.1898616E-09
   7.080000     -7.0396422E-09
   7.140000     -6.9419777E-09
   7.200000     -6.9362440E-09
   7.260000     -7.0491710E-09
   7.320000     -7.2899193E-09
   7.380000     -7.6465314E-09
   7.440000     -8.0846192E-09
   7.500000     -8.5489882E-09
   7.560000     -8.9684820E-09
   7.620000     -9.2637498E-09
   7.680000     -9.3569756E-09
   7.740000     -9.1821200E-09
   7.800000     -8.6939851E-09
   7.860000     -7.8745463E-09
   7.920000     -6.7355392E-09
   7.980000     -5.3170135E-09
   8.040000     -3.6823296E-09
   8.100000     -1.9106707E-09
   8.160000     -8.8374807E-11
   8.220000      1.6997019E-09
   8.280000      3.3779284E-09
   8.340000      4.8863127E-09
   8.400000      6.1854668E-09
   8.460000      7.2600992E-09
   8.520000      8.1208995E-09
   8.580000      8.8044452E-09
   8.640000      9.3706172E-09
   8.700000      9.8970583E-09
   8.760000      1.0470603E-08
   8.820000      1.1176239E-08
   8.880000      1.2084906E-08
   8.940000      1.3242052E-08
   9.000000      1.4659125E-08
   9.060000      1.6309897E-08
   9.120000      1.8132763E-08
   9.180000      2.0038987E-08
   9.240000      2.1925613E-08
   9.300000      2.3690770E-08
   9.360000      2.5248537E-08
   9.420000      2.6540690E-08
   9.480000      2.7543271E-08
   9.540000      2.8267138E-08
   9.600000      2.8752762E-08
   9.660000      2.9060638E-08
   9.720000      2.9259400E-08
   9.780000      2.9413798E-08
   9.840000      2.9574627E-08
   9.900000      2.9771961E-08
   9.960000      3.0012430E-08
   10.02000      3.0280482E-08
   10.08000      3.0542900E-08
   10.14000      3.0755533E-08
   10.20000      3.0870925E-08
   10.26000      3.0845708E-08
   10.32000      3.0646870E-08
   10.38000      3.0256292E-08
   10.44000      2.9673284E-08
   10.50000      2.8915093E-08
   10.56000      2.8015165E-08
   10.62000      2.7019297E-08
   10.68000      2.5979721E-08
   10.74000      2.4947619E-08
   10.80000      2.3965042E-08
   10.86000      2.3057744E-08
   10.92000      2.2230674E-08
   10.98000      2.1467661E-08
   11.04000      2.0736017E-08
   11.10000      1.9995529E-08
   11.16000      1.9209962E-08
   11.22000      1.8358179E-08
   11.28000      1.7441755E-08
   11.34000      1.6486570E-08
   11.40000      1.5537440E-08
   11.46000      1.4646623E-08
   11.52000      1.3859013E-08
   11.58000      1.3197853E-08
   11.64000      1.2655032E-08
   11.70000      1.2189070E-08
   11.76000      1.1731908E-08
   11.82000      1.1203362E-08
   11.88000      1.0529816E-08
   11.94000      9.6623669E-09
   12.00000      8.5894820E-09
   12.06000      7.3405126E-09
   12.12000      5.9788081E-09
   12.18000      4.5861057E-09
   12.24000      3.2424221E-09
   12.30000      2.0070838E-09
   12.36000      9.0628333E-10
   12.42000     -6.9308267E-11
   12.48000     -9.5631403E-10
   12.54000     -1.8023769E-09
   12.60000     -2.6467923E-09
   12.66000     -3.5038790E-09
   12.72000     -4.3540731E-09
   12.78000     -5.1454214E-09
   12.84000     -5.8050955E-09
   12.90000     -6.2576615E-09
   12.96000     -6.4448882E-09
   13.02000     -6.3414674E-09
   13.08000     -5.9621779E-09
   13.14000     -5.3584772E-09
   13.20000     -4.6055204E-09
   13.26000     -3.7833776E-09
   13.32000     -2.9579057E-09
   13.38000     -2.1668867E-09
   13.44000     -1.4154942E-09
   13.50000     -6.8241024E-10
   13.56000      6.5320034E-11
   13.62000      8.5329460E-10
   13.68000      1.6825858E-09
   13.74000      2.5199227E-09
   13.80000      3.2986356E-09
   13.86000      3.9305936E-09
   13.92000      4.3260608E-09
   13.98000      4.4159849E-09
   14.04000      4.1703898E-09
   14.10000      3.6075847E-09
   14.16000      2.7914395E-09
   14.22000      1.8173483E-09
   14.28000      7.9064127E-10
   14.34000     -1.9671258E-10
   14.40000     -1.0849102E-09
   14.46000     -1.8557822E-09
   14.52000     -2.5308040E-09
   14.58000     -3.1587322E-09
   14.64000     -3.7967332E-09
   14.70000     -4.4904298E-09
   14.76000     -5.2582307E-09
   14.82000     -6.0837770E-09
   14.88000     -6.9178299E-09
   14.94000     -7.6882953E-09
   15.00000     -8.3150562E-09
   15.06000     -8.7253884E-09
   15.12000     -8.8660910E-09
   15.18000     -8.7098266E-09
   15.24000     -8.2549798E-09
   15.30000     -7.5201196E-09
   15.36000     -6.5353785E-09
   15.42000     -5.3335523E-09
   15.48000     -3.9433830E-09
   15.54000     -2.3866100E-09
   15.60000     -6.7910338E-10
   15.66000      1.1648330E-09
   15.72000      3.1268712E-09
   15.78000      5.1800546E-09
   15.84000      7.2872042E-09
   15.90000      9.4034682E-09
   15.96000      1.1482816E-08
   16.02000      1.3486904E-08
   16.08000      1.5393708E-08
   16.14000      1.7203053E-08
   16.20000      1.8936742E-08
   16.26000      2.0632433E-08
   16.32000      2.2332200E-08
   16.38000      2.4068388E-08
   16.44000      2.5850445E-08
   16.50000      2.7656410E-08
   16.56000      2.9431726E-08
   16.62000      3.1096228E-08
   16.68000      3.2558191E-08
   16.74000      3.3732420E-08
   16.80000      3.4558472E-08
   16.86000      3.5014978E-08
   16.92000      3.5126906E-08
   16.98000      3.4964234E-08
   17.04000      3.4632247E-08
   17.10000      3.4255425E-08
   17.16000      3.3957971E-08
   17.22000      3.3844813E-08
   17.28000      3.3986360E-08
   17.34000      3.4409677E-08
   17.40000      3.5097088E-08
   17.46000      3.5991842E-08
   17.52000      3.7008778E-08
   17.58000      3.8047300E-08
   17.64000      3.9003726E-08
   17.70000      3.9780744E-08
   17.76000      4.0293049E-08
   17.82000      4.0469644E-08
   17.88000      4.0254264E-08
   17.94000      3.9605894E-08
   18.00000      3.8500627E-08
   18.06000      3.6935347E-08
   18.12000      3.4932075E-08
   18.18000      3.2541184E-08
   18.24000      2.9841488E-08
   18.30000      2.6935766E-08
   18.36000      2.3941709E-08
   18.42000      2.0979543E-08
   18.48000      1.8158685E-08
   18.54000      1.5566101E-08
   18.60000      1.3258747E-08
   18.66000      1.1261398E-08
   18.72000      9.5700159E-09
   18.78000      8.1595539E-09
   18.84000      6.9942021E-09
   18.90000      6.0376228E-09
   18.96000      5.2608047E-09
   19.02000      4.6457811E-09
   19.08000      4.1845141E-09
   19.14000      3.8735557E-09
   19.20000      3.7063701E-09
   19.26000      3.6659824E-09
   19.32000      3.7207093E-09
   19.38000      3.8248551E-09
   19.44000      3.9246921E-09
   19.50000      3.9682022E-09
   19.56000      3.9155528E-09
   19.62000      3.7467314E-09
   19.68000      3.4633880E-09
   19.74000      3.0836584E-09
   19.80000      2.6310163E-09
   19.86000      2.1202902E-09
   19.92000      1.5451599E-09
   19.98000      8.7134649E-10
   20.04000      3.8243082E-11
   20.10000     -1.0306185E-09
   20.16000     -2.4104876E-09
   20.22000     -4.1559813E-09
   20.28000     -6.2845600E-09
   20.34000     -8.7675813E-09
   20.40000     -1.1531758E-08
   20.46000     -1.4471093E-08
   20.52000     -1.7466478E-08
   20.58000     -2.0407999E-08
   20.64000     -2.3214122E-08
   20.70000     -2.5842859E-08
   20.76000     -2.8292286E-08
   20.82000     -3.0590869E-08
   20.88000     -3.2781045E-08
   20.94000     -3.4901369E-08
   21.00000     -3.6972605E-08
   21.06000     -3.8991811E-08
   21.12000     -4.0935557E-08
   21.18000     -4.2770552E-08
   21.24000     -4.4467576E-08
   21.30000     -4.6013685E-08
   21.36000     -4.7418354E-08
   21.42000     -4.8711360E-08
   21.48000     -4.9932918E-08
   21.54000     -5.1119091E-08
   21.60000     -5.2287270E-08
   21.66000     -5.3426593E-08
   21.72000     -5.4496788E-08
   21.78000     -5.5436420E-08
   21.84000     -5.6178525E-08
   21.90000     -5.6669098E-08
   21.96000     -5.6882683E-08
   22.02000     -5.6830054E-08
   22.08000     -5.6555159E-08
   22.14000     -5.6122090E-08
   22.20000     -5.5595919E-08
   22.26000     -5.5023541E-08
   22.32000     -5.4420571E-08
   22.38000     -5.3768517E-08
   22.44000     -5.3023168E-08
   22.50000     -5.2131487E-08
   22.56000     -5.1051920E-08
   22.62000     -4.9772051E-08
   22.68000     -4.8318718E-08
   22.74000     -4.6758004E-08
   22.80000     -4.5185480E-08
   22.86000     -4.3709417E-08
   22.92000     -4.2431267E-08
   22.98000     -4.1427946E-08
   23.04000     -4.0739717E-08
   23.10000     -4.0366221E-08
   23.16000     -4.0271228E-08
   23.22000     -4.0395005E-08
   23.28000     -4.0671459E-08
   23.34000     -4.1045919E-08
   23.40000     -4.1489052E-08
   23.46000     -4.2003190E-08
   23.52000     -4.2618993E-08
   23.58000     -4.3383061E-08
   23.64000     -4.4339878E-08
   23.70000     -4.5513204E-08
   23.76000     -4.6892648E-08
   23.82000     -4.8429762E-08
   23.88000     -5.0045145E-08
   23.94000     -5.1644960E-08
   24.00000     -5.3142180E-08
   24.06000     -5.4476587E-08
   24.12000     -5.5627872E-08
   24.18000     -5.6618294E-08
   24.24000     -5.7504359E-08
   24.30000     -5.8360204E-08
   24.36000     -5.9257520E-08
   24.42000     -6.0247650E-08
   24.48000     -6.1350633E-08
   24.54000     -6.2553625E-08
   24.60000     -6.3818298E-08
   24.66000     -6.5094127E-08
   24.72000     -6.6332831E-08
   24.78000     -6.7499322E-08
   24.84000     -6.8575737E-08
   24.90000     -6.9558070E-08
   24.96000     -7.0447165E-08
   25.02000     -7.1238119E-08
   25.08000     -7.1912183E-08
   25.14000     -7.2434666E-08
   25.20000     -7.2759612E-08
   25.26000     -7.2840038E-08
   25.32000     -7.2640404E-08
   25.38000     -7.2147458E-08
   25.44000     -7.1376014E-08
   25.50000     -7.0368216E-08
   25.56000     -6.9186193E-08
   25.62000     -6.7900395E-08
   25.68000     -6.6576369E-08
   25.74000     -6.5263421E-08
   25.80000     -6.3987812E-08
   25.86000     -6.2751880E-08
   25.92000     -6.1539112E-08
   25.98000     -6.0323416E-08
   26.04000     -5.9079884E-08
   26.10000     -5.7793823E-08
   26.16000     -5.6465662E-08
   26.22000     -5.5110565E-08
   26.28000     -5.3753482E-08
   26.34000     -5.2421747E-08
   26.40000     -5.1138169E-08
   26.46000     -4.9916910E-08
   26.52000     -4.8763184E-08
   26.58000     -4.7676195E-08
   26.64000     -4.6653401E-08
   26.70000     -4.5693866E-08
   26.76000     -4.4799226E-08
   26.82000     -4.3971824E-08
   26.88000     -4.3211113E-08
   26.94000     -4.2509811E-08
   27.00000     -4.1851486E-08
   27.06000     -4.1210402E-08
   27.12000     -4.0553662E-08
   27.18000     -3.9845066E-08
   27.24000     -3.9049855E-08
   27.30000     -3.8139508E-08
   27.36000     -3.7096129E-08
   27.42000     -3.5915722E-08
   27.48000     -3.4609744E-08
   27.54000     -3.3204223E-08
   27.60000     -3.1735905E-08
   27.66000     -3.0245680E-08
   27.72000     -2.8770419E-08
   27.78000     -2.7335112E-08
   27.84000     -2.5947500E-08
   27.90000     -2.4596835E-08
   27.96000     -2.3257211E-08
   28.02000     -2.1894547E-08
   28.08000     -2.0475156E-08
   28.14000     -1.8973543E-08
   28.20000     -1.7377511E-08
   28.26000     -1.5689615E-08
   28.32000     -1.3925239E-08
   28.38000     -1.2108245E-08
   28.44000     -1.0265565E-08
   28.50000     -8.4218996E-09
   28.56000     -6.5954069E-09
   28.62000     -4.7949427E-09
   28.68000     -3.0192424E-09
   28.74000     -1.2582850E-09
   28.80000      5.0318183E-10
   28.86000      2.2804765E-09
   28.92000      4.0832862E-09
   28.98000      5.9109917E-09
   29.04000      7.7505398E-09
   29.10000      9.5777342E-09
   29.16000      1.1361693E-08
   29.22000      1.3071034E-08
   29.28000      1.4679640E-08
   29.34000      1.6170029E-08
   29.40000      1.7533381E-08
   29.46000      1.8766745E-08
   29.52000      1.9869242E-08
   29.58000      2.0839499E-08
   29.64000      2.1675836E-08
   29.70000      2.2379314E-08
   29.76000      2.2958023E-08
   29.82000      2.3430070E-08
   29.88000      2.3822928E-08
   29.94000      2.4168148E-08
   30.00000      2.4492435E-08
   30.06000      2.4807743E-08
   30.12000      2.5103775E-08
   30.18000      2.5345534E-08
   30.24000      2.5477060E-08
   30.30000      2.5430399E-08
   30.36000      2.5137467E-08
   30.42000      2.4541892E-08
   30.48000      2.3608386E-08
   30.54000      2.2328202E-08
   30.60000      2.0720297E-08
   30.66000      1.8828596E-08
   30.72000      1.6716017E-08
   30.78000      1.4456100E-08
   30.84000      1.2123196E-08
   30.90000      9.7824993E-09
   30.96000      7.4815558E-09
   31.02000      5.2449445E-09
   31.08000      3.0734917E-09
   31.14000      9.4839325E-10
   31.20000     -1.1605774E-09
   31.26000     -3.2847765E-09
   31.32000     -5.4469371E-09
   31.38000     -7.6545037E-09
   31.44000     -9.8977599E-09
   31.50000     -1.2153158E-08
   31.56000     -1.4390787E-08
   31.62000     -1.6583730E-08
   31.68000     -1.8716459E-08
   31.74000     -2.0789546E-08
   31.80000     -2.2818961E-08
   31.86000     -2.4829813E-08
   31.92000     -2.6846109E-08
   31.98000     -2.8879597E-08
   32.04000     -3.0921150E-08
   32.10000     -3.2937638E-08
   32.16000     -3.4875480E-08
   32.22000     -3.6670077E-08
   32.28000     -3.8258342E-08
   32.34000     -3.9590908E-08
   32.40000     -4.0640714E-08
   32.46000     -4.1406114E-08
   32.52000     -4.1908322E-08
   32.58000     -4.2184585E-08
   32.64000     -4.2279062E-08
   32.70000     -4.2233623E-08
   32.76000     -4.2080128E-08
   32.82000     -4.1835246E-08
   32.88000     -4.1498442E-08
   32.94000     -4.1053333E-08
   33.00000     -4.0472457E-08
   33.06000     -3.9724775E-08
   33.12000     -3.8784705E-08
   33.18000     -3.7640739E-08
   33.24000     -3.6301351E-08
   33.30000     -3.4796617E-08
   33.36000     -3.3174743E-08
   33.42000     -3.1494441E-08
   33.48000     -2.9815109E-08
   33.54000     -2.8187484E-08
   33.60000     -2.6646987E-08
   33.66000     -2.5211007E-08
   33.72000     -2.3880137E-08
   33.78000     -2.2642311E-08
   33.84000     -2.1478414E-08
   33.90000     -2.0367942E-08
   33.96000     -1.9293777E-08
   34.02000     -1.8245498E-08
   34.08000     -1.7220982E-08
   34.14000     -1.6226195E-08
   34.20000     -1.5273326E-08
   34.26000     -1.4377751E-08
   34.32000     -1.3554792E-08
   34.38000     -1.2817404E-08
   34.44000     -1.2175761E-08
   34.50000     -1.1638977E-08
   34.56000     -1.1218158E-08
   34.62000     -1.0929159E-08
   34.68000     -1.0793246E-08
   34.74000     -1.0834563E-08
   34.80000     -1.1074657E-08
   34.86000     -1.1525746E-08
   34.92000     -1.2185202E-08
   34.98000     -1.3033540E-08
   35.04000     -1.4036870E-08
   35.10000     -1.5153196E-08
   35.16000     -1.6340380E-08
   35.22000     -1.7563277E-08
   35.28000     -1.8797930E-08
   35.34000     -2.0032241E-08
   35.40000     -2.1263816E-08
   35.46000     -2.2496657E-08
   35.52000     -2.3738354E-08
   35.58000     -2.4998641E-08
   35.64000     -2.6289269E-08
   35.70000     -2.7624306E-08
   35.76000     -2.9019919E-08
   35.82000     -3.0493045E-08
   35.88000     -3.2059006E-08
   35.94000     -3.3728714E-08
   36.00000     -3.5506154E-08
   36.06000     -3.7386599E-08
   36.12000     -3.9355776E-08
   36.18000     -4.1390035E-08
   36.24000     -4.3457597E-08
   36.30000     -4.5521308E-08
   36.36000     -4.7543345E-08
   36.42000     -4.9491739E-08
   36.48000     -5.1347790E-08
   36.54000     -5.3112483E-08
   36.60000     -5.4809401E-08
   36.66000     -5.6482044E-08
   36.72000     -5.8184938E-08
   36.78000     -5.9969864E-08
   36.84000     -6.1870537E-08
   36.90000     -6.3890177E-08
   36.96000     -6.5995863E-08
   37.02000     -6.8122063E-08
   37.08000     -7.0182729E-08
   37.14000     -7.2089236E-08
   37.20000     -7.3769151E-08
   37.26000     -7.5181141E-08
   37.32000     -7.6322024E-08
   37.38000     -7.7224549E-08
   37.44000     -7.7947071E-08
   37.50000     -7.8558415E-08
   37.56000     -7.9122302E-08
   37.62000     -7.9685599E-08
   37.68000     -8.0272770E-08
   37.74000     -8.0886984E-08
   37.80000     -8.1515829E-08
   37.86000     -8.2138513E-08
   37.92000     -8.2731262E-08
   37.98000     -8.3269136E-08
   38.04000     -8.3724487E-08
   38.10000     -8.4063963E-08
   38.16000     -8.4247183E-08
   38.22000     -8.4229164E-08
   38.28000     -8.3966988E-08
   38.34000     -8.3429271E-08
   38.40000     -8.2605169E-08
   38.46000     -8.1509839E-08
   38.52000     -8.0184016E-08
   38.58000     -7.8687719E-08
   38.64000     -7.7089510E-08
   38.70000     -7.5454238E-08
   38.76000     -7.3832041E-08
   38.82000     -7.2250891E-08
   38.88000     -7.0713881E-08
   38.94000     -6.9201540E-08
   39.00000     -6.7678663E-08
   39.06000     -6.6104306E-08
   39.12000     -6.4443256E-08
   39.18000     -6.2676193E-08
   39.24000     -6.0806329E-08
   39.30000     -5.8860223E-08
   39.36000     -5.6882310E-08
   39.42000     -5.4924474E-08
   39.48000     -5.3033464E-08
   39.54000     -5.1239891E-08
   39.60000     -4.9551964E-08
   39.66000     -4.7955528E-08
   39.72000     -4.6419974E-08
   39.78000     -4.4907733E-08
   39.84000     -4.3384407E-08
   39.90000     -4.1826574E-08
   39.96000     -4.0225402E-08
   40.02000     -3.8585359E-08
   40.08000     -3.6918603E-08
   40.14000     -3.5236482E-08
   40.20000     -3.3540438E-08
   40.26000     -3.1814864E-08
   40.32000     -3.0024442E-08
   40.38000     -2.8117752E-08
   40.44000     -2.6037252E-08
   40.50000     -2.3733730E-08
   40.56000     -2.1181368E-08
   40.62000     -1.8388615E-08
   40.68000     -1.5400781E-08
   40.74000     -1.2292590E-08
   40.80000     -9.1522256E-09
   40.86000     -6.0614402E-09
   40.92000     -3.0778315E-09
   40.98000     -2.2484219E-10
   41.04000      2.5074671E-09
   41.10000      5.1513709E-09
   41.16000      7.7438873E-09
   41.22000      1.0308240E-08
   41.28000      1.2839954E-08
   41.34000      1.5301474E-08
   41.40000      1.7626510E-08
   41.46000      1.9732633E-08
   41.52000      2.1538506E-08
   41.58000      2.2981164E-08
   41.64000      2.4028919E-08
   41.70000      2.4686667E-08
   41.76000      2.4992364E-08
   41.82000      2.5005766E-08
   41.88000      2.4792620E-08
   41.94000      2.4408887E-08
   42.00000      2.3889550E-08
   42.06000      2.3245200E-08
   42.12000      2.2467146E-08
   42.18000      2.1538876E-08
   42.24000      2.0449635E-08
   42.30000      1.9205117E-08
   42.36000      1.7831368E-08
   42.42000      1.6370407E-08
   42.48000      1.4869076E-08
   42.54000      1.3364978E-08
   42.60000      1.1874427E-08
   42.66000      1.0386557E-08
   42.72000      8.8657623E-09
   42.78000      7.2617685E-09
   42.84000      5.5242317E-09
   42.90000      3.6172794E-09
   42.96000      1.5294089E-09
   43.02000     -7.2441175E-10
   43.08000     -3.1092140E-09
   43.14000     -5.5832010E-09
   43.20000     -8.1136893E-09
   43.26000     -1.0691039E-08
   43.32000     -1.3336454E-08
   43.38000     -1.6101527E-08
   43.44000     -1.9060105E-08
   43.50000     -2.2295520E-08
   43.56000     -2.5887665E-08
   43.62000     -2.9904218E-08
   43.68000     -3.4398663E-08
   43.74000     -3.9415369E-08
   43.80000     -4.4999485E-08
   43.86000     -5.1208282E-08
   43.92000     -5.8120548E-08
   43.98000     -6.5842343E-08
   44.04000     -7.4509295E-08
   44.10000     -8.4287507E-08
   44.16000     -9.5375725E-08
   44.22000     -1.0801066E-07
   44.28000     -1.2247590E-07
   44.34000     -1.3911288E-07
   44.40000     -1.5833179E-07
   44.46000     -1.8061981E-07
   44.52000     -2.0654591E-07
   44.58000     -2.3676245E-07
   44.64000     -2.7200585E-07
   44.70000     -3.1309872E-07
   44.76000     -3.6095608E-07
   44.82000     -4.1659632E-07
   44.88000     -4.8115805E-07
   44.94000     -5.5592096E-07
   45.00000     -6.4233041E-07
   45.06000     -7.4202313E-07
   45.12000     -8.5685411E-07
   45.18000     -9.8892212E-07
   45.24000     -1.1405932E-06
   45.30000     -1.3145211E-06
   45.36000     -1.5136646E-06
   45.42000     -1.7413029E-06
   45.48000     -2.0010489E-06
   45.54000     -2.2968668E-06
   45.60000     -2.6330938E-06
   45.66000     -3.0144679E-06
   45.72000     -3.4461646E-06
   45.78000     -3.9338352E-06
   45.84000     -4.4836506E-06
   45.90000     -5.1023376E-06
   45.96000     -5.7972115E-06
   46.02000     -6.5761947E-06
   46.08000     -7.4478298E-06
   46.14000     -8.4212816E-06
   46.20000     -9.5063351E-06
   46.26000     -1.0713394E-05
   46.32000     -1.2053479E-05
   46.38000     -1.3538225E-05
   46.44000     -1.5179885E-05
   46.50000     -1.6991326E-05
   46.56000     -1.8986024E-05
   46.62000     -2.1178037E-05
   46.68000     -2.3581964E-05
   46.74000     -2.6212894E-05
   46.80000     -2.9086335E-05
   46.86000     -3.2218108E-05
   46.92000     -3.5624282E-05
   46.98000     -3.9321047E-05
   47.04000     -4.3324639E-05
   47.10000     -4.7651240E-05
   47.16000     -5.2316856E-05
   47.22000     -5.7337234E-05
   47.28000     -6.2727719E-05
   47.34000     -6.8503155E-05
   47.40000     -7.4677664E-05
   47.46000     -8.1264545E-05
   47.52000     -8.8276036E-05
   47.58000     -9.5723146E-05
   47.64000     -1.0361546E-04
   47.70000     -1.1196100E-04
   47.76000     -1.2076597E-04
   47.82000     -1.3003472E-04
   47.88000     -1.3976957E-04
   47.94000     -1.4997063E-04
   48.00000     -1.6063571E-04
   48.06000     -1.7176024E-04
   48.12000     -1.8333714E-04
   48.18000     -1.9535673E-04
   48.24000     -2.0780670E-04
   48.30000     -2.2067208E-04
   48.36000     -2.3393516E-04
   48.42000     -2.4757558E-04
   48.48000     -2.6157021E-04
   48.54000     -2.7589334E-04
   48.60000     -2.9051673E-04
   48.66000     -3.0540972E-04
   48.72000     -3.2053952E-04
   48.78000     -3.3587127E-04
   48.84000     -3.5136839E-04
   48.90000     -3.6699270E-04
   48.96000     -3.8270481E-04
   49.02000     -3.9846427E-04
   49.08000     -4.1423010E-04
   49.14000     -4.2996099E-04
   49.20000     -4.4561570E-04
   49.26000     -4.6115351E-04
   49.32000     -4.7653445E-04
   49.38000     -4.9171963E-04
   49.44000     -5.0667173E-04
   49.50000     -5.2135537E-04
   49.56000     -5.3573697E-04
   49.62000     -5.4978591E-04
   49.68000     -5.6347414E-04
   49.74000     -5.7677674E-04
   49.80000     -5.8967242E-04
   49.86000     -6.0214341E-04
   49.92000     -6.1417569E-04
   49.98000     -6.2575925E-04
   50.04000     -6.3688774E-04
   50.10000     -6.4755883E-04
   50.16000     -6.5777439E-04
   50.22000     -6.6754001E-04
   50.28000     -6.7686511E-04
   50.34000     -6.8576285E-04
   50.40000     -6.9424970E-04
   50.46000     -7.0234534E-04
   50.52000     -7.1007211E-04
   50.58000     -7.1745482E-04
   50.64000     -7.2452042E-04
   50.70000     -7.3129759E-04
   50.76000     -7.3781627E-04
   50.82000     -7.4410724E-04
   50.88000     -7.5020164E-04
   50.94000     -7.5613026E-04
   51.00000     -7.6192332E-04
   51.06000     -7.6760992E-04
   51.12000     -7.7321753E-04
   51.18000     -7.7877188E-04
   51.24000     -7.8429631E-04
   51.30000     -7.8981137E-04
   51.36000     -7.9533475E-04
   51.42000     -8.0088049E-04
   51.48000     -8.0645923E-04
   51.54000     -8.1207760E-04
   51.60000     -8.1773871E-04
   51.66000     -8.2344143E-04
   51.72000     -8.2918099E-04
   51.78000     -8.3494879E-04
   51.84000     -8.4073230E-04
   51.90000     -8.4651564E-04
   51.96000     -8.5227931E-04
   52.02000     -8.5800089E-04
   52.08000     -8.6365541E-04
   52.14000     -8.6921547E-04
   52.20000     -8.7465160E-04
   52.26000     -8.7993324E-04
   52.32000     -8.8502862E-04
   52.38000     -8.8990567E-04
   52.44000     -8.9453254E-04
   52.50000     -8.9887768E-04
   52.56000     -9.0291066E-04
   52.62000     -9.0660236E-04
   52.68000     -9.0992555E-04
   52.74000     -9.1285561E-04
   52.80000     -9.1537053E-04
   52.86000     -9.1745169E-04
   52.92000     -9.1908406E-04
   52.98000     -9.2025631E-04
   53.04000     -9.2096091E-04
   53.10000     -9.2119421E-04
   53.16000     -9.2095666E-04
   53.22000     -9.2025282E-04
   53.28000     -9.1909111E-04
   53.34000     -9.1748423E-04
   53.40000     -9.1544882E-04
   53.46000     -9.1300532E-04
   53.52000     -9.1017736E-04
   53.58000     -9.0699142E-04
   53.64000     -9.0347638E-04
   53.70000     -8.9966320E-04
   53.76000     -8.9558447E-04
   53.82000     -8.9127431E-04
   53.88000     -8.8676775E-04
   53.94000     -8.8210020E-04
   54.00000     -8.7730680E-04
   54.06000     -8.7242224E-04
   54.12000     -8.6747960E-04
   54.18000     -8.6251041E-04
   54.24000     -8.5754454E-04
   54.30000     -8.5260929E-04
   54.36000     -8.4772962E-04
   54.42000     -8.4292766E-04
   54.48000     -8.3822216E-04
   54.54000     -8.3362835E-04
   54.60000     -8.2915777E-04
   54.66000     -8.2481839E-04
   54.72000     -8.2061457E-04
   54.78000     -8.1654737E-04
   54.84000     -8.1261451E-04
   54.90000     -8.0881029E-04
   54.96000     -8.0512592E-04
   55.02000     -8.0154923E-04
   55.08000     -7.9806556E-04
   55.14000     -7.9465774E-04
   55.20000     -7.9130678E-04
   55.26000     -7.8799238E-04
   55.32000     -7.8469317E-04
   55.38000     -7.8138715E-04
   55.44000     -7.7805168E-04
   55.50000     -7.7466422E-04
   55.56000     -7.7120250E-04