  -2.400000      0.0000000E+00
  -2.340000      0.0000000E+00
  -2.280000      0.0000000E+00
  -2.220000      0.0000000E+00
  -2.160000     -2.3545948E-18
  -2.100000     -1.2567205E-17
  -2.040000     -2.7132682E-17
  -1.980000     -4.3327720E-18
  -1.920000      1.6082788E-16
  -1.860000      6.1217231E-16
  -1.800000      1.4199508E-15
  -1.740000      2.3955392E-15
  -1.680000      2.9286001E-15
  -1.620000      1.9984315E-15
  -1.560000     -1.5097216E-15
  -1.500000     -8.1709084E-15
  -1.440000     -1.7239629E-14
  -1.380000     -2.6064044E-14
  -1.320000     -3.0111811E-14
  -1.260000     -2.3938445E-14
  -1.200000     -3.1650646E-15
  -1.140000      3.2875588E-14
  -1.080000      7.8626823E-14
  -1.020000      1.2109210E-13
 -0.9600000      1.4113529E-13
 -0.9000000      1.1807127E-13
 -0.8400000      3.7288698E-14
 -0.7800000     -1.0081375E-13
 -0.7200000     -2.7371332E-13
 -0.6600000     -4.3527619E-13
 -0.6000000     -5.2295662E-13
 -0.5400000     -4.7431633E-13
 -0.4800000     -2.4985252E-13
 -0.4200000      1.4452756E-13
 -0.3600000      6.4407410E-13
 -0.3000000      1.1284973E-12
 -0.2400000      1.4452872E-12
 -0.1800000      1.4495204E-12
 -0.1200000      1.0497666E-12
 -5.9999999E-02  2.4569553E-13
  0.0000000E+00 -8.5594146E-13
  5.9999999E-02 -2.0537183E-12
  0.1200000     -3.0890542E-12
  0.1800000     -3.6961116E-12
  0.2400000     -3.6470874E-12
  0.3000000     -2.7799271E-12
  0.3600000     -1.0073896E-12
  0.4200000      1.6786182E-12
  0.4800000      5.1834106E-12
  0.5400000      9.2455895E-12
  0.6000000      1.3332220E-11
  0.6600000      1.6526992E-11
  0.7200000      1.7481490E-11
  0.7800000      1.4519480E-11
  0.8400000      5.9694172E-12
  0.9000000     -9.2577135E-12
  0.9600000     -3.0922678E-11
   1.020000     -5.6727466E-11
   1.080000     -8.1861656E-11
   1.140000     -9.9100270E-11
   1.200000     -9.9649893E-11
   1.260000     -7.4775387E-11
   1.320000     -1.8021779E-11
   1.380000      7.2363414E-11
   1.440000      1.9133815E-10
   1.500000      3.2584357E-10
   1.560000      4.5485610E-10
   1.620000      5.5086663E-10
   1.680000      5.8263322E-10
   1.740000      5.1877508E-10
   1.800000      3.3160413E-10
   1.860000      5.6244674E-13
   1.920000     -4.8524185E-10
   1.980000     -1.1256811E-09
   2.040000     -1.9094575E-09
   2.100000     -2.8149592E-09
   2.160000     -3.8118029E-09
   2.220000     -4.8627391E-09
   2.280000     -5.9256871E-09
   2.340000     -6.9557871E-09
   2.400000     -7.9074924E-09
   2.460000     -8.7367367E-09
   2.520000     -9.4031893E-09
   2.580000     -9.8725073E-09
   2.640000     -1.0118322E-08
   2.700000     -1.0123663E-08
   2.760000     -9.8814885E-09
   2.820000     -9.3941397E-09
   2.880000     -8.6717371E-09
   2.940000     -7.7298496E-09
   3.000000     -6.5868968E-09
   3.060000     -5.2619327E-09
   3.120000     -3.7733048E-09
   3.180000     -2.1384885E-09
   3.240000     -3.7502265E-10
   3.300000      1.4978715E-09
   3.360000      3.4576535E-09
   3.420000      5.4775198E-09
   3.480000      7.5266859E-09
   3.540000      9.5720400E-09
   3.600000      1.1580869E-08
   3.660000      1.3523933E-08
   3.720000      1.5378008E-08
   3.780000      1.7127014E-08
   3.840000      1.8761325E-08
   3.900000      2.0275280E-08
   3.960000      2.1663599E-08
   4.020000      2.2917767E-08
   4.080000      2.4023548E-08
   4.140000      2.4960576E-08
   4.200000      2.5704393E-08
   4.260000      2.6230630E-08
   4.320000      2.6520327E-08
   4.380000      2.6565045E-08
   4.440000      2.6370449E-08
   4.500000      2.5957352E-08
   4.560000      2.5359954E-08
   4.620000      2.4621682E-08
   4.680000      2.3789699E-08
   4.740000      2.2909305E-08
   4.800000      2.2019504E-08
   4.860000      2.1150427E-08
   4.920000      2.0322867E-08
   4.980000      1.9549555E-08
   5.040000      1.8837495E-08
   5.100000      1.8190553E-08
   5.160000      1.7611605E-08
   5.220000      1.7103828E-08
   5.280000      1.6671015E-08
   5.340000      1.6317015E-08
   5.400000      1.6044627E-08
   5.460000      1.5854367E-08
   5.520000      1.5743538E-08
   5.580000      1.5706059E-08
   5.640000      1.5733292E-08
   5.700000      1.5815917E-08
   5.760000      1.5946553E-08
   5.820000      1.6122499E-08
   5.880000      1.6347800E-08
   5.940000      1.6633773E-08
   6.000000      1.6997467E-08
   6.060000      1.7457962E-08
   6.120000      1.8031047E-08
   6.180000      1.8723361E-08
   6.240000      1.9527331E-08
   6.300000      2.0418309E-08
   6.360000      2.1354802E-08
   6.420000      2.2282098E-08
   6.480000      2.3138711E-08
   6.540000      2.3864386E-08
   6.600000      2.4408001E-08
   6.660000      2.4733655E-08
   6.720000      2.4823686E-08
   6.780000      2.4678149E-08
   6.840000      2.4311058E-08
   6.900000      2.3744496E-08
   6.960000      2.3001943E-08
   7.020000      2.2102268E-08
   7.080000      2.1055351E-08
   7.140000      1.9859906E-08
   7.200000      1.8503577E-08
   7.260000      1.6965107E-08
   7.320000      1.5218236E-08
   7.380000      1.3236919E-08
   7.440000      1.1001250E-08
   7.500000      8.5032514E-09
   7.560000      5.7514260E-09
   7.620000      2.7728499E-09
   7.680000     -3.8812367E-10
   7.740000     -3.6748051E-09
   7.800000     -7.0260398E-09
   7.860000     -1.0385342E-08
   7.920000     -1.3709057E-08
   7.980000     -1.6971391E-08
   8.040000     -2.0164977E-08
   8.100000     -2.3296870E-08
   8.160000     -2.6381265E-08
   8.220000     -2.9431108E-08
   8.280000     -3.2451005E-08
   8.340000     -3.5433228E-08
   8.400000     -3.8357520E-08
   8.460000     -4.1194156E-08
   8.520000     -4.3908777E-08
   8.580000     -4.6467392E-08
   8.640000     -4.8840153E-08
   8.700000     -5.1003465E-08
   8.760000     -5.2940681E-08
   8.820000     -5.4642118E-08
   8.880000     -5.6104962E-08
   8.940000     -5.7333288E-08
   9.000000     -5.8337715E-08
   9.060000     -5.9134042E-08
   9.120000     -5.9740394E-08
   9.180000     -6.0173065E-08
   9.240000     -6.0442112E-08
   9.300000     -6.0548125E-08
   9.360000     -6.0481739E-08
   9.420000     -6.0226554E-08
   9.480000     -5.9764865E-08
   9.540000     -5.9084780E-08
   9.600000     -5.8186362E-08
   9.660000     -5.7084858E-08
   9.720000     -5.5809807E-08
   9.780000     -5.4400395E-08
   9.840000     -5.2898301E-08
   9.900000     -5.1340287E-08
   9.960000     -4.9752622E-08
   10.02000     -4.8148706E-08
   10.08000     -4.6530342E-08
   10.14000     -4.4891969E-08
   10.20000     -4.3226549E-08
   10.26000     -4.1531525E-08
   10.32000     -3.9813582E-08
   10.38000     -3.8091340E-08
   10.44000     -3.6395821E-08
   10.50000     -3.4768824E-08
   10.56000     -3.3259749E-08
   10.62000     -3.1921285E-08
   10.68000     -3.0804397E-08
   10.74000     -2.9952943E-08
   10.80000     -2.9398368E-08
   10.86000     -2.9154906E-08
   10.92000     -2.9216165E-08
   10.98000     -2.9553686E-08
   11.04000     -3.0118144E-08
   11.10000     -3.0843282E-08
   11.16000     -3.1651929E-08
   11.22000     -3.2463138E-08
   11.28000     -3.3198912E-08
   11.34000     -3.3789455E-08
   11.40000     -3.4176256E-08
   11.46000     -3.4313242E-08
   11.52000     -3.4166831E-08
   11.58000     -3.3715928E-08
   11.64000     -3.2952528E-08
   11.70000     -3.1882927E-08
   11.76000     -3.0528692E-08
   11.82000     -2.8926134E-08
   11.88000     -2.7123265E-08
   11.94000     -2.5173948E-08
   12.00000     -2.3130188E-08
   12.06000     -2.1034388E-08
   12.12000     -1.8913873E-08
   12.18000     -1.6779369E-08
   12.24000     -1.4628126E-08
   12.30000     -1.2450766E-08
   12.36000     -1.0239767E-08
   12.42000     -7.9969960E-09
   12.48000     -5.7380753E-09
   12.54000     -3.4925163E-09
   12.60000     -1.2999328E-09
   12.66000      7.9618612E-10
   12.72000      2.7551519E-09
   12.78000      4.5444142E-09
   12.84000      6.1425474E-09
   12.90000      7.5397812E-09
   12.96000      8.7367171E-09
   13.02000      9.7421262E-09
   13.08000      1.0570653E-08
   13.14000      1.1240846E-08
   13.20000      1.1773657E-08
   13.26000      1.2191292E-08
   13.32000      1.2516388E-08
   13.38000      1.2771491E-08
   13.44000      1.2978872E-08
   13.50000      1.3160639E-08
   13.56000      1.3338899E-08
   13.62000      1.3535666E-08
   13.68000      1.3772210E-08
   13.74000      1.4067795E-08
   13.80000      1.4438042E-08
   13.86000      1.4893406E-08
   13.92000      1.5438275E-08
   13.98000      1.6071041E-08
   14.04000      1.6785071E-08
   14.10000      1.7570272E-08
   14.16000      1.8414706E-08
   14.22000      1.9305833E-08
   14.28000      2.0231179E-08
   14.34000      2.1178524E-08
   14.40000      2.2135916E-08
   14.46000      2.3091793E-08
   14.52000      2.4035419E-08
   14.58000      2.4957565E-08
   14.64000      2.5851211E-08
   14.70000      2.6711993E-08
   14.76000      2.7538160E-08
   14.82000      2.8330030E-08
   14.88000      2.9089012E-08
   14.94000      2.9816530E-08
   15.00000      3.0513121E-08
   15.06000      3.1177983E-08
   15.12000      3.1809062E-08
   15.18000      3.2403612E-08
   15.24000      3.2958965E-08
   15.30000      3.3473135E-08
   15.36000      3.3945057E-08
   15.42000      3.4374271E-08
   15.48000      3.4760269E-08
   15.54000      3.5101884E-08
   15.60000      3.5397107E-08
   15.66000      3.5643751E-08
   15.72000      3.5840944E-08
   15.78000      3.5990972E-08
   15.84000      3.6100808E-08
   15.90000      3.6182566E-08
   15.96000      3.6252381E-08
   16.02000      3.6327840E-08
   16.08000      3.6424758E-08
   16.14000      3.6554351E-08
   16.20000      3.6721932E-08
   16.26000      3.6927702E-08
   16.32000      3.7169183E-08
   16.38000      3.7444284E-08
   16.44000      3.7753320E-08
   16.50000      3.8098843E-08
   16.56000      3.8482902E-08
   16.62000      3.8902698E-08
   16.68000      3.9346538E-08
   16.74000      3.9792226E-08
   16.80000      4.0209262E-08
   16.86000      4.0564807E-08
   16.92000      4.0831583E-08
   16.98000      4.0994898E-08
   17.04000      4.1055941E-08
   17.10000      4.1029608E-08
   17.16000      4.0937351E-08
   17.22000      4.0797424E-08
   17.28000      4.0616058E-08
   17.34000      4.0383043E-08
   17.40000      4.0073594E-08
   17.46000      3.9656065E-08
   17.52000      3.9102897E-08
   17.58000      3.8400923E-08
   17.64000      3.7557367E-08
   17.70000      3.6599243E-08
   17.76000      3.5566369E-08
   17.82000      3.4500150E-08
   17.88000      3.3431775E-08
   17.94000      3.2373599E-08
   18.00000      3.1316237E-08
   18.06000      3.0232197E-08
   18.12000      2.9084681E-08
   18.18000      2.7838887E-08
   18.24000      2.6472460E-08
   18.30000      2.4982210E-08
   18.36000      2.3385438E-08
   18.42000      2.1715811E-08
   18.48000      2.0015209E-08
   18.54000      1.8323897E-08
   18.60000      1.6671823E-08
   18.66000      1.5073192E-08
   18.72000      1.3525629E-08
   18.78000      1.2013778E-08
   18.84000      1.0516135E-08
   18.90000      9.0128580E-09
   18.96000      7.4922388E-09
   19.02000      5.9538379E-09
   19.08000      4.4074073E-09
   19.14000      2.8680278E-09
   19.20000      1.3491944E-09
   19.26000     -1.4367221E-10
   19.32000     -1.6168253E-09
   19.38000     -3.0873477E-09
   19.44000     -4.5778554E-09
   19.50000     -6.1084395E-09
   19.56000     -7.6887705E-09
   19.62000     -9.3135517E-09
   19.68000     -1.0963593E-08
   19.74000     -1.2612891E-08
   19.80000     -1.4239873E-08
   19.86000     -1.5839191E-08
   19.92000     -1.7429842E-08
   19.98000     -1.9056289E-08
   20.04000     -2.0781393E-08
   20.10000     -2.2672699E-08
   20.16000     -2.4785921E-08
   20.22000     -2.7150508E-08
   20.28000     -2.9761553E-08
   20.34000     -3.2580221E-08
   20.40000     -3.5541927E-08
   20.46000     -3.8569119E-08
   20.52000     -4.1584013E-08
   20.58000     -4.4517154E-08
   20.64000     -4.7309509E-08
   20.70000     -4.9908515E-08
   20.76000     -5.2261075E-08
   20.82000     -5.4307730E-08
   20.88000     -5.5981936E-08
   20.94000     -5.7216511E-08
   21.00000     -5.7956406E-08
   21.06000     -5.8174464E-08
   21.12000     -5.7885131E-08
   21.18000     -5.7151166E-08
   21.24000     -5.6080349E-08
   21.30000     -5.4811824E-08
   21.36000     -5.3495022E-08
   21.42000     -5.2266252E-08
   21.48000     -5.1228746E-08
   21.54000     -5.0440981E-08
   21.60000     -4.9915560E-08
   21.66000     -4.9627886E-08
   21.72000     -4.9531220E-08
   21.78000     -4.9573231E-08
   21.84000     -4.9709168E-08
   21.90000     -4.9908561E-08
   21.96000     -5.0154682E-08
   22.02000     -5.0438551E-08
   22.08000     -5.0750856E-08
   22.14000     -5.1075549E-08
   22.20000     -5.1387854E-08
   22.26000     -5.1657562E-08
   22.32000     -5.1856322E-08
   22.38000     -5.1966236E-08
   22.44000     -5.1986337E-08
   22.50000     -5.1934443E-08
   22.56000     -5.1843305E-08
   22.62000     -5.1752032E-08
   22.68000     -5.1695377E-08
   22.74000     -5.1694322E-08
   22.80000     -5.1751009E-08
   22.86000     -5.1849661E-08
   22.92000     -5.1963269E-08
   22.98000     -5.2063793E-08
   23.04000     -5.2132457E-08
   23.10000     -5.2166648E-08
   23.16000     -5.2180962E-08
   23.22000     -5.2201976E-08
   23.28000     -5.2258390E-08
   23.34000     -5.2369913E-08
   23.40000     -5.2538631E-08
   23.46000     -5.2745914E-08
   23.52000     -5.2955951E-08
   23.58000     -5.3124761E-08
   23.64000     -5.3211686E-08
   23.70000     -5.3189510E-08
   23.76000     -5.3049924E-08
   23.82000     -5.2802793E-08
   23.88000     -5.2469908E-08
   23.94000     -5.2075844E-08
   24.00000     -5.1639546E-08
   24.06000     -5.1169810E-08
   24.12000     -5.0666209E-08
   24.18000     -5.0124864E-08
   24.24000     -4.9546426E-08
   24.30000     -4.8942702E-08
   24.36000     -4.8338858E-08
   24.42000     -4.7769575E-08
   24.48000     -4.7270056E-08
   24.54000     -4.6864649E-08
   24.60000     -4.6557016E-08
   24.66000     -4.6325383E-08
   24.72000     -4.6124793E-08
   24.78000     -4.5895952E-08
   24.84000     -4.5578094E-08
   24.90000     -4.5121968E-08
   24.96000     -4.4499195E-08
   25.02000     -4.3705594E-08
   25.08000     -4.2757964E-08
   25.14000     -4.1686114E-08
   25.20000     -4.0522959E-08
   25.26000     -3.9296054E-08
   25.32000     -3.8022911E-08
   25.38000     -3.6711061E-08
   25.44000     -3.5362117E-08
   25.50000     -3.3977916E-08
   25.56000     -3.2566234E-08
   25.62000     -3.1143912E-08
   25.68000     -2.9736229E-08
   25.74000     -2.8372567E-08
   25.80000     -2.7079723E-08
   25.86000     -2.5875059E-08
   25.92000     -2.4761796E-08
   25.98000     -2.3728390E-08
   26.04000     -2.2752532E-08
   26.10000     -2.1809027E-08
   26.16000     -2.0879261E-08
   26.22000     -1.9959261E-08
   26.28000     -1.9063513E-08
   26.34000     -1.8222854E-08
   26.40000     -1.7476737E-08
   26.46000     -1.6862151E-08
   26.52000     -1.6402824E-08
   26.58000     -1.6102456E-08
   26.64000     -1.5944439E-08
   26.70000     -1.5898168E-08
   26.76000     -1.5929640E-08
   26.82000     -1.6012351E-08
   26.88000     -1.6134303E-08
   26.94000     -1.6298495E-08
   27.00000     -1.6516740E-08
   27.06000     -1.6799383E-08
   27.12000     -1.7145174E-08
   27.18000     -1.7535527E-08
   27.24000     -1.7935834E-08
   27.30000     -1.8303664E-08
   27.36000     -1.8601108E-08
   27.42000     -1.8806787E-08
   27.48000     -1.8923078E-08
   27.54000     -1.8975760E-08
   27.60000     -1.9005908E-08
   27.66000     -1.9056573E-08
   27.72000     -1.9158524E-08
   27.78000     -1.9319685E-08
   27.84000     -1.9521618E-08
   27.90000     -1.9724116E-08
   27.96000     -1.9876374E-08
   28.02000     -1.9931157E-08
   28.08000     -1.9857472E-08
   28.14000     -1.9647887E-08
   28.20000     -1.9318342E-08
   28.26000     -1.8900813E-08
   28.32000     -1.8431471E-08
   28.38000     -1.7938440E-08
   28.44000     -1.7433248E-08
   28.50000     -1.6908793E-08
   28.56000     -1.6344309E-08
   28.62000     -1.5715294E-08
   28.68000     -1.5004712E-08
   28.74000     -1.4211299E-08
   28.80000     -1.3351899E-08
   28.86000     -1.2457043E-08
   28.92000     -1.1561373E-08
   28.98000     -1.0692532E-08
   29.04000     -9.8625472E-09
   29.10000     -9.0649062E-09
   29.16000     -8.2783291E-09
   29.22000     -7.4758661E-09
   29.28000     -6.6360153E-09
   29.34000     -5.7519278E-09
   29.40000     -4.8355093E-09
   29.46000     -3.9150976E-09
   29.52000     -3.0276444E-09
   29.58000     -2.2081947E-09
   29.64000     -1.4802739E-09
   29.70000     -8.5035823E-10
   29.76000     -3.0813219E-10
   29.82000      1.6776540E-10
   29.88000      6.0060312E-10
   29.94000      1.0061985E-09
   30.00000      1.3865049E-09
   30.06000      1.7283029E-09
   30.12000      2.0074420E-09
   30.18000      2.1972588E-09
   30.24000      2.2783777E-09
   30.30000      2.2465705E-09
   30.36000      2.1158724E-09
   30.42000      1.9156126E-09
   30.48000      1.6819717E-09
   30.54000      1.4465584E-09
   30.60000      1.2256233E-09
   30.66000      1.0135296E-09
   30.72000      7.8285911E-10
   30.78000      4.9142090E-10
   30.84000      9.4127574E-11
   30.90000     -4.4399712E-10
   30.96000     -1.1378839E-09
   31.02000     -1.9787862E-09
   31.08000     -2.9380673E-09
   31.14000     -3.9770018E-09
   31.20000     -5.0591518E-09
   31.26000     -6.1610601E-09
   31.32000     -7.2776771E-09
   31.38000     -8.4208551E-09
   31.44000     -9.6117123E-09
   31.50000     -1.0869794E-08
   31.56000     -1.2203023E-08
   31.62000     -1.3602059E-08
   31.68000     -1.5041120E-08
   31.74000     -1.6484982E-08
   31.80000     -1.7899746E-08
   31.86000     -1.9263588E-08
   31.92000     -2.0573772E-08
   31.98000     -2.1847400E-08
   32.04000     -2.3115577E-08
   32.10000     -2.4412998E-08
   32.16000     -2.5766505E-08
   32.22000     -2.7186625E-08
   32.28000     -2.8665042E-08
   32.34000     -3.0178846E-08
   32.40000     -3.1699873E-08
   32.46000     -3.3205705E-08
   32.52000     -3.4688089E-08
   32.58000     -3.6155644E-08
   32.64000     -3.7629736E-08
   32.70000     -3.9135124E-08
   32.76000     -4.0688803E-08
   32.82000     -4.2291454E-08
   32.88000     -4.3924732E-08
   32.94000     -4.5555705E-08
   33.00000     -4.7146823E-08
   33.06000     -4.8667932E-08
   33.12000     -5.0105836E-08
   33.18000     -5.1467950E-08
   33.24000     -5.2778500E-08
   33.30000     -5.4068622E-08
   33.36000     -5.5363778E-08
   33.42000     -5.6672981E-08
   33.48000     -5.7983737E-08
   33.54000     -5.9264462E-08
   33.60000     -6.0473617E-08
   33.66000     -6.1572415E-08
   33.72000     -6.2536600E-08
   33.78000     -6.3363359E-08
   33.84000     -6.4070811E-08
   33.90000     -6.4690603E-08
   33.96000     -6.5256046E-08
   34.02000     -6.5790090E-08
   34.08000     -6.6297126E-08
   34.14000     -6.6761423E-08
   34.20000     -6.7152158E-08
   34.26000     -6.7433326E-08
   34.32000     -6.7574696E-08
   34.38000     -6.7560272E-08
   34.44000     -6.7391603E-08
   34.50000     -6.7085530E-08
   34.56000     -6.6667702E-08
   34.62000     -6.6164787E-08
   34.68000     -6.5598172E-08
   34.74000     -6.4981236E-08
   34.80000     -6.4320588E-08
   34.86000     -6.3620128E-08
   34.92000     -6.2885974E-08
   34.98000     -6.2129963E-08
   35.04000     -6.1370521E-08
   35.10000     -6.0630661E-08
   35.16000     -5.9933903E-08
   35.22000     -5.9299825E-08
   35.28000     -5.8740511E-08
   35.34000     -5.8258930E-08
   35.40000     -5.7849313E-08
   35.46000     -5.7498877E-08
   35.52000     -5.7189872E-08
   35.58000     -5.6901111E-08
   35.64000     -5.6608457E-08
   35.70000     -5.6284456E-08
   35.76000     -5.5897907E-08
   35.82000     -5.5414343E-08
   35.88000     -5.4798289E-08
   35.94000     -5.4017757E-08
   36.00000     -5.3050513E-08
   36.06000     -5.1890851E-08
   36.12000     -5.0555101E-08
   36.18000     -4.9083884E-08
   36.24000     -4.7539764E-08
   36.30000     -4.5999919E-08
   36.36000     -4.4544969E-08
   36.42000     -4.3246317E-08
   36.48000     -4.2155055E-08
   36.54000     -4.1295340E-08
   36.60000     -4.0663959E-08
   36.66000     -4.0235964E-08
   36.72000     -3.9974356E-08
   36.78000     -3.9840462E-08
   36.84000     -3.9801350E-08
   36.90000     -3.9831772E-08
   36.96000     -3.9910088E-08
   37.02000     -4.0010043E-08
   37.08000     -4.0091976E-08
   37.14000     -4.0097547E-08
   37.20000     -3.9951086E-08
   37.26000     -3.9568214E-08
   37.32000     -3.8869825E-08
   37.38000     -3.7797221E-08
   37.44000     -3.6323566E-08
   37.50000     -3.4457784E-08
   37.56000     -3.2239626E-08
   37.62000     -2.9727509E-08
   37.68000     -2.6983297E-08
   37.74000     -2.4059004E-08
   37.80000     -2.0989660E-08
   37.86000     -1.7794099E-08
   37.92000     -1.4482572E-08
   37.98000     -1.1067757E-08
   38.04000     -7.5747257E-09
   38.10000     -4.0462154E-09
   38.16000     -5.4151661E-10
   38.22000      2.8701963E-09
   38.28000      6.1193162E-09
   38.34000      9.1445056E-09
   38.40000      1.1897740E-08
   38.46000      1.4344429E-08
   38.52000      1.6459371E-08
   38.58000      1.8220788E-08
   38.64000      1.9605304E-08
   38.70000      2.0586171E-08
   38.76000      2.1135737E-08
   38.82000      2.1231459E-08
   38.88000      2.0863446E-08
   38.94000      2.0040931E-08
   39.00000      1.8795381E-08
   39.06000      1.7179051E-08
   39.12000      1.5259291E-08
   39.18000      1.3110269E-08
   39.24000      1.0804582E-08
   39.30000      8.4071745E-09
   39.36000      5.9732037E-09
   39.42000      3.5500511E-09
   39.48000      1.1822965E-09
   39.54000     -1.0825822E-09
   39.60000     -3.1902638E-09
   39.66000     -5.0793449E-09
   39.72000     -6.6855135E-09
   39.78000     -7.9493967E-09
   39.84000     -8.8260945E-09
   39.90000     -9.2937524E-09
   39.96000     -9.3586294E-09
   40.02000     -9.0550039E-09
   40.08000     -8.4395708E-09
   40.14000     -7.5814954E-09
   40.20000     -6.5504593E-09
   40.26000     -5.4056457E-09
   40.32000     -4.1883919E-09
   40.38000     -2.9202145E-09
   40.44000     -1.6063720E-09
   40.50000     -2.4347729E-10
   40.56000      1.1715559E-09
   40.62000      2.6342974E-09
   40.68000      4.1296921E-09
   40.74000      5.6338916E-09
   40.80000      7.1200015E-09
   40.86000      8.5652552E-09
   40.92000      9.9566186E-09
   40.98000      1.1292548E-08
   41.04000      1.2580223E-08
   41.10000      1.3829509E-08
   41.16000      1.5046258E-08
   41.22000      1.6227766E-08
   41.28000      1.7362296E-08
   41.34000      1.8432726E-08
   41.40000      1.9422624E-08
   41.46000      2.0321995E-08
   41.52000      2.1130118E-08
   41.58000      2.1854234E-08
   41.64000      2.2504715E-08
   41.70000      2.3088981E-08
   41.76000      2.3607068E-08
   41.82000      2.4051131E-08
   41.88000      2.4409596E-08
   41.94000      2.4674735E-08
   42.00000      2.4850888E-08
   42.06000      2.4960338E-08
   42.12000      2.5044516E-08
   42.18000      2.5160086E-08
   42.24000      2.5371280E-08
   42.30000      2.5741345E-08
   42.36000      2.6326159E-08
   42.42000      2.7172396E-08
   42.48000      2.8320871E-08
   42.54000      2.9814064E-08
   42.60000      3.1705461E-08
   42.66000      3.4068023E-08
   42.72000      3.6999850E-08
   42.78000      4.0626340E-08
   42.84000      4.5099952E-08
   42.90000      5.0599528E-08
   42.96000      5.7331814E-08
   43.02000      6.5536909E-08
   43.08000      7.5498249E-08
   43.14000      8.7556153E-08
   43.20000      1.0212246E-07
   43.26000      1.1969396E-07
   43.32000      1.4086271E-07
   43.38000      1.6632271E-07
   43.44000      1.9687496E-07
   43.50000      2.3343394E-07
   43.56000      2.7703905E-07
   43.62000      3.2887431E-07
   43.68000      3.9029706E-07
   43.74000      4.6287499E-07
   43.80000      5.4842843E-07
   43.86000      6.4907391E-07
   43.92000      7.6726684E-07
   43.98000      9.0584092E-07
   44.04000      1.0680469E-06
   44.10000      1.2575916E-06
   44.16000      1.4786832E-06
   44.22000      1.7360840E-06
   44.28000      2.0351720E-06
   44.34000      2.3820123E-06
   44.40000      2.7834330E-06
   44.46000      3.2471050E-06
   44.52000      3.7816226E-06
   44.58000      4.3965879E-06
   44.64000      5.1026941E-06
   44.70000      5.9118174E-06
   44.76000      6.8371173E-06
   44.82000      7.8931425E-06
   44.88000      9.0959466E-06
   44.94000      1.0463206E-05
   45.00000      1.2014344E-05
   45.06000      1.3770633E-05
   45.12000      1.5755310E-05
   45.18000      1.7993672E-05
   45.24000      2.0513160E-05
   45.30000      2.3343448E-05
   45.36000      2.6516514E-05
   45.42000      3.0066725E-05
   45.48000      3.4030894E-05
   45.54000      3.8448350E-05
   45.60000      4.3360968E-05
   45.66000      4.8813185E-05
   45.72000      5.4852004E-05
   45.78000      6.1526938E-05
   45.84000      6.8889945E-05
   45.90000      7.6995340E-05
   45.96000      8.5899657E-05
   46.02000      9.5661468E-05
   46.08000      1.0634123E-04
   46.14000      1.1800104E-04
   46.20000      1.3070439E-04
   46.26000      1.4451578E-04
   46.32000      1.5950049E-04
   46.38000      1.7572404E-04
   46.44000      1.9325181E-04
   46.50000      2.1214853E-04
   46.56000      2.3247782E-04
   46.62000      2.5430150E-04
   46.68000      2.7767904E-04
   46.74000      3.0266703E-04
   46.80000      3.2931854E-04
   46.86000      3.5768221E-04
   46.92000      3.8780193E-04
   46.98000      4.1971580E-04
   47.04000      4.5345566E-04
   47.10000      4.8904627E-04
   47.16000      5.2650459E-04
   47.22000      5.6583952E-04
   47.28000      6.0705066E-04
   47.34000      6.5012835E-04
   47.40000      6.9505296E-04
   47.46000      7.4179436E-04
   47.52000      7.9031161E-04
   47.58000      8.4055268E-04
   47.64000      8.9245429E-04
   47.70000      9.4594178E-04
   47.76000      1.0009292E-03
   47.82000      1.0573193E-03
   47.88000      1.1150043E-03
   47.94000      1.1738653E-03
   48.00000      1.2337738E-03
   48.06000      1.2945919E-03
   48.12000      1.3561730E-03
   48.18000      1.4183627E-03
   48.24000      1.4810005E-03
   48.30000      1.5439194E-03
   48.36000      1.6069487E-03
   48.42000      1.6699142E-03
   48.48000      1.7326404E-03
   48.54000      1.7949513E-03
   48.60000      1.8566725E-03
   48.66000      1.9176324E-03
   48.72000      1.9776642E-03
   48.78000      2.0366067E-03
   48.84000      2.0943058E-03
   48.90000      2.1506171E-03
   48.96000      2.2054063E-03
   49.02000      2.2585501E-03
   49.08000      2.3099394E-03
   49.14000      2.3594780E-03
   49.20000      2.4070856E-03
   49.26000      2.4526967E-03
   49.32000      2.4962632E-03
   49.38000      2.5377532E-03
   49.44000      2.5771519E-03
   49.50000      2.6144618E-03
   49.56000      2.6497017E-03
   49.62000      2.6829070E-03
   49.68000      2.7141296E-03
   49.74000      2.7434356E-03
   49.80000      2.7709054E-03
   49.86000      2.7966325E-03
   49.92000      2.8207214E-03
   49.98000      2.8432873E-03
   50.04000      2.8644535E-03
   50.10000      2.8843496E-03
   50.16000      2.9031101E-03
   50.22000      2.9208721E-03
   50.28000      2.9377725E-03
   50.34000      2.9539478E-03
   50.40000      2.9695306E-03
   50.46000      2.9846493E-03
   50.52000      2.9994245E-03
   50.58000      3.0139682E-03
   50.64000      3.0283825E-03
   50.70000      3.0427575E-03
   50.76000      3.0571697E-03
   50.82000      3.0716814E-03
   50.88000      3.0863397E-03
   50.94000      3.1011763E-03
   51.00000      3.1162060E-03
   51.06000      3.1314276E-03
   51.12000      3.1468230E-03
   51.18000      3.1623589E-03
   51.24000      3.1779860E-03
   51.30000      3.1936415E-03
   51.36000      3.2092477E-03
   51.42000      3.2247154E-03
   51.48000      3.2399441E-03
   51.54000      3.2548241E-03
   51.60000      3.2692382E-03
   51.66000      3.2830634E-03
   51.72000      3.2961734E-03
   51.78000      3.3084399E-03
   51.84000      3.3197359E-03
   51.90000      3.3299366E-03
   51.96000      3.3389218E-03
   52.02000      3.3465782E-03
   52.08000      3.3528011E-03
   52.14000      3.3574956E-03
   52.20000      3.3605793E-03
   52.26000      3.3619823E-03
   52.32000      3.3616500E-03
   52.38000      3.3595434E-03
   52.44000      3.3556395E-03
   52.50000      3.3499328E-03
   52.56000      3.3424355E-03
   52.62000      3.3331765E-03
   52.68000      3.3222018E-03
   52.74000      3.3095747E-03
   52.80000      3.2953741E-03
   52.86000      3.2796941E-03
   52.92000      3.2626421E-03
   52.98000      3.2443390E-03
   53.04000      3.2249161E-03
   53.10000      3.2045140E-03
   53.16000      3.1832808E-03
   53.22000      3.1613701E-03
   53.28000      3.1389392E-03
   53.34000      3.1161460E-03
   53.40000      3.0931486E-03
   53.46000      3.0701011E-03
   53.52000      3.0471536E-03
   53.58000      3.0244489E-03
   53.64000      3.0021218E-03
   53.70000      2.9802958E-03
   53.76000      2.9590835E-03
   53.82000      2.9385840E-03
   53.88000      2.9188809E-03
   53.94000      2.9000430E-03
   54.00000      2.8821223E-03
   54.06000      2.8651536E-03
   54.12000      2.8491551E-03
   54.18000      2.8341268E-03
   54.24000      2.8200529E-03
   54.30000      2.8068998E-03
   54.36000      2.7946187E-03
   54.42000      2.7831455E-03
   54.48000      2.7724011E-03
   54.54000      2.7622939E-03
   54.60000      2.7527197E-03
   54.66000      2.7435650E-03
   54.72000      2.7347072E-03
   54.78000      2.7260180E-03
   54.84000      2.7173634E-03
   54.90000      2.7086074E-03
   54.96000      2.6996117E-03
   55.02000      2.6902391E-03
   55.08000      2.6803545E-03
   55.14000      2.6698271E-03
   55.20000      2.6585315E-03
   55.26000      2.6463512E-03
   55.32000      2.6331774E-03
   55.38000      2.6189117E-03
   55.44000      2.6034673E-03
   55.50000      2.5867701E-03
   55.56000      2.5687576E-03