  -2.400000      0.0000000E+00
  -2.340000      0.0000000E+00
  -2.280000      0.0000000E+00
  -2.220000      0.0000000E+00
  -2.160000      1.1124697E-18
  -2.100000      7.6067521E-18
  -2.040000      2.7119138E-17
  -1.980000      6.5674759E-17
  -1.920000      1.1732613E-16
  -1.860000      1.5342838E-16
  -1.800000      1.1974420E-16
  -1.740000     -5.2475630E-17
  -1.680000     -4.2180171E-16
  -1.620000     -1.0050216E-15
  -1.560000     -1.7467445E-15
  -1.500000     -2.4950346E-15
  -1.440000     -2.9863091E-15
  -1.380000     -2.8503510E-15
  -1.320000     -1.6620058E-15
  -1.260000      9.2551775E-16
  -1.200000      4.9534533E-15
  -1.140000      9.8894104E-15
  -1.080000      1.4457827E-14
  -1.020000      1.6756763E-14
 -0.9600000      1.4790657E-14
 -0.9000000      7.3586216E-15
 -0.8400000     -5.0216916E-15
 -0.7800000     -1.9655095E-14
 -0.7200000     -3.2114790E-14
 -0.6600000     -3.7669974E-14
 -0.6000000     -3.3230648E-14
 -0.5400000     -1.8918865E-14
 -0.4800000      1.6178000E-15
 -0.4200000      2.2474212E-14
 -0.3600000      3.7766031E-14
 -0.3000000      4.3638477E-14
 -0.2400000      3.8749152E-14
 -0.1800000      2.2917449E-14
 -0.1200000     -4.9049683E-15
 -5.9999999E-02 -4.7135642E-14
  0.0000000E+00 -1.0464021E-13
  5.9999999E-02 -1.7049745E-13
  0.1200000     -2.2350588E-13
  0.1800000     -2.2669330E-13
  0.2400000     -1.3571531E-13
  0.3000000      8.1769559E-14
  0.3600000      4.2088829E-13
  0.4200000      8.1948597E-13
  0.4800000      1.1561230E-12
  0.5400000      1.2747377E-12
  0.6000000      1.0343922E-12
  0.6600000      3.7011830E-13
  0.7200000     -6.5808388E-13
  0.7800000     -1.8514283E-12
  0.8400000     -2.9069663E-12
  0.9000000     -3.4962226E-12
  0.9600000     -3.3650144E-12
   1.020000     -2.4205607E-12
   1.080000     -7.7383499E-13
   1.140000      1.2799733E-12
   1.200000      3.3376791E-12
   1.260000      4.9951423E-12
   1.320000      5.9488360E-12
   1.380000      6.0595058E-12
   1.440000      5.3614652E-12
   1.500000      4.0218284E-12
   1.560000      2.2707107E-12
   1.620000      3.2959602E-13
   1.680000     -1.6404612E-12
   1.740000     -3.5627274E-12
   1.800000     -5.4470465E-12
   1.860000     -7.3854985E-12
   1.920000     -9.5561189E-12
   1.980000     -1.2240853E-11
   2.040000     -1.5851417E-11
   2.100000     -2.0946750E-11
   2.160000     -2.8222365E-11
   2.220000     -3.8459153E-11
   2.280000     -5.2433058E-11
   2.340000     -7.0806784E-11
   2.400000     -9.4038680E-11
   2.460000     -1.2234790E-10
   2.520000     -1.5576364E-10
   2.580000     -1.9425904E-10
   2.640000     -2.3793539E-10
   2.700000     -2.8719135E-10
   2.760000     -3.4279890E-10
   2.820000     -4.0582407E-10
   2.880000     -4.7737342E-10
   2.940000     -5.5821237E-10
   3.000000     -6.4835831E-10
   3.060000     -7.4678752E-10
   3.120000     -8.5138130E-10
   3.180000     -9.5917718E-10
   3.240000     -1.0668993E-09
   3.300000     -1.1716430E-09
   3.360000     -1.2715268E-09
   3.420000     -1.3661196E-09
   3.480000     -1.4565105E-09
   3.540000     -1.5449935E-09
   3.600000     -1.6344612E-09
   3.660000     -1.7276789E-09
   3.720000     -1.8266373E-09
   3.780000     -1.9321391E-09
   3.840000     -2.0436863E-09
   3.900000     -2.1596493E-09
   3.960000     -2.2776216E-09
   4.020000     -2.3948554E-09
   4.080000     -2.5086739E-09
   4.140000     -2.6168039E-09
   4.200000     -2.7175935E-09
   4.260000     -2.8101064E-09
   4.320000     -2.8940874E-09
   4.380000     -2.9698040E-09
   4.440000     -3.0377756E-09
   4.500000     -3.0984149E-09
   4.560000     -3.1516003E-09
   4.620000     -3.1961818E-09
   4.680000     -3.2294032E-09
   4.740000     -3.2462186E-09
   4.800000     -3.2385252E-09
   4.860000     -3.1944234E-09
   4.920000     -3.0977354E-09
   4.980000     -2.9280658E-09
   5.040000     -2.6616700E-09
   5.100000     -2.2732178E-09
   5.160000     -1.7382827E-09
   5.220000     -1.0361061E-09
   5.280000     -1.5202901E-10
   5.340000      9.2098001E-10
   5.400000      2.1820281E-09
   5.460000      3.6231849E-09
   5.520000      5.2311395E-09
   5.580000      6.9890094E-09
   5.640000      8.8777155E-09
   5.700000      1.0876578E-08
   5.760000      1.2963128E-08
   5.820000      1.5112434E-08
   5.880000      1.7296363E-08
   5.940000      1.9483215E-08
   6.000000      2.1637907E-08
   6.060000      2.3722784E-08
   6.120000      2.5698933E-08
   6.180000      2.7527848E-08
   6.240000      2.9173309E-08
   6.300000      3.0603250E-08
   6.360000      3.1791480E-08
   6.420000      3.2718891E-08
   6.480000      3.3373908E-08
   6.540000      3.3751977E-08
   6.600000      3.3854196E-08
   6.660000      3.3685385E-08
   6.720000      3.3252345E-08
   6.780000      3.2562777E-08
   6.840000      3.1625348E-08
   6.900000      3.0450792E-08
   6.960000      2.9053654E-08
   7.020000      2.7453780E-08
   7.080000      2.5677044E-08
   7.140000      2.3754779E-08
   7.200000      2.1722039E-08
   7.260000      1.9615051E-08
   7.320000      1.7468484E-08
   7.380000      1.5312976E-08
   7.440000      1.3173232E-08
   7.500000      1.1066732E-08
   7.560000      9.0030801E-09
   7.620000      6.9840134E-09
   7.680000      5.0041691E-09
   7.740000      3.0527163E-09
   7.800000      1.1157664E-09
   7.860000     -8.2074514E-10
   7.920000     -2.7682605E-09
   7.980000     -4.7334434E-09
   8.040000     -6.7170598E-09
   8.100000     -8.7139309E-09
   8.160000     -1.0713690E-08
   8.220000     -1.2701918E-08
   8.280000     -1.4661316E-08
   8.340000     -1.6572860E-08
   8.400000     -1.8417017E-08
   8.460000     -2.0175227E-08
   8.520000     -2.1831605E-08
   8.580000     -2.3374547E-08
   8.640000     -2.4797689E-08
   8.700000     -2.6099759E-08
   8.760000     -2.7283109E-08
   8.820000     -2.8351305E-08
   8.880000     -2.9306495E-08
   8.940000     -3.0147426E-08
   9.000000     -3.0868726E-08
   9.060000     -3.1461632E-08
   9.120000     -3.1915775E-08
   9.180000     -3.2221472E-08
   9.240000     -3.2371894E-08
   9.300000     -3.2364817E-08
   9.360000     -3.2203900E-08
   9.420000     -3.1899589E-08
   9.480000     -3.1469753E-08
   9.540000     -3.0939930E-08
   9.600000     -3.0342857E-08
   9.660000     -2.9717063E-08
   9.720000     -2.9104479E-08
   9.780000     -2.8547355E-08
   9.840000     -2.8084999E-08
   9.900000     -2.7750888E-08
   9.960000     -2.7570534E-08
   10.02000     -2.7560148E-08
   10.08000     -2.7725857E-08
   10.14000     -2.8063237E-08
   10.20000     -2.8556936E-08
   10.26000     -2.9180482E-08
   10.32000     -2.9896508E-08
   10.38000     -3.0657699E-08
   10.44000     -3.1408618E-08
   10.50000     -3.2088394E-08
   10.56000     -3.2634013E-08
   10.62000     -3.2984040E-08
   10.68000     -3.3082529E-08
   10.74000     -3.2883012E-08
   10.80000     -3.2352464E-08
   10.86000     -3.1474965E-08
   10.92000     -3.0254679E-08
   10.98000     -2.8717437E-08
   11.04000     -2.6910438E-08
   11.10000     -2.4899640E-08
   11.16000     -2.2764878E-08
   11.22000     -2.0593207E-08
   11.28000     -1.8471189E-08
   11.34000     -1.6477168E-08
   11.40000     -1.4674367E-08
   11.46000     -1.3105597E-08
   11.52000     -1.1790085E-08
   11.58000     -1.0722697E-08
   11.64000     -9.8756017E-09
   11.70000     -9.2021608E-09
   11.76000     -8.6426084E-09
   11.82000     -8.1308054E-09
   11.88000     -7.6012876E-09
   11.94000     -6.9957711E-09
   12.00000     -6.2684977E-09
   12.06000     -5.3899738E-09
   12.12000     -4.3489297E-09
   12.18000     -3.1524434E-09
   12.24000     -1.8242772E-09
   12.30000     -4.0147874E-10
   12.36000      1.0705582E-09
   12.42000      2.5441931E-09
   12.48000      3.9761012E-09
   12.54000      5.3333400E-09
   12.60000      6.5978512E-09
   12.66000      7.7685032E-09
   12.72000      8.8602272E-09
   12.78000      9.9004129E-09
   12.84000      1.0923342E-08
   12.90000      1.1963812E-08
   12.96000      1.3051249E-08
   13.02000      1.4205356E-08
   13.08000      1.5433940E-08
   13.14000      1.6733031E-08
   13.20000      1.8088928E-08
   13.26000      1.9481487E-08
   13.32000      2.0887741E-08
   13.38000      2.2285056E-08
   13.44000      2.3653175E-08
   13.50000      2.4974906E-08
   13.56000      2.6235634E-08
   13.62000      2.7422196E-08
   13.68000      2.8521887E-08
   13.74000      2.9522303E-08
   13.80000      3.0412370E-08
   13.86000      3.1184467E-08
   13.92000      3.1837004E-08
   13.98000      3.2376480E-08
   14.04000      3.2818107E-08
   14.10000      3.3184413E-08
   14.16000      3.3501795E-08
   14.22000      3.3795629E-08
   14.28000      3.4085147E-08
   14.34000      3.4379262E-08
   14.40000      3.4674549E-08
   14.46000      3.4955988E-08
   14.52000      3.5200426E-08
   14.58000      3.5382048E-08
   14.64000      3.5478593E-08
   14.70000      3.5476919E-08
   14.76000      3.5376473E-08
   14.82000      3.5189927E-08
   14.88000      3.4940747E-08
   14.94000      3.4658395E-08
   15.00000      3.4372398E-08
   15.06000      3.4106812E-08
   15.12000      3.3876528E-08
   15.18000      3.3686177E-08
   15.24000      3.3531695E-08
   15.30000      3.3403754E-08
   15.36000      3.3291833E-08
   15.42000      3.3187483E-08
   15.48000      3.3085925E-08
   15.54000      3.2985614E-08
   15.60000      3.2886231E-08
   15.66000      3.2786104E-08
   15.72000      3.2680191E-08
   15.78000      3.2559530E-08
   15.84000      3.2412505E-08
   15.90000      3.2227685E-08
   15.96000      3.1997388E-08
   16.02000      3.1720813E-08
   16.08000      3.1405726E-08
   16.14000      3.1067930E-08
   16.20000      3.0728398E-08
   16.26000      3.0408607E-08
   16.32000      3.0125165E-08
   16.38000      2.9885054E-08
   16.44000      2.9682866E-08
   16.50000      2.9500844E-08
   16.56000      2.9311924E-08
   16.62000      2.9085079E-08
   16.68000      2.8791654E-08
   16.74000      2.8411039E-08
   16.80000      2.7934236E-08
   16.86000      2.7364395E-08
   16.92000      2.6714323E-08
   16.98000      2.6001832E-08
   17.04000      2.5244315E-08
   17.10000      2.4454179E-08
   17.16000      2.3636410E-08
   17.22000      2.2788843E-08
   17.28000      2.1904858E-08
   17.34000      2.0977515E-08
   17.40000      2.0003645E-08
   17.46000      1.8986526E-08
   17.52000      1.7936159E-08
   17.58000      1.6866919E-08
   17.64000      1.5793198E-08
   17.70000      1.4724261E-08
   17.76000      1.3659764E-08
   17.82000      1.2587268E-08
   17.88000      1.1482417E-08
   17.94000      1.0311797E-08
   18.00000      9.0376915E-09
   18.06000      7.6235978E-09
   18.12000      6.0392100E-09
   18.18000      4.2639399E-09
   18.24000      2.2884747E-09
   18.30000      1.1447120E-10
   18.36000     -2.2471089E-09
   18.42000     -4.7783018E-09
   18.48000     -7.4563955E-09
   18.54000     -1.0255659E-08
   18.60000     -1.3148380E-08
   18.66000     -1.6105359E-08
   18.72000     -1.9096163E-08
   18.78000     -2.2089559E-08
   18.84000     -2.5054424E-08
   18.90000     -2.7961184E-08
   18.96000     -3.0783603E-08
   19.02000     -3.3500498E-08
   19.08000     -3.6096871E-08
   19.14000     -3.8564021E-08
   19.20000     -4.0898559E-08
   19.26000     -4.3100531E-08
   19.32000     -4.5171230E-08
   19.38000     -4.7111413E-08
   19.44000     -4.8920541E-08
   19.50000     -5.0597293E-08
   19.56000     -5.2141232E-08
   19.62000     -5.3554956E-08
   19.68000     -5.4846023E-08
   19.74000     -5.6027798E-08
   19.80000     -5.7118836E-08
   19.86000     -5.8140824E-08
   19.92000     -5.9115504E-08
   19.98000     -6.0061424E-08
   20.04000     -6.0991276E-08
   20.10000     -6.1910242E-08
   20.16000     -6.2815552E-08
   20.22000     -6.3696874E-08
   20.28000     -6.4536842E-08
   20.34000     -6.5311333E-08
   20.40000     -6.5989006E-08
   20.46000     -6.6530667E-08
   20.52000     -6.6888866E-08
   20.58000     -6.7008983E-08
   20.64000     -6.6832349E-08
   20.70000     -6.6301901E-08
   20.76000     -6.5369655E-08
   20.82000     -6.4004986E-08
   20.88000     -6.2201821E-08
   20.94000     -5.9983108E-08
   21.00000     -5.7401163E-08
   21.06000     -5.4533505E-08
   21.12000     -5.1474572E-08
   21.18000     -4.8324701E-08
   21.24000     -4.5178343E-08
   21.30000     -4.2113630E-08
   21.36000     -3.9185224E-08
   21.42000     -3.6421529E-08
   21.48000     -3.3826630E-08
   21.54000     -3.1386115E-08
   21.60000     -2.9075327E-08
   21.66000     -2.6867950E-08
   21.72000     -2.4743120E-08
   21.78000     -2.2689683E-08
   21.84000     -2.0707230E-08
   21.90000     -1.8804426E-08
   21.96000     -1.6995875E-08
   22.02000     -1.5298921E-08
   22.08000     -1.3731607E-08
   22.14000     -1.2312199E-08
   22.20000     -1.1060081E-08
   22.26000     -9.9971533E-09
   22.32000     -9.1487227E-09
   22.38000     -8.5430445E-09
   22.44000     -8.2091987E-09
   22.50000     -8.1735587E-09
   22.56000     -8.4555829E-09
   22.62000     -9.0639460E-09
   22.68000     -9.9939106E-09
   22.74000     -1.1226638E-08
   22.80000     -1.2730634E-08
   22.86000     -1.4465092E-08
   22.92000     -1.6384528E-08
   22.98000     -1.8443792E-08
   23.04000     -2.0602595E-08
   23.10000     -2.2828724E-08
   23.16000     -2.5099562E-08
   23.22000     -2.7401853E-08
   23.28000     -2.9730034E-08
   23.34000     -3.2083722E-08
   23.40000     -3.4465039E-08
   23.46000     -3.6876315E-08
   23.52000     -3.9318483E-08
   23.58000     -4.1790294E-08
   23.64000     -4.4288054E-08
   23.70000     -4.6805628E-08
   23.76000     -4.9334364E-08
   23.82000     -5.1862710E-08
   23.88000     -5.4375445E-08
   23.94000     -5.6852873E-08
   24.00000     -5.9270175E-08
   24.06000     -6.1597483E-08
   24.12000     -6.3801075E-08
   24.18000     -6.5845683E-08
   24.24000     -6.7697869E-08
   24.30000     -6.9329708E-08
   24.36000     -7.0721995E-08
   24.42000     -7.1866069E-08
   24.48000     -7.2763548E-08
   24.54000     -7.3423820E-08
   24.60000     -7.3859788E-08
   24.66000     -7.4082841E-08
   24.72000     -7.4098267E-08
   24.78000     -7.3902463E-08
   24.84000     -7.3482525E-08
   24.90000     -7.2818445E-08
   24.96000     -7.1887335E-08
   25.02000     -7.0668605E-08
   25.08000     -6.9148882E-08
   25.14000     -6.7325772E-08
   25.20000     -6.5209576E-08
   25.26000     -6.2823069E-08
   25.32000     -6.0199405E-08
   25.38000     -5.7378834E-08
   25.44000     -5.4404797E-08
   25.50000     -5.1320168E-08
   25.56000     -4.8164061E-08
   25.62000     -4.4969628E-08
   25.68000     -4.1763013E-08
   25.74000     -3.8563417E-08
   25.80000     -3.5384041E-08
   25.86000     -3.2233558E-08
   25.92000     -2.9117682E-08
   25.98000     -2.6040544E-08
   26.04000     -2.3005583E-08
   26.10000     -2.0016033E-08
   26.16000     -1.7075134E-08
   26.22000     -1.4186334E-08
   26.28000     -1.1353711E-08
   26.34000     -8.5827221E-09
   26.40000     -5.8811902E-09
   26.46000     -3.2603453E-09
   26.52000     -7.3563960E-10
   26.58000      1.6729018E-09
   26.64000      3.9409547E-09
   26.70000      6.0408420E-09
   26.76000      7.9431191E-09
   26.82000      9.6187271E-09
   26.88000      1.1041603E-08
   26.94000      1.2191586E-08
   27.00000      1.3057366E-08
   27.06000      1.3639093E-08
   27.12000      1.3950102E-08
   27.18000      1.4017200E-08
   27.24000      1.3879038E-08
   27.30000      1.3582351E-08
   27.36000      1.3176350E-08
   27.42000      1.2706002E-08
   27.48000      1.2205408E-08
   27.54000      1.1692628E-08
   27.60000      1.1167232E-08
   27.66000      1.0611337E-08
   27.72000      9.9941913E-09
   27.78000      9.2795513E-09
   27.84000      8.4343936E-09
   27.90000      7.4371620E-09
   27.96000      6.2837922E-09
   28.02000      4.9902211E-09
   28.08000      3.5908712E-09
   28.14000      2.1334825E-09
   28.20000      6.7144446E-10
   28.26000     -7.4470669E-10
   28.32000     -2.0748483E-09
   28.38000     -3.2943825E-09
   28.44000     -4.3959907E-09
   28.50000     -5.3878861E-09
   28.56000     -6.2892100E-09
   28.62000     -7.1238122E-09
   28.68000     -7.9139664E-09
   28.74000     -8.6755074E-09
   28.80000     -9.4154267E-09
   28.86000     -1.0132276E-08
   28.92000     -1.0818963E-08
   28.98000     -1.1466870E-08
   29.04000     -1.2069935E-08
   29.10000     -1.2627369E-08
   29.16000     -1.3144180E-08
   29.22000     -1.3629352E-08
   29.28000     -1.4092269E-08
   29.34000     -1.4538482E-08
   29.40000     -1.4966197E-08
   29.46000     -1.5364625E-08
   29.52000     -1.5714869E-08
   29.58000     -1.5993358E-08
   29.64000     -1.6177086E-08
   29.70000     -1.6249446E-08
   29.76000     -1.6205203E-08
   29.82000     -1.6053288E-08
   29.88000     -1.5816635E-08
   29.94000     -1.5528935E-08
   30.00000     -1.5229025E-08
   30.06000     -1.4954189E-08
   30.12000     -1.4733927E-08
   30.18000     -1.4585647E-08
   30.24000     -1.4513119E-08
   30.30000     -1.4507845E-08
   30.36000     -1.4552726E-08
   30.42000     -1.4626837E-08
   30.48000     -1.4710028E-08
   30.54000     -1.4786306E-08
   30.60000     -1.4845424E-08
   30.66000     -1.4882760E-08
   30.72000     -1.4898007E-08
   30.78000     -1.4893410E-08
   30.84000     -1.4872214E-08
   30.90000     -1.4837723E-08
   30.96000     -1.4792993E-08
   31.02000     -1.4740921E-08
   31.08000     -1.4684384E-08
   31.14000     -1.4626105E-08
   31.20000     -1.4568116E-08
   31.26000     -1.4510886E-08
   31.32000     -1.4452380E-08
   31.38000     -1.4387330E-08
   31.44000     -1.4307076E-08
   31.50000     -1.4200118E-08
   31.56000     -1.4053420E-08
   31.62000     -1.3854312E-08
   31.68000     -1.3592663E-08
   31.74000     -1.3262923E-08
   31.80000     -1.2865620E-08
   31.86000     -1.2407972E-08
   31.92000     -1.1903442E-08
   31.98000     -1.1370273E-08
   32.04000     -1.0829249E-08
   32.10000     -1.0301100E-08
   32.16000     -9.8040669E-09
   32.22000     -9.3521253E-09
   32.28000     -8.9541974E-09
   32.34000     -8.6145082E-09
   32.40000     -8.3339504E-09
   32.46000     -8.1120417E-09
   32.52000     -7.9489650E-09
   32.58000     -7.8470697E-09
   32.64000     -7.8114049E-09
   32.70000     -7.8490991E-09
   32.76000     -7.9677243E-09
   32.82000     -8.1731395E-09
   32.88000     -8.4674072E-09
   32.94000     -8.8474463E-09
   33.00000     -9.3048618E-09
   33.06000     -9.8270379E-09
   33.12000     -1.0399289E-08
   33.18000     -1.1007531E-08
   33.24000     -1.1640840E-08
   33.30000     -1.2293279E-08
   33.36000     -1.2964576E-08
   33.42000     -1.3659496E-08
   33.48000     -1.4386036E-08
   33.54000     -1.5152807E-08
   33.60000     -1.5966144E-08
   33.66000     -1.6827547E-08
   33.72000     -1.7732063E-08
   33.78000     -1.8668004E-08
   33.84000     -1.9618248E-08
   33.90000     -2.0562968E-08
   33.96000     -2.1483295E-08
   34.02000     -2.2365203E-08
   34.08000     -2.3202665E-08
   34.14000     -2.3999332E-08
   34.20000     -2.4768172E-08
   34.26000     -2.5528999E-08
   34.32000     -2.6304287E-08
   34.38000     -2.7114032E-08
   34.44000     -2.7970648E-08
   34.50000     -2.8874959E-08
   34.56000     -2.9814121E-08
   34.62000     -3.0762102E-08
   34.68000     -3.1682863E-08
   34.74000     -3.2535986E-08
   34.80000     -3.3283964E-08
   34.86000     -3.3899838E-08
   34.92000     -3.4373645E-08
   34.98000     -3.4716098E-08
   35.04000     -3.4958223E-08
   35.10000     -3.5146613E-08
   35.16000     -3.5334914E-08
   35.22000     -3.5573244E-08
   35.28000     -3.5897994E-08
   35.34000     -3.6324515E-08
   35.40000     -3.6844664E-08
   35.46000     -3.7429896E-08
   35.52000     -3.8039136E-08
   35.58000     -3.8629413E-08
   35.64000     -3.9166483E-08
   35.70000     -3.9632720E-08
   35.76000     -4.0030482E-08
   35.82000     -4.0380339E-08
   35.88000     -4.0715026E-08
   35.94000     -4.1070962E-08
   36.00000     -4.1479613E-08
   36.06000     -4.1960828E-08
   36.12000     -4.2519360E-08
   36.18000     -4.3144983E-08
   36.24000     -4.3815511E-08
   36.30000     -4.4501615E-08
   36.36000     -4.5171937E-08
   36.42000     -4.5797517E-08
   36.48000     -4.6354806E-08
   36.54000     -4.6827260E-08
   36.60000     -4.7205837E-08
   36.66000     -4.7488875E-08
   36.72000     -4.7681681E-08
   36.78000     -4.7796011E-08
   36.84000     -4.7849198E-08
   36.90000     -4.7862798E-08
   36.96000     -4.7860549E-08
   37.02000     -4.7865701E-08
   37.08000     -4.7898119E-08
   37.14000     -4.7971568E-08
   37.20000     -4.8091682E-08
   37.26000     -4.8254829E-08
   37.32000     -4.8448012E-08
   37.38000     -4.8649746E-08
   37.44000     -4.8831723E-08
   37.50000     -4.8961276E-08
   37.56000     -4.9004480E-08
   37.62000     -4.8929703E-08
   37.68000     -4.8711172E-08
   37.74000     -4.8331913E-08
   37.80000     -4.7785424E-08
   37.86000     -4.7075464E-08
   37.92000     -4.6213973E-08
   37.98000     -4.5217430E-08
   38.04000     -4.4102677E-08
   38.10000     -4.2883052E-08
   38.16000     -4.1565791E-08
   38.22000     -4.0150937E-08
   38.28000     -3.8631672E-08
   38.34000     -3.6995573E-08
   38.40000     -3.5226297E-08
   38.46000     -3.3305412E-08
   38.52000     -3.1214373E-08
   38.58000     -2.8936816E-08
   38.64000     -2.6461235E-08
   38.70000     -2.3783866E-08
   38.76000     -2.0911203E-08
   38.82000     -1.7861483E-08
   38.88000     -1.4664498E-08
   38.94000     -1.1359620E-08
   39.00000     -7.9923357E-09
   39.06000     -4.6101247E-09
   39.12000     -1.2586061E-09
   39.18000      2.0212354E-09
   39.24000      5.1943645E-09
   39.30000      8.2316216E-09
   39.36000      1.1108687E-08
   39.42000      1.3804649E-08
   39.48000      1.6300701E-08
   39.54000      1.8579266E-08
   39.60000      2.0623654E-08
   39.66000      2.2418190E-08
   39.72000      2.3948644E-08
   39.78000      2.5202841E-08
   39.84000      2.6171291E-08
   39.90000      2.6847838E-08
   39.96000      2.7230262E-08
   40.02000      2.7320908E-08
   40.08000      2.7127314E-08
   40.14000      2.6662759E-08
   40.20000      2.5946512E-08
   40.26000      2.5003443E-08
   40.32000      2.3862775E-08
   40.38000      2.2555820E-08
   40.44000      2.1113049E-08
   40.50000      1.9561144E-08
   40.56000      1.7920975E-08
   40.62000      1.6207338E-08
   40.68000      1.4430795E-08
   40.74000      1.2601265E-08
   40.80000      1.0732200E-08
   40.86000      8.8438759E-09
   40.92000      6.9643873E-09
   40.98000      5.1276938E-09
   41.04000      3.3689860E-09
   41.10000      1.7185980E-09
   41.16000      1.9616722E-10
   41.22000     -1.1933686E-09
   41.28000     -2.4609492E-09
   41.34000     -3.6316288E-09
   41.40000     -4.7405311E-09
   41.46000     -5.8276366E-09
   41.52000     -6.9325603E-09
   41.58000     -8.0902334E-09
   41.64000     -9.3280299E-09
   41.70000     -1.0664515E-08
   41.76000     -1.2109761E-08
   41.82000     -1.3666960E-08
   41.88000     -1.5334924E-08
   41.94000     -1.7110940E-08
   42.00000     -1.8993319E-08
   42.06000     -2.0983073E-08
   42.12000     -2.3084416E-08
   42.18000     -2.5304113E-08
   42.24000     -2.7650078E-08
   42.30000     -3.0129932E-08
   42.36000     -3.2750030E-08
   42.42000     -3.5515345E-08
   42.48000     -3.8429999E-08
   42.54000     -4.1498048E-08
   42.60000     -4.4723954E-08
   42.66000     -4.8112472E-08
   42.72000     -5.1667925E-08
   42.78000     -5.5393549E-08
   42.84000     -5.9291452E-08
   42.90000     -6.3363863E-08
   42.96000     -6.7615844E-08
   43.02000     -7.2059031E-08
   43.08000     -7.6715665E-08
   43.14000     -8.1621920E-08
   43.20000     -8.6829807E-08
   43.26000     -9.2407625E-08
   43.32000     -9.8439330E-08
   43.38000     -1.0502412E-07
   43.44000     -1.1227750E-07
   43.50000     -1.2033483E-07
   43.56000     -1.2935797E-07
   43.62000     -1.3954424E-07
   43.68000     -1.5113658E-07
   43.74000     -1.6443296E-07
   43.80000     -1.7979337E-07
   43.86000     -1.9764332E-07
   43.92000     -2.1847431E-07
   43.98000     -2.4284256E-07
   44.04000     -2.7136812E-07
   44.10000     -3.0473737E-07
   44.16000     -3.4371013E-07
   44.22000     -3.8913279E-07
   44.28000     -4.4195653E-07
   44.34000     -5.0325843E-07
   44.40000     -5.7426365E-07
   44.46000     -6.5636630E-07
   44.52000     -7.5114724E-07
   44.58000     -8.6038841E-07
   44.64000     -9.8608496E-07
   44.70000     -1.1304558E-06
   44.76000     -1.2959545E-06
   44.82000     -1.4852830E-06
   44.88000     -1.7014070E-06
   44.94000     -1.9475758E-06
   45.00000     -2.2273446E-06
   45.06000     -2.5445984E-06
   45.12000     -2.9035762E-06
   45.18000     -3.3088959E-06
   45.24000     -3.7655759E-06
   45.30000     -4.2790562E-06
   45.36000     -4.8552120E-06
   45.42000     -5.5003698E-06
   45.48000     -6.2213189E-06
   45.54000     -7.0253191E-06
   45.60000     -7.9201072E-06
   45.66000     -8.9139021E-06
   45.72000     -1.0015405E-05
   45.78000     -1.1233788E-05
   45.84000     -1.2578696E-05
   45.90000     -1.4060220E-05
   45.96000     -1.5688875E-05
   46.02000     -1.7475570E-05
   46.08000     -1.9431576E-05
   46.14000     -2.1568476E-05
   46.20000     -2.3898121E-05
   46.26000     -2.6432575E-05
   46.32000     -2.9184055E-05
   46.38000     -3.2164862E-05
   46.44000     -3.5387300E-05
   46.50000     -3.8863604E-05
   46.56000     -4.2605832E-05
   46.62000     -4.6625766E-05
   46.68000     -5.0934817E-05
   46.74000     -5.5543893E-05
   46.80000     -6.0463288E-05
   46.86000     -6.5702559E-05
   46.92000     -7.1270420E-05
   46.98000     -7.7174569E-05
   47.04000     -8.3421633E-05
   47.10000     -9.0016969E-05
   47.16000     -9.6964584E-05
   47.22000     -1.0426699E-04
   47.28000     -1.1192509E-04
   47.34000     -1.1993814E-04
   47.40000     -1.2830357E-04
   47.46000     -1.3701696E-04
   47.52000     -1.4607195E-04
   47.58000     -1.5546016E-04
   47.64000     -1.6517124E-04
   47.70000     -1.7519272E-04
   47.76000     -1.8551017E-04
   47.82000     -1.9610708E-04
   47.88000     -2.0696498E-04
   47.94000     -2.1806352E-04
   48.00000     -2.2938054E-04
   48.06000     -2.4089214E-04
   48.12000     -2.5257285E-04
   48.18000     -2.6439590E-04
   48.24000     -2.7633313E-04
   48.30000     -2.8835546E-04
   48.36000     -3.0043290E-04
   48.42000     -3.1253492E-04
   48.48000     -3.2463067E-04
   48.54000     -3.3668921E-04
   48.60000     -3.4867987E-04
   48.66000     -3.6057239E-04
   48.72000     -3.7233744E-04
   48.78000     -3.8394664E-04
   48.84000     -3.9537295E-04
   48.90000     -4.0659096E-04
   48.96000     -4.1757707E-04
   49.02000     -4.2830972E-04
   49.08000     -4.3876981E-04
   49.14000     -4.4894067E-04
   49.20000     -4.5880841E-04
   49.26000     -4.6836201E-04
   49.32000     -4.7759328E-04
   49.38000     -4.8649701E-04
   49.44000     -4.9507112E-04
   49.50000     -5.0331658E-04
   49.56000     -5.1123742E-04
   49.62000     -5.1884039E-04
   49.68000     -5.2613544E-04
   49.74000     -5.3313497E-04
   49.80000     -5.3985394E-04
   49.86000     -5.4630934E-04
   49.92000     -5.5252027E-04
   49.98000     -5.5850757E-04
   50.04000     -5.6429335E-04
   50.10000     -5.6990091E-04
   50.16000     -5.7535380E-04
   50.22000     -5.8067631E-04
   50.28000     -5.8589230E-04
   50.34000     -5.9102522E-04
   50.40000     -5.9609785E-04
   50.46000     -6.0113141E-04
   50.52000     -6.0614571E-04
   50.58000     -6.1115850E-04
   50.64000     -6.1618531E-04
   50.70000     -6.2123913E-04
   50.76000     -6.2633009E-04
   50.82000     -6.3146534E-04
   50.88000     -6.3664874E-04
   50.94000     -6.4188079E-04
   51.00000     -6.4715883E-04
   51.06000     -6.5247662E-04
   51.12000     -6.5782474E-04
   51.18000     -6.6319044E-04
   51.24000     -6.6855777E-04
   51.30000     -6.7390775E-04
   51.36000     -6.7921868E-04
   51.42000     -6.8446633E-04
   51.48000     -6.8962423E-04
   51.54000     -6.9466420E-04
   51.60000     -6.9955643E-04
   51.66000     -7.0427021E-04
   51.72000     -7.0877420E-04
   51.78000     -7.1303709E-04
   51.84000     -7.1702764E-04
   51.90000     -7.2071562E-04
   51.96000     -7.2407187E-04
   52.02000     -7.2706904E-04
   52.08000     -7.2968187E-04
   52.14000     -7.3188765E-04
   52.20000     -7.3366647E-04
   52.26000     -7.3500164E-04
   52.32000     -7.3587982E-04
   52.38000     -7.3629135E-04
   52.44000     -7.3623046E-04
   52.50000     -7.3569547E-04
   52.56000     -7.3468889E-04
   52.62000     -7.3321722E-04
   52.68000     -7.3129131E-04
   52.74000     -7.2892586E-04
   52.80000     -7.2613958E-04
   52.86000     -7.2295463E-04
   52.92000     -7.1939651E-04
   52.98000     -7.1549381E-04
   53.04000     -7.1127759E-04
   53.10000     -7.0678128E-04
   53.16000     -7.0204039E-04
   53.22000     -6.9709157E-04
   53.28000     -6.9197279E-04
   53.34000     -6.8672240E-04
   53.40000     -6.8137859E-04
   53.46000     -6.7597919E-04
   53.52000     -6.7056075E-04
   53.58000     -6.6515844E-04
   53.64000     -6.5980549E-04
   53.70000     -6.5453269E-04
   53.76000     -6.4936822E-04
   53.82000     -6.4433715E-04
   53.88000     -6.3946092E-04
   53.94000     -6.3475745E-04
   54.00000     -6.3024065E-04
   54.06000     -6.2592031E-04
   54.12000     -6.2180217E-04
   54.18000     -6.1788794E-04
   54.24000     -6.1417517E-04
   54.30000     -6.1065733E-04
   54.36000     -6.0732407E-04
   54.42000     -6.0416118E-04
   54.48000     -6.0115091E-04
   54.54000     -5.9827248E-04
   54.60000     -5.9550197E-04
   54.66000     -5.9281319E-04
   54.72000     -5.9017749E-04
   54.78000     -5.8756483E-04
   54.84000     -5.8494403E-04
   54.90000     -5.8228272E-04
   54.96000     -5.7954848E-04
   55.02000     -5.7670899E-04
   55.08000     -5.7373219E-04
   55.14000     -5.7058729E-04
   55.20000     -5.6724483E-04
   55.26000     -5.6367711E-04
   55.32000     -5.5985880E-04
   55.38000     -5.5576704E-04
   55.44000     -5.5138167E-04
   55.50000     -5.4668565E-04
   55.56000     -5.4166513E-04