  -2.400000      0.0000000E+00
  -2.340000      0.0000000E+00
  -2.280000      0.0000000E+00
  -2.220000      0.0000000E+00
  -2.160000      3.3891275E-18
  -2.100000      2.3360758E-17
  -2.040000      8.3062896E-17
  -1.980000      1.9554681E-16
  -1.920000      3.1885528E-16
  -1.860000      3.0661701E-16
  -1.800000     -9.6682498E-17
  -1.740000     -1.1580466E-15
  -1.680000     -2.9337388E-15
  -1.620000     -4.9835217E-15
  -1.560000     -6.1819620E-15
  -1.500000     -4.8403884E-15
  -1.440000      7.0635390E-16
  -1.380000      1.1091000E-14
  -1.320000      2.4808101E-14
  -1.260000      3.7577282E-14
  -1.200000      4.2782777E-14
  -1.140000      3.3330994E-14
  -1.080000      4.7133589E-15
  -1.020000     -4.1611656E-14
 -0.9600000     -9.5915036E-14
 -0.9000000     -1.4043476E-13
 -0.8400000     -1.5307167E-13
 -0.7800000     -1.1436211E-13
 -0.7200000     -1.6188643E-14
 -0.6600000      1.3046278E-13
 -0.6000000      2.9185861E-13
 -0.5400000      4.1460623E-13
 -0.4800000      4.3652769E-13
 -0.4200000      3.0411838E-13
 -0.3600000     -6.9267995E-15
 -0.3000000     -4.7330531E-13
 -0.2400000     -1.0134685E-12
 -0.1800000     -1.4894965E-12
 -0.1200000     -1.7242027E-12
 -5.9999999E-02 -1.5335660E-12
  0.0000000E+00 -7.7191850E-13
  5.9999999E-02  6.1521453E-13
  0.1200000      2.5382845E-12
  0.1800000      4.7215222E-12
  0.2400000      6.6853064E-12
  0.3000000      7.7697649E-12
  0.3600000      7.2162987E-12
  0.4200000      4.3182125E-12
  0.4800000     -1.3618518E-12
  0.5400000     -9.7317848E-12
  0.6000000     -1.9918621E-11
  0.6600000     -3.0103184E-11
  0.7200000     -3.7532859E-11
  0.7800000     -3.8797947E-11
  0.8400000     -3.0421443E-11
  0.9000000     -9.7460390E-12
  0.9600000      2.3986101E-11
   1.020000      6.8560532E-11
   1.080000      1.1800100E-10
   1.140000      1.6237259E-10
   1.200000      1.8845303E-10
   1.260000      1.8143625E-10
   1.320000      1.2764850E-10
   1.380000      1.8028651E-11
   1.440000     -1.4810600E-10
   1.500000     -3.5966388E-10
   1.560000     -5.9147875E-10
   1.620000     -8.0375828E-10
   1.680000     -9.4371277E-10
   1.740000     -9.4945452E-10
   1.800000     -7.5585643E-10
   1.860000     -3.0168437E-10
   1.920000      4.6295676E-10
   1.980000      1.5699220E-09
   2.040000      3.0280383E-09
   2.100000      4.8205355E-09
   2.160000      6.9052075E-09
   2.220000      9.2172003E-09
   2.280000      1.1673943E-08
   2.340000      1.4181466E-08
   2.400000      1.6641282E-08
   2.460000      1.8957033E-08
   2.520000      2.1040298E-08
   2.580000      2.2815231E-08
   2.640000      2.4221920E-08
   2.700000      2.5218572E-08
   2.760000      2.5782683E-08
   2.820000      2.5911335E-08
   2.880000      2.5620725E-08
   2.940000      2.4944836E-08
   3.000000      2.3933223E-08
   3.060000      2.2647844E-08
   3.120000      2.1159023E-08
   3.180000      1.9540835E-08
   3.240000      1.7866329E-08
   3.300000      1.6203154E-08
   3.360000      1.4610076E-08
   3.420000      1.3134750E-08
   3.480000      1.1812857E-08
   3.540000      1.0668416E-08
   3.600000      9.7149089E-09
   3.660000      8.9567189E-09
   3.720000      8.3905070E-09
   3.780000      8.0062845E-09
   3.840000      7.7882785E-09
   3.900000      7.7158724E-09
   3.960000      7.7650215E-09
   4.020000      7.9104483E-09
   4.080000      8.1285920E-09
   4.140000      8.4008960E-09
   4.200000      8.7165697E-09
   4.260000      9.0738315E-09
   4.320000      9.4787200E-09
   4.380000      9.9411404E-09
   4.440000      1.0468574E-08
   4.500000      1.1058781E-08
   4.560000      1.1693461E-08
   4.620000      1.2334921E-08
   4.680000      1.2927397E-08
   4.740000      1.3403537E-08
   4.800000      1.3695140E-08
   4.860000      1.3745945E-08
   4.920000      1.3523337E-08
   4.980000      1.3025761E-08
   5.040000      1.2283450E-08
   5.100000      1.1351587E-08
   5.160000      1.0296966E-08
   5.220000      9.1810453E-09
   5.280000      8.0434441E-09
   5.340000      6.8901835E-09
   5.400000      5.6900769E-09
   5.460000      4.3808530E-09
   5.520000      2.8841947E-09
   5.580000      1.1265597E-09
   5.640000     -9.3906771E-10
   5.700000     -3.3159036E-09
   5.760000     -5.9552052E-09
   5.820000     -8.7598337E-09
   5.880000     -1.1599327E-08
   5.940000     -1.4333349E-08
   6.000000     -1.6838165E-08
   6.060000     -1.9029804E-08
   6.120000     -2.0878240E-08
   6.180000     -2.2409091E-08
   6.240000     -2.3692399E-08
   6.300000     -2.4821356E-08
   6.360000     -2.5886406E-08
   6.420000     -2.6951341E-08
   6.480000     -2.8037389E-08
   6.540000     -2.9119288E-08
   6.600000     -3.0134132E-08
   6.660000     -3.1000525E-08
   6.720000     -3.1642973E-08
   6.780000     -3.2015155E-08
   6.840000     -3.2116155E-08
   6.900000     -3.1995629E-08
   6.960000     -3.1746666E-08
   7.020000     -3.1488380E-08
   7.080000     -3.1342399E-08
   7.140000     -3.1409062E-08
   7.200000     -3.1748687E-08
   7.260000     -3.2371943E-08
   7.320000     -3.3241008E-08
   7.380000     -3.4280536E-08
   7.440000     -3.5395459E-08
   7.500000     -3.6491286E-08
   7.560000     -3.7492399E-08
   7.620000     -3.8354770E-08
   7.680000     -3.9070905E-08
   7.740000     -3.9666769E-08
   7.800000     -4.0192063E-08
   7.860000     -4.0706418E-08
   7.920000     -4.1264549E-08
   7.980000     -4.1903551E-08
   8.040000     -4.2634436E-08
   8.100000     -4.3439332E-08
   8.160000     -4.4274294E-08
   8.220000     -4.5076799E-08
   8.280000     -4.5775963E-08
   8.340000     -4.6303349E-08
   8.400000     -4.6602150E-08
   8.460000     -4.6633211E-08
   8.520000     -4.6376996E-08
   8.580000     -4.5831808E-08
   8.640000     -4.5009170E-08
   8.700000     -4.3928047E-08
   8.760000     -4.2609607E-08
   8.820000     -4.1073910E-08
   8.880000     -3.9339188E-08
   8.940000     -3.7423575E-08
   9.000000     -3.5348343E-08
   9.060000     -3.3141237E-08
   9.120000     -3.0838503E-08
   9.180000     -2.8484607E-08
   9.240000     -2.6129275E-08
   9.300000     -2.3822322E-08
   9.360000     -2.1607306E-08
   9.420000     -1.9515367E-08
   9.480000     -1.7560653E-08
   9.540000     -1.5738328E-08
   9.600000     -1.4025717E-08
   9.660000     -1.2386465E-08
   9.720000     -1.0777031E-08
   9.780000     -9.1543937E-09
   9.840000     -7.4836288E-09
   9.900000     -5.7440324E-09
   9.960000     -3.9328039E-09
   10.02000     -2.0657716E-09
   10.08000     -1.7522601E-10
   10.14000      1.6945610E-09
   10.20000      3.4932606E-09
   10.26000      5.1709201E-09
   10.32000      6.6841346E-09
   10.38000      8.0014422E-09
   10.44000      9.1076453E-09
   10.50000      1.0006849E-08
   10.56000      1.0723922E-08
   10.62000      1.1303975E-08
   10.68000      1.1809342E-08
   10.74000      1.2313747E-08
   10.80000      1.2893716E-08
   10.86000      1.3617957E-08
   10.92000      1.4536165E-08
   10.98000      1.5669279E-08
   11.04000      1.7003439E-08
   11.10000      1.8489516E-08
   11.16000      2.0049223E-08
   11.22000      2.1587407E-08
   11.28000      2.3008637E-08
   11.34000      2.4234950E-08
   11.40000      2.5221022E-08
   11.46000      2.5963272E-08
   11.52000      2.6500707E-08
   11.58000      2.6907145E-08
   11.64000      2.7276570E-08
   11.70000      2.7705022E-08
   11.76000      2.8273174E-08
   11.82000      2.9033398E-08
   11.88000      3.0003783E-08
   11.94000      3.1169492E-08
   12.00000      3.2490096E-08
   12.06000      3.3910130E-08
   12.12000      3.5369812E-08
   12.18000      3.6813571E-08
   12.24000      3.8195246E-08
   12.30000      3.9480156E-08
   12.36000      4.0645361E-08
   12.42000      4.1679421E-08
   12.48000      4.2582720E-08
   12.54000      4.3368264E-08
   12.60000      4.4062098E-08
   12.66000      4.4701991E-08
   12.72000      4.5333323E-08
   12.78000      4.6002114E-08
   12.84000      4.6746251E-08
   12.90000      4.7587022E-08
   12.96000      4.8523482E-08
   13.02000      4.9531561E-08
   13.08000      5.0568595E-08
   13.14000      5.1582454E-08
   13.20000      5.2522864E-08
   13.26000      5.3351933E-08
   13.32000      5.4051110E-08
   13.38000      5.4622785E-08
   13.44000      5.5086364E-08
   13.50000      5.5470352E-08
   13.56000      5.5802779E-08
   13.62000      5.6103037E-08
   13.68000      5.6377171E-08
   13.74000      5.6617960E-08
   13.80000      5.6809345E-08
   13.86000      5.6933668E-08
   13.92000      5.6979349E-08
   13.98000      5.6946586E-08
   14.04000      5.6849267E-08
   14.10000      5.6712476E-08
   14.16000      5.6566144E-08
   14.22000      5.6436662E-08
   14.28000      5.6338788E-08
   14.34000      5.6270260E-08
   14.40000      5.6210745E-08
   14.46000      5.6125661E-08
   14.52000      5.5974123E-08
   14.58000      5.5718974E-08
   14.64000      5.5336375E-08
   14.70000      5.4822394E-08
   14.76000      5.4194771E-08
   14.82000      5.3489419E-08
   14.88000      5.2752551E-08
   14.94000      5.2030664E-08
   15.00000      5.1361070E-08
   15.06000      5.0765554E-08
   15.12000      5.0248698E-08
   15.18000      4.9800992E-08
   15.24000      4.9405326E-08
   15.30000      4.9044573E-08
   15.36000      4.8707697E-08
   15.42000      4.8392494E-08
   15.48000      4.8104287E-08
   15.54000      4.7851422E-08
   15.60000      4.7639297E-08
   15.66000      4.7465310E-08
   15.72000      4.7316593E-08
   15.78000      4.7171483E-08
   15.84000      4.7004310E-08
   15.90000      4.6792142E-08
   15.96000      4.6521169E-08
   16.02000      4.6190902E-08
   16.08000      4.5814581E-08
   16.14000      4.5415739E-08
   16.20000      4.5021658E-08
   16.26000      4.4655657E-08
   16.32000      4.4330260E-08
   16.38000      4.4043219E-08
   16.44000      4.3777430E-08
   16.50000      4.3504723E-08
   16.56000      4.3192550E-08
   16.62000      4.2811653E-08
   16.68000      4.2342844E-08
   16.74000      4.1781067E-08
   16.80000      4.1135866E-08
   16.86000      4.0428169E-08
   16.92000      3.9684267E-08
   16.98000      3.8928437E-08
   17.04000      3.8175944E-08
   17.10000      3.7428130E-08
   17.16000      3.6670645E-08
   17.22000      3.5875356E-08
   17.28000      3.5005510E-08
   17.34000      3.4023000E-08
   17.40000      3.2896033E-08
   17.46000      3.1605335E-08
   17.52000      3.0147316E-08
   17.58000      2.8533417E-08
   17.64000      2.6785761E-08
   17.70000      2.4930268E-08
   17.76000      2.2989076E-08
   17.82000      2.0974216E-08
   17.88000      1.8884117E-08
   17.94000      1.6703632E-08
   18.00000      1.4407321E-08
   18.06000      1.1964857E-08
   18.12000      9.3470645E-09
   18.18000      6.5311672E-09
   18.24000      3.5043317E-09
   18.30000      2.6525251E-10
   18.36000     -3.1759295E-09
   18.42000     -6.7987993E-09
   18.48000     -1.0574408E-08
   18.54000     -1.4467299E-08
   18.60000     -1.8437849E-08
   18.66000     -2.2445025E-08
   18.72000     -2.6449674E-08
   18.78000     -3.0418079E-08
   18.84000     -3.4325286E-08
   18.90000     -3.8157559E-08
   18.96000     -4.1913200E-08
   19.02000     -4.5601510E-08
   19.08000     -4.9239844E-08
   19.14000     -5.2849213E-08
   19.20000     -5.6449185E-08
   19.26000     -6.0052862E-08
   19.32000     -6.3662632E-08
   19.38000     -6.7267386E-08
   19.44000     -7.0841516E-08
   19.50000     -7.4346254E-08
   19.56000     -7.7733354E-08
   19.62000     -8.0951125E-08
   19.68000     -8.3952202E-08
   19.74000     -8.6701988E-08
   19.80000     -8.9186067E-08
   19.86000     -9.1414918E-08
   19.92000     -9.3424447E-08
   19.98000     -9.5271446E-08
   20.04000     -9.7024682E-08
   20.10000     -9.8752807E-08
   20.16000     -1.0051162E-07
   20.22000     -1.0233307E-07
   20.28000     -1.0421799E-07
   20.34000     -1.0613373E-07
   20.40000     -1.0801640E-07
   20.46000     -1.0977670E-07
   20.52000     -1.1130783E-07
   20.58000     -1.1249373E-07
   20.64000     -1.1321678E-07
   20.70000     -1.1336464E-07
   20.76000     -1.1283650E-07
   20.82000     -1.1154921E-07
   20.88000     -1.0944378E-07
   20.94000     -1.0649186E-07
   21.00000     -1.0270139E-07
   21.06000     -9.8120140E-08
   21.12000     -9.2835663E-08
   21.18000     -8.6970864E-08
   21.24000     -8.0675058E-08
   21.30000     -7.4111398E-08
   21.36000     -6.7442578E-08
   21.42000     -6.0816888E-08
   21.48000     -5.4356896E-08
   21.54000     -4.8152394E-08
   21.60000     -4.2258517E-08
   21.66000     -3.6698882E-08
   21.72000     -3.1472950E-08
   21.78000     -2.6566077E-08
   21.84000     -2.1960464E-08
   21.90000     -1.7645188E-08
   21.96000     -1.3623779E-08
   22.02000     -9.9182182E-09
   22.08000     -6.5689392E-09
   22.14000     -3.6310379E-09
   22.20000     -1.1675333E-09
   22.26000      7.5908968E-10
   22.32000      2.0956459E-09
   22.38000      2.8060365E-09
   22.44000      2.8770584E-09
   22.50000      2.3216360E-09
   22.56000      1.1792179E-09
   22.62000     -4.8661242E-10
   22.68000     -2.5930653E-09
   22.74000     -5.0451567E-09
   22.80000     -7.7441333E-09
   22.86000     -1.0596433E-08
   22.92000     -1.3522095E-08
   22.98000     -1.6461549E-08
   23.04000     -1.9379813E-08
   23.10000     -2.2267574E-08
   23.16000     -2.5139025E-08
   23.22000     -2.8026900E-08
   23.28000     -3.0975524E-08
   23.34000     -3.4032883E-08
   23.40000     -3.7242799E-08
   23.46000     -4.0638181E-08
   23.52000     -4.4236085E-08
   23.58000     -4.8035123E-08
   23.64000     -5.2015338E-08
   23.70000     -5.6140344E-08
   23.76000     -6.0361160E-08
   23.82000     -6.4620970E-08
   23.88000     -6.8859883E-08
   23.94000     -7.3018931E-08
   24.00000     -7.7042934E-08
   24.06000     -8.0882181E-08
   24.12000     -8.4493031E-08
   24.18000     -8.7838082E-08
   24.24000     -9.0886061E-08
   24.30000     -9.3611796E-08
   24.36000     -9.5996164E-08
   24.42000     -9.8026007E-08
   24.48000     -9.9693857E-08
   24.54000     -1.0099743E-07
   24.60000     -1.0193883E-07
   24.66000     -1.0252364E-07
   24.72000     -1.0275969E-07
   24.78000     -1.0265583E-07
   24.84000     -1.0222063E-07
   24.90000     -1.0146115E-07
   24.96000     -1.0038215E-07
   25.02000     -9.8985815E-08
   25.08000     -9.7272206E-08
   25.14000     -9.5240310E-08
   25.20000     -9.2889394E-08
   25.26000     -9.0220155E-08
   25.32000     -8.7235399E-08
   25.38000     -8.3940151E-08
   25.44000     -8.0341366E-08
   25.50000     -7.6447890E-08
   25.56000     -7.2270986E-08
   25.62000     -6.7825852E-08
   25.68000     -6.3133712E-08
   25.74000     -5.8224018E-08
   25.80000     -5.3135750E-08
   25.86000     -4.7917091E-08
   25.92000     -4.2623213E-08
   25.98000     -3.7312365E-08
   26.04000     -3.2041239E-08
   26.10000     -2.6860539E-08
   26.16000     -2.1811921E-08
   26.22000     -1.6926849E-08
   26.28000     -1.2227380E-08
   26.34000     -7.7284774E-09
   26.40000     -3.4410423E-09
   26.46000      6.2511901E-10
   26.52000      4.4590145E-09
   26.58000      8.0471905E-09
   26.64000      1.1373515E-08
   26.70000      1.4419917E-08
   26.76000      1.7167899E-08
   26.82000      1.9600691E-08
   26.88000      2.1705800E-08
   26.94000      2.3477732E-08
   27.00000      2.4920420E-08
   27.06000      2.6048774E-08
   27.12000      2.6888793E-08
   27.18000      2.7475732E-08
   27.24000      2.7850353E-08
   27.30000      2.8053671E-08
   27.36000      2.8121192E-08
   27.42000      2.8077931E-08
   27.48000      2.7935490E-08
   27.54000      2.7692041E-08
   27.60000      2.7335371E-08
   27.66000      2.6848314E-08
   27.72000      2.6215218E-08
   27.78000      2.5427852E-08
   27.84000      2.4489184E-08
   27.90000      2.3414275E-08
   27.96000      2.2228189E-08
   28.02000      2.0961751E-08
   28.08000      1.9646496E-08
   28.14000      1.8310166E-08
   28.20000      1.6973852E-08
   28.26000      1.5651153E-08
   28.32000      1.4349067E-08
   28.38000      1.3069924E-08
   28.44000      1.1813509E-08
   28.50000      1.0578797E-08
   28.56000      9.3650803E-09
   28.62000      8.1726688E-09
   28.68000      7.0034396E-09
   28.74000      5.8614731E-09
   28.80000      4.7536979E-09
   28.86000      3.6902661E-09
   28.92000      2.6842795E-09
   28.98000      1.7506449E-09
   29.04000      9.0414914E-10
   29.10000      1.5717698E-10
   29.16000     -4.8231275E-10
   29.22000     -1.0119958E-09
   29.28000     -1.4352848E-09
   29.34000     -1.7603955E-09
   29.40000     -1.9987887E-09
   29.46000     -2.1635305E-09
   29.52000     -2.2680833E-09
   29.58000     -2.3258229E-09
   29.64000     -2.3503022E-09
   29.70000     -2.3560536E-09
   29.76000     -2.3596012E-09
   29.82000     -2.3803288E-09
   29.88000     -2.4409255E-09
   29.94000     -2.5672169E-09
   30.00000     -2.7872831E-09
   30.06000     -3.1298184E-09
   30.12000     -3.6217820E-09
   30.18000     -4.2854711E-09
   30.24000     -5.1353237E-09
   30.30000     -6.1749215E-09
   30.36000     -7.3948310E-09
   30.42000     -8.7719050E-09
   30.48000     -1.0270512E-08
   30.54000     -1.1845774E-08
   30.60000     -1.3448397E-08
   30.66000     -1.5030214E-08
   30.72000     -1.6549325E-08
   30.78000     -1.7973814E-08
   30.84000     -1.9283402E-08
   30.90000     -2.0469045E-08
   30.96000     -2.1531132E-08
   31.02000     -2.2477108E-08
   31.08000     -2.3319471E-08
   31.14000     -2.4074495E-08
   31.20000     -2.4761572E-08
   31.26000     -2.5402453E-08
   31.32000     -2.6019711E-08
   31.38000     -2.6633911E-08
   31.44000     -2.7259800E-08
   31.50000     -2.7902406E-08
   31.56000     -2.8554505E-08
   31.62000     -2.9196737E-08
   31.68000     -2.9801061E-08
   31.74000     -3.0337219E-08
   31.80000     -3.0780825E-08
   31.86000     -3.1120972E-08
   31.92000     -3.1365229E-08
   31.98000     -3.1540452E-08
   32.04000     -3.1688916E-08
   32.10000     -3.1860576E-08
   32.16000     -3.2103163E-08
   32.22000     -3.2452519E-08
   32.28000     -3.2925232E-08
   32.34000     -3.3515157E-08
   32.40000     -3.4194361E-08
   32.46000     -3.4918102E-08
   32.52000     -3.5632624E-08
   32.58000     -3.6284263E-08
   32.64000     -3.6828162E-08
   32.70000     -3.7235267E-08
   32.76000     -3.7496584E-08
   32.82000     -3.7624176E-08
   32.88000     -3.7648871E-08
   32.94000     -3.7615045E-08
   33.00000     -3.7573347E-08
   33.06000     -3.7572590E-08
   33.12000     -3.7652331E-08
   33.18000     -3.7837541E-08
   33.24000     -3.8136545E-08
   33.30000     -3.8542513E-08
   33.36000     -3.9037996E-08
   33.42000     -3.9601140E-08
   33.48000     -4.0211571E-08
   33.54000     -4.0854321E-08
   33.60000     -4.1520657E-08
   33.66000     -4.2205855E-08
   33.72000     -4.2905022E-08
   33.78000     -4.3608811E-08
   33.84000     -4.4300744E-08
   33.90000     -4.4957421E-08
   33.96000     -4.5551662E-08
   34.02000     -4.6057714E-08
   34.08000     -4.6457004E-08
   34.14000     -4.6742720E-08
   34.20000     -4.6922040E-08
   34.26000     -4.7015565E-08
   34.32000     -4.7054151E-08
   34.38000     -4.7073929E-08
   34.44000     -4.7110426E-08
   34.50000     -4.7192792E-08
   34.56000     -4.7338858E-08
   34.62000     -4.7551900E-08
   34.68000     -4.7819654E-08
   34.74000     -4.8116082E-08
   34.80000     -4.8405909E-08
   34.86000     -4.8651348E-08
   34.92000     -4.8819782E-08
   34.98000     -4.8890673E-08
   35.04000     -4.8860009E-08
   35.10000     -4.8741036E-08
   35.16000     -4.8561166E-08
   35.22000     -4.8355950E-08
   35.28000     -4.8161830E-08
   35.34000     -4.8009703E-08
   35.40000     -4.7920800E-08
   35.46000     -4.7905470E-08
   35.52000     -4.7964406E-08
   35.58000     -4.8091067E-08
   35.64000     -4.8273975E-08
   35.70000     -4.8497899E-08
   35.76000     -4.8743932E-08
   35.82000     -4.8989076E-08
   35.88000     -4.9206530E-08
   35.94000     -4.9367596E-08
   36.00000     -4.9445429E-08
   36.06000     -4.9419974E-08
   36.12000     -4.9282590E-08
   36.18000     -4.9038650E-08
   36.24000     -4.8706870E-08
   36.30000     -4.8315041E-08
   36.36000     -4.7893131E-08
   36.42000     -4.7465591E-08
   36.48000     -4.7045276E-08
   36.54000     -4.6630781E-08
   36.60000     -4.6208111E-08
   36.66000     -4.5756178E-08
   36.72000     -4.5254374E-08
   36.78000     -4.4689934E-08
   36.84000     -4.4062723E-08
   36.90000     -4.3386152E-08
   36.96000     -4.2683901E-08
   37.02000     -4.1983537E-08
   37.08000     -4.1308805E-08
   37.14000     -4.0672774E-08
   37.20000     -4.0073562E-08
   37.26000     -3.9493749E-08
   37.32000     -3.8903551E-08
   37.38000     -3.8267103E-08
   37.44000     -3.7550340E-08
   37.50000     -3.6728803E-08
   37.56000     -3.5793526E-08
   37.62000     -3.4753533E-08
   37.68000     -3.3634077E-08
   37.74000     -3.2470744E-08
   37.80000     -3.1300473E-08
   37.86000     -3.0151458E-08
   37.92000     -2.9034341E-08
   37.98000     -2.7937119E-08
   38.04000     -2.6825219E-08
   38.10000     -2.5647070E-08
   38.16000     -2.4344004E-08
   38.22000     -2.2862082E-08
   38.28000     -2.1162913E-08
   38.34000     -1.9230805E-08
   38.40000     -1.7074546E-08
   38.46000     -1.4723620E-08
   38.52000     -1.2220146E-08
   38.58000     -9.6088497E-09
   38.64000     -6.9277397E-09
   38.70000     -4.2017581E-09
   38.76000     -1.4406792E-09
   38.82000      1.3586987E-09
   38.88000      4.2070982E-09
   38.94000      7.1157706E-09
   39.00000      1.0089811E-08
   39.06000      1.3123299E-08
   39.12000      1.6197125E-08
   39.18000      1.9279671E-08
   39.24000      2.2329903E-08
   39.30000      2.5302061E-08
   39.36000      2.8150971E-08
   39.42000      3.0837018E-08
   39.48000      3.3329851E-08
   39.54000      3.5610217E-08
   39.60000      3.7669476E-08
   39.66000      3.9506926E-08
   39.72000      4.1125439E-08
   39.78000      4.2526473E-08
   39.84000      4.3705846E-08
   39.90000      4.4651539E-08
   39.96000      4.5344400E-08
   40.02000      4.5761844E-08
   40.08000      4.5883635E-08
   40.14000      4.5698314E-08
   40.20000      4.5208406E-08
   40.26000      4.4432948E-08
   40.32000      4.3406565E-08
   40.38000      4.2175277E-08
   40.44000      4.0790184E-08
   40.50000      3.9300449E-08
   40.56000      3.7747210E-08
   40.62000      3.6159513E-08
   40.68000      3.4552890E-08
   40.74000      3.2930409E-08
   40.80000      3.1285708E-08
   40.86000      2.9607190E-08
   40.92000      2.7882454E-08
   40.98000      2.6102168E-08
   41.04000      2.4262707E-08
   41.10000      2.2367132E-08
   41.16000      2.0424434E-08
   41.22000      1.8447276E-08
   41.28000      1.6448810E-08
   41.34000      1.4439291E-08
   41.40000      1.2423249E-08
   41.46000      1.0397759E-08
   41.52000      8.3520657E-09
   41.58000      6.2685053E-09
   41.64000      4.1244941E-09
   41.70000      1.8952544E-09
   41.76000     -4.4300494E-10
   41.82000     -2.9097591E-09
   41.88000     -5.5170859E-09
   41.94000     -8.2673992E-09
   42.00000     -1.1152698E-08
   42.06000     -1.4155990E-08
   42.12000     -1.7255138E-08
   42.18000     -2.0428727E-08
   42.24000     -2.3662777E-08
   42.30000     -2.6956432E-08
   42.36000     -3.0324834E-08
   42.42000     -3.3797729E-08
   42.48000     -3.7413766E-08
   42.54000     -4.1211596E-08
   42.60000     -4.5220307E-08
   42.66000     -4.9452080E-08
   42.72000     -5.3899644E-08
   42.78000     -5.8539921E-08
   42.84000     -6.3343379E-08
   42.90000     -6.8286980E-08
   42.96000     -7.3367374E-08
   43.02000     -7.8611045E-08
   43.08000     -8.4078536E-08
   43.14000     -8.9862098E-08
   43.20000     -9.6077628E-08
   43.26000     -1.0285368E-07
   43.32000     -1.1032140E-07
   43.38000     -1.1860865E-07
   43.44000     -1.2784116E-07
   43.50000     -1.3815121E-07
   43.56000     -1.4969244E-07
   43.62000     -1.6265834E-07
   43.68000     -1.7730035E-07
   43.74000     -1.9394240E-07
   43.80000     -2.1298931E-07
   43.86000     -2.3492854E-07
   43.92000     -2.6032620E-07
   43.98000     -2.8982072E-07
   44.04000     -3.2411748E-07
   44.10000     -3.6398910E-07
   44.16000     -4.1028369E-07
   44.22000     -4.6394268E-07
   44.28000     -5.2602729E-07
   44.34000     -5.9774993E-07
   44.40000     -6.8050599E-07
   44.46000     -7.7590153E-07
   44.52000     -8.8577264E-07
   44.58000     -1.0121956E-06
   44.64000     -1.1574898E-06
   44.70000     -1.3242172E-06
   44.76000     -1.5151844E-06
   44.82000     -1.7334510E-06
   44.88000     -1.9823483E-06
   44.94000     -2.2655086E-06
   45.00000     -2.5869003E-06
   45.06000     -2.9508651E-06
   45.12000     -3.3621525E-06
   45.18000     -3.8259459E-06
   45.24000     -4.3478794E-06
   45.30000     -4.9340510E-06
   45.36000     -5.5910259E-06
   45.42000     -6.3258426E-06
   45.48000     -7.1460172E-06
   45.54000     -8.0595501E-06
   45.60000     -9.0749409E-06
   45.66000     -1.0201190E-05
   45.72000     -1.1447808E-05
   45.78000     -1.2824814E-05
   45.84000     -1.4342717E-05
   45.90000     -1.6012504E-05
   45.96000     -1.7845598E-05
   46.02000     -1.9853827E-05
   46.08000     -2.2049362E-05
   46.14000     -2.4444673E-05
   46.20000     -2.7052469E-05
   46.26000     -2.9885638E-05
   46.32000     -3.2957170E-05
   46.38000     -3.6280097E-05
   46.44000     -3.9867406E-05
   46.50000     -4.3731958E-05
   46.56000     -4.7886377E-05
   46.62000     -5.2342944E-05
   46.68000     -5.7113473E-05
   46.74000     -6.2209168E-05
   46.80000     -6.7640496E-05
   46.86000     -7.3417032E-05
   46.92000     -7.9547324E-05
   46.98000     -8.6038759E-05
   47.04000     -9.2897448E-05
   47.10000     -1.0012809E-04
   47.16000     -1.0773390E-04
   47.22000     -1.1571642E-04
   47.28000     -1.2407554E-04
   47.34000     -1.3280925E-04
   47.40000     -1.4191364E-04
   47.46000     -1.5138279E-04
   47.52000     -1.6120868E-04
   47.58000     -1.7138112E-04
   47.64000     -1.8188779E-04
   47.70000     -1.9271419E-04
   47.76000     -2.0384369E-04
   47.82000     -2.1525752E-04
   47.88000     -2.2693494E-04
   47.94000     -2.3885326E-04
   48.00000     -2.5098797E-04
   48.06000     -2.6331289E-04
   48.12000     -2.7580024E-04
   48.18000     -2.8842097E-04
   48.24000     -3.0114490E-04
   48.30000     -3.1394087E-04
   48.36000     -3.2677705E-04
   48.42000     -3.3962121E-04
   48.48000     -3.5244107E-04
   48.54000     -3.6520441E-04
   48.60000     -3.7787954E-04
   48.66000     -3.9043548E-04
   48.72000     -4.0284236E-04
   48.78000     -4.1507170E-04
   48.84000     -4.2709656E-04
   48.90000     -4.3889199E-04
   48.96000     -4.5043512E-04
   49.02000     -4.6170567E-04
   49.08000     -4.7268582E-04
   49.14000     -4.8336072E-04
   49.20000     -4.9371854E-04
   49.26000     -5.0375075E-04
   49.32000     -5.1345181E-04
   49.38000     -5.2281964E-04
   49.44000     -5.3185556E-04
   49.50000     -5.4056407E-04
   49.56000     -5.4895302E-04
   49.62000     -5.5703329E-04
   49.68000     -5.6481885E-04
   49.74000     -5.7232648E-04
   49.80000     -5.7957537E-04
   49.86000     -5.8658735E-04
   49.92000     -5.9338630E-04
   49.98000     -5.9999776E-04
   50.04000     -6.0644868E-04
   50.10000     -6.1276712E-04
   50.16000     -6.1898190E-04
   50.22000     -6.2512181E-04
   50.28000     -6.3121575E-04
   50.34000     -6.3729187E-04
   50.40000     -6.4337743E-04
   50.46000     -6.4949837E-04
   50.52000     -6.5567874E-04
   50.58000     -6.6194078E-04
   50.64000     -6.6830422E-04
   50.70000     -6.7478605E-04
   50.76000     -6.8140047E-04
   50.82000     -6.8815856E-04
   50.88000     -6.9506798E-04
   50.94000     -7.0213299E-04
   51.00000     -7.0935430E-04
   51.06000     -7.1672926E-04
   51.12000     -7.2425150E-04
   51.18000     -7.3191145E-04
   51.24000     -7.3969614E-04
   51.30000     -7.4758945E-04
   51.36000     -7.5557263E-04
   51.42000     -7.6362403E-04
   51.48000     -7.7171973E-04
   51.54000     -7.7983376E-04
   51.60000     -7.8793865E-04
   51.66000     -7.9600530E-04
   51.72000     -8.0400397E-04
   51.78000     -8.1190438E-04
   51.84000     -8.1967615E-04
   51.90000     -8.2728930E-04
   51.96000     -8.3471468E-04
   52.02000     -8.4192428E-04
   52.08000     -8.4889145E-04
   52.14000     -8.5559156E-04
   52.20000     -8.6200197E-04
   52.26000     -8.6810242E-04
   52.32000     -8.7387545E-04
   52.38000     -8.7930635E-04
   52.44000     -8.8438339E-04
   52.50000     -8.8909792E-04
   52.56000     -8.9344440E-04
   52.62000     -8.9742040E-04
   52.68000     -9.0102648E-04
   52.74000     -9.0426602E-04
   52.80000     -9.0714527E-04
   52.86000     -9.0967282E-04
   52.92000     -9.1185980E-04
   52.98000     -9.1371930E-04
   53.04000     -9.1526622E-04
   53.10000     -9.1651687E-04
   53.16000     -9.1748888E-04
   53.22000     -9.1820030E-04
   53.28000     -9.1866980E-04
   53.34000     -9.1891596E-04
   53.40000     -9.1895711E-04
   53.46000     -9.1881078E-04
   53.52000     -9.1849366E-04
   53.58000     -9.1802096E-04
   53.64000     -9.1740629E-04
   53.70000     -9.1666164E-04
   53.76000     -9.1579679E-04
   53.82000     -9.1481942E-04
   53.88000     -9.1373496E-04
   53.94000     -9.1254647E-04
   54.00000     -9.1125461E-04
   54.06000     -9.0985751E-04
   54.12000     -9.0835104E-04
   54.18000     -9.0672896E-04
   54.24000     -9.0498303E-04
   54.30000     -9.0310309E-04
   54.36000     -9.0107752E-04
   54.42000     -8.9889311E-04
   54.48000     -8.9653564E-04
   54.54000     -8.9398993E-04
   54.60000     -8.9124043E-04
   54.66000     -8.8827126E-04
   54.72000     -8.8506658E-04
   54.78000     -8.8161108E-04
   54.84000     -8.7789027E-04
   54.90000     -8.7389076E-04
   54.96000     -8.6960057E-04
   55.02000     -8.6500944E-04
   55.08000     -8.6010894E-04
   55.14000     -8.5489289E-04
   55.20000     -8.4935717E-04
   55.26000     -8.4350002E-04
   55.32000     -8.3732221E-04
   55.38000     -8.3082699E-04
   55.44000     -8.2402001E-04
   55.50000     -8.1690960E-04
   55.56000     -8.0950634E-04