  -2.400000      0.0000000E+00
  -2.340000      0.0000000E+00
  -2.280000      0.0000000E+00
  -2.220000      0.0000000E+00
  -2.160000      0.0000000E+00
  -2.100000      6.3344225E-19
  -2.040000      4.8207366E-18
  -1.980000      1.8239433E-17
  -1.920000      4.3511652E-17
  -1.860000      6.5222556E-17
  -1.800000      3.3822165E-17
  -1.740000     -1.2894081E-16
  -1.680000     -4.7760032E-16
  -1.620000     -9.4371795E-16
  -1.560000     -1.2435282E-15
  -1.500000     -8.9603751E-16
  -1.440000      5.5421466E-16
  -1.380000      3.1251492E-15
  -1.320000      5.9967891E-15
  -1.260000      7.4713600E-15
  -1.200000      5.5949220E-15
  -1.140000     -5.9180747E-16
  -1.080000     -9.7279066E-15
  -1.020000     -1.7687911E-14
 -0.9600000     -1.8871689E-14
 -0.9000000     -9.2823656E-15
 -0.8400000      9.8089253E-15
 -0.7800000      2.9836685E-14
 -0.7200000      3.6748673E-14
 -0.6600000      1.7331588E-14
 -0.6000000     -3.1848093E-14
 -0.5400000     -9.7198718E-14
 -0.4800000     -1.4753773E-13
 -0.4200000     -1.4317391E-13
 -0.3600000     -5.3285155E-14
 -0.3000000      1.2457655E-13
 -0.2400000      3.5185670E-13
 -0.1800000      5.5123571E-13
 -0.1200000      6.2669287E-13
 -5.9999999E-02  4.9712296E-13
  0.0000000E+00  1.3278435E-13
  5.9999999E-02 -4.1903078E-13
  0.1200000     -1.0307453E-12
  0.1800000     -1.5191160E-12
  0.2400000     -1.6947036E-12
  0.3000000     -1.4247379E-12
  0.3600000     -6.9145942E-13
  0.4200000      3.7489188E-13
  0.4800000      1.5069801E-12
  0.5400000      2.3644554E-12
  0.6000000      2.6437702E-12
  0.6600000      2.2047271E-12
  0.7200000      1.1658427E-12
  0.7800000     -8.4602152E-14
  0.8400000     -9.9638093E-13
  0.9000000     -1.0744786E-12
  0.9600000     -1.3840845E-13
   1.020000      1.4893957E-12
   1.080000      2.9837628E-12
   1.140000      3.2684278E-12
   1.200000      1.4760874E-12
   1.260000     -2.5443441E-12
   1.320000     -7.9064715E-12
   1.380000     -1.2759790E-11
   1.440000     -1.4831232E-11
   1.500000     -1.2303681E-11
   1.560000     -4.7118086E-12
   1.620000      6.5400372E-12
   1.680000      1.8337311E-11
   1.740000      2.6740610E-11
   1.800000      2.8333839E-11
   1.860000      2.1537910E-11
   1.920000      7.3530461E-12
   1.980000     -1.0814269E-11
   2.040000     -2.8225484E-11
   2.100000     -4.0396003E-11
   2.160000     -4.4576041E-11
   2.220000     -4.0534385E-11
   2.280000     -3.0328462E-11
   2.340000     -1.7159262E-11
   2.400000     -3.7967186E-12
   2.460000      8.7359677E-12
   2.520000      2.1592526E-11
   2.580000      3.7330996E-11
   2.640000      5.8072741E-11
   2.700000      8.3174696E-11
   2.760000      1.0728813E-10
   2.820000      1.1970444E-10
   2.880000      1.0559890E-10
   2.940000      4.9217224E-11
   3.000000     -6.1663008E-11
   3.060000     -2.3129615E-10
   3.120000     -4.5314605E-10
   3.180000     -7.0999490E-10
   3.240000     -9.7743347E-10
   3.300000     -1.2299297E-09
   3.360000     -1.4474896E-09
   3.420000     -1.6203592E-09
   3.480000     -1.7496670E-09
   3.540000     -1.8433758E-09
   3.600000     -1.9089244E-09
   3.660000     -1.9456325E-09
   3.720000     -1.9404767E-09
   3.780000     -1.8697381E-09
   3.840000     -1.7065928E-09
   3.900000     -1.4318868E-09
   3.960000     -1.0434608E-09
   4.020000     -5.5947391E-10
   4.080000     -1.3436375E-11
   4.140000      5.5774885E-10
   4.200000      1.1280779E-09
   4.260000      1.6929429E-09
   4.320000      2.2709812E-09
   4.380000      2.8960512E-09
   4.440000      3.6025600E-09
   4.500000      4.4105257E-09
   4.560000      5.3171032E-09
   4.620000      6.2984702E-09
   4.680000      7.3212187E-09
   4.740000      8.3578788E-09
   4.800000      9.3990744E-09
   4.860000      1.0456177E-08
   4.920000      1.1552645E-08
   4.980000      1.2707504E-08
   5.040000      1.3918312E-08
   5.100000      1.5151471E-08
   5.160000      1.6344819E-08
   5.220000      1.7422186E-08
   5.280000      1.8314498E-08
   5.340000      1.8979238E-08
   5.400000      1.9410832E-08
   5.460000      1.9638353E-08
   5.520000      1.9712068E-08
   5.580000      1.9684713E-08
   5.640000      1.9594982E-08
   5.700000      1.9459387E-08
   5.760000      1.9274811E-08
   5.820000      1.9029700E-08
   5.880000      1.8718543E-08
   5.940000      1.8353218E-08
   6.000000      1.7966315E-08
   6.060000      1.7604791E-08
   6.120000      1.7316154E-08
   6.180000      1.7132452E-08
   6.240000      1.7058451E-08
   6.300000      1.7069274E-08
   6.360000      1.7119513E-08
   6.420000      1.7161444E-08
   6.480000      1.7166018E-08
   6.540000      1.7138191E-08
   6.600000      1.7119365E-08
   6.660000      1.7174008E-08
   6.720000      1.7363842E-08
   6.780000      1.7718797E-08
   6.840000      1.8216717E-08
   6.900000      1.8781547E-08
   6.960000      1.9303101E-08
   7.020000      1.9672596E-08
   7.080000      1.9820874E-08
   7.140000      1.9744096E-08
   7.200000      1.9506025E-08
   7.260000      1.9215411E-08
   7.320000      1.8987423E-08
   7.380000      1.8904824E-08
   7.440000      1.8994605E-08
   7.500000      1.9228688E-08
   7.560000      1.9546549E-08
   7.620000      1.9887935E-08
   7.680000      2.0219806E-08
   7.740000      2.0545228E-08
   7.800000      2.0891074E-08
   7.860000      2.1282046E-08
   7.920000      2.1715204E-08
   7.980000      2.2148901E-08
   8.040000      2.2512934E-08
   8.100000      2.2736012E-08
   8.160000      2.2777774E-08
   8.220000      2.2649704E-08
   8.280000      2.2413953E-08
   8.340000      2.2159155E-08
   8.400000      2.1962993E-08
   8.460000      2.1857677E-08
   8.520000      2.1813293E-08
   8.580000      2.1746095E-08
   8.640000      2.1547791E-08
   8.700000      2.1123048E-08
   8.760000      2.0419728E-08
   8.820000      1.9440753E-08
   8.880000      1.8235427E-08
   8.940000      1.6876895E-08
   9.000000      1.5437218E-08
   9.060000      1.3970415E-08
   9.120000      1.2508140E-08
   9.180000      1.1065908E-08
   9.240000      9.6534576E-09
   9.300000      8.2825364E-09
   9.360000      6.9685848E-09
   9.420000      5.7269522E-09
   9.480000      4.5670223E-09
   9.540000      3.4877599E-09
   9.600000      2.4763911E-09
   9.660000      1.5097581E-09
   9.720000      5.5681487E-10
   9.780000     -4.1886489E-10
   9.840000     -1.4566263E-09
   9.900000     -2.5957090E-09
   9.960000     -3.8714667E-09
   10.02000     -5.3116724E-09
   10.08000     -6.9344663E-09
   10.14000     -8.7490299E-09
   10.20000     -1.0758474E-08
   10.26000     -1.2962748E-08
   10.32000     -1.5358779E-08
   10.38000     -1.7936394E-08
   10.44000     -2.0671147E-08
   10.50000     -2.3517691E-08
   10.56000     -2.6408017E-08
   10.62000     -2.9257203E-08
   10.68000     -3.1975837E-08
   10.74000     -3.4484884E-08
   10.80000     -3.6727279E-08
   10.86000     -3.8672059E-08
   10.92000     -4.0310525E-08
   10.98000     -4.1647969E-08
   11.04000     -4.2696616E-08
   11.10000     -4.3474394E-08
   11.16000     -4.4010250E-08
   11.22000     -4.4352177E-08
   11.28000     -4.4571387E-08
   11.34000     -4.4756689E-08
   11.40000     -4.4997815E-08
   11.46000     -4.5362125E-08
   11.52000     -4.5873747E-08
   11.58000     -4.6504606E-08
   11.64000     -4.7182464E-08
   11.70000     -4.7813998E-08
   11.76000     -4.8313982E-08
   11.82000     -4.8628678E-08
   11.88000     -4.8744134E-08
   11.94000     -4.8676945E-08
   12.00000     -4.8453469E-08
   12.06000     -4.8088452E-08
   12.12000     -4.7574094E-08
   12.18000     -4.6884644E-08
   12.24000     -4.5993559E-08
   12.30000     -4.4893703E-08
   12.36000     -4.3609354E-08
   12.42000     -4.2193218E-08
   12.48000     -4.0709295E-08
   12.54000     -3.9209933E-08
   12.60000     -3.7718248E-08
   12.66000     -3.6224744E-08
   12.72000     -3.4699749E-08
   12.78000     -3.3115683E-08
   12.84000     -3.1468282E-08
   12.90000     -2.9786461E-08
   12.96000     -2.8125767E-08
   13.02000     -2.6547974E-08
   13.08000     -2.5095540E-08
   13.14000     -2.3771928E-08
   13.20000     -2.2536231E-08
   13.26000     -2.1314630E-08
   13.32000     -2.0024434E-08
   13.38000     -1.8601758E-08
   13.44000     -1.7022938E-08
   13.50000     -1.5312551E-08
   13.56000     -1.3536384E-08
   13.62000     -1.1783136E-08
   13.68000     -1.0142424E-08
   13.74000     -8.6868681E-09
   13.80000     -7.4633819E-09
   13.86000     -6.4942034E-09
   13.92000     -5.7839977E-09
   13.98000     -5.3273279E-09
   14.04000     -5.1116360E-09
   14.10000     -5.1141362E-09
   14.16000     -5.2948610E-09
   14.22000     -5.5907652E-09
   14.28000     -5.9159051E-09
   14.34000     -6.1703371E-09
   14.40000     -6.2565295E-09
   14.46000     -6.0986354E-09
   14.52000     -5.6582858E-09
   14.58000     -4.9414406E-09
   14.64000     -3.9938732E-09
   14.70000     -2.8868985E-09
   14.76000     -1.6984100E-09
   14.82000     -4.9588200E-10
   14.88000      6.7298811E-10
   14.94000      1.7795135E-09
   15.00000      2.8048901E-09
   15.06000      3.7280041E-09
   15.12000      4.5167567E-09
   15.18000      5.1278293E-09
   15.24000      5.5158647E-09
   15.30000      5.6485177E-09
   15.36000      5.5209277E-09
   15.42000      5.1631663E-09
   15.48000      4.6372830E-09
   15.54000      4.0249857E-09
   15.60000      3.4107774E-09
   15.66000      2.8666862E-09
   15.72000      2.4432327E-09
   15.78000      2.1680808E-09
   15.84000      2.0506092E-09
   15.90000      2.0889785E-09
   15.96000      2.2765254E-09
   16.02000      2.6058498E-09
   16.08000      3.0705916E-09
   16.14000      3.6657595E-09
   16.20000      4.3874087E-09
   16.26000      5.2319469E-09
   16.32000      6.1949552E-09
   16.38000      7.2694628E-09
   16.44000      8.4439300E-09
   16.50000      9.7004360E-09
   16.56000      1.1013499E-08
   16.62000      1.2349761E-08
   16.68000      1.3668633E-08
   16.74000      1.4924092E-08
   16.80000      1.6067931E-08
   16.86000      1.7054681E-08
   16.92000      1.7847643E-08
   16.98000      1.8424588E-08
   17.04000      1.8780977E-08
   17.10000      1.8928837E-08
   17.16000      1.8890830E-08
   17.22000      1.8691033E-08
   17.28000      1.8345725E-08
   17.34000      1.7857987E-08
   17.40000      1.7218737E-08
   17.46000      1.6414521E-08
   17.52000      1.5439534E-08
   17.58000      1.4307513E-08
   17.64000      1.3058749E-08
   17.70000      1.1759002E-08
   17.76000      1.0489837E-08
   17.82000      9.3330543E-09
   17.88000      8.3542480E-09
   17.94000      7.5910638E-09
   18.00000      7.0502444E-09
   18.06000      6.7142332E-09
   18.12000      6.5543664E-09
   18.18000      6.5449459E-09
   18.24000      6.6721717E-09
   18.30000      6.9343180E-09
   18.36000      7.3337043E-09
   18.42000      7.8650029E-09
   18.48000      8.5062632E-09
   18.54000      9.2176187E-09
   18.60000      9.9486783E-09
   18.66000      1.0651063E-08
   18.72000      1.1289868E-08
   18.78000      1.1848496E-08
   18.84000      1.2324973E-08
   18.90000      1.2722517E-08
   18.96000      1.3040196E-08
   19.02000      1.3269179E-08
   19.08000      1.3396624E-08
   19.14000      1.3414465E-08
   19.20000      1.3327201E-08
   19.26000      1.3153067E-08
   19.32000      1.2916631E-08
   19.38000      1.2636072E-08
   19.44000      1.2312026E-08
   19.50000      1.1924899E-08
   19.56000      1.1443578E-08
   19.62000      1.0842543E-08
   19.68000      1.0119608E-08
   19.74000      9.3055164E-09
   19.80000      8.4601037E-09
   19.86000      7.6561069E-09
   19.92000      6.9575763E-09
   19.98000      6.4024497E-09
   20.04000      5.9966254E-09
   20.10000      5.7212053E-09
   20.16000      5.5482423E-09
   20.22000      5.4566924E-09
   20.28000      5.4409655E-09
   20.34000      5.5089457E-09
   20.40000      5.6720850E-09
   20.46000      5.9339942E-09
   20.52000      6.2840471E-09
   20.58000      6.6990244E-09
   20.64000      7.1509625E-09
   20.70000      7.6159408E-09
   20.76000      8.0783877E-09
   20.82000      8.5285592E-09
   20.88000      8.9551655E-09
   20.94000      9.3381729E-09
   21.00000      9.6467749E-09
   21.06000      9.8445305E-09
   21.12000      9.8993889E-09
   21.18000      9.7933475E-09
   21.24000      9.5263957E-09
   21.30000      9.1124761E-09
   21.36000      8.5695335E-09
   21.42000      7.9092155E-09
   21.48000      7.1322326E-09
   21.54000      6.2326575E-09
   21.60000      5.2096882E-09
   21.66000      4.0810897E-09
   21.72000      2.8909288E-09
   21.78000      1.7061733E-09
   21.84000      6.0161254E-10
   21.90000     -3.6191000E-10
   21.96000     -1.1573767E-09
   22.02000     -1.8011311E-09
   22.08000     -2.3475801E-09
   22.14000     -2.8707023E-09
   22.20000     -3.4395273E-09
   22.26000     -4.0971981E-09
   22.32000     -4.8514042E-09
   22.38000     -5.6788205E-09
   22.44000     -6.5400609E-09
   22.50000     -7.3974351E-09
   22.56000     -8.2273548E-09
   22.62000     -9.0225134E-09
   22.68000     -9.7842250E-09
   22.74000     -1.0509847E-08
   22.80000     -1.1182073E-08
   22.86000     -1.1765424E-08
   22.92000     -1.2211608E-08
   22.98000     -1.2471592E-08
   23.04000     -1.2509846E-08
   23.10000     -1.2316106E-08
   23.16000     -1.1911472E-08
   23.22000     -1.1347656E-08
   23.28000     -1.0699908E-08
   23.34000     -1.0054999E-08
   23.40000     -9.4963868E-09
   23.46000     -9.0892973E-09
   23.52000     -8.8691534E-09
   23.58000     -8.8367855E-09
   23.64000     -8.9626289E-09
   23.70000     -9.1993950E-09
   23.76000     -9.4994874E-09
   23.82000     -9.8310755E-09
   23.88000     -1.0186714E-08
   23.94000     -1.0581078E-08
   24.00000     -1.1038869E-08
   24.06000     -1.1578159E-08
   24.12000     -1.2196459E-08
   24.18000     -1.2865598E-08
   24.24000     -1.3537456E-08
   24.30000     -1.4157944E-08
   24.36000     -1.4683218E-08
   24.42000     -1.5091727E-08
   24.48000     -1.5388151E-08
   24.54000     -1.5599223E-08
   24.60000     -1.5764803E-08
   24.66000     -1.5928810E-08
   24.72000     -1.6133386E-08
   24.78000     -1.6416875E-08
   24.84000     -1.6813731E-08
   24.90000     -1.7353592E-08
   24.96000     -1.8057932E-08
   25.02000     -1.8935115E-08
   25.08000     -1.9976756E-08
   25.14000     -2.1158574E-08
   25.20000     -2.2447153E-08
   25.26000     -2.3811005E-08
   25.32000     -2.5231653E-08
   25.38000     -2.6709870E-08
   25.44000     -2.8264090E-08
   25.50000     -2.9921583E-08
   25.56000     -3.1706438E-08
   25.62000     -3.3629860E-08
   25.68000     -3.5686906E-08
   25.74000     -3.7860207E-08
   25.80000     -4.0127333E-08
   25.86000     -4.2466464E-08
   25.92000     -4.4856105E-08
   25.98000     -4.7268038E-08
   26.04000     -4.9657221E-08
   26.10000     -5.1954675E-08
   26.16000     -5.4068970E-08
   26.22000     -5.5897992E-08
   26.28000     -5.7347730E-08
   26.34000     -5.8351102E-08
   26.40000     -5.8879557E-08
   26.46000     -5.8943240E-08
   26.52000     -5.8580891E-08
   26.58000     -5.7844950E-08
   26.64000     -5.6788988E-08
   26.70000     -5.5462440E-08
   26.76000     -5.3913180E-08
   26.82000     -5.2193972E-08
   26.88000     -5.0366921E-08
   26.94000     -4.8501207E-08
   27.00000     -4.6663345E-08
   27.06000     -4.4903555E-08
   27.12000     -4.3243901E-08
   27.18000     -4.1673449E-08
   27.24000     -4.0152450E-08
   27.30000     -3.8623707E-08
   27.36000     -3.7026933E-08
   27.42000     -3.5311519E-08
   27.48000     -3.3444994E-08
   27.54000     -3.1416793E-08
   27.60000     -2.9238377E-08
   27.66000     -2.6940931E-08
   27.72000     -2.4570889E-08
   27.78000     -2.2183155E-08
   27.84000     -1.9832349E-08
   27.90000     -1.7564027E-08
   27.96000     -1.5409125E-08
   28.02000     -1.3384754E-08
   28.08000     -1.1501973E-08
   28.14000     -9.7774606E-09
   28.20000     -8.2429823E-09
   28.26000     -6.9462067E-09
   28.32000     -5.9398890E-09
   28.38000     -5.2621787E-09
   28.44000     -4.9162541E-09
   28.50000     -4.8593765E-09
   28.56000     -5.0083928E-09
   28.62000     -5.2615241E-09
   28.68000     -5.5283884E-09
   28.74000     -5.7555494E-09
   28.80000     -5.9361285E-09
   28.86000     -6.0989205E-09
   28.92000     -6.2819003E-09
   28.98000     -6.5023924E-09
   29.04000     -6.7378196E-09
   29.10000     -6.9259927E-09
   29.16000     -6.9846884E-09
   29.22000     -6.8413932E-09
   29.28000     -6.4597980E-09
   29.34000     -5.8518426E-09
   29.40000     -5.0714277E-09
   29.46000     -4.1944186E-09
   29.52000     -3.2950414E-09
   29.58000     -2.4287954E-09
   29.64000     -1.6271757E-09
   29.70000     -9.0289393E-10
   29.76000     -2.5951560E-10
   29.82000      3.0114924E-10
   29.88000      7.7734513E-10
   29.94000      1.1701425E-09
   30.00000      1.4864061E-09
   30.06000      1.7379242E-09
   30.12000      1.9357849E-09
   30.18000      2.0828557E-09
   30.24000      2.1691109E-09
   30.30000      2.1733315E-09
   30.36000      2.0711093E-09
   30.42000      1.8453584E-09
   30.48000      1.4939697E-09
   30.54000      1.0308144E-09
   30.60000      4.8004778E-10
   30.66000     -1.3264648E-10
   30.72000     -7.8679346E-10
   30.78000     -1.4683410E-09
   30.84000     -2.1654314E-09
   30.90000     -2.8621732E-09
   30.96000     -3.5349832E-09
   31.02000     -4.1543591E-09
   31.08000     -4.6915090E-09
   31.14000     -5.1263025E-09
   31.20000     -5.4523466E-09
   31.26000     -5.6769953E-09
   31.32000     -5.8174048E-09
   31.38000     -5.8961418E-09
   31.44000     -5.9395888E-09
   31.50000     -5.9796181E-09
   31.56000     -6.0554348E-09
   31.62000     -6.2107981E-09
   31.68000     -6.4836025E-09
   31.74000     -6.8895831E-09
   31.80000     -7.4070434E-09
   31.86000     -7.9717086E-09
   31.92000     -8.4879259E-09
   31.98000     -8.8552072E-09
   32.04000     -9.0009289E-09
   32.10000     -8.9053049E-09
   32.16000     -8.6065999E-09
   32.22000     -8.1827984E-09
   32.28000     -7.7168032E-09
   32.34000     -7.2604123E-09
   32.40000     -6.8134001E-09
   32.46000     -6.3271814E-09
   32.52000     -5.7309242E-09
   32.58000     -4.9672688E-09
   32.64000     -4.0204156E-09
   32.70000     -2.9233809E-09
   32.76000     -1.7417059E-09
   32.82000     -5.4249222E-10
   32.88000      6.3538408E-10
   32.94000      1.7950744E-09
   33.00000      2.9730773E-09
   33.06000      4.2128572E-09
   33.12000      5.5341260E-09
   33.18000      6.9129147E-09
   33.24000      8.2819129E-09
   33.30000      9.5506127E-09
   33.36000      1.0635577E-08
   33.42000      1.1487083E-08
   33.48000      1.2101066E-08
   33.54000      1.2512832E-08
   33.60000      1.2777410E-08
   33.66000      1.2946581E-08
   33.72000      1.3052372E-08
   33.78000      1.3102289E-08
   33.84000      1.3085300E-08
   33.90000      1.2983312E-08
   33.96000      1.2781990E-08
   34.02000      1.2477070E-08
   34.08000      1.2075683E-08
   34.14000      1.1594395E-08
   34.20000      1.1055853E-08
   34.26000      1.0484680E-08
   34.32000      9.9022790E-09
   34.38000      9.3206278E-09
   34.44000      8.7367642E-09
   34.50000      8.1310860E-09
   34.56000      7.4721456E-09
   34.62000      6.7277646E-09
   34.68000      5.8784471E-09
   34.74000      4.9265365E-09
   34.80000      3.8955035E-09
   34.86000      2.8182781E-09
   34.92000      1.7195247E-09
   34.98000      6.0079686E-10
   35.04000     -5.6304300E-10
   35.10000     -1.8131270E-09
   35.16000     -3.1861336E-09
   35.22000     -4.6942232E-09
   35.28000     -6.3158794E-09
   35.34000     -8.0028428E-09
   35.40000     -9.6999866E-09
   35.46000     -1.1368180E-08
   35.52000     -1.2998594E-08
   35.58000     -1.4611573E-08
   35.64000     -1.6241421E-08
   35.70000     -1.7915800E-08
   35.76000     -1.9640821E-08
   35.82000     -2.1399071E-08
   35.88000     -2.3160112E-08
   35.94000     -2.4895881E-08
   36.00000     -2.6590921E-08
   36.06000     -2.8241164E-08
   36.12000     -2.9842397E-08
   36.18000     -3.1376622E-08
   36.24000     -3.2806572E-08
   36.30000     -3.4084422E-08
   36.36000     -3.5172345E-08
   36.42000     -3.6064918E-08
   36.48000     -3.6800717E-08
   36.54000     -3.7454985E-08
   36.60000     -3.8114578E-08
   36.66000     -3.8845617E-08
   36.72000     -3.9668571E-08
   36.78000     -4.0552258E-08
   36.84000     -4.1429175E-08
   36.90000     -4.2224645E-08
   36.96000     -4.2886168E-08
   37.02000     -4.3400245E-08
   37.08000     -4.3790809E-08
   37.14000     -4.4102137E-08
   37.20000     -4.4375671E-08
   37.26000     -4.4631086E-08
   37.32000     -4.4858403E-08
   37.38000     -4.5022066E-08
   37.44000     -4.5073300E-08
   37.50000     -4.4965606E-08
   37.56000     -4.4669129E-08
   37.62000     -4.4181494E-08
   37.68000     -4.3533415E-08
   37.74000     -4.2786976E-08
   37.80000     -4.2024567E-08
   37.86000     -4.1328423E-08
   37.92000     -4.0754919E-08
   37.98000     -4.0312607E-08
   38.04000     -3.9954571E-08
   38.10000     -3.9592173E-08
   38.16000     -3.9128452E-08
   38.22000     -3.8499259E-08
   38.28000     -3.7704130E-08
   38.34000     -3.6811016E-08
   38.40000     -3.5929784E-08
   38.46000     -3.5164209E-08
   38.52000     -3.4563705E-08
   38.58000     -3.4097795E-08
   38.64000     -3.3666716E-08
   38.70000     -3.3144715E-08
   38.76000     -3.2436429E-08
   38.82000     -3.1520202E-08
   38.88000     -3.0457961E-08
   38.94000     -2.9367451E-08
   39.00000     -2.8370392E-08
   39.06000     -2.7541290E-08
   39.12000     -2.6880146E-08
   39.18000     -2.6319990E-08
   39.24000     -2.5763052E-08
   39.30000     -2.5126585E-08
   39.36000     -2.4376630E-08
   39.42000     -2.3536025E-08
   39.48000     -2.2666638E-08
   39.54000     -2.1837852E-08
   39.60000     -2.1097829E-08
   39.66000     -2.0459874E-08
   39.72000     -1.9906587E-08
   39.78000     -1.9405388E-08
   39.84000     -1.8924993E-08
   39.90000     -1.8444924E-08
   39.96000     -1.7956390E-08
   40.02000     -1.7458662E-08
   40.08000     -1.6956580E-08
   40.14000     -1.6461916E-08
   40.20000     -1.5996429E-08
   40.26000     -1.5591324E-08
   40.32000     -1.5279168E-08
   40.38000     -1.5079241E-08
   40.44000     -1.4983009E-08
   40.50000     -1.4948624E-08
   40.56000     -1.4910196E-08
   40.62000     -1.4800224E-08
   40.68000     -1.4575989E-08
   40.74000     -1.4237382E-08
   40.80000     -1.3827027E-08
   40.86000     -1.3412031E-08
   40.92000     -1.3056018E-08
   40.98000     -1.2795009E-08
   41.04000     -1.2628456E-08
   41.10000     -1.2528517E-08
   41.16000     -1.2460927E-08
   41.22000     -1.2405087E-08
   41.28000     -1.2362296E-08
   41.34000     -1.2348553E-08
   41.40000     -1.2377580E-08
   41.46000     -1.2445323E-08
   41.52000     -1.2525978E-08
   41.58000     -1.2582298E-08
   41.64000     -1.2584090E-08
   41.70000     -1.2523626E-08
   41.76000     -1.2418314E-08
   41.82000     -1.2298601E-08
   41.88000     -1.2188010E-08
   41.94000     -1.2087318E-08
   42.00000     -1.1972869E-08
   42.06000     -1.1810902E-08
   42.12000     -1.1580312E-08
   42.18000     -1.1290786E-08
   42.24000     -1.0985138E-08
   42.30000     -1.0723007E-08
   42.36000     -1.0553270E-08
   42.42000     -1.0488979E-08
   42.48000     -1.0497819E-08
   42.54000     -1.0513409E-08
   42.60000     -1.0462366E-08
   42.66000     -1.0294380E-08
   42.72000     -1.0001361E-08
   42.78000     -9.6173283E-09
   42.84000     -9.2001180E-09
   42.90000     -8.8041405E-09
   42.96000     -8.4568859E-09
   43.02000     -8.1491986E-09
   43.08000     -7.8424653E-09
   43.14000     -7.4882767E-09
   43.20000     -7.0512174E-09
   43.26000     -6.5249077E-09
   43.32000     -5.9349881E-09
   43.38000     -5.3283782E-09
   43.44000     -4.7534274E-09
   43.50000     -4.2386286E-09
   43.56000     -3.7776333E-09
   43.62000     -3.3257548E-09
   43.68000     -2.8090938E-09
   43.74000     -2.1432034E-09
   43.80000     -1.2549863E-09
   43.86000     -1.0019043E-10
   43.92000      1.3302092E-09
   43.98000      3.0182687E-09
   44.04000      4.9407762E-09
   44.10000      7.0982065E-09
   44.16000      9.5413242E-09
   44.22000      1.2385571E-08
   44.28000      1.5807176E-08
   44.34000      2.0021826E-08
   44.40000      2.5254398E-08
   44.46000      3.1713203E-08
   44.52000      3.9581813E-08
   44.58000      4.9035233E-08
   44.64000      6.0277358E-08
   44.70000      7.3587543E-08
   44.76000      8.9360093E-08
   44.82000      1.0812377E-07
   44.88000      1.3053815E-07
   44.94000      1.5737415E-07
   45.00000      1.8949433E-07
   45.06000      2.2784890E-07
   45.12000      2.7349645E-07
   45.18000      3.2764848E-07
   45.24000      3.9172670E-07
   45.30000      4.6741886E-07
   45.36000      5.5672120E-07
   45.42000      6.6196424E-07
   45.48000      7.8582724E-07
   45.54000      9.3135321E-07
   45.60000      1.1019763E-06
   45.66000      1.3015677E-06
   45.72000      1.5345009E-06
   45.78000      1.8057268E-06
   45.84000      2.1208532E-06
   45.90000      2.4862209E-06
   45.96000      2.9089745E-06
   46.02000      3.3971344E-06
   46.08000      3.9596725E-06
   46.14000      4.6065998E-06
   46.20000      5.3490644E-06
   46.26000      6.1994501E-06
   46.32000      7.1714853E-06
   46.38000      8.2803454E-06
   46.44000      9.5427631E-06
   46.50000      1.0977133E-05
   46.56000      1.2603621E-05
   46.62000      1.4444288E-05
   46.68000      1.6523183E-05
   46.74000      1.8866456E-05
   46.80000      2.1502430E-05
   46.86000      2.4461700E-05
   46.92000      2.7777189E-05
   46.98000      3.1484225E-05
   47.04000      3.5620593E-05
   47.10000      4.0226590E-05
   47.16000      4.5345027E-05
   47.22000      5.1021230E-05
   47.28000      5.7303001E-05
   47.34000      6.4240528E-05
   47.40000      7.1886316E-05
   47.46000      8.0295060E-05
   47.52000      8.9523521E-05
   47.58000      9.9630350E-05
   47.64000      1.1067585E-04
   47.70000      1.2272173E-04
   47.76000      1.3583075E-04
   47.82000      1.5006636E-04
   47.88000      1.6549230E-04
   47.94000      1.8217214E-04
   48.00000      2.0016883E-04
   48.06000      2.1954419E-04
   48.12000      2.4035841E-04
   48.18000      2.6266946E-04
   48.24000      2.8653236E-04
   48.30000      3.1199862E-04
   48.36000      3.3911550E-04
   48.42000      3.6792533E-04
   48.48000      3.9846485E-04
   48.54000      4.3076460E-04
   48.60000      4.6484810E-04
   48.66000      5.0073134E-04
   48.72000      5.3842203E-04
   48.78000      5.7791895E-04
   48.84000      6.1921147E-04
   48.90000      6.6227891E-04
   48.96000      7.0709025E-04
   49.02000      7.5360364E-04
   49.08000      8.0176641E-04
   49.14000      8.5151463E-04
   49.20000      9.0277335E-04
   49.26000      9.5545617E-04
   49.32000      1.0094655E-03
   49.38000      1.0646931E-03
   49.44000      1.1210202E-03
   49.50000      1.1783181E-03
   49.56000      1.2364489E-03
   49.62000      1.2952664E-03
   49.68000      1.3546168E-03
   49.74000      1.4143399E-03
   49.80000      1.4742699E-03
   49.86000      1.5342372E-03
   49.92000      1.5940694E-03
   49.98000      1.6535929E-03
   50.04000      1.7126341E-03
   50.10000      1.7710215E-03
   50.16000      1.8285870E-03
   50.22000      1.8851669E-03
   50.28000      1.9406043E-03
   50.34000      1.9947502E-03
   50.40000      2.0474659E-03
   50.46000      2.0986232E-03
   50.52000      2.1481062E-03
   50.58000      2.1958132E-03
   50.64000      2.2416576E-03
   50.70000      2.2855678E-03
   50.76000      2.3274887E-03
   50.82000      2.3673836E-03
   50.88000      2.4052314E-03
   50.94000      2.4410300E-03
   51.00000      2.4747956E-03
   51.06000      2.5065616E-03
   51.12000      2.5363790E-03
   51.18000      2.5643152E-03
   51.24000      2.5904535E-03
   51.30000      2.6148912E-03
   51.36000      2.6377400E-03
   51.42000      2.6591222E-03
   51.48000      2.6791724E-03
   51.54000      2.6980333E-03
   51.60000      2.7158542E-03
   51.66000      2.7327898E-03
   51.72000      2.7489967E-03
   51.78000      2.7646334E-03
   51.84000      2.7798566E-03
   51.90000      2.7948192E-03
   51.96000      2.8096696E-03
   52.02000      2.8245482E-03
   52.08000      2.8395862E-03
   52.14000      2.8549046E-03
   52.20000      2.8706111E-03
   52.26000      2.8867992E-03
   52.32000      2.9035481E-03
   52.38000      2.9209203E-03
   52.44000      2.9389607E-03
   52.50000      2.9576980E-03
   52.56000      2.9771414E-03
   52.62000      2.9972838E-03
   52.68000      3.0180989E-03
   52.74000      3.0395440E-03
   52.80000      3.0615595E-03
   52.86000      3.0840712E-03
   52.92000      3.1069892E-03
   52.98000      3.1302115E-03
   53.04000      3.1536240E-03
   53.10000      3.1771027E-03
   53.16000      3.2005154E-03
   53.22000      3.2237247E-03
   53.28000      3.2465889E-03
   53.34000      3.2689641E-03
   53.40000      3.2907061E-03
   53.46000      3.3116727E-03
   53.52000      3.3317260E-03
   53.58000      3.3507338E-03
   53.64000      3.3685726E-03
   53.70000      3.3851271E-03
   53.76000      3.4002943E-03
   53.82000      3.4139832E-03
   53.88000      3.4261155E-03
   53.94000      3.4366276E-03
   54.00000      3.4454702E-03
   54.06000      3.4526098E-03
   54.12000      3.4580289E-03
   54.18000      3.4617262E-03
   54.24000      3.4637153E-03
   54.30000      3.4640247E-03
   54.36000      3.4626969E-03
   54.42000      3.4597875E-03
   54.48000      3.4553646E-03
   54.54000      3.4495071E-03
   54.60000      3.4423037E-03
   54.66000      3.4338501E-03
   54.72000      3.4242484E-03
   54.78000      3.4136043E-03
   54.84000      3.4020271E-03
   54.90000      3.3896263E-03
   54.96000      3.3765112E-03
   55.02000      3.3627884E-03
   55.08000      3.3485603E-03
   55.14000      3.3339225E-03
   55.20000      3.3189629E-03
   55.26000      3.3037600E-03
   55.32000      3.2883834E-03
   55.38000      3.2728910E-03
   55.44000      3.2573300E-03
   55.50000      3.2417357E-03
   55.56000      3.2261300E-03