  -2.400000      0.0000000E+00
  -2.340000      0.0000000E+00
  -2.280000      0.0000000E+00
  -2.220000      0.0000000E+00
  -2.160000      0.0000000E+00
  -2.100000      3.7098482E-20
  -2.040000      2.7712344E-19
  -1.980000      9.9107673E-19
  -1.920000      2.0342710E-18
  -1.860000      1.6656267E-18
  -1.800000     -4.4511122E-18
  -1.740000     -2.1899696E-17
  -1.680000     -5.1563931E-17
  -1.620000     -7.9669947E-17
  -1.560000     -7.0034358E-17
  -1.500000      3.0344320E-17
  -1.440000      2.6280102E-16
  -1.380000      6.0813403E-16
  -1.320000      9.3949708E-16
  -1.260000      1.0150858E-15
  -1.200000      5.4589802E-16
  -1.140000     -6.5595682E-16
  -1.080000     -2.4927040E-15
  -1.020000     -4.4507012E-15
 -0.9600000     -5.6281185E-15
 -0.9000000     -4.9835349E-15
 -0.8400000     -1.7779395E-15
 -0.7800000      3.9277871E-15
 -0.7200000      1.0940055E-14
 -0.6600000      1.6989218E-14
 -0.6000000      1.9297913E-14
 -0.5400000      1.5582101E-14
 -0.4800000      5.1671182E-15
 -0.4200000     -1.0266972E-14
 -0.3600000     -2.6773099E-14
 -0.3000000     -3.9239204E-14
 -0.2400000     -4.3207798E-14
 -0.1800000     -3.6652654E-14
 -0.1200000     -2.0795264E-14
 -5.9999999E-02  6.0169785E-16
  0.0000000E+00  2.3219352E-14
  5.9999999E-02  4.4330652E-14
  0.1200000      6.3627441E-14
  0.1800000      8.1786005E-14
  0.2400000      9.7203753E-14
  0.3000000      1.0286840E-13
  0.3600000      8.6022613E-14
  0.4200000      3.2445810E-14
  0.4800000     -6.5134726E-14
  0.5400000     -1.9775499E-13
  0.6000000     -3.3500465E-13
  0.6600000     -4.2829886E-13
  0.7200000     -4.2404697E-13
  0.7800000     -2.8379916E-13
  0.8400000     -4.6246758E-15
  0.9000000      3.6858242E-13
  0.9600000      7.4559261E-13
   1.020000      1.0104750E-12
   1.080000      1.0548801E-12
   1.140000      8.1599029E-13
   1.200000      3.0681290E-13
   1.260000     -3.7326563E-13
   1.320000     -1.0552526E-12
   1.380000     -1.5439878E-12
   1.440000     -1.6776822E-12
   1.500000     -1.3849533E-12
   1.560000     -7.1846283E-13
   1.620000      1.4997847E-13
   1.680000      9.7505359E-13
   1.740000      1.5111306E-12
   1.800000      1.5884617E-12
   1.860000      1.1660488E-12
   1.920000      3.4377218E-13
   1.980000     -6.6792177E-13
   2.040000     -1.6072481E-12
   2.100000     -2.2275285E-12
   2.160000     -2.3506269E-12
   2.220000     -1.8958099E-12
   2.280000     -8.8302423E-13
   2.340000      5.8263041E-13
   2.400000      2.3350690E-12
   2.460000      4.1697305E-12
   2.520000      5.8556176E-12
   2.580000      7.1314586E-12
   2.640000      7.6873855E-12
   2.700000      7.1444335E-12
   2.760000      5.0553142E-12
   2.820000      9.5406170E-13
   2.880000     -5.5281981E-12
   2.940000     -1.4490030E-11
   3.000000     -2.5570381E-11
   3.060000     -3.7807917E-11
   3.120000     -4.9612699E-11
   3.180000     -5.8884418E-11
   3.240000     -6.3262610E-11
   3.300000     -6.0447251E-11
   3.360000     -4.8503354E-11
   3.420000     -2.6070455E-11
   3.480000      7.5665776E-12
   3.540000      5.2539053E-11
   3.600000      1.0853637E-10
   3.660000      1.7494789E-10
   3.720000      2.5092170E-10
   3.780000      3.3528536E-10
   3.840000      4.2632967E-10
   3.900000      5.2153026E-10
   3.960000      6.1734795E-10
   4.020000      7.0927114E-10
   4.080000      7.9221507E-10
   4.140000      8.6126839E-10
   4.200000      9.1262065E-10
   4.260000      9.4438213E-10
   4.320000      9.5699815E-10
   4.380000      9.5308261E-10
   4.440000      9.3671593E-10
   4.500000      9.1246843E-10
   4.560000      8.8451546E-10
   4.620000      8.5614055E-10
   4.680000      8.2972518E-10
   4.740000      8.0707918E-10
   4.800000      7.8982043E-10
   4.860000      7.7952550E-10
   4.920000      7.7753687E-10
   4.980000      7.8453272E-10
   5.040000      8.0011819E-10
   5.100000      8.2270846E-10
   5.160000      8.4984414E-10
   5.220000      8.7887470E-10
   5.280000      9.0777857E-10
   5.340000      9.3582531E-10
   5.400000      9.6384434E-10
   5.460000      9.9401398E-10
   5.520000      1.0292462E-09
   5.580000      1.0723520E-09
   5.640000      1.1252146E-09
   5.700000      1.1881641E-09
   5.760000      1.2596801E-09
   5.820000      1.3364694E-09
   5.880000      1.4139020E-09
   5.940000      1.4867240E-09
   6.000000      1.5499046E-09
   6.060000      1.5994311E-09
   6.120000      1.6328494E-09
   6.180000      1.6494204E-09
   6.240000      1.6499043E-09
   6.300000      1.6361555E-09
   6.360000      1.6108327E-09
   6.420000      1.5774863E-09
   6.480000      1.5410612E-09
   6.540000      1.5085517E-09
   6.600000      1.4893070E-09
   6.660000      1.4945327E-09
   6.720000      1.5358583E-09
   6.780000      1.6233667E-09
   6.840000      1.7638869E-09
   6.900000      1.9604045E-09
   6.960000      2.2130375E-09
   7.020000      2.5213280E-09
   7.080000      2.8869471E-09
   7.140000      3.3156393E-09
   7.200000      3.8175116E-09
   7.260000      4.4054516E-09
   7.320000      5.0922084E-09
   7.380000      5.8871752E-09
   7.440000      6.7939383E-09
   7.500000      7.8092857E-09
   7.560000      8.9237675E-09
   7.620000      1.0123369E-08
   7.680000      1.1391544E-08
   7.740000      1.2710874E-08
   7.800000      1.4063855E-08
   7.860000      1.5432784E-08
   7.920000      1.6799135E-08
   7.980000      1.8143032E-08
   8.040000      1.9443460E-08
   8.100000      2.0679359E-08
   8.160000      2.1831323E-08
   8.220000      2.2883118E-08
   8.280000      2.3822231E-08
   8.340000      2.4639048E-08
   8.400000      2.5324947E-08
   8.460000      2.5870156E-08
   8.520000      2.6262374E-08
   8.580000      2.6486779E-08
   8.640000      2.6527374E-08
   8.700000      2.6369179E-08
   8.760000      2.6000530E-08
   8.820000      2.5415130E-08
   8.880000      2.4613771E-08
   8.940000      2.3605947E-08
   9.000000      2.2411321E-08
   9.060000      2.1060771E-08
   9.120000      1.9596458E-08
   9.180000      1.8070454E-08
   9.240000      1.6541865E-08
   9.300000      1.5072773E-08
   9.360000      1.3723534E-08
   9.420000      1.2547847E-08
   9.480000      1.1587900E-08
   9.540000      1.0869699E-08
   9.600000      1.0398927E-08
   9.660000      1.0157853E-08
   9.720000      1.0104033E-08
   9.780000      1.0171371E-08
   9.840000      1.0273743E-08
   9.900000      1.0310973E-08
   9.960000      1.0176644E-08
   10.02000      9.7671489E-09
   10.08000      8.9912300E-09
   10.14000      7.7791737E-09
   10.20000      6.0904624E-09
   10.26000      3.9186063E-09
   10.32000      1.2921610E-09
   10.38000     -1.7283899E-09
   10.44000     -5.0572679E-09
   10.50000     -8.5922682E-09
   10.56000     -1.2224415E-08
   10.62000     -1.5847320E-08
   10.68000     -1.9365647E-08
   10.74000     -2.2702315E-08
   10.80000     -2.5803935E-08
   10.86000     -2.8643651E-08
   10.92000     -3.1220470E-08
   10.98000     -3.3554734E-08
   11.04000     -3.5680337E-08
   11.10000     -3.7635211E-08
   11.16000     -3.9452150E-08
   11.22000     -4.1151701E-08
   11.28000     -4.2738012E-08
   11.34000     -4.4197687E-08
   11.40000     -4.5501178E-08
   11.46000     -4.6606171E-08
   11.52000     -4.7462521E-08
   11.58000     -4.8018464E-08
   11.64000     -4.8227530E-08
   11.70000     -4.8055323E-08
   11.76000     -4.7485095E-08
   11.82000     -4.6521389E-08
   11.88000     -4.5191200E-08
   11.94000     -4.3542727E-08
   12.00000     -4.1641918E-08
   12.06000     -3.9566991E-08
   12.12000     -3.7401101E-08
   12.18000     -3.5223547E-08
   12.24000     -3.3100356E-08
   12.30000     -3.1075807E-08
   12.36000     -2.9166642E-08
   12.42000     -2.7360709E-08
   12.48000     -2.5620762E-08
   12.54000     -2.3893177E-08
   12.60000     -2.2120057E-08
   12.66000     -2.0252489E-08
   12.72000     -1.8262327E-08
   12.78000     -1.6150119E-08
   12.84000     -1.3947462E-08
   12.90000     -1.1713094E-08
   12.96000     -9.5233919E-09
   13.02000     -7.4591915E-09
   13.08000     -5.5918865E-09
   13.14000     -3.9719148E-09
   13.20000     -2.6220783E-09
   13.26000     -1.5366780E-09
   13.32000     -6.8573447E-10
   13.38000     -2.2250719E-11
   13.44000      5.0996679E-10
   13.50000      9.6986297E-10
   13.56000      1.4148451E-09
   13.62000      1.8982336E-09
   13.68000      2.4673903E-09
   13.74000      3.1616181E-09
   13.80000      4.0096224E-09
   13.86000      5.0271378E-09
   13.92000      6.2156986E-09
   13.98000      7.5632336E-09
   14.04000      9.0463850E-09
   14.10000      1.0633582E-08
   14.16000      1.2287583E-08
   14.22000      1.3966463E-08
   14.28000      1.5623046E-08
   14.34000      1.7203748E-08
   14.40000      1.8648455E-08
   14.46000      1.9892912E-08
   14.52000      2.0874236E-08
   14.58000      2.1538913E-08
   14.64000      2.1851609E-08
   14.70000      2.1802558E-08
   14.76000      2.1411546E-08
   14.82000      2.0727285E-08
   14.88000      1.9822103E-08
   14.94000      1.8783014E-08
   15.00000      1.7700982E-08
   15.06000      1.6660609E-08
   15.12000      1.5732148E-08
   15.18000      1.4967060E-08
   15.24000      1.4397261E-08
   15.30000      1.4037192E-08
   15.36000      1.3887313E-08
   15.42000      1.3937504E-08
   15.48000      1.4169475E-08
   15.54000      1.4557994E-08
   15.60000      1.5071443E-08
   15.66000      1.5672384E-08
   15.72000      1.6318634E-08
   15.78000      1.6964927E-08
   15.84000      1.7564968E-08
   15.90000      1.8073667E-08
   15.96000      1.8449615E-08
   16.02000      1.8658078E-08
   16.08000      1.8674823E-08
   16.14000      1.8490574E-08
   16.20000      1.8115294E-08
   16.26000      1.7580907E-08
   16.32000      1.6940865E-08
   16.38000      1.6265480E-08
   16.44000      1.5632947E-08
   16.50000      1.5117301E-08
   16.56000      1.4775761E-08
   16.62000      1.4638474E-08
   16.68000      1.4703474E-08
   16.74000      1.4938541E-08
   16.80000      1.5289825E-08
   16.86000      1.5695257E-08
   16.92000      1.6099266E-08
   16.98000      1.6464861E-08
   17.04000      1.6779840E-08
   17.10000      1.7055635E-08
   17.16000      1.7319422E-08
   17.22000      1.7602153E-08
   17.28000      1.7926368E-08
   17.34000      1.8297589E-08
   17.40000      1.8702009E-08
   17.46000      1.9111154E-08
   17.52000      1.9491933E-08
   17.58000      1.9818595E-08
   17.64000      2.0082359E-08
   17.70000      2.0295076E-08
   17.76000      2.0485315E-08
   17.82000      2.0688010E-08
   17.88000      2.0931271E-08
   17.94000      2.1225222E-08
   18.00000      2.1556996E-08
   18.06000      2.1893699E-08
   18.12000      2.2192088E-08
   18.18000      2.2411182E-08
   18.24000      2.2523109E-08
   18.30000      2.2518490E-08
   18.36000      2.2405048E-08
   18.42000      2.2200696E-08
   18.48000      2.1924258E-08
   18.54000      2.1587333E-08
   18.60000      2.1189951E-08
   18.66000      2.0720929E-08
   18.72000      2.0162222E-08
   18.78000      1.9495321E-08
   18.84000      1.8707325E-08
   18.90000      1.7794710E-08
   18.96000      1.6763625E-08
   19.02000      1.5626737E-08
   19.08000      1.4397749E-08
   19.14000      1.3085582E-08
   19.20000      1.1690410E-08
   19.26000      1.0203226E-08
   19.32000      8.6095460E-09
   19.38000      6.8963915E-09
   19.44000      5.0604627E-09
   19.50000      3.1147251E-09
   19.56000      1.0908142E-09
   19.62000     -9.6427821E-10
   19.68000     -2.9970737E-09
   19.74000     -4.9599791E-09
   19.80000     -6.8236159E-09
   19.86000     -8.5850811E-09
   19.92000     -1.0268987E-08
   19.98000     -1.1920298E-08
   20.04000     -1.3590863E-08
   20.10000     -1.5323959E-08
   20.16000     -1.7142257E-08
   20.22000     -1.9043602E-08
   20.28000     -2.1006221E-08
   20.34000     -2.3001419E-08
   20.40000     -2.5009053E-08
   20.46000     -2.7029863E-08
   20.52000     -2.9090129E-08
   20.58000     -3.1236794E-08
   20.64000     -3.3524728E-08
   20.70000     -3.6000433E-08
   20.76000     -3.8687606E-08
   20.82000     -4.1579298E-08
   20.88000     -4.4639261E-08
   20.94000     -4.7812168E-08
   21.00000     -5.1039532E-08
   21.06000     -5.4276288E-08
   21.12000     -5.7502586E-08
   21.18000     -6.0726570E-08
   21.24000     -6.3976920E-08
   21.30000     -6.7287090E-08
   21.36000     -7.0676279E-08
   21.42000     -7.4133254E-08
   21.48000     -7.7608597E-08
   21.54000     -8.1018044E-08
   21.60000     -8.4256200E-08
   21.66000     -8.7216769E-08
   21.72000     -8.9813625E-08
   21.78000     -9.1996945E-08
   21.84000     -9.3760342E-08
   21.90000     -9.5137459E-08
   21.96000     -9.6189588E-08
   22.02000     -9.6988011E-08
   22.08000     -9.7596320E-08
   22.14000     -9.8057839E-08
   22.20000     -9.8391141E-08
   22.26000     -9.8594242E-08
   22.32000     -9.8654795E-08
   22.38000     -9.8561728E-08
   22.44000     -9.8313535E-08
   22.50000     -9.7920072E-08
   22.56000     -9.7397596E-08
   22.62000     -9.6759514E-08
   22.68000     -9.6006985E-08
   22.74000     -9.5123333E-08
   22.80000     -9.4074743E-08
   22.86000     -9.2817466E-08
   22.92000     -9.1309502E-08
   22.98000     -8.9523489E-08
   23.04000     -8.7456876E-08
   23.10000     -8.5136186E-08
   23.16000     -8.2613361E-08
   23.22000     -7.9954511E-08
   23.28000     -7.7223504E-08
   23.34000     -7.4464850E-08
   23.40000     -7.1691126E-08
   23.46000     -6.8879238E-08
   23.52000     -6.5977353E-08
   23.58000     -6.2921053E-08
   23.64000     -5.9654369E-08
   23.70000     -5.6149783E-08
   23.76000     -5.2421424E-08
   23.82000     -4.8527980E-08
   23.88000     -4.4564509E-08
   23.94000     -4.0645336E-08
   24.00000     -3.6882469E-08
   24.06000     -3.3364927E-08
   24.12000     -3.0144069E-08
   24.18000     -2.7228291E-08
   24.24000     -2.4587754E-08
   24.30000     -2.2167203E-08
   24.36000     -1.9902517E-08
   24.42000     -1.7736072E-08
   24.48000     -1.5626936E-08
   24.54000     -1.3554127E-08
   24.60000     -1.1513788E-08
   24.66000     -9.5128545E-09
   24.72000     -7.5621784E-09
   24.78000     -5.6713758E-09
   24.84000     -3.8462158E-09
   24.90000     -2.0883368E-09
   24.96000     -3.9660125E-10
   25.02000      1.2305624E-09
   25.08000      2.7923255E-09
   25.14000      4.2827235E-09
   25.20000      5.6888898E-09
   25.26000      6.9912183E-09
   25.32000      8.1660048E-09
   25.38000      9.1901580E-09
   25.44000      1.0046528E-08
   25.50000      1.0727796E-08
   25.56000      1.1237224E-08
   25.62000      1.1585667E-08
   25.68000      1.1785787E-08
   25.74000      1.1845524E-08
   25.80000      1.1763222E-08
   25.86000      1.1526225E-08
   25.92000      1.1113525E-08
   25.98000      1.0501749E-08
   26.04000      9.6726787E-09
   26.10000      8.6200753E-09
   26.16000      7.3537119E-09
   26.22000      5.8992895E-09
   26.28000      4.2941029E-09
   26.34000      2.5795643E-09
   26.40000      7.9271334E-10
   26.46000     -1.0407543E-09
   26.52000     -2.9098244E-09
   26.58000     -4.8168873E-09
   26.64000     -6.7723311E-09
   26.70000     -8.7867971E-09
   26.76000     -1.0863582E-08
   26.82000     -1.2993510E-08
   26.88000     -1.5153768E-08
   26.94000     -1.7310928E-08
   27.00000     -1.9427160E-08
   27.06000     -2.1467823E-08
   27.12000     -2.3408200E-08
   27.18000     -2.5237552E-08
   27.24000     -2.6959334E-08
   27.30000     -2.8587609E-08
   27.36000     -3.0140775E-08
   27.42000     -3.1634606E-08
   27.48000     -3.3076823E-08
   27.54000     -3.4464897E-08
   27.60000     -3.5787664E-08
   27.66000     -3.7030016E-08
   27.72000     -3.8178793E-08
   27.78000     -3.9227725E-08
   27.84000     -4.0179646E-08
   27.90000     -4.1045372E-08
   27.96000     -4.1839865E-08
   28.02000     -4.2577348E-08
   28.08000     -4.3267221E-08
   28.14000     -4.3912230E-08
   28.20000     -4.4509409E-08
   28.26000     -4.5053106E-08
   28.32000     -4.5538773E-08
   28.38000     -4.5965912E-08
   28.44000     -4.6339018E-08
   28.50000     -4.6666131E-08
   28.56000     -4.6955691E-08
   28.62000     -4.7212872E-08
   28.68000     -4.7436927E-08
   28.74000     -4.7620567E-08
   28.80000     -4.7751701E-08
   28.86000     -4.7816979E-08
   28.92000     -4.7805742E-08
   28.98000     -4.7712891E-08
   29.04000     -4.7539363E-08
   29.10000     -4.7289614E-08
   29.16000     -4.6966839E-08
   29.22000     -4.6567365E-08
   29.28000     -4.6076565E-08
   29.34000     -4.5468383E-08
   29.40000     -4.4709601E-08
   29.46000     -4.3768388E-08
   29.52000     -4.2624944E-08
   29.58000     -4.1280973E-08
   29.64000     -3.9764643E-08
   29.70000     -3.8129077E-08
   29.76000     -3.6444451E-08
   29.82000     -3.4785867E-08
   29.88000     -3.3220349E-08
   29.94000     -3.1796496E-08
   30.00000     -3.0538949E-08
   30.06000     -2.9448529E-08
   30.12000     -2.8507296E-08
   30.18000     -2.7686971E-08
   30.24000     -2.6958897E-08
   30.30000     -2.6303624E-08
   30.36000     -2.5718331E-08
   30.42000     -2.5220375E-08
   30.48000     -2.4845868E-08
   30.54000     -2.4643063E-08
   30.60000     -2.4661857E-08
   30.66000     -2.4942000E-08
   30.72000     -2.5503249E-08
   30.78000     -2.6340270E-08
   30.84000     -2.7423722E-08
   30.90000     -2.8706946E-08
   30.96000     -3.0136231E-08
   31.02000     -3.1661600E-08
   31.08000     -3.3245421E-08
   31.14000     -3.4866876E-08
   31.20000     -3.6521541E-08
   31.26000     -3.8216694E-08
   31.32000     -3.9963723E-08
   31.38000     -4.1769866E-08
   31.44000     -4.3631470E-08
   31.50000     -4.5530669E-08
   31.56000     -4.7436270E-08
   31.62000     -4.9308529E-08
   31.68000     -5.1106152E-08
   31.74000     -5.2793553E-08
   31.80000     -5.4346504E-08
   31.86000     -5.5755155E-08
   31.92000     -5.7024472E-08
   31.98000     -5.8172436E-08
   32.04000     -5.9226608E-08
   32.10000     -6.0219243E-08
   32.16000     -6.1180977E-08
   32.22000     -6.2133644E-08
   32.28000     -6.3083341E-08
   32.34000     -6.4015836E-08
   32.40000     -6.4896277E-08
   32.46000     -6.5674357E-08
   32.52000     -6.6294213E-08
   32.58000     -6.6706512E-08
   32.64000     -6.6879124E-08
   32.70000     -6.6802869E-08
   32.76000     -6.6490784E-08
   32.82000     -6.5971250E-08
   32.88000     -6.5277796E-08
   32.94000     -6.4439142E-08
   33.00000     -6.3472591E-08
   33.06000     -6.2382391E-08
   33.12000     -6.1162666E-08
   33.18000     -5.9802979E-08
   33.24000     -5.8294340E-08
   33.30000     -5.6633699E-08
   33.36000     -5.4826273E-08
   33.42000     -5.2885838E-08
   33.48000     -5.0833545E-08
   33.54000     -4.8695536E-08
   33.60000     -4.6499260E-08
   33.66000     -4.4268379E-08
   33.72000     -4.2016854E-08
   33.78000     -3.9743707E-08
   33.84000     -3.7430784E-08
   33.90000     -3.5045606E-08
   33.96000     -3.2549863E-08
   34.02000     -2.9911906E-08
   34.08000     -2.7119649E-08
   34.14000     -2.4189392E-08
   34.20000     -2.1167189E-08
   34.26000     -1.8121614E-08
   34.32000     -1.5129755E-08
   34.38000     -1.2260295E-08
   34.44000     -9.5584216E-09
   34.50000     -7.0365540E-09
   34.56000     -4.6732009E-09
   34.62000     -2.4201718E-09
   34.68000     -2.1642915E-10
   34.74000      1.9946551E-09
   34.80000      4.2488417E-09
   34.86000      6.5496906E-09
   34.92000      8.8657330E-09
   34.98000      1.1137412E-08
   35.04000      1.3292119E-08
   35.10000      1.5262875E-08
   35.16000      1.7004622E-08
   35.22000      1.8502664E-08
   35.28000      1.9770528E-08
   35.34000      2.0838421E-08
   35.40000      2.1737081E-08
   35.46000      2.2483436E-08
   35.52000      2.3073595E-08
   35.58000      2.3485573E-08
   35.64000      2.3690001E-08
   35.70000      2.3664114E-08
   35.76000      2.3403116E-08
   35.82000      2.2924603E-08
   35.88000      2.2264727E-08
   35.94000      2.1468130E-08
   36.00000      2.0575817E-08
   36.06000      1.9615413E-08
   36.12000      1.8596761E-08
   36.18000      1.7513488E-08
   36.24000      1.6349185E-08
   36.30000      1.5085750E-08
   36.36000      1.3711352E-08
   36.42000      1.2226180E-08
   36.48000      1.0644803E-08
   36.54000      8.9947516E-09
   36.60000      7.3114821E-09
   36.66000      5.6308487E-09
   36.72000      3.9810999E-09
   36.78000      2.3771225E-09
   36.84000      8.1932405E-10
   36.90000     -7.0192513E-10
   36.96000     -2.1977109E-09
   37.02000     -3.6713821E-09
   37.08000     -5.1129994E-09
   37.14000     -6.5004362E-09
   37.20000     -7.8073050E-09
   37.26000     -9.0147232E-09
   37.32000     -1.0121958E-08
   37.38000     -1.1151159E-08
   37.44000     -1.2143602E-08
   37.50000     -1.3148185E-08
   37.56000     -1.4205886E-08
   37.62000     -1.5335425E-08
   37.68000     -1.6525075E-08
   37.74000     -1.7733607E-08
   37.80000     -1.8900632E-08
   37.86000     -1.9963609E-08
   37.92000     -2.0876783E-08
   37.98000     -2.1626379E-08
   38.04000     -2.2237176E-08
   38.10000     -2.2767971E-08
   38.16000     -2.3296657E-08
   38.22000     -2.3899098E-08
   38.28000     -2.4628028E-08
   38.34000     -2.5498512E-08
   38.40000     -2.6484452E-08
   38.46000     -2.7527250E-08
   38.52000     -2.8553844E-08
   38.58000     -2.9498628E-08
   38.64000     -3.0322493E-08
   38.70000     -3.1023365E-08
   38.76000     -3.1635178E-08
   38.82000     -3.2215763E-08
   38.88000     -3.2827444E-08
   38.94000     -3.3516336E-08
   39.00000     -3.4296814E-08
   39.06000     -3.5145803E-08
   39.12000     -3.6008661E-08
   39.18000     -3.6814562E-08
   39.24000     -3.7496353E-08
   39.30000     -3.8008668E-08
   39.36000     -3.8338879E-08
   39.42000     -3.8507949E-08
   39.48000     -3.8561623E-08
   39.54000     -3.8555047E-08
   39.60000     -3.8535685E-08
   39.66000     -3.8529372E-08
   39.72000     -3.8533294E-08
   39.78000     -3.8517552E-08
   39.84000     -3.8434806E-08
   39.90000     -3.8235218E-08
   39.96000     -3.7882433E-08
   40.02000     -3.7365822E-08
   40.08000     -3.6705028E-08
   40.14000     -3.5945149E-08
   40.20000     -3.5143714E-08
   40.26000     -3.4353690E-08
   40.32000     -3.3608046E-08
   40.38000     -3.2911160E-08
   40.44000     -3.2239747E-08
   40.50000     -3.1552673E-08
   40.56000     -3.0805801E-08
   40.62000     -2.9966507E-08
   40.68000     -2.9023102E-08
   40.74000     -2.7986760E-08
   40.80000     -2.6886358E-08
   40.86000     -2.5759007E-08
   40.92000     -2.4639863E-08
   40.98000     -2.3554321E-08
   41.04000     -2.2514323E-08
   41.10000     -2.1518924E-08
   41.16000     -2.0558218E-08
   41.22000     -1.9619078E-08
   41.28000     -1.8690935E-08
   41.34000     -1.7769949E-08
   41.40000     -1.6860266E-08
   41.46000     -1.5971942E-08
   41.52000     -1.5116203E-08
   41.58000     -1.4299916E-08
   41.64000     -1.3521658E-08
   41.70000     -1.2771211E-08
   41.76000     -1.2032999E-08
   41.82000     -1.1292172E-08
   41.88000     -1.0540880E-08
   41.94000     -9.7823358E-09
   42.00000     -9.0312540E-09
   42.06000     -8.3109093E-09
   42.12000     -7.6481470E-09
   42.18000     -7.0680235E-09
   42.24000     -6.5891617E-09
   42.30000     -6.2202115E-09
   42.36000     -5.9574154E-09
   42.42000     -5.7835234E-09
   42.48000     -5.6688041E-09
   42.54000     -5.5751044E-09
   42.60000     -5.4632916E-09
   42.66000     -5.3031433E-09
   42.72000     -5.0833098E-09
   42.78000     -4.8181379E-09
   42.84000     -4.5485340E-09
   42.90000     -4.3356110E-09
   42.96000     -4.2481352E-09
   43.02000     -4.3469588E-09
   43.08000     -4.6708171E-09
   43.14000     -5.2276539E-09
   43.20000     -5.9940310E-09
   43.26000     -6.9227037E-09
   43.32000     -7.9560065E-09
   43.38000     -9.0410843E-09
   43.44000     -1.0142723E-08
   43.50000     -1.1250599E-08
   43.56000     -1.2379568E-08
   43.62000     -1.3563589E-08
   43.68000     -1.4845361E-08
   43.74000     -1.6264583E-08
   43.80000     -1.7847981E-08
   43.86000     -1.9603881E-08
   43.92000     -2.1523121E-08
   43.98000     -2.3586564E-08
   44.04000     -2.5777251E-08
   44.10000     -2.8093210E-08
   44.16000     -3.0556013E-08
   44.22000     -3.3211080E-08
   44.28000     -3.6118752E-08
   44.34000     -3.9339074E-08
   44.40000     -4.2916479E-08
   44.46000     -4.6871246E-08
   44.52000     -5.1202289E-08
   44.58000     -5.5901410E-08
   44.64000     -6.0974628E-08
   44.70000     -6.6463613E-08
   44.76000     -7.2460800E-08
   44.82000     -7.9114855E-08
   44.88000     -8.6626692E-08
   44.94000     -9.5239599E-08
   45.00000     -1.0522737E-07
   45.06000     -1.1688429E-07
   45.12000     -1.3051898E-07
   45.18000     -1.4645384E-07
   45.24000     -1.6503125E-07
   45.30000     -1.8662766E-07
   45.36000     -2.1167570E-07
   45.42000     -2.4069161E-07
   45.48000     -2.7430355E-07
   45.54000     -3.1327411E-07
   45.60000     -3.5851221E-07
   45.66000     -4.1107330E-07
   45.72000     -4.7215264E-07
   45.78000     -5.4307992E-07
   45.84000     -6.2532462E-07
   45.90000     -7.2051751E-07
   45.96000     -8.3048644E-07
   46.02000     -9.5729990E-07
   46.08000     -1.1033076E-06
   46.14000     -1.2711693E-06
   46.20000     -1.4638726E-06
   46.26000     -1.6847392E-06
   46.32000     -1.9374306E-06
   46.38000     -2.2259601E-06
   46.44000     -2.5547147E-06
   46.50000     -2.9284872E-06
   46.56000     -3.3525148E-06
   46.62000     -3.8325202E-06
   46.68000     -4.3747496E-06
   46.74000     -4.9860105E-06
   46.80000     -5.6737044E-06
   46.86000     -6.4458541E-06
   46.92000     -7.3111228E-06
   46.98000     -8.2788256E-06
   47.04000     -9.3589360E-06
   47.10000     -1.0562084E-05
   47.16000     -1.1899550E-05
   47.22000     -1.3383264E-05
   47.28000     -1.5025790E-05
   47.34000     -1.6840328E-05
   47.40000     -1.8840681E-05
   47.46000     -2.1041245E-05
   47.52000     -2.3456987E-05
   47.58000     -2.6103373E-05
   47.64000     -2.8996341E-05
   47.70000     -3.2152209E-05
   47.76000     -3.5587615E-05
   47.82000     -3.9319384E-05
   47.88000     -4.3364464E-05
   47.94000     -4.7739806E-05
   48.00000     -5.2462223E-05
   48.06000     -5.7548252E-05
   48.12000     -6.3014020E-05
   48.18000     -6.8875088E-05
   48.24000     -7.5146294E-05
   48.30000     -8.1841594E-05
   48.36000     -8.8973931E-05
   48.42000     -9.6554999E-05
   48.48000     -1.0459509E-04
   48.54000     -1.1310291E-04
   48.60000     -1.2208540E-04
   48.66000     -1.3154751E-04
   48.72000     -1.4149211E-04
   48.78000     -1.5191981E-04
   48.84000     -1.6282877E-04
   48.90000     -1.7421467E-04
   48.96000     -1.8607052E-04
   49.02000     -1.9838655E-04
   49.08000     -2.1115017E-04
   49.14000     -2.2434586E-04
   49.20000     -2.3795522E-04
   49.26000     -2.5195690E-04
   49.32000     -2.6632671E-04
   49.38000     -2.8103756E-04
   49.44000     -2.9605970E-04
   49.50000     -3.1136067E-04
   49.56000     -3.2690546E-04
   49.62000     -3.4265692E-04
   49.68000     -3.5857581E-04
   49.74000     -3.7462107E-04
   49.80000     -3.9075027E-04
   49.86000     -4.0691966E-04
   49.92000     -4.2308468E-04
   49.98000     -4.3920023E-04
   50.04000     -4.5522113E-04
   50.10000     -4.7110245E-04
   50.16000     -4.8679987E-04
   50.22000     -5.0227018E-04
   50.28000     -5.1747158E-04
   50.34000     -5.3236418E-04
   50.40000     -5.4691057E-04
   50.46000     -5.6107593E-04
   50.52000     -5.7482836E-04
   50.58000     -5.8813934E-04
   50.64000     -6.0098380E-04
   50.70000     -6.1334064E-04
   50.76000     -6.2519294E-04
   50.82000     -6.3652825E-04
   50.88000     -6.4733840E-04
   50.94000     -6.5762008E-04
   51.00000     -6.6737417E-04
   51.06000     -6.7660620E-04
   51.12000     -6.8532617E-04
   51.18000     -6.9354841E-04
   51.24000     -7.0129154E-04
   51.30000     -7.0857804E-04
   51.36000     -7.1543391E-04
   51.42000     -7.2188833E-04
   51.48000     -7.2797335E-04
   51.54000     -7.3372357E-04
   51.60000     -7.3917577E-04
   51.66000     -7.4436807E-04
   51.72000     -7.4933964E-04
   51.78000     -7.5413036E-04
   51.84000     -7.5877982E-04
   51.90000     -7.6332712E-04
   51.96000     -7.6781027E-04
   52.02000     -7.7226578E-04
   52.08000     -7.7672815E-04
   52.14000     -7.8122941E-04
   52.20000     -7.8579830E-04
   52.26000     -7.9046044E-04
   52.32000     -7.9523766E-04
   52.38000     -8.0014806E-04
   52.44000     -8.0520543E-04
   52.50000     -8.1041944E-04
   52.56000     -8.1579521E-04
   52.62000     -8.2133349E-04
   52.68000     -8.2703034E-04
   52.74000     -8.3287759E-04
   52.80000     -8.3886279E-04
   52.86000     -8.4496941E-04
   52.92000     -8.5117761E-04
   52.98000     -8.5746404E-04
   53.04000     -8.6380250E-04
   53.10000     -8.7016425E-04
   53.16000     -8.7651855E-04
   53.22000     -8.8283262E-04
   53.28000     -8.8907266E-04
   53.34000     -8.9520408E-04
   53.40000     -9.0119214E-04
   53.46000     -9.0700242E-04
   53.52000     -9.1260159E-04
   53.58000     -9.1795786E-04
   53.64000     -9.2304131E-04
   53.70000     -9.2782441E-04
   53.76000     -9.3228213E-04
   53.82000     -9.3639264E-04
   53.88000     -9.4013754E-04
   53.94000     -9.4350224E-04
   54.00000     -9.4647566E-04
   54.06000     -9.4905077E-04
   54.12000     -9.5122424E-04
   54.18000     -9.5299666E-04
   54.24000     -9.5437258E-04
   54.30000     -9.5536048E-04
   54.36000     -9.5597230E-04
   54.42000     -9.5622352E-04
   54.48000     -9.5613266E-04
   54.54000     -9.5572096E-04
   54.60000     -9.5501199E-04
   54.66000     -9.5403095E-04
   54.72000     -9.5280493E-04
   54.78000     -9.5136167E-04
   54.84000     -9.4972976E-04
   54.90000     -9.4793789E-04
   54.96000     -9.4601430E-04
   55.02000     -9.4398641E-04
   55.08000     -9.4188022E-04
   55.14000     -9.3972014E-04
   55.20000     -9.3752862E-04
   55.26000     -9.3532546E-04
   55.32000     -9.3312783E-04
   55.38000     -9.3094993E-04
   55.44000     -9.2880259E-04
   55.50000     -9.2669332E-04
   55.56000     -9.2462637E-04