  -2.400000      0.0000000E+00
  -2.340000      0.0000000E+00
  -2.280000      0.0000000E+00
  -2.220000      0.0000000E+00
  -2.160000      0.0000000E+00
  -2.100000      3.4042119E-19
  -2.040000      2.1530558E-18
  -1.980000      6.0128114E-18
  -1.920000      7.3657555E-18
  -1.860000     -6.9960761E-18
  -1.800000     -5.0558391E-17
  -1.740000     -1.1045390E-16
  -1.680000     -1.1890729E-16
  -1.620000      3.4023160E-17
  -1.560000      4.0681065E-16
  -1.500000      8.5365209E-16
  -1.440000      9.3246649E-16
  -1.380000      4.7045593E-17
  -1.320000     -2.0918355E-15
  -1.260000     -4.8524574E-15
  -1.200000     -6.3676718E-15
  -1.140000     -4.0491406E-15
  -1.080000      3.8792534E-15
  -1.020000      1.6357670E-14
 -0.9600000      2.8230822E-14
 -0.9000000      3.1165954E-14
 -0.8400000      1.7341307E-14
 -0.7800000     -1.5162486E-14
 -0.7200000     -5.8023654E-14
 -0.6600000     -9.2702769E-14
 -0.6000000     -9.6736157E-14
 -0.5400000     -5.5045222E-14
 -0.4800000      2.8514175E-14
 -0.4200000      1.2596497E-13
 -0.3600000      1.9152979E-13
 -0.3000000      1.7980632E-13
 -0.2400000      6.9853723E-14
 -0.1800000     -1.1548558E-13
 -0.1200000     -3.0609567E-13
 -5.9999999E-02 -4.0304546E-13
  0.0000000E+00 -3.1628012E-13
  5.9999999E-02 -9.5406166E-15
  0.1200000      4.6529653E-13
  0.1800000      9.6175357E-13
  0.2400000      1.2699780E-12
  0.3000000      1.1827931E-12
  0.3600000      5.7946107E-13
  0.4200000     -5.0104799E-13
  0.4800000     -1.8287325E-12
  0.5400000     -3.0166321E-12
  0.6000000     -3.6241047E-12
  0.6600000     -3.3060473E-12
  0.7200000     -1.9593882E-12
  0.7800000      1.9364515E-13
  0.8400000      2.6342359E-12
  0.9000000      4.6991083E-12
  0.9600000      5.8147367E-12
   1.020000      5.7251907E-12
   1.080000      4.6085787E-12
   1.140000      3.0073266E-12
   1.200000      1.5719132E-12
   1.260000      7.1003229E-13
   1.320000      3.0176220E-13
   1.380000     -3.5394653E-13
   1.440000     -2.2730119E-12
   1.500000     -6.2512530E-12
   1.560000     -1.2259847E-11
   1.620000     -1.9056172E-11
   1.680000     -2.4262828E-11
   1.740000     -2.5006584E-11
   1.800000     -1.8967963E-11
   1.860000     -5.4689248E-12
   1.920000      1.3870520E-11
   1.980000      3.5274679E-11
   2.040000      5.3831144E-11
   2.100000      6.5084250E-11
   2.160000      6.6592239E-11
   2.220000      5.8756763E-11
   2.280000      4.4459283E-11
   2.340000      2.7520994E-11
   2.400000      1.0562893E-11
   2.460000     -6.7625441E-12
   2.520000     -2.8174714E-11
   2.580000     -5.9230967E-11
   2.640000     -1.0403033E-10
   2.700000     -1.6112793E-10
   2.760000     -2.2014689E-10
   2.820000     -2.6055713E-10
   2.880000     -2.5348765E-10
   2.940000     -1.6643752E-10
   3.000000      3.0282561E-11
   3.060000      3.5721742E-10
   3.120000      8.2140761E-10
   3.180000      1.4152219E-09
   3.240000      2.1185191E-09
   3.300000      2.9031668E-09
   3.360000      3.7382404E-09
   3.420000      4.5941939E-09
   3.480000      5.4449263E-09
   3.540000      6.2677019E-09
   3.600000      7.0418595E-09
   3.660000      7.7477553E-09
   3.720000      8.3671772E-09
   3.780000      8.8856797E-09
   3.840000      9.2961514E-09
   3.900000      9.6021013E-09
   3.960000      9.8189030E-09
   4.020000      9.9717941E-09
   4.080000      1.0090649E-08
   4.140000      1.0202819E-08
   4.200000      1.0326255E-08
   4.260000      1.0465156E-08
   4.320000      1.0609538E-08
   4.380000      1.0738626E-08
   4.440000      1.0826595E-08
   4.500000      1.0848340E-08
   4.560000      1.0783212E-08
   4.620000      1.0615781E-08
   4.680000      1.0334325E-08
   4.740000      9.9289652E-09
   4.800000      9.3917754E-09
   4.860000      8.7202281E-09
   4.920000      7.9235587E-09
   4.980000      7.0296569E-09
   5.040000      6.0888867E-09
   5.100000      5.1715801E-09
   5.160000      4.3578607E-09
   5.220000      3.7213939E-09
   5.280000      3.3114735E-09
   5.340000      3.1393255E-09
   5.400000      3.1738108E-09
   5.460000      3.3489196E-09
   5.520000      3.5814136E-09
   5.580000      3.7932577E-09
   5.640000      3.9315280E-09
   5.700000      3.9792099E-09
   5.760000      3.9535086E-09
   5.820000      3.8928913E-09
   5.880000      3.8382448E-09
   5.940000      3.8156509E-09
   6.000000      3.8275139E-09
   6.060000      3.8553072E-09
   6.120000      3.8724828E-09
   6.180000      3.8618886E-09
   6.240000      3.8301105E-09
   6.300000      3.8122274E-09
   6.360000      3.8642072E-09
   6.420000      4.0450514E-09
   6.480000      4.3949782E-09
   6.540000      4.9176943E-09
   6.600000      5.5735292E-09
   6.660000      6.2863119E-09
   6.720000      6.9619310E-09
   6.780000      7.5123978E-09
   6.840000      7.8774711E-09
   6.900000      8.0371239E-09
   6.960000      8.0116971E-09
   7.020000      7.8510585E-09
   7.080000      7.6176718E-09
   7.140000      7.3698545E-09
   7.200000      7.1503257E-09
   7.260000      6.9821953E-09
   7.320000      6.8711623E-09
   7.380000      6.8105095E-09
   7.440000      6.7852945E-09
   7.500000      6.7738415E-09
   7.560000      6.7472001E-09
   7.620000      6.6691879E-09
   7.680000      6.4998384E-09
   7.740000      6.2033614E-09
   7.800000      5.7588587E-09
   7.860000      5.1696083E-09
   7.920000      4.4661288E-09
   7.980000      3.7000432E-09
   8.040000      2.9294429E-09
   8.100000      2.2003270E-09
   8.160000      1.5309713E-09
   8.220000      9.0552288E-10
   8.280000      2.7981056E-10
   8.340000     -4.0236242E-10
   8.400000     -1.1882906E-09
   8.460000     -2.0984141E-09
   8.520000     -3.1176961E-09
   8.580000     -4.1990313E-09
   8.640000     -5.2769749E-09
   8.700000     -6.2866499E-09
   8.760000     -7.1814377E-09
   8.820000     -7.9440987E-09
   8.880000     -8.5885921E-09
   8.940000     -9.1528793E-09
   9.000000     -9.6854595E-09
   9.060000     -1.0229694E-08
   9.120000     -1.0810170E-08
   9.180000     -1.1424623E-08
   9.240000     -1.2043539E-08
   9.300000     -1.2617721E-08
   9.360000     -1.3092069E-08
   9.420000     -1.3422055E-08
   9.480000     -1.3588273E-08
   9.540000     -1.3604735E-08
   9.600000     -1.3518188E-08
   9.660000     -1.3398446E-08
   9.720000     -1.3322563E-08
   9.780000     -1.3357560E-08
   9.840000     -1.3546702E-08
   9.900000     -1.3902831E-08
   9.960000     -1.4409723E-08
   10.02000     -1.5029874E-08
   10.08000     -1.5715573E-08
   10.14000     -1.6419971E-08
   10.20000     -1.7105798E-08
   10.26000     -1.7750715E-08
   10.32000     -1.8349276E-08
   10.38000     -1.8911678E-08
   10.44000     -1.9459391E-08
   10.50000     -2.0017803E-08
   10.56000     -2.0606691E-08
   10.62000     -2.1230596E-08
   10.68000     -2.1872239E-08
   10.74000     -2.2492140E-08
   10.80000     -2.3035948E-08
   10.86000     -2.3448079E-08
   10.92000     -2.3687299E-08
   10.98000     -2.3738307E-08
   11.04000     -2.3614449E-08
   11.10000     -2.3350026E-08
   11.16000     -2.2985134E-08
   11.22000     -2.2549370E-08
   11.28000     -2.2051236E-08
   11.34000     -2.1477586E-08
   11.40000     -2.0802814E-08
   11.46000     -2.0003030E-08
   11.52000     -1.9068452E-08
   11.58000     -1.8008489E-08
   11.64000     -1.6847878E-08
   11.70000     -1.5616633E-08
   11.76000     -1.4339252E-08
   11.82000     -1.3028233E-08
   11.88000     -1.1684118E-08
   11.94000     -1.0300353E-08
   12.00000     -8.8689953E-09
   12.06000     -7.3834348E-09
   12.12000     -5.8369451E-09
   12.18000     -4.2191672E-09
   12.24000     -2.5145064E-09
   12.30000     -7.0572070E-10
   12.36000      1.2171038E-09
   12.42000      3.2456458E-09
   12.48000      5.3461067E-09
   12.54000      7.4604412E-09
   12.60000      9.5173895E-09
   12.66000      1.1450133E-08
   12.72000      1.3214109E-08
   12.78000      1.4798148E-08
   12.84000      1.6224792E-08
   12.90000      1.7540092E-08
   12.96000      1.8797261E-08
   13.02000      2.0040469E-08
   13.08000      2.1294094E-08
   13.14000      2.2559764E-08
   13.20000      2.3820185E-08
   13.26000      2.5046635E-08
   13.32000      2.6206799E-08
   13.38000      2.7271142E-08
   13.44000      2.8217658E-08
   13.50000      2.9035727E-08
   13.56000      2.9729335E-08
   13.62000      3.0318731E-08
   13.68000      3.0838756E-08
   13.74000      3.1332778E-08
   13.80000      3.1843040E-08
   13.86000      3.2400536E-08
   13.92000      3.3018573E-08
   13.98000      3.3692935E-08
   14.04000      3.4408657E-08
   14.10000      3.5149771E-08
   14.16000      3.5906833E-08
   14.22000      3.6678035E-08
   14.28000      3.7463341E-08
   14.34000      3.8255216E-08
   14.40000      3.9031754E-08
   14.46000      3.9757033E-08
   14.52000      4.0389679E-08
   14.58000      4.0896044E-08
   14.64000      4.1261707E-08
   14.70000      4.1495728E-08
   14.76000      4.1625693E-08
   14.82000      4.1686210E-08
   14.88000      4.1706475E-08
   14.94000      4.1702329E-08
   15.00000      4.1675413E-08
   15.06000      4.1618026E-08
   15.12000      4.1519826E-08
   15.18000      4.1372466E-08
   15.24000      4.1170360E-08
   15.30000      4.0908613E-08
   15.36000      4.0580773E-08
   15.42000      4.0178737E-08
   15.48000      3.9695284E-08
   15.54000      3.9127571E-08
   15.60000      3.8478991E-08
   15.66000      3.7757808E-08
   15.72000      3.6972882E-08
   15.78000      3.6128895E-08
   15.84000      3.5223948E-08
   15.90000      3.4251315E-08
   15.96000      3.3204707E-08
   16.02000      3.2084351E-08
   16.08000      3.0900512E-08
   16.14000      2.9672412E-08
   16.20000      2.8423006E-08
   16.26000      2.7172499E-08
   16.32000      2.5934204E-08
   16.38000      2.4714870E-08
   16.44000      2.3518991E-08
   16.50000      2.2353898E-08
   16.56000      2.1231708E-08
   16.62000      2.0166004E-08
   16.68000      1.9164325E-08
   16.74000      1.8220605E-08
   16.80000      1.7312590E-08
   16.86000      1.6407094E-08
   16.92000      1.5472077E-08
   16.98000      1.4490515E-08
   17.04000      1.3469715E-08
   17.10000      1.2441443E-08
   17.16000      1.1452491E-08
   17.22000      1.0549634E-08
   17.28000      9.7652437E-09
   17.34000      9.1089474E-09
   17.40000      8.5674552E-09
   17.46000      8.1109368E-09
   17.52000      7.7020710E-09
   17.58000      7.3041062E-09
   17.64000      6.8861965E-09
   17.70000      6.4264865E-09
   17.76000      5.9143663E-09
   17.82000      5.3526135E-09
   17.88000      4.7585291E-09
   17.94000      4.1621102E-09
   18.00000      3.5997842E-09
   18.06000      3.1042464E-09
   18.12000      2.6934497E-09
   18.18000      2.3631792E-09
   18.24000      2.0869535E-09
   18.30000      1.8243062E-09
   18.36000      1.5350092E-09
   18.42000      1.1942087E-09
   18.48000      8.0292645E-10
   18.54000      3.9019898E-10
   18.60000      6.3153397E-12
   18.66000     -2.9025854E-10
   18.72000     -4.4789714E-10
   18.78000     -4.3443857E-10
   18.84000     -2.4450225E-10
   18.90000      9.9530398E-11
   18.96000      5.5240340E-10
   19.02000      1.0554448E-09
   19.08000      1.5488839E-09
   19.14000      1.9848365E-09
   19.20000      2.3381423E-09
   19.26000      2.6118410E-09
   19.32000      2.8347056E-09
   19.38000      3.0503062E-09
   19.44000      3.3001961E-09
   19.50000      3.6066654E-09
   19.56000      3.9614525E-09
   19.62000      4.3249022E-09
   19.68000      4.6357500E-09
   19.74000      4.8269801E-09
   19.80000      4.8404778E-09
   19.86000      4.6341637E-09
   19.92000      4.1795807E-09
   19.98000      3.4533334E-09
   20.04000      2.4292270E-09
   20.10000      1.0773799E-09
   20.16000     -6.2786221E-10
   20.22000     -2.6952032E-09
   20.28000     -5.1065960E-09
   20.34000     -7.8173770E-09
   20.40000     -1.0768282E-08
   20.46000     -1.3904652E-08
   20.52000     -1.7193653E-08
   20.58000     -2.0630781E-08
   20.64000     -2.4232021E-08
   20.70000     -2.8015354E-08
   20.76000     -3.1980569E-08
   20.82000     -3.6096889E-08
   20.88000     -4.0303608E-08
   20.94000     -4.4522253E-08
   21.00000     -4.8673350E-08
   21.06000     -5.2689678E-08
   21.12000     -5.6520815E-08
   21.18000     -6.0129203E-08
   21.24000     -6.3482268E-08
   21.30000     -6.6546420E-08
   21.36000     -6.9286543E-08
   21.42000     -7.1670740E-08
   21.48000     -7.3677143E-08
   21.54000     -7.5298800E-08
   21.60000     -7.6544637E-08
   21.66000     -7.7437015E-08
   21.72000     -7.8008128E-08
   21.78000     -7.8297447E-08
   21.84000     -7.8350432E-08
   21.90000     -7.8216829E-08
   21.96000     -7.7946417E-08
   22.02000     -7.7581298E-08
   22.08000     -7.7146254E-08
   22.14000     -7.6640887E-08
   22.20000     -7.6037757E-08
   22.26000     -7.5288590E-08
   22.32000     -7.4337912E-08
   22.38000     -7.3139610E-08
   22.44000     -7.1671337E-08
   22.50000     -6.9941777E-08
   22.56000     -6.7988900E-08
   22.62000     -6.5870402E-08
   22.68000     -6.3649836E-08
   22.74000     -6.1382607E-08
   22.80000     -5.9105361E-08
   22.86000     -5.6830558E-08
   22.92000     -5.4546714E-08
   22.98000     -5.2223854E-08
   23.04000     -4.9823168E-08
   23.10000     -4.7309239E-08
   23.16000     -4.4662283E-08
   23.22000     -4.1886842E-08
   23.28000     -3.9013567E-08
   23.34000     -3.6092125E-08
   23.40000     -3.3176637E-08
   23.46000     -3.0308367E-08
   23.52000     -2.7502631E-08
   23.58000     -2.4745983E-08
   23.64000     -2.2006013E-08
   23.70000     -1.9250434E-08
   23.76000     -1.6467679E-08
   23.82000     -1.3679877E-08
   23.88000     -1.0941953E-08
   23.94000     -8.3264782E-09
   24.00000     -5.9000946E-09
   24.06000     -3.7010088E-09
   24.12000     -1.7265244E-09
   24.18000      6.4726606E-11
   24.24000      1.7371447E-09
   24.30000      3.3553713E-09
   24.36000      4.9625983E-09
   24.42000      6.5669128E-09
   24.48000      8.1390708E-09
   24.54000      9.6210977E-09
   24.60000      1.0942152E-08
   24.66000      1.2036829E-08
   24.72000      1.2861268E-08
   24.78000      1.3403492E-08
   24.84000      1.3685882E-08
   24.90000      1.3759341E-08
   24.96000      1.3690549E-08
   25.02000      1.3545537E-08
   25.08000      1.3374008E-08
   25.14000      1.3198870E-08
   25.20000      1.3013809E-08
   25.26000      1.2788932E-08
   25.32000      1.2481593E-08
   25.38000      1.2047751E-08
   25.44000      1.1449634E-08
   25.50000      1.0657796E-08
   25.56000      9.6488204E-09
   25.62000      8.4021288E-09
   25.68000      6.8994819E-09
   25.74000      5.1287885E-09
   25.80000      3.0908680E-09
   25.86000      8.0571017E-10
   25.92000     -1.6852091E-09
   25.98000     -4.3218611E-09
   26.04000     -7.0321740E-09
   26.10000     -9.7385628E-09
   26.16000     -1.2361404E-08
   26.22000     -1.4818995E-08
   26.28000     -1.7026712E-08
   26.34000     -1.8899671E-08
   26.40000     -2.0361812E-08
   26.46000     -2.1360558E-08
   26.52000     -2.1882032E-08
   26.58000     -2.1959703E-08
   26.64000     -2.1671031E-08
   26.70000     -2.1121329E-08
   26.76000     -2.0419774E-08
   26.82000     -1.9655849E-08
   26.88000     -1.8884124E-08
   26.94000     -1.8121186E-08
   27.00000     -1.7353006E-08
   27.06000     -1.6547153E-08
   27.12000     -1.5663732E-08
   27.18000     -1.4661829E-08
   27.24000     -1.3502381E-08
   27.30000     -1.2151144E-08
   27.36000     -1.0585026E-08
   27.42000     -8.8018126E-09
   27.48000     -6.8293038E-09
   27.54000     -4.7279278E-09
   27.60000     -2.5825073E-09
   27.66000     -4.8371873E-10
   27.72000      1.4946664E-09
   27.78000      3.3134759E-09
   27.84000      4.9727391E-09
   27.90000      6.5006276E-09
   27.96000      7.9313116E-09
   28.02000      9.2816217E-09
   28.08000      1.0537152E-08
   28.14000      1.1654168E-08
   28.20000      1.2576453E-08
   28.26000      1.3259452E-08
   28.32000      1.3691092E-08
   28.38000      1.3900430E-08
   28.44000      1.3950899E-08
   28.50000      1.3921355E-08
   28.56000      1.3882503E-08
   28.62000      1.3877052E-08
   28.68000      1.3909299E-08
   28.74000      1.3945870E-08
   28.80000      1.3925797E-08
   28.86000      1.3776368E-08
   28.92000      1.3431048E-08
   28.98000      1.2846285E-08
   29.04000      1.2014248E-08
   29.10000      1.0968551E-08
   29.16000      9.7803445E-09
   29.22000      8.5438971E-09
   29.28000      7.3539952E-09
   29.34000      6.2811196E-09
   29.40000      5.3526055E-09
   29.46000      4.5470503E-09
   29.52000      3.8048840E-09
   29.58000      3.0517289E-09
   29.64000      2.2257596E-09
   29.70000      1.2984596E-09
   29.76000      2.8102312E-10
   29.82000     -7.8498003E-10
   29.88000     -1.8472613E-09
   29.94000     -2.8634310E-09
   30.00000     -3.8139176E-09
   30.06000     -4.7032818E-09
   30.12000     -5.5520668E-09
   30.18000     -6.3854380E-09
   30.24000     -7.2250219E-09
   30.30000     -8.0869658E-09
   30.36000     -8.9846477E-09
   30.42000     -9.9316075E-09
   30.48000     -1.0940823E-08
   30.54000     -1.2019803E-08
   30.60000     -1.3164793E-08
   30.66000     -1.4358965E-08
   30.72000     -1.5577690E-08
   30.78000     -1.6799680E-08
   30.84000     -1.8018769E-08
   30.90000     -1.9249928E-08
   30.96000     -2.0525617E-08
   31.02000     -2.1883665E-08
   31.08000     -2.3352454E-08
   31.14000     -2.4940592E-08
   31.20000     -2.6635821E-08
   31.26000     -2.8412714E-08
   31.32000     -3.0243974E-08
   31.38000     -3.2108446E-08
   31.44000     -3.3991260E-08
   31.50000     -3.5876447E-08
   31.56000     -3.7737095E-08
   31.62000     -3.9529951E-08
   31.68000     -4.1199261E-08
   31.74000     -4.2689699E-08
   31.80000     -4.3963070E-08
   31.86000     -4.5011159E-08
   31.92000     -4.5858361E-08
   31.98000     -4.6552550E-08
   32.04000     -4.7148042E-08
   32.10000     -4.7687919E-08
   32.16000     -4.8192916E-08
   32.22000     -4.8660521E-08
   32.28000     -4.9072874E-08
   32.34000     -4.9408456E-08
   32.40000     -4.9651621E-08
   32.46000     -4.9796490E-08
   32.52000     -4.9845355E-08
   32.58000     -4.9804747E-08
   32.64000     -4.9682630E-08
   32.70000     -4.9488282E-08
   32.76000     -4.9233570E-08
   32.82000     -4.8932684E-08
   32.88000     -4.8598331E-08
   32.94000     -4.8235197E-08
   33.00000     -4.7834273E-08
   33.06000     -4.7372382E-08
   33.12000     -4.6818844E-08
   33.18000     -4.6147147E-08
   33.24000     -4.5345740E-08
   33.30000     -4.4421689E-08
   33.36000     -4.3394291E-08
   33.42000     -4.2281183E-08
   33.48000     -4.1084164E-08
   33.54000     -3.9782794E-08
   33.60000     -3.8340257E-08
   33.66000     -3.6719477E-08
   33.72000     -3.4902015E-08
   33.78000     -3.2900484E-08
   33.84000     -3.0758510E-08
   33.90000     -2.8538613E-08
   33.96000     -2.6304241E-08
   34.02000     -2.4104709E-08
   34.08000     -2.1969232E-08
   34.14000     -1.9910720E-08
   34.20000     -1.7934680E-08
   34.26000     -1.6046355E-08
   34.32000     -1.4251425E-08
   34.38000     -1.2550582E-08
   34.44000     -1.0932775E-08
   34.50000     -9.3732790E-09
   34.56000     -7.8399287E-09
   34.62000     -6.3056929E-09
   34.68000     -4.7613979E-09
   34.74000     -3.2216336E-09
   34.80000     -1.7202888E-09
   34.86000     -2.9789921E-10
   34.92000      1.0123994E-09
   34.98000      2.1928128E-09
   35.04000      3.2389340E-09
   35.10000      4.1500807E-09
   35.16000      4.9187925E-09
   35.22000      5.5268656E-09
   35.28000      5.9512746E-09
   35.34000      6.1771281E-09
   35.40000      6.2101262E-09
   35.46000      6.0807479E-09
   35.52000      5.8367657E-09
   35.58000      5.5272360E-09
   35.64000      5.1859459E-09
   35.70000      4.8226747E-09
   35.76000      4.4262660E-09
   35.82000      3.9770764E-09
   35.88000      3.4614069E-09
   35.94000      2.8799292E-09
   36.00000      2.2459126E-09
   36.06000      1.5749632E-09
   36.12000      8.7259699E-10
   36.18000      1.2679206E-10
   36.24000     -6.9043193E-10
   36.30000     -1.6133905E-09
   36.36000     -2.6700890E-09
   36.42000     -3.8725645E-09
   36.48000     -5.2139764E-09
   36.54000     -6.6723613E-09
   36.60000     -8.2178486E-09
   36.66000     -9.8192885E-09
   36.72000     -1.1447844E-08
   36.78000     -1.3077692E-08
   36.84000     -1.4685916E-08
   36.90000     -1.6253747E-08
   36.96000     -1.7769638E-08
   37.02000     -1.9232560E-08
   37.08000     -2.0652788E-08
   37.14000     -2.2048161E-08
   37.20000     -2.3436225E-08
   37.26000     -2.4825148E-08
   37.32000     -2.6207646E-08
   37.38000     -2.7561272E-08
   37.44000     -2.8855577E-08
   37.50000     -3.0063362E-08
   37.56000     -3.1171066E-08
   37.62000     -3.2183614E-08
   37.68000     -3.3121417E-08
   37.74000     -3.4011045E-08
   37.80000     -3.4873775E-08
   37.86000     -3.5717211E-08
   37.92000     -3.6533429E-08
   37.98000     -3.7304023E-08
   38.04000     -3.8009357E-08
   38.10000     -3.8637914E-08
   38.16000     -3.9191882E-08
   38.22000     -3.9687365E-08
   38.28000     -4.0149818E-08
   38.34000     -4.0606821E-08
   38.40000     -4.1080881E-08
   38.46000     -4.1584123E-08
   38.52000     -4.2115929E-08
   38.58000     -4.2663792E-08
   38.64000     -4.3207216E-08
   38.70000     -4.3723933E-08
   38.76000     -4.4197446E-08
   38.82000     -4.4623807E-08
   38.88000     -4.5015540E-08
   38.94000     -4.5400842E-08
   39.00000     -4.5817501E-08
   39.06000     -4.6302873E-08
   39.12000     -4.6882757E-08
   39.18000     -4.7562526E-08
   39.24000     -4.8323294E-08
   39.30000     -4.9124104E-08
   39.36000     -4.9909385E-08
   39.42000     -5.0619459E-08
   39.48000     -5.1201312E-08
   39.54000     -5.1617157E-08
   39.60000     -5.1849170E-08
   39.66000     -5.1899658E-08
   39.72000     -5.1787211E-08
   39.78000     -5.1540113E-08
   39.84000     -5.1188870E-08
   39.90000     -5.0760040E-08
   39.96000     -5.0272750E-08
   40.02000     -4.9738681E-08
   40.08000     -4.9164807E-08
   40.14000     -4.8557396E-08
   40.20000     -4.7925464E-08
   40.26000     -4.7282011E-08
   40.32000     -4.6642580E-08
   40.38000     -4.6021544E-08
   40.44000     -4.5427562E-08
   40.50000     -4.4860013E-08
   40.56000     -4.4307960E-08
   40.62000     -4.3752387E-08
   40.68000     -4.3171209E-08
   40.74000     -4.2545558E-08
   40.80000     -4.1864908E-08
   40.86000     -4.1129226E-08
   40.92000     -4.0347143E-08
   40.98000     -3.9531063E-08
   41.04000     -3.8691311E-08
   41.10000     -3.7831992E-08
   41.16000     -3.6950187E-08
   41.22000     -3.6038614E-08
   41.28000     -3.5090132E-08
   41.34000     -3.4101763E-08
   41.40000     -3.3076446E-08
   41.46000     -3.2022196E-08
   41.52000     -3.0949540E-08
   41.58000     -2.9868893E-08
   41.64000     -2.8789058E-08
   41.70000     -2.7717087E-08
   41.76000     -2.6658961E-08
   41.82000     -2.5620349E-08
   41.88000     -2.4607100E-08
   41.94000     -2.3625672E-08
   42.00000     -2.2683844E-08
   42.06000     -2.1791591E-08
   42.12000     -2.0961521E-08
   42.18000     -2.0207965E-08
   42.24000     -1.9544359E-08
   42.30000     -1.8979454E-08
   42.36000     -1.8513822E-08
   42.42000     -1.8138296E-08
   42.48000     -1.7835387E-08
   42.54000     -1.7583389E-08
   42.60000     -1.7361913E-08
   42.66000     -1.7156955E-08
   42.72000     -1.6963931E-08
   42.78000     -1.6787865E-08
   42.84000     -1.6640884E-08
   42.90000     -1.6537863E-08
   42.96000     -1.6491549E-08
   43.02000     -1.6508650E-08
   43.08000     -1.6588112E-08
   43.14000     -1.6722352E-08
   43.20000     -1.6901099E-08
   43.26000     -1.7116546E-08
   43.32000     -1.7367674E-08
   43.38000     -1.7661833E-08
   43.44000     -1.8012706E-08
   43.50000     -1.8435429E-08
   43.56000     -1.8941057E-08
   43.62000     -1.9532882E-08
   43.68000     -2.0206230E-08
   43.74000     -2.0951731E-08
   43.80000     -2.1760536E-08
   43.86000     -2.2629349E-08
   43.92000     -2.3563562E-08
   43.98000     -2.4577883E-08
   44.04000     -2.5694749E-08
   44.10000     -2.6941233E-08
   44.16000     -2.8345024E-08
   44.22000     -2.9929986E-08
   44.28000     -3.1712045E-08
   44.34000     -3.3696718E-08
   44.40000     -3.5880028E-08
   44.46000     -3.8253940E-08
   44.52000     -4.0815955E-08
   44.58000     -4.3580513E-08
   44.64000     -4.6588404E-08
   44.70000     -4.9910515E-08
   44.76000     -5.3644087E-08
   44.82000     -5.7902568E-08
   44.88000     -6.2803011E-08
   44.94000     -6.8456110E-08
   45.00000     -7.4963673E-08
   45.06000     -8.2425736E-08
   45.12000     -9.0956377E-08
   45.18000     -1.0070433E-07
   45.24000     -1.1187283E-07
   45.30000     -1.2473330E-07
   45.36000     -1.3962952E-07
   45.42000     -1.5697218E-07
   45.48000     -1.7722768E-07
   45.54000     -2.0090698E-07
   45.60000     -2.2856103E-07
   45.66000     -2.6078638E-07
   45.72000     -2.9824162E-07
   45.78000     -3.4167084E-07
   45.84000     -3.9192855E-07
   45.90000     -4.5000056E-07
   45.96000     -5.1701875E-07
   46.02000     -5.9427032E-07
   46.08000     -6.8320236E-07
   46.14000     -7.8542712E-07
   46.20000     -9.0272778E-07
   46.26000     -1.0370667E-06
   46.32000     -1.1905978E-06
   46.38000     -1.3656831E-06
   46.44000     -1.5649168E-06
   46.50000     -1.7911544E-06
   46.56000     -2.0475456E-06
   46.62000     -2.3375649E-06
   46.68000     -2.6650334E-06
   46.74000     -3.0341253E-06
   46.80000     -3.4493655E-06
   46.86000     -3.9156184E-06
   46.92000     -4.4380768E-06
   46.98000     -5.0222648E-06
   47.04000     -5.6740469E-06
   47.10000     -6.3996508E-06
   47.16000     -7.2056964E-06
   47.22000     -8.0992149E-06
   47.28000     -9.0876647E-06
   47.34000     -1.0178913E-05
   47.40000     -1.1381222E-05
   47.46000     -1.2703202E-05
   47.52000     -1.4153774E-05
   47.58000     -1.5742118E-05
   47.64000     -1.7477634E-05
   47.70000     -1.9369885E-05
   47.76000     -2.1428579E-05
   47.82000     -2.3663504E-05
   47.88000     -2.6084490E-05
   47.94000     -2.8701352E-05
   48.00000     -3.1523810E-05
   48.06000     -3.4561424E-05
   48.12000     -3.7823484E-05
   48.18000     -4.1318919E-05
   48.24000     -4.5056193E-05
   48.30000     -4.9043196E-05
   48.36000     -5.3287145E-05
   48.42000     -5.7794456E-05
   48.48000     -6.2570653E-05
   48.54000     -6.7620284E-05
   48.60000     -7.2946808E-05
   48.66000     -7.8552504E-05
   48.72000     -8.4438383E-05
   48.78000     -9.0604059E-05
   48.84000     -9.7047639E-05
   48.90000     -1.0376567E-04
   48.96000     -1.1075302E-04
   49.02000     -1.1800287E-04
   49.08000     -1.2550670E-04
   49.14000     -1.3325427E-04
   49.20000     -1.4123356E-04
   49.26000     -1.4943084E-04
   49.32000     -1.5783070E-04
   49.38000     -1.6641605E-04
   49.44000     -1.7516821E-04
   49.50000     -1.8406696E-04
   49.56000     -1.9309063E-04
   49.62000     -2.0221625E-04
   49.68000     -2.1141973E-04
   49.74000     -2.2067592E-04
   49.80000     -2.2995893E-04
   49.86000     -2.3924228E-04
   49.92000     -2.4849916E-04
   49.98000     -2.5770260E-04
   50.04000     -2.6682572E-04
   50.10000     -2.7584200E-04
   50.16000     -2.8472551E-04
   50.22000     -2.9345104E-04
   50.28000     -3.0199450E-04
   50.34000     -3.1033315E-04
   50.40000     -3.1844579E-04
   50.46000     -3.2631317E-04
   50.52000     -3.3391794E-04
   50.58000     -3.4124515E-04
   50.64000     -3.4828231E-04
   50.70000     -3.5501935E-04
   50.76000     -3.6144903E-04
   50.82000     -3.6756683E-04
   50.88000     -3.7337115E-04
   50.94000     -3.7886319E-04
   51.00000     -3.8404707E-04
   51.06000     -3.8892982E-04
   51.12000     -3.9352139E-04
   51.18000     -3.9783440E-04
   51.24000     -4.0188414E-04
   51.30000     -4.0568816E-04
   51.36000     -4.0926621E-04
   51.42000     -4.1263999E-04
   51.48000     -4.1583268E-04
   51.54000     -4.1886908E-04
   51.60000     -4.2177495E-04
   51.66000     -4.2457695E-04
   51.72000     -4.2730218E-04
   51.78000     -4.2997755E-04
   51.84000     -4.3262972E-04
   51.90000     -4.3528457E-04
   51.96000     -4.3796701E-04
   52.02000     -4.4070065E-04
   52.08000     -4.4350757E-04
   52.14000     -4.4640768E-04
   52.20000     -4.4941856E-04
   52.26000     -4.5255496E-04
   52.32000     -4.5582882E-04
   52.38000     -4.5924904E-04
   52.44000     -4.6282163E-04
   52.50000     -4.6654959E-04
   52.56000     -4.7043274E-04
   52.62000     -4.7446770E-04
   52.68000     -4.7864774E-04
   52.74000     -4.8296261E-04
   52.80000     -4.8739882E-04
   52.86000     -4.9194001E-04
   52.92000     -4.9656729E-04
   52.98000     -5.0125952E-04
   53.04000     -5.0599361E-04
   53.10000     -5.1074452E-04
   53.16000     -5.1548553E-04
   53.22000     -5.2018848E-04
   53.28000     -5.2482449E-04
   53.34000     -5.2936433E-04
   53.40000     -5.3377904E-04
   53.46000     -5.3804019E-04
   53.52000     -5.4212025E-04
   53.58000     -5.4599287E-04
   53.64000     -5.4963282E-04
   53.70000     -5.5301673E-04
   53.76000     -5.5612327E-04
   53.82000     -5.5893394E-04
   53.88000     -5.6143303E-04
   53.94000     -5.6360802E-04
   54.00000     -5.6544936E-04
   54.06000     -5.6695059E-04
   54.12000     -5.6810828E-04
   54.18000     -5.6892209E-04
   54.24000     -5.6939514E-04
   54.30000     -5.6953391E-04
   54.36000     -5.6934805E-04
   54.42000     -5.6885043E-04
   54.48000     -5.6805619E-04
   54.54000     -5.6698313E-04
   54.60000     -5.6565087E-04
   54.66000     -5.6408095E-04
   54.72000     -5.6229648E-04
   54.78000     -5.6032190E-04
   54.84000     -5.5818248E-04
   54.90000     -5.5590371E-04
   54.96000     -5.5351149E-04
   55.02000     -5.5103097E-04
   55.08000     -5.4848683E-04
   55.14000     -5.4590253E-04
   55.20000     -5.4330018E-04
   55.26000     -5.4070033E-04
   55.32000     -5.3812162E-04
   55.38000     -5.3558056E-04
   55.44000     -5.3309120E-04
   55.50000     -5.3066498E-04
   55.56000     -5.2831025E-04