  -2.400000      0.0000000E+00
  -2.340000      0.0000000E+00
  -2.280000      0.0000000E+00
  -2.220000      0.0000000E+00
  -2.160000      0.0000000E+00
  -2.100000      0.0000000E+00
  -2.040000      1.2885411E-22
  -1.980000      9.9248708E-22
  -1.920000      3.1843869E-21
  -1.860000      2.7227425E-21
  -1.800000     -2.0255432E-20
  -1.740000     -1.1219957E-19
  -1.680000     -3.2836814E-19
  -1.620000     -6.4505178E-19
  -1.560000     -7.9125197E-19
  -1.500000     -9.5205283E-20
  -1.440000      2.4099783E-18
  -1.380000      7.3203714E-18
  -1.320000      1.3564003E-17
  -1.260000      1.7011386E-17
  -1.200000      1.0297703E-17
  -1.140000     -1.4542507E-17
  -1.080000     -5.9957962E-17
  -1.020000     -1.1504398E-16
 -0.9600000     -1.5081261E-16
 -0.9000000     -1.2495367E-16
 -0.8400000     -7.0795351E-20
 -0.7800000      2.2788678E-16
 -0.7200000      5.0397777E-16
 -0.6600000      7.1062729E-16
 -0.6000000      7.0121093E-16
 -0.5400000      3.6897184E-16
 -0.4800000     -2.7547483E-16
 -0.4200000     -1.0634516E-15
 -0.3600000     -1.7057818E-15
 -0.3000000     -1.9154570E-15
 -0.2400000     -1.5673988E-15
 -0.1800000     -8.0193268E-16
 -0.1200000      2.0722256E-17
 -5.9999999E-02  5.4069469E-16
  0.0000000E+00  7.0380317E-16
  5.9999999E-02  9.5852980E-16
  0.1200000      2.1372414E-15
  0.1800000      4.9406314E-15
  0.2400000      9.1870896E-15
  0.3000000      1.3235126E-14
  0.3600000      1.4074608E-14
  0.4200000      8.3861056E-15
  0.4800000     -5.6059279E-15
  0.5400000     -2.6226666E-14
  0.6000000     -4.7479886E-14
  0.6600000     -6.0141420E-14
  0.7200000     -5.4991961E-14
  0.7800000     -2.7249636E-14
  0.8400000      1.9694842E-14
  0.9000000      7.3356021E-14
  0.9600000      1.1530500E-13
   1.020000      1.2789743E-13
   1.080000      1.0213403E-13
   1.140000      4.3062457E-14
   1.200000     -3.0422672E-14
   1.260000     -9.2360479E-14
   1.320000     -1.2094115E-13
   1.380000     -1.0935223E-13
   1.440000     -7.0701955E-14
   1.500000     -3.3395158E-14
   1.560000     -2.7471266E-14
   1.620000     -6.7098074E-14
   1.680000     -1.3743845E-13
   1.740000     -1.9369834E-13
   1.800000     -1.7591347E-13
   1.860000     -3.6260603E-14
   1.920000      2.3093547E-13
   1.980000      5.6979898E-13
   2.040000      8.6570009E-13
   2.100000      9.7485138E-13
   2.160000      7.7506285E-13
   2.220000      2.2214266E-13
   2.280000     -6.0913747E-13
   2.340000     -1.5190062E-12
   2.400000     -2.2217709E-12
   2.460000     -2.4253301E-12
   2.520000     -1.9305816E-12
   2.580000     -7.1903204E-13
   2.640000      1.0045620E-12
   2.700000      2.8371908E-12
   2.760000      4.2722748E-12
   2.820000      4.8414528E-12
   2.880000      4.2610585E-12
   2.940000      2.5342888E-12
   3.000000     -2.8836766E-14
   3.060000     -2.8850550E-12
   3.120000     -5.4032573E-12
   3.180000     -7.0332681E-12
   3.240000     -7.4407026E-12
   3.300000     -6.5643159E-12
   3.360000     -4.5838923E-12
   3.420000     -1.8232152E-12
   3.480000      1.3619972E-12
   3.540000      4.6586901E-12
   3.600000      7.8030403E-12
   3.660000      1.0525273E-11
   3.720000      1.2473627E-11
   3.780000      1.3173969E-11
   3.840000      1.2069196E-11
   3.900000      8.6460266E-12
   3.960000      2.6111171E-12
   4.020000     -5.9552896E-12
   4.080000     -1.6545295E-11
   4.140000     -2.8316141E-11
   4.200000     -4.0321760E-11
   4.260000     -5.1813741E-11
   4.320000     -6.2501872E-11
   4.380000     -7.2663667E-11
   4.440000     -8.3037049E-11
   4.500000     -9.4507839E-11
   4.560000     -1.0768617E-10
   4.620000     -1.2251951E-10
   4.680000     -1.3809025E-10
   4.740000     -1.5268634E-10
   4.800000     -1.6413425E-10
   4.860000     -1.7028265E-10
   4.920000     -1.6946362E-10
   4.980000     -1.6076650E-10
   5.040000     -1.4403577E-10
   5.100000     -1.1961984E-10
   5.160000     -8.8002189E-11
   5.220000     -4.9494228E-11
   5.280000     -4.1379426E-12
   5.340000      4.8131506E-11
   5.400000      1.0713409E-10
   5.460000      1.7206360E-10
   5.520000      2.4125441E-10
   5.580000      3.1221711E-10
   5.640000      3.8195505E-10
   5.700000      4.4747253E-10
   5.760000      5.0632537E-10
   5.820000      5.5707572E-10
   5.880000      5.9957128E-10
   5.940000      6.3504252E-10
   6.000000      6.6605405E-10
   6.060000      6.9634554E-10
   6.120000      7.3056200E-10
   6.180000      7.7383711E-10
   6.240000      8.3119217E-10
   6.300000      9.0676677E-10
   6.360000      1.0029750E-09
   6.420000      1.1197634E-09
   6.480000      1.2541608E-09
   6.540000      1.4002687E-09
   6.600000      1.5497167E-09
   6.660000      1.6924853E-09
   6.720000      1.8178939E-09
   6.780000      1.9155375E-09
   6.840000      1.9760114E-09
   6.900000      1.9913817E-09
   6.960000      1.9554651E-09
   7.020000      1.8640458E-09
   7.080000      1.7151451E-09
   7.140000      1.5093720E-09
   7.200000      1.2502699E-09
   7.260000      9.4449359E-10
   7.320000      6.0161831E-10
   7.380000      2.3345442E-10
   7.440000     -1.4713016E-10
   7.500000     -5.2770971E-10
   7.560000     -8.9781982E-10
   7.620000     -1.2501293E-09
   7.680000     -1.5809407E-09
   7.740000     -1.8898307E-09
   7.800000     -2.1784383E-09
   7.860000     -2.4486144E-09
   7.920000     -2.7002984E-09
   7.980000     -2.9295568E-09
   8.040000     -3.1271932E-09
   8.100000     -3.2782221E-09
   8.160000     -3.3623315E-09
   8.220000     -3.3552561E-09
   8.280000     -3.2308287E-09
   8.340000     -2.9633143E-09
   8.400000     -2.5296039E-09
   8.460000     -1.9108488E-09
   8.520000     -1.0932725E-09
   8.580000     -6.8096986E-11
   8.640000      1.1692062E-09
   8.700000      2.6198999E-09
   8.760000      4.2826418E-09
   8.820000      6.1533294E-09
   8.880000      8.2238927E-09
   8.940000      1.0480213E-08
   9.000000      1.2899741E-08
   9.060000      1.5449706E-08
   9.120000      1.8086805E-08
   9.180000      2.0758961E-08
   9.240000      2.3409182E-08
   9.300000      2.5980947E-08
   9.360000      2.8423926E-08
   9.420000      3.0698732E-08
   9.480000      3.2779468E-08
   9.540000      3.4653318E-08
   9.600000      3.6317317E-08
   9.660000      3.7772899E-08
   9.720000      3.9019575E-08
   9.780000      4.0049230E-08
   9.840000      4.0842444E-08
   9.900000      4.1367887E-08
   9.960000      4.1585039E-08
   10.02000      4.1450011E-08
   10.08000      4.0923304E-08
   10.14000      3.9977959E-08
   10.20000      3.8606409E-08
   10.26000      3.6824574E-08
   10.32000      3.4672233E-08
   10.38000      3.2209773E-08
   10.44000      2.9512000E-08
   10.50000      2.6660503E-08
   10.56000      2.3736117E-08
   10.62000      2.0812873E-08
   10.68000      1.7954187E-08
   10.74000      1.5211414E-08
   10.80000      1.2624249E-08
   10.86000      1.0222249E-08
   10.92000      8.0266345E-09
   10.98000      6.0517835E-09
   11.04000      4.3061315E-09
   11.10000      2.7924414E-09
   11.16000      1.5076438E-09
   11.22000      4.4254087E-10
   11.28000     -4.1829926E-10
   11.34000     -1.0961740E-09
   11.40000     -1.6172472E-09
   11.46000     -2.0109239E-09
   11.52000     -2.3078186E-09
   11.58000     -2.5376823E-09
   11.64000     -2.7276974E-09
   11.70000     -2.9014511E-09
   11.76000     -3.0786678E-09
   11.82000     -3.2755429E-09
   11.88000     -3.5053396E-09
   11.94000     -3.7788999E-09
   12.00000     -4.1048525E-09
   12.06000     -4.4895132E-09
   12.12000     -4.9366142E-09
   12.18000     -5.4470886E-09
   12.24000     -6.0190262E-09
   12.30000     -6.6478174E-09
   12.36000     -7.3264039E-09
   12.42000     -8.0455571E-09
   12.48000     -8.7941769E-09
   12.54000     -9.5596899E-09
   12.60000     -1.0328595E-08
   12.66000     -1.1087150E-08
   12.72000     -1.1822033E-08
   12.78000     -1.2520813E-08
   12.84000     -1.3172127E-08
   12.90000     -1.3765705E-08
   12.96000     -1.4292588E-08
   13.02000     -1.4745860E-08
   13.08000     -1.5122042E-08
   13.14000     -1.5422760E-08
   13.20000     -1.5655898E-08
   13.26000     -1.5835301E-08
   13.32000     -1.5978337E-08
   13.38000     -1.6101353E-08
   13.44000     -1.6213898E-08
   13.50000     -1.6313242E-08
   13.56000     -1.6380845E-08
   13.62000     -1.6382018E-08
   13.68000     -1.6269121E-08
   13.74000     -1.5987744E-08
   13.80000     -1.5484572E-08
   13.86000     -1.4715445E-08
   13.92000     -1.3652229E-08
   13.98000     -1.2287524E-08
   14.04000     -1.0636684E-08
   14.10000     -8.7369481E-09
   14.16000     -6.6438020E-09
   14.22000     -4.4249351E-09
   14.28000     -2.1525772E-09
   14.34000      1.0465934E-10
   14.40000      2.2890352E-09
   14.46000      4.3587245E-09
   14.52000      6.2897687E-09
   14.58000      8.0748279E-09
   14.64000      9.7194244E-09
   14.70000      1.1236953E-08
   14.76000      1.2643851E-08
   14.82000      1.3956000E-08
   14.88000      1.5186773E-08
   14.94000      1.6346496E-08
   15.00000      1.7442622E-08
   15.06000      1.8479875E-08
   15.12000      1.9459916E-08
   15.18000      2.0380435E-08
   15.24000      2.1234108E-08
   15.30000      2.2007960E-08
   15.36000      2.2683698E-08
   15.42000      2.3239307E-08
   15.48000      2.3651856E-08
   15.54000      2.3901070E-08
   15.60000      2.3972992E-08
   15.66000      2.3862919E-08
   15.72000      2.3576865E-08
   15.78000      2.3131149E-08
   15.84000      2.2550097E-08
   15.90000      2.1862371E-08
   15.96000      2.1096939E-08
   16.02000      2.0279757E-08
   16.08000      1.9432159E-08
   16.14000      1.8571358E-08
   16.20000      1.7712749E-08
   16.26000      1.6873072E-08
   16.32000      1.6073182E-08
   16.38000      1.5339261E-08
   16.44000      1.4701894E-08
   16.50000      1.4193164E-08
   16.56000      1.3842536E-08
   16.62000      1.3672731E-08
   16.68000      1.3696615E-08
   16.74000      1.3915842E-08
   16.80000      1.4321400E-08
   16.86000      1.4895773E-08
   16.92000      1.5616111E-08
   16.98000      1.6457731E-08
   17.04000      1.7397266E-08
   17.10000      1.8414909E-08
   17.16000      1.9495337E-08
   17.22000      2.0627072E-08
   17.28000      2.1800410E-08
   17.34000      2.3004345E-08
   17.40000      2.4223331E-08
   17.46000      2.5434932E-08
   17.52000      2.6609255E-08
   17.58000      2.7710744E-08
   17.64000      2.8702162E-08
   17.70000      2.9549994E-08
   17.76000      3.0229923E-08
   17.82000      3.0731037E-08
   17.88000      3.1057578E-08
   17.94000      3.1227849E-08
   18.00000      3.1270439E-08
   18.06000      3.1218686E-08
   18.12000      3.1104594E-08
   18.18000      3.0953334E-08
   18.24000      3.0779368E-08
   18.30000      3.0584605E-08
   18.36000      3.0358660E-08
   18.42000      3.0080940E-08
   18.48000      2.9723980E-08
   18.54000      2.9257412E-08
   18.60000      2.8652019E-08
   18.66000      2.7883244E-08
   18.72000      2.6933790E-08
   18.78000      2.5795014E-08
   18.84000      2.4467038E-08
   18.90000      2.2957773E-08
   18.96000      2.1281199E-08
   19.02000      1.9455378E-08
   19.08000      1.7500675E-08
   19.14000      1.5438447E-08
   19.20000      1.3290244E-08
   19.26000      1.1077311E-08
   19.32000      8.8200514E-09
   19.38000      6.5372459E-09
   19.44000      4.2449542E-09
   19.50000      1.9553728E-09
   19.56000     -3.2397146E-10
   19.62000     -2.5902960E-09
   19.68000     -4.8447615E-09
   19.74000     -7.0909763E-09
   19.80000     -9.3332808E-09
   19.86000     -1.1575375E-08
   19.92000     -1.3819680E-08
   19.98000     -1.6067489E-08
   20.04000     -1.8319570E-08
   20.10000     -2.0576673E-08
   20.16000     -2.2839432E-08
   20.22000     -2.5107456E-08
   20.28000     -2.7377817E-08
   20.34000     -2.9643521E-08
   20.40000     -3.1892554E-08
   20.46000     -3.4108041E-08
   20.52000     -3.6269558E-08
   20.58000     -3.8355260E-08
   20.64000     -4.0344336E-08
   20.70000     -4.2219089E-08
   20.76000     -4.3966352E-08
   20.82000     -4.5578087E-08
   20.88000     -4.7051348E-08
   20.94000     -4.8387765E-08
   21.00000     -4.9592774E-08
   21.06000     -5.0674533E-08
   21.12000     -5.1642608E-08
   21.18000     -5.2506500E-08
   21.24000     -5.3274231E-08
   21.30000     -5.3951428E-08
   21.36000     -5.4541250E-08
   21.42000     -5.5045298E-08
   21.48000     -5.5465286E-08
   21.54000     -5.5804879E-08
   21.60000     -5.6070895E-08
   21.66000     -5.6273201E-08
   21.72000     -5.6423072E-08
   21.78000     -5.6530254E-08
   21.84000     -5.6599639E-08
   21.90000     -5.6628629E-08
   21.96000     -5.6606225E-08
   22.02000     -5.6514406E-08
   22.08000     -5.6331618E-08
   22.14000     -5.6037628E-08
   22.20000     -5.5618315E-08
   22.26000     -5.5069183E-08
   22.32000     -5.4396555E-08
   22.38000     -5.3616308E-08
   22.44000     -5.2750750E-08
   22.50000     -5.1824930E-08
   22.56000     -5.0863708E-08
   22.62000     -4.9890684E-08
   22.68000     -4.8929081E-08
   22.74000     -4.8003802E-08
   22.80000     -4.7143295E-08
   22.86000     -4.6379650E-08
   22.92000     -4.5746038E-08
   22.98000     -4.5271548E-08
   23.04000     -4.4974733E-08
   23.10000     -4.4857835E-08
   23.16000     -4.4903761E-08
   23.22000     -4.5077336E-08
   23.28000     -4.5331081E-08
   23.34000     -4.5614492E-08
   23.40000     -4.5884782E-08
   23.46000     -4.6116554E-08
   23.52000     -4.6308145E-08
   23.58000     -4.6483034E-08
   23.64000     -4.6685976E-08
   23.70000     -4.6974545E-08
   23.76000     -4.7407887E-08
   23.82000     -4.8034934E-08
   23.88000     -4.8884576E-08
   23.94000     -4.9959745E-08
   24.00000     -5.1236491E-08
   24.06000     -5.2668099E-08
   24.12000     -5.4193034E-08
   24.18000     -5.5744724E-08
   24.24000     -5.7260987E-08
   24.30000     -5.8691104E-08
   24.36000     -5.9999486E-08
   24.42000     -6.1165949E-08
   24.48000     -6.2183311E-08
   24.54000     -6.3053847E-08
   24.60000     -6.3785912E-08
   24.66000     -6.4391543E-08
   24.72000     -6.4885413E-08
   24.78000     -6.5284581E-08
   24.84000     -6.5608440E-08
   24.90000     -6.5877877E-08
   24.96000     -6.6113394E-08
   25.02000     -6.6331999E-08
   25.08000     -6.6543464E-08
   25.14000     -6.6746750E-08
   25.20000     -6.6927413E-08
   25.26000     -6.7057094E-08
   25.32000     -6.7095343E-08
   25.38000     -6.6993913E-08
   25.44000     -6.6702853E-08
   25.50000     -6.6177286E-08
   25.56000     -6.5383553E-08
   25.62000     -6.4303492E-08
   25.68000     -6.2935960E-08
   25.74000     -6.1295452E-08
   25.80000     -5.9408382E-08
   25.86000     -5.7308117E-08
   25.92000     -5.5030007E-08
   25.98000     -5.2607454E-08
   26.04000     -5.0069737E-08
   26.10000     -4.7441432E-08
   26.16000     -4.4743068E-08
   26.22000     -4.1992251E-08
   26.28000     -3.9204519E-08
   26.34000     -3.6393516E-08
   26.40000     -3.3570320E-08
   26.46000     -3.0742211E-08
   26.52000     -2.7911295E-08
   26.58000     -2.5073621E-08
   26.64000     -2.2219353E-08
   26.70000     -1.9334369E-08
   26.76000     -1.6403352E-08
   26.82000     -1.3414087E-08
   26.88000     -1.0362220E-08
   26.94000     -7.2554633E-09
   27.00000     -4.1161696E-09
   27.06000     -9.8141495E-10
   27.12000      2.0998181E-09
   27.18000      5.0720694E-09
   27.24000      7.8805709E-09
   27.30000      1.0478816E-08
   27.36000      1.2835079E-08
   27.42000      1.4936621E-08
   27.48000      1.6790777E-08
   27.54000      1.8422726E-08
   27.60000      1.9870383E-08
   27.66000      2.1177373E-08
   27.72000      2.2385477E-08
   27.78000      2.3528029E-08
   27.84000      2.4625598E-08
   27.90000      2.5684832E-08
   27.96000      2.6700546E-08
   28.02000      2.7660299E-08
   28.08000      2.8550009E-08
   28.14000      2.9358807E-08
   28.20000      3.0081619E-08
   28.26000      3.0718773E-08
   28.32000      3.1272982E-08
   28.38000      3.1745110E-08
   28.44000      3.2130462E-08
   28.50000      3.2417368E-08
   28.56000      3.2588751E-08
   28.62000      3.2626328E-08
   28.68000      3.2516105E-08
   28.74000      3.2253304E-08
   28.80000      3.1845005E-08
   28.86000      3.1309771E-08
   28.92000      3.0674236E-08
   28.98000      2.9967786E-08
   29.04000      2.9216682E-08
   29.10000      2.8439118E-08
   29.16000      2.7642143E-08
   29.22000      2.6820924E-08
   29.28000      2.5960286E-08
   29.34000      2.5038100E-08
   29.40000      2.4029871E-08
   29.46000      2.2913733E-08
   29.52000      2.1674982E-08
   29.58000      2.0309340E-08
   29.64000      1.8824291E-08
   29.70000      1.7238236E-08
   29.76000      1.5577704E-08
   29.82000      1.3873254E-08
   29.88000      1.2155020E-08
   29.94000      1.0448793E-08
   30.00000      8.7732115E-09
   30.06000      7.1382988E-09
   30.12000      5.5451976E-09
   30.18000      3.9868819E-09
   30.24000      2.4496669E-09
   30.30000      9.1547547E-10
   30.36000     -6.3515132E-10
   30.42000     -2.2194768E-09
   30.48000     -3.8488990E-09
   30.54000     -5.5259353E-09
   30.60000     -7.2426913E-09
   30.66000     -8.9813925E-09
   30.72000     -1.0717081E-08
   30.78000     -1.2422015E-08
   30.84000     -1.4070839E-08
   30.90000     -1.5645456E-08
   30.96000     -1.7138618E-08
   31.02000     -1.8555513E-08
   31.08000     -1.9913047E-08
   31.14000     -2.1236771E-08
   31.20000     -2.2555863E-08
   31.26000     -2.3896868E-08
   31.32000     -2.5277311E-08
   31.38000     -2.6700546E-08
   31.44000     -2.8153179E-08
   31.50000     -2.9605955E-08
   31.56000     -3.1018121E-08
   31.62000     -3.2344332E-08
   31.68000     -3.3542264E-08
   31.74000     -3.4578925E-08
   31.80000     -3.5434052E-08
   31.86000     -3.6100005E-08
   31.92000     -3.6578786E-08
   31.98000     -3.6877708E-08
   32.04000     -3.7005595E-08
   32.10000     -3.6970807E-08
   32.16000     -3.6781650E-08
   32.22000     -3.6448519E-08
   32.28000     -3.5986496E-08
   32.34000     -3.5417024E-08
   32.40000     -3.4767634E-08
   32.46000     -3.4069451E-08
   32.52000     -3.3353121E-08
   32.58000     -3.2644273E-08
   32.64000     -3.1959804E-08
   32.70000     -3.1306122E-08
   32.76000     -3.0679782E-08
   32.82000     -3.0070414E-08
   32.88000     -2.9465133E-08
   32.94000     -2.8853236E-08
   33.00000     -2.8230025E-08
   33.06000     -2.7598769E-08
   33.12000     -2.6970522E-08
   33.18000     -2.6361970E-08
   33.24000     -2.5792129E-08
   33.30000     -2.5278778E-08
   33.36000     -2.4835455E-08
   33.42000     -2.4469385E-08
   33.48000     -2.4180451E-08
   33.54000     -2.3960967E-08
   33.60000     -2.3796151E-08
   33.66000     -2.3665253E-08
   33.72000     -2.3543572E-08
   33.78000     -2.3405425E-08
   33.84000     -2.3227948E-08
   33.90000     -2.2995113E-08
   33.96000     -2.2701077E-08
   34.02000     -2.2351880E-08
   34.08000     -2.1964984E-08
   34.14000     -2.1566676E-08
   34.20000     -2.1188077E-08
   34.26000     -2.0860840E-08
   34.32000     -2.0613538E-08
   34.38000     -2.0469372E-08
   34.44000     -2.0445238E-08
   34.50000     -2.0551772E-08
   34.56000     -2.0793893E-08
   34.62000     -2.1171557E-08
   34.68000     -2.1680719E-08
   34.74000     -2.2314714E-08
   34.80000     -2.3066116E-08
   34.86000     -2.3928873E-08
   34.92000     -2.4900006E-08
   34.98000     -2.5980139E-08
   35.04000     -2.7172270E-08
   35.10000     -2.8478819E-08
   35.16000     -2.9897716E-08
   35.22000     -3.1418846E-08
   35.28000     -3.3022193E-08
   35.34000     -3.4678568E-08
   35.40000     -3.6352866E-08
   35.46000     -3.8008938E-08
   35.52000     -3.9614545E-08
   35.58000     -4.1144780E-08
   35.64000     -4.2583068E-08
   35.70000     -4.3919485E-08
   35.76000     -4.5147363E-08
   35.82000     -4.6259519E-08
   35.88000     -4.7245621E-08
   35.94000     -4.8091721E-08
   36.00000     -4.8782173E-08
   36.06000     -4.9303267E-08
   36.12000     -4.9647205E-08
   36.18000     -4.9814858E-08
   36.24000     -4.9816119E-08
   36.30000     -4.9667463E-08
   36.36000     -4.9387253E-08
   36.42000     -4.8990412E-08
   36.48000     -4.8484299E-08
   36.54000     -4.7867506E-08
   36.60000     -4.7132293E-08
   36.66000     -4.6270085E-08
   36.72000     -4.5278352E-08
   36.78000     -4.4166416E-08
   36.84000     -4.2958074E-08
   36.90000     -4.1689947E-08
   36.96000     -4.0405837E-08
   37.02000     -3.9148851E-08
   37.08000     -3.7953708E-08
   37.14000     -3.6841449E-08
   37.20000     -3.5817827E-08
   37.26000     -3.4875345E-08
   37.32000     -3.3997775E-08
   37.38000     -3.3165460E-08
   37.44000     -3.2359925E-08
   37.50000     -3.1566923E-08
   37.56000     -3.0777901E-08
   37.62000     -2.9990293E-08
   37.68000     -2.9207175E-08
   37.74000     -2.8436464E-08
   37.80000     -2.7689548E-08
   37.86000     -2.6979198E-08
   37.92000     -2.6316849E-08
   37.98000     -2.5709893E-08
   38.04000     -2.5160000E-08
   38.10000     -2.4663528E-08
   38.16000     -2.4214287E-08
   38.22000     -2.3808058E-08
   38.28000     -2.3447090E-08
   38.34000     -2.3142510E-08
   38.40000     -2.2912978E-08
   38.46000     -2.2779396E-08
   38.52000     -2.2757156E-08
   38.58000     -2.2848779E-08
   38.64000     -2.3040055E-08
   38.70000     -2.3301723E-08
   38.76000     -2.3596703E-08
   38.82000     -2.3890621E-08
   38.88000     -2.4161983E-08
   38.94000     -2.4408356E-08
   39.00000     -2.4646482E-08
   39.06000     -2.4906521E-08
   39.12000     -2.5222876E-08
   39.18000     -2.5625022E-08
   39.24000     -2.6131318E-08
   39.30000     -2.6747090E-08
   39.36000     -2.7466253E-08
   39.42000     -2.8274401E-08
   39.48000     -2.9151176E-08
   39.54000     -3.0070858E-08
   39.60000     -3.1001701E-08
   39.66000     -3.1905731E-08
   39.72000     -3.2740839E-08
   39.78000     -3.3465930E-08
   39.84000     -3.4048238E-08
   39.90000     -3.4470382E-08
   39.96000     -3.4734466E-08
   40.02000     -3.4861309E-08
   40.08000     -3.4884692E-08
   40.14000     -3.4842405E-08
   40.20000     -3.4766984E-08
   40.26000     -3.4678955E-08
   40.32000     -3.4584307E-08
   40.38000     -3.4476134E-08
   40.44000     -3.4339120E-08
   40.50000     -3.4154773E-08
   40.56000     -3.3905678E-08
   40.62000     -3.3577859E-08
   40.68000     -3.3161442E-08
   40.74000     -3.2650334E-08
   40.80000     -3.2041793E-08
   40.86000     -3.1336491E-08
   40.92000     -3.0539038E-08
   40.98000     -2.9658741E-08
   41.04000     -2.8710190E-08
   41.10000     -2.7713384E-08
   41.16000     -2.6693263E-08
   41.22000     -2.5678634E-08
   41.28000     -2.4700375E-08
   41.34000     -2.3788907E-08
   41.40000     -2.2970962E-08
   41.46000     -2.2265976E-08
   41.52000     -2.1682828E-08
   41.58000     -2.1217726E-08
   41.64000     -2.0854076E-08
   41.70000     -2.0564583E-08
   41.76000     -2.0315346E-08
   41.82000     -2.0070987E-08
   41.88000     -1.9799758E-08
   41.94000     -1.9477561E-08
   42.00000     -1.9090393E-08
   42.06000     -1.8635196E-08
   42.12000     -1.8119531E-08
   42.18000     -1.7560591E-08
   42.24000     -1.6983966E-08
   42.30000     -1.6422279E-08
   42.36000     -1.5913654E-08
   42.42000     -1.5499968E-08
   42.48000     -1.5224852E-08
   42.54000     -1.5131672E-08
   42.60000     -1.5261689E-08
   42.66000     -1.5652708E-08
   42.72000     -1.6338372E-08
   42.78000     -1.7348311E-08
   42.84000     -1.8709313E-08
   42.90000     -2.0447729E-08
   42.96000     -2.2593309E-08
   43.02000     -2.5184429E-08
   43.08000     -2.8274366E-08
   43.14000     -3.1937848E-08
   43.20000     -3.6276816E-08
   43.26000     -4.1424439E-08
   43.32000     -4.7546887E-08
   43.38000     -5.4842854E-08
   43.44000     -6.3541904E-08
   43.50000     -7.3902775E-08
   43.56000     -8.6213021E-08
   43.62000     -1.0079065E-07
   43.68000     -1.1798814E-07
   43.74000     -1.3819815E-07
   43.80000     -1.6186053E-07
   43.86000     -1.8947003E-07
   43.92000     -2.2158515E-07
   43.98000     -2.5883864E-07
   44.04000     -3.0195045E-07
   44.10000     -3.5174315E-07
   44.16000     -4.0915970E-07
   44.22000     -4.7528181E-07
   44.28000     -5.5134768E-07
   44.34000     -6.3876723E-07
   44.40000     -7.3913520E-07
   44.46000     -8.5424176E-07
   44.52000     -9.8608302E-07
   44.58000     -1.1368736E-06
   44.64000     -1.3090612E-06
   44.70000     -1.5053463E-06
   44.76000     -1.7287025E-06
   44.82000     -1.9824001E-06
   44.88000     -2.2700283E-06
   44.94000     -2.5955158E-06
   45.00000     -2.9631522E-06
   45.06000     -3.3776091E-06
   45.12000     -3.8439589E-06
   45.18000     -4.3676946E-06
   45.24000     -4.9547489E-06
   45.30000     -5.6115086E-06
   45.36000     -6.3448265E-06
   45.42000     -7.1620248E-06
   45.48000     -8.0708987E-06
   45.54000     -9.0797112E-06
   45.60000     -1.0197183E-05
   45.66000     -1.1432486E-05
   45.72000     -1.2795230E-05
   45.78000     -1.4295445E-05
   45.84000     -1.5943564E-05
   45.90000     -1.7750399E-05
   45.96000     -1.9727098E-05
   46.02000     -2.1885118E-05
   46.08000     -2.4236153E-05
   46.14000     -2.6792099E-05
   46.20000     -2.9564968E-05
   46.26000     -3.2566812E-05
   46.32000     -3.5809644E-05
   46.38000     -3.9305323E-05
   46.44000     -4.3065469E-05
   46.50000     -4.7101345E-05
   46.56000     -5.1423740E-05
   46.62000     -5.6042874E-05
   46.68000     -6.0968261E-05
   46.74000     -6.6208617E-05
   46.80000     -7.1771719E-05
   46.86000     -7.7664306E-05
   46.92000     -8.3891951E-05
   46.98000     -9.0458911E-05
   47.04000     -9.7368043E-05
   47.10000     -1.0462068E-04
   47.16000     -1.1221648E-04
   47.22000     -1.2015336E-04
   47.28000     -1.2842737E-04
   47.34000     -1.3703269E-04
   47.40000     -1.4596146E-04
   47.46000     -1.5520380E-04
   47.52000     -1.6474781E-04
   47.58000     -1.7457949E-04
   47.64000     -1.8468284E-04
   47.70000     -1.9503974E-04
   47.76000     -2.0563016E-04
   47.82000     -2.1643213E-04
   47.88000     -2.2742194E-04
   47.94000     -2.3857417E-04
   48.00000     -2.4986194E-04
   48.06000     -2.6125700E-04
   48.12000     -2.7273005E-04
   48.18000     -2.8425080E-04
   48.24000     -2.9578831E-04
   48.30000     -3.0731116E-04
   48.36000     -3.1878782E-04
   48.42000     -3.3018668E-04
   48.48000     -3.4147655E-04
   48.54000     -3.5262693E-04
   48.60000     -3.6360818E-04
   48.66000     -3.7439179E-04
   48.72000     -3.8495086E-04
   48.78000     -3.9526026E-04
   48.84000     -4.0529683E-04
   48.90000     -4.1503983E-04
   48.96000     -4.2447087E-04
   49.02000     -4.3357437E-04
   49.08000     -4.4233751E-04
   49.14000     -4.5075055E-04
   49.20000     -4.5880681E-04
   49.26000     -4.6650285E-04
   49.32000     -4.7383839E-04
   49.38000     -4.8081641E-04
   49.44000     -4.8744303E-04
   49.50000     -4.9372757E-04
   49.56000     -4.9968227E-04
   49.62000     -5.0532207E-04
   49.68000     -5.1066466E-04
   49.74000     -5.1572983E-04
   49.80000     -5.2053970E-04
   49.86000     -5.2511808E-04
   49.92000     -5.2949018E-04
   49.98000     -5.3368229E-04
   50.04000     -5.3772144E-04
   50.10000     -5.4163521E-04
   50.16000     -5.4545107E-04
   50.22000     -5.4919615E-04
   50.28000     -5.5289693E-04
   50.34000     -5.5657863E-04
   50.40000     -5.6026492E-04
   50.46000     -5.6397775E-04
   50.52000     -5.6773680E-04
   50.58000     -5.7155918E-04
   50.64000     -5.7545939E-04
   50.70000     -5.7944888E-04
   50.76000     -5.8353628E-04
   50.82000     -5.8772659E-04
   50.88000     -5.9202180E-04
   50.94000     -5.9642049E-04
   51.00000     -6.0091773E-04
   51.06000     -6.0550560E-04
   51.12000     -6.1017263E-04
   51.18000     -6.1490468E-04
   51.24000     -6.1968487E-04
   51.30000     -6.2449346E-04
   51.36000     -6.2930887E-04
   51.42000     -6.3410727E-04
   51.48000     -6.3886354E-04
   51.54000     -6.4355112E-04
   51.60000     -6.4814260E-04
   51.66000     -6.5261027E-04
   51.72000     -6.5692631E-04
   51.78000     -6.6106336E-04
   51.84000     -6.6499494E-04
   51.90000     -6.6869560E-04
   51.96000     -6.7214167E-04
   52.02000     -6.7531137E-04
   52.08000     -6.7818543E-04
   52.14000     -6.8074680E-04
   52.20000     -6.8298151E-04
   52.26000     -6.8487821E-04
   52.32000     -6.8642880E-04
   52.38000     -6.8762840E-04
   52.44000     -6.8847532E-04
   52.50000     -6.8897119E-04
   52.56000     -6.8912079E-04
   52.62000     -6.8893231E-04
   52.68000     -6.8841694E-04
   52.74000     -6.8758876E-04
   52.80000     -6.8646431E-04
   52.86000     -6.8506238E-04
   52.92000     -6.8340363E-04
   52.98000     -6.8151054E-04
   53.04000     -6.7940640E-04
   53.10000     -6.7711546E-04
   53.16000     -6.7466276E-04
   53.22000     -6.7207316E-04
   53.28000     -6.6937128E-04
   53.34000     -6.6658092E-04
   53.40000     -6.6372496E-04
   53.46000     -6.6082465E-04
   53.52000     -6.5789954E-04
   53.58000     -6.5496692E-04
   53.64000     -6.5204187E-04
   53.70000     -6.4913690E-04
   53.76000     -6.4626150E-04
   53.82000     -6.4342254E-04
   53.88000     -6.4062356E-04
   53.94000     -6.3786545E-04
   54.00000     -6.3514599E-04
   54.06000     -6.3246011E-04
   54.12000     -6.2979991E-04
   54.18000     -6.2715489E-04
   54.24000     -6.2451191E-04
   54.30000     -6.2185561E-04
   54.36000     -6.1916874E-04
   54.42000     -6.1643246E-04
   54.48000     -6.1362679E-04
   54.54000     -6.1073084E-04
   54.60000     -6.0772320E-04
   54.66000     -6.0458214E-04
   54.72000     -6.0128636E-04
   54.78000     -5.9781497E-04
   54.84000     -5.9414789E-04
   54.90000     -5.9026666E-04
   54.96000     -5.8615441E-04
   55.02000     -5.8179640E-04
   55.08000     -5.7717983E-04
   55.14000     -5.7229452E-04
   55.20000     -5.6713296E-04
   55.26000     -5.6169019E-04
   55.32000     -5.5596454E-04
   55.38000     -5.4995721E-04
   55.44000     -5.4367248E-04
   55.50000     -5.3711771E-04
   55.56000     -5.3030322E-04