  -2.400000      0.0000000E+00
  -2.340000      0.0000000E+00
  -2.280000      0.0000000E+00
  -2.220000      0.0000000E+00
  -2.160000      0.0000000E+00
  -2.100000      0.0000000E+00
  -2.040000      1.3390956E-22
  -1.980000      1.1711905E-21
  -1.920000      5.0959742E-21
  -1.860000      1.4281932E-20
  -1.800000      2.7293474E-20
  -1.740000      3.1056267E-20
  -1.680000     -8.2249339E-21
  -1.620000     -1.5340146E-19
  -1.560000     -5.0483717E-19
  -1.500000     -1.2013442E-18
  -1.440000     -2.3648941E-18
  -1.380000     -3.8724353E-18
  -1.320000     -4.8215266E-18
  -1.260000     -2.7409639E-18
  -1.200000      6.9080736E-18
  -1.140000      2.9737530E-17
  -1.080000      6.8490158E-17
  -1.020000      1.1570331E-16
 -0.9600000      1.4533332E-16
 -0.9000000      1.0960350E-16
 -0.8400000     -5.0103994E-17
 -0.7800000     -3.7190114E-16
 -0.7200000     -8.2514202E-16
 -0.6600000     -1.2648548E-15
 -0.6000000     -1.4230551E-15
 -0.5400000     -9.7227778E-16
 -0.4800000      3.2619710E-16
 -0.4200000      2.4240628E-15
 -0.3600000      4.8269083E-15
 -0.3000000      6.5935937E-15
 -0.2400000      6.5845123E-15
 -0.1800000      3.9472667E-15
 -0.1200000     -1.3205809E-15
 -5.9999999E-02 -8.0177860E-15
  0.0000000E+00 -1.3892471E-14
  5.9999999E-02 -1.6433823E-14
  0.1200000     -1.4108693E-14
  0.1800000     -7.4908502E-15
  0.2400000      4.5339191E-16
  0.3000000      5.4728751E-15
  0.3600000      4.4659757E-15
  0.4200000     -1.6941212E-15
  0.4800000     -6.5893005E-15
  0.5400000      3.6505153E-16
  0.6000000      2.8854604E-14
  0.6600000      8.0036970E-14
  0.7200000      1.3958245E-13
  0.7800000      1.7589138E-13
  0.8400000      1.4735121E-13
  0.9000000      1.9448966E-14
  0.9600000     -2.1229728E-13
   1.020000     -5.0251583E-13
   1.080000     -7.5066537E-13
   1.140000     -8.1953221E-13
   1.200000     -5.7950639E-13
   1.260000      3.0413612E-14
   1.320000      9.4486203E-13
   1.380000      1.9435239E-12
   1.440000      2.6745307E-12
   1.500000      2.7390507E-12
   1.560000      1.8249044E-12
   1.620000     -1.4568866E-13
   1.680000     -2.9046149E-12
   1.740000     -5.8136104E-12
   1.800000     -7.9603260E-12
   1.860000     -8.3738936E-12
   1.920000     -6.3182315E-12
   1.980000     -1.5863321E-12
   2.040000      5.2969543E-12
   2.100000      1.3044110E-11
   2.160000      1.9786528E-11
   2.220000      2.3450393E-11
   2.280000      2.2248970E-11
   2.340000      1.5172084E-11
   2.400000      2.3458412E-12
   2.460000     -1.4833379E-11
   2.520000     -3.3826233E-11
   2.580000     -5.1304565E-11
   2.640000     -6.3643715E-11
   2.700000     -6.7445237E-11
   2.760000     -6.0004578E-11
   2.820000     -3.9690091E-11
   2.880000     -6.2545199E-12
   2.940000      3.8872010E-11
   3.000000      9.2278109E-11
   3.060000      1.4829407E-10
   3.120000      1.9886978E-10
   3.180000      2.3380750E-10
   3.240000      2.4156119E-10
   3.300000      2.1073709E-10
   3.360000      1.3227053E-10
   3.420000      2.0450703E-12
   3.480000     -1.7647804E-10
   3.540000     -3.9017853E-10
   3.600000     -6.1530891E-10
   3.660000     -8.1807744E-10
   3.720000     -9.5698016E-10
   3.780000     -9.8677244E-10
   3.840000     -8.6366420E-10
   3.900000     -5.5107746E-10
   3.960000     -2.5165071E-11
   4.020000      7.2070849E-10
   4.080000      1.6731917E-09
   4.140000      2.7983005E-09
   4.200000      4.0430104E-09
   4.260000      5.3388800E-09
   4.320000      6.6072157E-09
   4.380000      7.7651210E-09
   4.440000      8.7317336E-09
   4.500000      9.4340269E-09
   4.560000      9.8117630E-09
   4.620000      9.8214095E-09
   4.680000      9.4390584E-09
   4.740000      8.6625054E-09
   4.800000      7.5126279E-09
   4.860000      6.0340613E-09
   4.920000      4.2949124E-09
   4.980000      2.3849762E-09
   5.040000      4.1179848E-10
   5.100000     -1.5060032E-09
   5.160000     -3.2483847E-09
   5.220000     -4.7060249E-09
   5.280000     -5.7937188E-09
   5.340000     -6.4629551E-09
   5.400000     -6.7111539E-09
   5.460000     -6.5850831E-09
   5.520000     -6.1766738E-09
   5.580000     -5.6107772E-09
   5.640000     -5.0260693E-09
   5.700000     -4.5519974E-09
   5.760000     -4.2858908E-09
   5.820000     -4.2747654E-09
   5.880000     -4.5057735E-09
   5.940000     -4.9076783E-09
   6.000000     -5.3635265E-09
   6.060000     -5.7323186E-09
   6.120000     -5.8754792E-09
   6.180000     -5.6828187E-09
   6.240000     -5.0927520E-09
   6.300000     -4.1027297E-09
   6.360000     -2.7680105E-09
   6.420000     -1.1894135E-09
   6.480000      5.0694832E-10
   6.540000      2.1933291E-09
   6.600000      3.7622723E-09
   6.660000      5.1423319E-09
   6.720000      6.3048140E-09
   6.780000      7.2609669E-09
   6.840000      8.0512859E-09
   6.900000      8.7302388E-09
   6.960000      9.3504804E-09
   7.020000      9.9503303E-09
   7.080000      1.0547083E-08
   7.140000      1.1137022E-08
   7.200000      1.1701220E-08
   7.260000      1.2214867E-08
   7.320000      1.2657175E-08
   7.380000      1.3019092E-08
   7.440000      1.3306931E-08
   7.500000      1.3541279E-08
   7.560000      1.3751912E-08
   7.620000      1.3970359E-08
   7.680000      1.4222242E-08
   7.740000      1.4521286E-08
   7.800000      1.4866188E-08
   7.860000      1.5240676E-08
   7.920000      1.5616207E-08
   7.980000      1.5956312E-08
   8.040000      1.6221509E-08
   8.100000      1.6374013E-08
   8.160000      1.6381911E-08
   8.220000      1.6222836E-08
   8.280000      1.5887279E-08
   8.340000      1.5381440E-08
   8.400000      1.4729133E-08
   8.460000      1.3971877E-08
   8.520000      1.3166275E-08
   8.580000      1.2378057E-08
   8.640000      1.1673027E-08
   8.700000      1.1106089E-08
   8.760000      1.0710409E-08
   8.820000      1.0489184E-08
   8.880000      1.0412279E-08
   8.940000      1.0419019E-08
   9.000000      1.0427082E-08
   9.060000      1.0345987E-08
   9.120000      1.0092458E-08
   9.180000      9.6045509E-09
   9.240000      8.8516225E-09
   9.300000      7.8382394E-09
   9.360000      6.6014882E-09
   9.420000      5.2025966E-09
   9.480000      3.7149355E-09
   9.540000      2.2110664E-09
   9.600000      7.5151690E-10
   9.660000     -6.2267486E-10
   9.720000     -1.8926027E-09
   9.780000     -3.0594602E-09
   9.840000     -4.1390149E-09
   9.900000     -5.1544191E-09
   9.960000     -6.1293233E-09
   10.02000     -7.0828508E-09
   10.08000     -8.0271789E-09
   10.14000     -8.9675574E-09
   10.20000     -9.9038324E-09
   10.26000     -1.0832212E-08
   10.32000     -1.1746155E-08
   10.38000     -1.2635855E-08
   10.44000     -1.3486495E-08
   10.50000     -1.4276159E-08
   10.56000     -1.4974471E-08
   10.62000     -1.5543000E-08
   10.68000     -1.5937824E-08
   10.74000     -1.6114068E-08
   10.80000     -1.6031549E-08
   10.86000     -1.5660378E-08
   10.92000     -1.4985455E-08
   10.98000     -1.4009088E-08
   11.04000     -1.2751560E-08
   11.10000     -1.1249866E-08
   11.16000     -9.5551007E-09
   11.22000     -7.7289268E-09
   11.28000     -5.8393312E-09
   11.34000     -3.9556061E-09
   11.40000     -2.1424527E-09
   11.46000     -4.5328444E-10
   11.52000      1.0766733E-09
   11.58000      2.4362989E-09
   11.64000      3.6418935E-09
   11.70000      4.7363216E-09
   11.76000      5.7829888E-09
   11.82000      6.8548243E-09
   11.88000      8.0198008E-09
   11.94000      9.3257366E-09
   12.00000      1.0787751E-08
   12.06000      1.2381498E-08
   12.12000      1.4044254E-08
   12.18000      1.5684204E-08
   12.24000      1.7196420E-08
   12.30000      1.8482403E-08
   12.36000      1.9469214E-08
   12.42000      2.0124128E-08
   12.48000      2.0461732E-08
   12.54000      2.0541902E-08
   12.60000      2.0459041E-08
   12.66000      2.0324816E-08
   12.72000      2.0248031E-08
   12.78000      2.0315818E-08
   12.84000      2.0580027E-08
   12.90000      2.1051477E-08
   12.96000      2.1702816E-08
   13.02000      2.2478853E-08
   13.08000      2.3311525E-08
   13.14000      2.4135790E-08
   13.20000      2.4902851E-08
   13.26000      2.5588157E-08
   13.32000      2.6193101E-08
   13.38000      2.6740977E-08
   13.44000      2.7269069E-08
   13.50000      2.7819162E-08
   13.56000      2.8428765E-08
   13.62000      2.9124616E-08
   13.68000      2.9919171E-08
   13.74000      3.0810032E-08
   13.80000      3.1781664E-08
   13.86000      3.2808718E-08
   13.92000      3.3860072E-08
   13.98000      3.4902953E-08
   14.04000      3.5906659E-08
   14.10000      3.6845282E-08
   14.16000      3.7699156E-08
   14.22000      3.8454765E-08
   14.28000      3.9103149E-08
   14.34000      3.9637108E-08
   14.40000      4.0047951E-08
   14.46000      4.0322529E-08
   14.52000      4.0441620E-08
   14.58000      4.0380268E-08
   14.64000      4.0110535E-08
   14.70000      3.9606437E-08
   14.76000      3.8850402E-08
   14.82000      3.7839907E-08
   14.88000      3.6592812E-08
   14.94000      3.5149764E-08
   15.00000      3.3572586E-08
   15.06000      3.1938207E-08
   15.12000      3.0328877E-08
   15.18000      2.8820338E-08
   15.24000      2.7470392E-08
   15.30000      2.6310559E-08
   15.36000      2.5342793E-08
   15.42000      2.4542208E-08
   15.48000      2.3865185E-08
   15.54000      2.3260775E-08
   15.60000      2.2682551E-08
   15.66000      2.2097911E-08
   15.72000      2.1492722E-08
   15.78000      2.0870608E-08
   15.84000      2.0247802E-08
   15.90000      1.9645672E-08
   15.96000      1.9083577E-08
   16.02000      1.8574173E-08
   16.08000      1.8122286E-08
   16.14000      1.7726959E-08
   16.20000      1.7385235E-08
   16.26000      1.7095722E-08
   16.32000      1.6860398E-08
   16.38000      1.6684030E-08
   16.44000      1.6571793E-08
   16.50000      1.6526430E-08
   16.56000      1.6546474E-08
   16.62000      1.6626483E-08
   16.68000      1.6759309E-08
   16.74000      1.6939534E-08
   16.80000      1.7166727E-08
   16.86000      1.7447324E-08
   16.92000      1.7794639E-08
   16.98000      1.8227073E-08
   17.04000      1.8765272E-08
   17.10000      1.9428871E-08
   17.16000      2.0233291E-08
   17.22000      2.1186704E-08
   17.28000      2.2287136E-08
   17.34000      2.3519947E-08
   17.40000      2.4856256E-08
   17.46000      2.6253224E-08
   17.52000      2.7656892E-08
   17.58000      2.9007660E-08
   17.64000      3.0247524E-08
   17.70000      3.1327417E-08
   17.76000      3.2212711E-08
   17.82000      3.2885335E-08
   17.88000      3.3342019E-08
   17.94000      3.3589355E-08
   18.00000      3.3637246E-08
   18.06000      3.3492594E-08
   18.12000      3.3154770E-08
   18.18000      3.2613652E-08
   18.24000      3.1850277E-08
   18.30000      3.0839576E-08
   18.36000      2.9554529E-08
   18.42000      2.7970987E-08
   18.48000      2.6072579E-08
   18.54000      2.3855087E-08
   18.60000      2.1329701E-08
   18.66000      1.8524592E-08
   18.72000      1.5484501E-08
   18.78000      1.2268348E-08
   18.84000      8.9453502E-09
   18.90000      5.5903038E-09
   18.96000      2.2787194E-09
   19.02000     -9.1775521E-10
   19.08000     -3.9355328E-09
   19.14000     -6.7229955E-09
   19.20000     -9.2441681E-09
   19.26000     -1.1481951E-08
   19.32000     -1.3440379E-08
   19.38000     -1.5145275E-08
   19.44000     -1.6642778E-08
   19.50000     -1.7995612E-08
   19.56000     -1.9277490E-08
   19.62000     -2.0566349E-08
   19.68000     -2.1937213E-08
   19.74000     -2.3455421E-08
   19.80000     -2.5170650E-08
   19.86000     -2.7112135E-08
   19.92000     -2.9285408E-08
   19.98000     -3.1671039E-08
   20.04000     -3.4225813E-08
   20.10000     -3.6886675E-08
   20.16000     -3.9577245E-08
   20.22000     -4.2216179E-08
   20.28000     -4.4726143E-08
   20.34000     -4.7042018E-08
   20.40000     -4.9117048E-08
   20.46000     -5.0926303E-08
   20.52000     -5.2467268E-08
   20.58000     -5.3758029E-08
   20.64000     -5.4833762E-08
   20.70000     -5.5742177E-08
   20.76000     -5.6538585E-08
   20.82000     -5.7280911E-08
   20.88000     -5.8024938E-08
   20.94000     -5.8820170E-08
   21.00000     -5.9706366E-08
   21.06000     -6.0711081E-08
   21.12000     -6.1848297E-08
   21.18000     -6.3118065E-08
   21.24000     -6.4507311E-08
   21.30000     -6.5991465E-08
   21.36000     -6.7536938E-08
   21.42000     -6.9104217E-08
   21.48000     -7.0651225E-08
   21.54000     -7.2136402E-08
   21.60000     -7.3521058E-08
   21.66000     -7.4770568E-08
   21.72000     -7.5854267E-08
   21.78000     -7.6744548E-08
   21.84000     -7.7415883E-08
   21.90000     -7.7844732E-08
   21.96000     -7.8010977E-08
   22.02000     -7.7901070E-08
   22.08000     -7.7512155E-08
   22.14000     -7.6856068E-08
   22.20000     -7.5961594E-08
   22.26000     -7.4874009E-08
   22.32000     -7.3651279E-08
   22.38000     -7.2357494E-08
   22.44000     -7.1054671E-08
   22.50000     -6.9794794E-08
   22.56000     -6.8613801E-08
   22.62000     -6.7528724E-08
   22.68000     -6.6538661E-08
   22.74000     -6.5629052E-08
   22.80000     -6.4778121E-08
   22.86000     -6.3963945E-08
   22.92000     -6.3170631E-08
   22.98000     -6.2392246E-08
   23.04000     -6.1634182E-08
   23.10000     -6.0911894E-08
   23.16000     -6.0247764E-08
   23.22000     -5.9666846E-08
   23.28000     -5.9192519E-08
   23.34000     -5.8842723E-08
   23.40000     -5.8627453E-08
   23.46000     -5.8547720E-08
   23.52000     -5.8596285E-08
   23.58000     -5.8759984E-08
   23.64000     -5.9023154E-08
   23.70000     -5.9371544E-08
   23.76000     -5.9795532E-08
   23.82000     -6.0291867E-08
   23.88000     -6.0863222E-08
   23.94000     -6.1515792E-08
   24.00000     -6.2255680E-08
   24.06000     -6.3085253E-08
   24.12000     -6.4000993E-08
   24.18000     -6.4993522E-08
   24.24000     -6.6049800E-08
   24.30000     -6.7156783E-08
   24.36000     -6.8304963E-08
   24.42000     -6.9490596E-08
   24.48000     -7.0715586E-08
   24.54000     -7.1985014E-08
   24.60000     -7.3303035E-08
   24.66000     -7.4668328E-08
   24.72000     -7.6070300E-08
   24.78000     -7.7486945E-08
   24.84000     -7.8884796E-08
   24.90000     -8.0220836E-08
   24.96000     -8.1446103E-08
   25.02000     -8.2510347E-08
   25.08000     -8.3367233E-08
   25.14000     -8.3979359E-08
   25.20000     -8.4322330E-08
   25.26000     -8.4387118E-08
   25.32000     -8.4179881E-08
   25.38000     -8.3719272E-08
   25.44000     -8.3031431E-08
   25.50000     -8.2143671E-08
   25.56000     -8.1078390E-08
   25.62000     -7.9848427E-08
   25.68000     -7.8455123E-08
   25.74000     -7.6889044E-08
   25.80000     -7.5133244E-08
   25.86000     -7.3167691E-08
   25.92000     -7.0973869E-08
   25.98000     -6.8538306E-08
   26.04000     -6.5854501E-08
   26.10000     -6.2922972E-08
   26.16000     -5.9750022E-08
   26.22000     -5.6345552E-08
   26.28000     -5.2721081E-08
   26.34000     -4.8888502E-08
   26.40000     -4.4860247E-08
   26.46000     -4.0650974E-08
   26.52000     -3.6280426E-08
   26.58000     -3.1776469E-08
   26.64000     -2.7177197E-08
   26.70000     -2.2530608E-08
   26.76000     -1.7891304E-08
   26.82000     -1.3314202E-08
   26.88000     -8.8465555E-09
   26.94000     -4.5203410E-09
   27.00000     -3.4737402E-10
   27.06000      3.6810179E-09
   27.12000      7.5891373E-09
   27.18000      1.1407768E-08
   27.24000      1.5163023E-08
   27.30000      1.8866130E-08
   27.36000      2.2506965E-08
   27.42000      2.6053113E-08
   27.48000      2.9454720E-08
   27.54000      3.2653851E-08
   27.60000      3.5595995E-08
   27.66000      3.8240849E-08
   27.72000      4.0569866E-08
   27.78000      4.2588919E-08
   27.84000      4.4325724E-08
   27.90000      4.5822741E-08
   27.96000      4.7127347E-08
   28.02000      4.8281422E-08
   28.08000      4.9312511E-08
   28.14000      5.0228273E-08
   28.20000      5.1015149E-08
   28.26000      5.1641269E-08
   28.32000      5.2063001E-08
   28.38000      5.2233808E-08
   28.44000      5.2113677E-08
   28.50000      5.1677329E-08
   28.56000      5.0919539E-08
   28.62000      4.9856265E-08
   28.68000      4.8521233E-08
   28.74000      4.6958601E-08
   28.80000      4.5213355E-08
   28.86000      4.3322004E-08
   28.92000      4.1306084E-08
   28.98000      3.9170530E-08
   29.04000      3.6907402E-08
   29.10000      3.4503852E-08
   29.16000      3.1951746E-08
   29.22000      2.9255654E-08
   29.28000      2.6436497E-08
   29.34000      2.3529438E-08
   29.40000      2.0576733E-08
   29.46000      1.7617856E-08
   29.52000      1.4680220E-08
   29.58000      1.1773551E-08
   29.64000      8.8896757E-09
   29.70000      6.0075833E-09
   29.76000      3.1019132E-09
   29.82000      1.5197293E-10
   29.88000     -2.8516134E-09
   29.94000     -5.9045080E-09
   30.00000     -8.9908720E-09
   30.06000     -1.2089012E-08
   30.12000     -1.5178310E-08
   30.18000     -1.8245132E-08
   30.24000     -2.1285951E-08
   30.30000     -2.4307072E-08
   30.36000     -2.7321288E-08
   30.42000     -3.0342612E-08
   30.48000     -3.3380445E-08
   30.54000     -3.6434386E-08
   30.60000     -3.9490587E-08
   30.66000     -4.2520284E-08
   30.72000     -4.5480895E-08
   30.78000     -4.8320015E-08
   30.84000     -5.0982102E-08
   30.90000     -5.3417178E-08
   30.96000     -5.5589862E-08
   31.02000     -5.7486403E-08
   31.08000     -5.9117394E-08
   31.14000     -6.0514431E-08
   31.20000     -6.1720883E-08
   31.26000     -6.2778867E-08
   31.32000     -6.3716165E-08
   31.38000     -6.4537446E-08
   31.44000     -6.5222899E-08
   31.50000     -6.5735264E-08
   31.56000     -6.6032989E-08
   31.62000     -6.6085377E-08
   31.68000     -6.5884386E-08
   31.74000     -6.5449044E-08
   31.80000     -6.4821357E-08
   31.86000     -6.4055207E-08
   31.92000     -6.3202656E-08
   31.98000     -6.2302462E-08
   32.04000     -6.1374656E-08
   32.10000     -6.0422295E-08
   32.16000     -5.9438765E-08
   32.22000     -5.8417179E-08
   32.28000     -5.7357688E-08
   32.34000     -5.6270135E-08
   32.40000     -5.5171377E-08
   32.46000     -5.4079081E-08
   32.52000     -5.3004868E-08
   32.58000     -5.1949737E-08
   32.64000     -5.0903473E-08
   32.70000     -4.9847994E-08
   32.76000     -4.8763010E-08
   32.82000     -4.7631946E-08
   32.88000     -4.6446186E-08
   32.94000     -4.5206797E-08
   33.00000     -4.3924057E-08
   33.06000     -4.2615660E-08
   33.12000     -4.1304666E-08
   33.18000     -4.0017696E-08
   33.24000     -3.8783238E-08
   33.30000     -3.7629658E-08
   33.36000     -3.6582446E-08
   33.42000     -3.5660875E-08
   33.48000     -3.4874908E-08
   33.54000     -3.4223426E-08
   33.60000     -3.3694786E-08
   33.66000     -3.3269938E-08
   33.72000     -3.2927431E-08
   33.78000     -3.2648746E-08
   33.84000     -3.2422289E-08
   33.90000     -3.2244749E-08
   33.96000     -3.2119360E-08
   34.02000     -3.2051869E-08
   34.08000     -3.2045545E-08
   34.14000     -3.2096889E-08
   34.20000     -3.2193270E-08
   34.26000     -3.2312890E-08
   34.32000     -3.2426808E-08
   34.38000     -3.2502214E-08
   34.44000     -3.2506176E-08
   34.50000     -3.2409339E-08
   34.56000     -3.2189408E-08
   34.62000     -3.1834400E-08
   34.68000     -3.1345529E-08
   34.74000     -3.0739216E-08
   34.80000     -3.0047385E-08
   34.86000     -2.9315160E-08
   34.92000     -2.8595551E-08
   34.98000     -2.7941512E-08
   35.04000     -2.7396762E-08
   35.10000     -2.6987465E-08
   35.16000     -2.6716963E-08
   35.22000     -2.6565141E-08
   35.28000     -2.6492797E-08
   35.34000     -2.6450030E-08
   35.40000     -2.6386504E-08
   35.46000     -2.6261059E-08
   35.52000     -2.6048422E-08
   35.58000     -2.5741796E-08
   35.64000     -2.5351262E-08
   35.70000     -2.4899093E-08
   35.76000     -2.4413568E-08
   35.82000     -2.3922944E-08
   35.88000     -2.3450685E-08
   35.94000     -2.3012440E-08
   36.00000     -2.2614657E-08
   36.06000     -2.2254461E-08
   36.12000     -2.1920487E-08
   36.18000     -2.1594552E-08
   36.24000     -2.1254358E-08
   36.30000     -2.0877270E-08
   36.36000     -2.0444983E-08
   36.42000     -1.9948363E-08
   36.48000     -1.9391219E-08
   36.54000     -1.8791694E-08
   36.60000     -1.8180289E-08
   36.66000     -1.7594482E-08
   36.72000     -1.7071017E-08
   36.78000     -1.6637888E-08
   36.84000     -1.6308501E-08
   36.90000     -1.6079936E-08
   36.96000     -1.5936070E-08
   37.02000     -1.5854660E-08
   37.08000     -1.5816159E-08
   37.14000     -1.5811322E-08
   37.20000     -1.5845115E-08
   37.26000     -1.5935584E-08
   37.32000     -1.6108068E-08
   37.38000     -1.6386595E-08
   37.44000     -1.6785066E-08
   37.50000     -1.7300790E-08
   37.56000     -1.7912042E-08
   37.62000     -1.8580147E-08
   37.68000     -1.9255429E-08
   37.74000     -1.9885540E-08
   37.80000     -2.0424396E-08
   37.86000     -2.0839932E-08
   37.92000     -2.1119243E-08
   37.98000     -2.1270061E-08
   38.04000     -2.1318183E-08
   38.10000     -2.1301116E-08
   38.16000     -2.1259137E-08
   38.22000     -2.1225668E-08
   38.28000     -2.1219430E-08
   38.34000     -2.1240520E-08
   38.40000     -2.1271834E-08
   38.46000     -2.1285624E-08
   38.52000     -2.1253372E-08
   38.58000     -2.1155945E-08
   38.64000     -2.0990603E-08
   38.70000     -2.0772429E-08
   38.76000     -2.0529484E-08
   38.82000     -2.0293291E-08
   38.88000     -2.0088063E-08
   38.94000     -1.9922663E-08
   39.00000     -1.9788491E-08
   39.06000     -1.9664318E-08
   39.12000     -1.9526510E-08
   39.18000     -1.9360861E-08
   39.24000     -1.9171479E-08
   39.30000     -1.8983140E-08
   39.36000     -1.8835813E-08
   39.42000     -1.8773086E-08
   39.48000     -1.8828503E-08
   39.54000     -1.9014722E-08
   39.60000     -1.9319309E-08
   39.66000     -1.9708551E-08
   39.72000     -2.0137742E-08
   39.78000     -2.0564052E-08
   39.84000     -2.0957504E-08
   39.90000     -2.1306532E-08
   39.96000     -2.1616861E-08
   40.02000     -2.1905061E-08
   40.08000     -2.2189765E-08
   40.14000     -2.2484137E-08
   40.20000     -2.2792101E-08
   40.26000     -2.3109170E-08
   40.32000     -2.3426898E-08
   40.38000     -2.3738783E-08
   40.44000     -2.4045308E-08
   40.50000     -2.4356392E-08
   40.56000     -2.4690669E-08
   40.62000     -2.5071909E-08
   40.68000     -2.5523674E-08
   40.74000     -2.6063471E-08
   40.80000     -2.6697593E-08
   40.86000     -2.7417673E-08
   40.92000     -2.8199793E-08
   40.98000     -2.9006683E-08
   41.04000     -2.9793151E-08
   41.10000     -3.0514187E-08
   41.16000     -3.1134427E-08
   41.22000     -3.1636869E-08
   41.28000     -3.2028488E-08
   41.34000     -3.2340715E-08
   41.40000     -3.2623952E-08
   41.46000     -3.2936931E-08
   41.52000     -3.3333375E-08
   41.58000     -3.3849620E-08
   41.64000     -3.4496910E-08
   41.70000     -3.5260943E-08
   41.76000     -3.6109075E-08
   41.82000     -3.7003307E-08
   41.88000     -3.7914955E-08
   41.94000     -3.8836358E-08
   42.00000     -3.9785686E-08
   42.06000     -4.0803180E-08
   42.12000     -4.1939938E-08
   42.18000     -4.3242970E-08
   42.24000     -4.4741402E-08
   42.30000     -4.6438210E-08
   42.36000     -4.8310056E-08
   42.42000     -5.0314878E-08
   42.48000     -5.2404545E-08
   42.54000     -5.4538631E-08
   42.60000     -5.6695491E-08
   42.66000     -5.8878275E-08
   42.72000     -6.1115365E-08
   42.78000     -6.3456568E-08
   42.84000     -6.5967072E-08
   42.90000     -6.8721292E-08
   42.96000     -7.1798269E-08
   43.02000     -7.5279310E-08
   43.08000     -7.9248217E-08
   43.14000     -8.3794198E-08
   43.20000     -8.9017213E-08
   43.26000     -9.5035688E-08
   43.32000     -1.0199591E-07
   43.38000     -1.1008225E-07
   43.44000     -1.1952712E-07
   43.50000     -1.3061938E-07
   43.56000     -1.4371082E-07
   43.62000     -1.5922062E-07
   43.68000     -1.7763880E-07
   43.74000     -1.9953018E-07
   43.80000     -2.2553995E-07
   43.86000     -2.5640190E-07
   43.92000     -2.9294912E-07
   43.98000     -3.3612628E-07
   44.04000     -3.8700213E-07
   44.10000     -4.4678109E-07
   44.16000     -5.1681337E-07
   44.22000     -5.9860463E-07
   44.28000     -6.9382622E-07
   44.34000     -8.0432869E-07
   44.40000     -9.3216079E-07
   44.46000     -1.0795939E-06
   44.52000     -1.2491532E-06
   44.58000     -1.4436520E-06
   44.64000     -1.6662275E-06
   44.70000     -1.9203742E-06
   44.76000     -2.2099725E-06
   44.82000     -2.5393103E-06
   44.88000     -2.9131006E-06
   44.94000     -3.3364970E-06
   45.00000     -3.8151065E-06
   45.06000     -4.3550108E-06
   45.12000     -4.9627834E-06
   45.18000     -5.6455215E-06
   45.24000     -6.4108690E-06
   45.30000     -7.2670432E-06
   45.36000     -8.2228526E-06
   45.42000     -9.2877117E-06
   45.48000     -1.0471643E-05
   45.54000     -1.1785279E-05
   45.60000     -1.3239849E-05
   45.66000     -1.4847174E-05
   45.72000     -1.6619650E-05
   45.78000     -1.8570227E-05
   45.84000     -2.0712387E-05
   45.90000     -2.3060102E-05
   45.96000     -2.5627793E-05
   46.02000     -2.8430264E-05
   46.08000     -3.1482632E-05
   46.14000     -3.4800247E-05
   46.20000     -3.8398572E-05
   46.26000     -4.2293115E-05
   46.32000     -4.6499274E-05
   46.38000     -5.1032246E-05
   46.44000     -5.5906901E-05
   46.50000     -6.1137638E-05
   46.56000     -6.6738248E-05
   46.62000     -7.2721821E-05
   46.68000     -7.9100515E-05
   46.74000     -8.5885469E-05
   46.80000     -9.3086608E-05
   46.86000     -1.0071250E-04
   46.92000     -1.0877016E-04
   46.98000     -1.1726494E-04
   47.04000     -1.2620032E-04
   47.10000     -1.3557779E-04
   47.16000     -1.4539673E-04
   47.22000     -1.5565426E-04
   47.28000     -1.6634507E-04
   47.34000     -1.7746148E-04
   47.40000     -1.8899322E-04
   47.46000     -2.0092745E-04
   47.52000     -2.1324866E-04
   47.58000     -2.2593868E-04
   47.64000     -2.3897675E-04
   47.70000     -2.5233947E-04
   47.76000     -2.6600095E-04
   47.82000     -2.7993292E-04
   47.88000     -2.9410489E-04
   47.94000     -3.0848428E-04
   48.00000     -3.2303660E-04
   48.06000     -3.3772580E-04
   48.12000     -3.5251441E-04
   48.18000     -3.6736383E-04
   48.24000     -3.8223449E-04
   48.30000     -3.9708638E-04
   48.36000     -4.1187913E-04
   48.42000     -4.2657263E-04
   48.48000     -4.4112719E-04
   48.54000     -4.5550393E-04
   48.60000     -4.6966533E-04
   48.66000     -4.8357545E-04
   48.72000     -4.9720035E-04
   48.78000     -5.1050831E-04
   48.84000     -5.2347040E-04
   48.90000     -5.3606048E-04
   48.96000     -5.4825586E-04
   49.02000     -5.6003715E-04
   49.08000     -5.7138887E-04
   49.14000     -5.8229925E-04
   49.20000     -5.9276063E-04
   49.26000     -6.0276914E-04
   49.32000     -6.1232509E-04
   49.38000     -6.2143296E-04
   49.44000     -6.3010113E-04
   49.50000     -6.3834200E-04
   49.56000     -6.4617174E-04
   49.62000     -6.5361010E-04
   49.68000     -6.6068018E-04
   49.74000     -6.6740793E-04
   49.80000     -6.7382201E-04
   49.86000     -6.7995314E-04
   49.92000     -6.8583386E-04
   49.98000     -6.9149816E-04
   50.04000     -6.9698103E-04
   50.10000     -7.0231780E-04
   50.16000     -7.0754392E-04
   50.22000     -7.1269425E-04
   50.28000     -7.1780267E-04
   50.34000     -7.2290149E-04
   50.40000     -7.2802120E-04
   50.46000     -7.3318975E-04
   50.52000     -7.3843251E-04
   50.58000     -7.4377161E-04
   50.64000     -7.4922590E-04
   50.70000     -7.5481011E-04
   50.76000     -7.6053548E-04
   50.82000     -7.6640880E-04
   50.88000     -7.7243283E-04
   50.94000     -7.7860599E-04
   51.00000     -7.8492274E-04
   51.06000     -7.9137308E-04
   51.12000     -7.9794333E-04
   51.18000     -8.0461620E-04
   51.24000     -8.1137061E-04
   51.30000     -8.1818260E-04
   51.36000     -8.2502526E-04
   51.42000     -8.3186920E-04
   51.48000     -8.3868305E-04
   51.54000     -8.4543391E-04
   51.60000     -8.5208775E-04
   51.66000     -8.5861032E-04
   51.72000     -8.6496706E-04
   51.78000     -8.7112410E-04
   51.84000     -8.7704853E-04
   51.90000     -8.8270922E-04
   51.96000     -8.8807679E-04
   52.02000     -8.9312432E-04
   52.08000     -8.9782773E-04
   52.14000     -9.0216607E-04
   52.20000     -9.0612168E-04
   52.26000     -9.0968102E-04
   52.32000     -9.1283413E-04
   52.38000     -9.1557542E-04
   52.44000     -9.1790332E-04
   52.50000     -9.1982033E-04
   52.56000     -9.2133315E-04
   52.62000     -9.2245231E-04
   52.68000     -9.2319207E-04
   52.74000     -9.2357025E-04
   52.80000     -9.2360785E-04
   52.86000     -9.2332868E-04
   52.92000     -9.2275906E-04
   52.98000     -9.2192733E-04
   53.04000     -9.2086336E-04
   53.10000     -9.1959810E-04
   53.16000     -9.1816310E-04
   53.22000     -9.1659010E-04
   53.28000     -9.1491046E-04
   53.34000     -9.1315468E-04
   53.40000     -9.1135153E-04
   53.46000     -9.0952805E-04
   53.52000     -9.0770877E-04
   53.58000     -9.0591545E-04
   53.64000     -9.0416684E-04
   53.70000     -9.0247818E-04
   53.76000     -9.0086111E-04
   53.82000     -8.9932315E-04
   53.88000     -8.9786801E-04
   53.94000     -8.9649513E-04
   54.00000     -8.9519995E-04
   54.06000     -8.9397375E-04
   54.12000     -8.9280383E-04
   54.18000     -8.9167384E-04
   54.24000     -8.9056388E-04
   54.30000     -8.8945060E-04
   54.36000     -8.8830764E-04
   54.42000     -8.8710553E-04
   54.48000     -8.8581280E-04
   54.54000     -8.8439591E-04
   54.60000     -8.8282011E-04
   54.66000     -8.8104990E-04
   54.72000     -8.7904971E-04
   54.78000     -8.7678392E-04
   54.84000     -8.7421760E-04
   54.90000     -8.7131670E-04
   54.96000     -8.6804898E-04
   55.02000     -8.6438376E-04
   55.08000     -8.6029305E-04
   55.14000     -8.5575168E-04
   55.20000     -8.5073768E-04
   55.26000     -8.4523257E-04
   55.32000     -8.3922176E-04
   55.38000     -8.3269441E-04
   55.44000     -8.2564389E-04
   55.50000     -8.1806758E-04
   55.56000     -8.0996740E-04