  -2.400000      0.0000000E+00
  -2.340000      0.0000000E+00
  -2.280000      0.0000000E+00
  -2.220000      0.0000000E+00
  -2.160000      0.0000000E+00
  -2.100000      0.0000000E+00
  -2.040000      4.5877091E-22
  -1.980000      3.2452939E-21
  -1.920000      8.7039571E-21
  -1.860000     -1.6028092E-21
  -1.800000     -9.9987893E-20
  -1.740000     -4.3254590E-19
  -1.680000     -1.1376472E-18
  -1.620000     -2.0742557E-18
  -1.560000     -2.4102449E-18
  -1.500000     -4.0995410E-19
  -1.440000      5.9897608E-18
  -1.380000      1.7386092E-17
  -1.320000      3.0336422E-17
  -1.260000      3.5804764E-17
  -1.200000      2.1317798E-17
  -1.140000     -2.1477630E-17
  -1.080000     -8.5821875E-17
  -1.020000     -1.4250988E-16
 -0.9600000     -1.4627445E-16
 -0.9000000     -6.2111556E-17
 -0.8400000      9.4968050E-17
 -0.7800000      2.3076277E-16
 -0.7200000      1.8804387E-16
 -0.6600000     -1.6739133E-16
 -0.6000000     -8.0463000E-16
 -0.5400000     -1.3995704E-15
 -0.4800000     -1.3335368E-15
 -0.4200000      8.1366038E-17
 -0.3600000      3.1452214E-15
 -0.3000000      7.2385555E-15
 -0.2400000      1.0529342E-14
 -0.1800000      1.0273074E-14
 -0.1200000      3.8916128E-15
 -5.9999999E-02 -9.3680014E-15
  0.0000000E+00 -2.6864714E-14
  5.9999999E-02 -4.2063599E-14
  0.1200000     -4.5962196E-14
  0.1800000     -3.0615274E-14
  0.2400000      6.1750443E-15
  0.3000000      5.7011897E-14
  0.3600000      1.0433165E-13
  0.4200000      1.2481247E-13
  0.4800000      9.8533974E-14
  0.5400000      2.0098005E-14
  0.6000000     -9.3138422E-14
  0.6600000     -2.0088235E-13
  0.7200000     -2.5076013E-13
  0.7800000     -1.9881033E-13
  0.8400000     -3.3114912E-14
  0.9000000      2.0948143E-13
  0.9600000      4.4346842E-13
   1.020000      5.5670529E-13
   1.080000      4.5109261E-13
   1.140000      8.9441251E-14
   1.200000     -4.6982795E-13
   1.260000     -1.0678893E-12
   1.320000     -1.4800094E-12
   1.380000     -1.4846372E-12
   1.440000     -9.4738486E-13
   1.500000      1.0960712E-13
   1.560000      1.4820361E-12
   1.620000      2.8184603E-12
   1.680000      3.7120064E-12
   1.740000      3.8223461E-12
   1.800000      2.9866231E-12
   1.860000      1.2778852E-12
   1.920000     -1.0134787E-12
   1.980000     -3.4705301E-12
   2.040000     -5.6772156E-12
   2.100000     -7.3279291E-12
   2.160000     -8.2680312E-12
   2.220000     -8.4422868E-12
   2.280000     -7.7726454E-12
   2.340000     -6.0301221E-12
   2.400000     -2.7870403E-12
   2.460000      2.4795311E-12
   2.520000      1.0116282E-11
   2.580000      1.9914454E-11
   2.640000      3.0755041E-11
   2.700000      4.0444727E-11
   2.760000      4.5883432E-11
   2.820000      4.3618067E-11
   2.880000      3.0713130E-11
   2.940000      5.7483931E-12
   3.000000     -3.0318872E-11
   3.060000     -7.3685599E-11
   3.120000     -1.1780364E-10
   3.180000     -1.5408953E-10
   3.240000     -1.7314231E-10
   3.300000     -1.6626732E-10
   3.360000     -1.2706966E-10
   3.420000     -5.2909035E-11
   3.480000      5.3930169E-11
   3.540000      1.8544855E-10
   3.600000      3.2760325E-10
   3.660000      4.6055584E-10
   3.720000      5.5965665E-10
   3.780000      5.9733390E-10
   3.840000      5.4598065E-10
   3.900000      3.8175035E-10
   3.960000      8.8909512E-11
   4.020000     -3.3587447E-10
   4.080000     -8.8011948E-10
   4.140000     -1.5138122E-09
   4.200000     -2.1900115E-09
   4.260000     -2.8480036E-09
   4.320000     -3.4187335E-09
   4.380000     -3.8317700E-09
   4.440000     -4.0227319E-09
   4.500000     -3.9400310E-09
   4.560000     -3.5499703E-09
   4.620000     -2.8396359E-09
   4.680000     -1.8174986E-09
   4.740000     -5.1206595E-10
   4.800000      1.0308089E-09
   4.860000      2.7513241E-09
   4.920000      4.5793556E-09
   4.980000      6.4381247E-09
   5.040000      8.2479890E-09
   5.100000      9.9306101E-09
   5.160000      1.1413706E-08
   5.220000      1.2636377E-08
   5.280000      1.3554640E-08
   5.340000      1.4146407E-08
   5.400000      1.4414907E-08
   5.460000      1.4389537E-08
   5.520000      1.4123384E-08
   5.580000      1.3687211E-08
   5.640000      1.3160422E-08
   5.700000      1.2620265E-08
   5.760000      1.2131016E-08
   5.820000      1.1735150E-08
   5.880000      1.1448212E-08
   5.940000      1.1258480E-08
   6.000000      1.1131509E-08
   6.060000      1.1018617E-08
   6.120000      1.0867455E-08
   6.180000      1.0632331E-08
   6.240000      1.0282005E-08
   6.300000      9.8033501E-09
   6.360000      9.2003249E-09
   6.420000      8.4889846E-09
   6.480000      7.6902733E-09
   6.540000      6.8228854E-09
   6.600000      5.8983360E-09
   6.660000      4.9195337E-09
   6.720000      3.8829464E-09
   6.780000      2.7832341E-09
   6.840000      1.6184494E-09
   6.900000      3.9384515E-10
   6.960000     -8.7701596E-10
   7.020000     -2.1740141E-09
   7.080000     -3.4741043E-09
   7.140000     -4.7551381E-09
   7.200000     -5.9982104E-09
   7.260000     -7.1876216E-09
   7.320000     -8.3087173E-09
   7.380000     -9.3449772E-09
   7.440000     -1.0276264E-08
   7.500000     -1.1079904E-08
   7.560000     -1.1735223E-08
   7.620000     -1.2230765E-08
   7.680000     -1.2572105E-08
   7.740000     -1.2787569E-08
   7.800000     -1.2929396E-08
   7.860000     -1.3069066E-08
   7.920000     -1.3287216E-08
   7.980000     -1.3660213E-08
   8.040000     -1.4246606E-08
   8.100000     -1.5076862E-08
   8.160000     -1.6149015E-08
   8.220000     -1.7431301E-08
   8.280000     -1.8871013E-08
   8.340000     -2.0407215E-08
   8.400000     -2.1984006E-08
   8.460000     -2.3561087E-08
   8.520000     -2.5119277E-08
   8.580000     -2.6660000E-08
   8.640000     -2.8199549E-08
   8.700000     -2.9760065E-08
   8.760000     -3.1359953E-08
   8.820000     -3.3006295E-08
   8.880000     -3.4690970E-08
   8.940000     -3.6391089E-08
   9.000000     -3.8072997E-08
   9.060000     -3.9698211E-08
   9.120000     -4.1229338E-08
   9.180000     -4.2634301E-08
   9.240000     -4.3888033E-08
   9.300000     -4.4971870E-08
   9.360000     -4.5871648E-08
   9.420000     -4.6576034E-08
   9.480000     -4.7076288E-08
   9.540000     -4.7367934E-08
   9.600000     -4.7453870E-08
   9.660000     -4.7347534E-08
   9.720000     -4.7074508E-08
   9.780000     -4.6671264E-08
   9.840000     -4.6180656E-08
   9.900000     -4.5644843E-08
   9.960000     -4.5097316E-08
   10.02000     -4.4556167E-08
   10.08000     -4.4020460E-08
   10.14000     -4.3470706E-08
   10.20000     -4.2873481E-08
   10.26000     -4.2188969E-08
   10.32000     -4.1379558E-08
   10.38000     -4.0417394E-08
   10.44000     -3.9289162E-08
   10.50000     -3.7997090E-08
   10.56000     -3.6556184E-08
   10.62000     -3.4988659E-08
   10.68000     -3.3317193E-08
   10.74000     -3.1558876E-08
   10.80000     -2.9721434E-08
   10.86000     -2.7802702E-08
   10.92000     -2.5793238E-08
   10.98000     -2.3681249E-08
   11.04000     -2.1458247E-08
   11.10000     -1.9123913E-08
   11.16000     -1.6688986E-08
   11.22000     -1.4175692E-08
   11.28000     -1.1616112E-08
   11.34000     -9.0492627E-09
   11.40000     -6.5178689E-09
   11.46000     -4.0654538E-09
   11.52000     -1.7338656E-09
   11.58000      4.3904733E-10
   11.64000      2.4220830E-09
   11.70000      4.1938439E-09
   11.76000      5.7461067E-09
   11.82000      7.0865425E-09
   11.88000      8.2396561E-09
   11.94000      9.2449470E-09
   12.00000      1.0151942E-08
   12.06000      1.1012622E-08
   12.12000      1.1872674E-08
   12.18000      1.2763511E-08
   12.24000      1.3696998E-08
   12.30000      1.4664244E-08
   12.36000      1.5638770E-08
   12.42000      1.6583313E-08
   12.48000      1.7458632E-08
   12.54000      1.8232253E-08
   12.60000      1.8885311E-08
   12.66000      1.9416168E-08
   12.72000      1.9840341E-08
   12.78000      2.0187064E-08
   12.84000      2.0493436E-08
   12.90000      2.0797325E-08
   12.96000      2.1130393E-08
   13.02000      2.1512349E-08
   13.08000      2.1947367E-08
   13.14000      2.2423244E-08
   13.20000      2.2913456E-08
   13.26000      2.3381816E-08
   13.32000      2.3788823E-08
   13.38000      2.4098521E-08
   13.44000      2.4284383E-08
   13.50000      2.4332982E-08
   13.56000      2.4244768E-08
   13.62000      2.4031991E-08
   13.68000      2.3714641E-08
   13.74000      2.3315774E-08
   13.80000      2.2857591E-08
   13.86000      2.2359311E-08
   13.92000      2.1837051E-08
   13.98000      2.1305226E-08
   14.04000      2.0778391E-08
   14.10000      2.0272447E-08
   14.16000      1.9804478E-08
   14.22000      1.9391173E-08
   14.28000      1.9046437E-08
   14.34000      1.8779119E-08
   14.40000      1.8591745E-08
   14.46000      1.8480687E-08
   14.52000      1.8437534E-08
   14.58000      1.8451040E-08
   14.64000      1.8508878E-08
   14.70000      1.8598707E-08
   14.76000      1.8708580E-08
   14.82000      1.8827155E-08
   14.88000      1.8944361E-08
   14.94000      1.9052841E-08
   15.00000      1.9150017E-08
   15.06000      1.9240005E-08
   15.12000      1.9334410E-08
   15.18000      1.9451237E-08
   15.24000      1.9611855E-08
   15.30000      1.9836675E-08
   15.36000      2.0140881E-08
   15.42000      2.0531534E-08
   15.48000      2.1006910E-08
   15.54000      2.1558119E-08
   15.60000      2.2172234E-08
   15.66000      2.2835753E-08
   15.72000      2.3537289E-08
   15.78000      2.4269045E-08
   15.84000      2.5027155E-08
   15.90000      2.5811564E-08
   15.96000      2.6625990E-08
   16.02000      2.7478167E-08
   16.08000      2.8379919E-08
   16.14000      2.9346378E-08
   16.20000      3.0393640E-08
   16.26000      3.1534910E-08
   16.32000      3.2775915E-08
   16.38000      3.4111157E-08
   16.44000      3.5522621E-08
   16.50000      3.6981913E-08
   16.56000      3.8455738E-08
   16.62000      3.9913193E-08
   16.68000      4.1332530E-08
   16.74000      4.2705022E-08
   16.80000      4.4034266E-08
   16.86000      4.5330925E-08
   16.92000      4.6604487E-08
   16.98000      4.7854794E-08
   17.04000      4.9066312E-08
   17.10000      5.0207294E-08
   17.16000      5.1234437E-08
   17.22000      5.2101765E-08
   17.28000      5.2771146E-08
   17.34000      5.3221232E-08
   17.40000      5.3452215E-08
   17.46000      5.3485117E-08
   17.52000      5.3356128E-08
   17.58000      5.3107829E-08
   17.64000      5.2780113E-08
   17.70000      5.2403241E-08
   17.76000      5.1994604E-08
   17.82000      5.1559354E-08
   17.88000      5.1093792E-08
   17.94000      5.0589563E-08
   18.00000      5.0036899E-08
   18.06000      4.9425726E-08
   18.12000      4.8744610E-08
   18.18000      4.7978475E-08
   18.24000      4.7106600E-08
   18.30000      4.6102329E-08
   18.36000      4.4935224E-08
   18.42000      4.3575334E-08
   18.48000      4.1998650E-08
   18.54000      4.0192070E-08
   18.60000      3.8156575E-08
   18.66000      3.5907842E-08
   18.72000      3.3474439E-08
   18.78000      3.0894370E-08
   18.84000      2.8211236E-08
   18.90000      2.5471040E-08
   18.96000      2.2720254E-08
   19.02000      2.0005004E-08
   19.08000      1.7370793E-08
   19.14000      1.4861818E-08
   19.20000      1.2519130E-08
   19.26000      1.0377271E-08
   19.32000      8.4597103E-09
   19.38000      6.7738779E-09
   19.44000      5.3071432E-09
   19.50000      4.0249928E-09
   19.56000      2.8724112E-09
   19.62000      1.7787465E-09
   19.68000      6.6547728E-10
   19.74000     -5.4450028E-10
   19.80000     -1.9179445E-09
   19.86000     -3.5045360E-09
   19.92000     -5.3335958E-09
   19.98000     -7.4145254E-09
   20.04000     -9.7401722E-09
   20.10000     -1.2291587E-08
   20.16000     -1.5042433E-08
   20.22000     -1.7961813E-08
   20.28000     -2.1015159E-08
   20.34000     -2.4163880E-08
   20.40000     -2.7364967E-08
   20.46000     -3.0571915E-08
   20.52000     -3.3737571E-08
   20.58000     -3.6818701E-08
   20.64000     -3.9781103E-08
   20.70000     -4.2603769E-08
   20.76000     -4.5280828E-08
   20.82000     -4.7820635E-08
   20.88000     -5.0242477E-08
   20.94000     -5.2571856E-08
   21.00000     -5.4835699E-08
   21.06000     -5.7058489E-08
   21.12000     -5.9259808E-08
   21.18000     -6.1452987E-08
   21.24000     -6.3644499E-08
   21.30000     -6.5833540E-08
   21.36000     -6.8011659E-08
   21.42000     -7.0162777E-08
   21.48000     -7.2263902E-08
   21.54000     -7.4287001E-08
   21.60000     -7.6201957E-08
   21.66000     -7.7979919E-08
   21.72000     -7.9596255E-08
   21.78000     -8.1032098E-08
   21.84000     -8.2273921E-08
   21.90000     -8.3311328E-08
   21.96000     -8.4133845E-08
   22.02000     -8.4728278E-08
   22.08000     -8.5077936E-08
   22.14000     -8.5164800E-08
   22.20000     -8.4974566E-08
   22.26000     -8.4503611E-08
   22.32000     -8.3765713E-08
   22.38000     -8.2796412E-08
   22.44000     -8.1653035E-08
   22.50000     -8.0409706E-08
   22.56000     -7.9148201E-08
   22.62000     -7.7946595E-08
   22.68000     -7.6868616E-08
   22.74000     -7.5956216E-08
   22.80000     -7.5226964E-08
   22.86000     -7.4675974E-08
   22.92000     -7.4281068E-08
   22.98000     -7.4008923E-08
   23.04000     -7.3820054E-08
   23.10000     -7.3671636E-08
   23.16000     -7.3518450E-08
   23.22000     -7.3313132E-08
   23.28000     -7.3007428E-08
   23.34000     -7.2555402E-08
   23.40000     -7.1918670E-08
   23.46000     -7.1072478E-08
   23.52000     -7.0010891E-08
   23.58000     -6.8749493E-08
   23.64000     -6.7324770E-08
   23.70000     -6.5790310E-08
   23.76000     -6.4210901E-08
   23.82000     -6.2655793E-08
   23.88000     -6.1192189E-08
   23.94000     -5.9879497E-08
   24.00000     -5.8764350E-08
   24.06000     -5.7876395E-08
   24.12000     -5.7225073E-08
   24.18000     -5.6797987E-08
   24.24000     -5.6561824E-08
   24.30000     -5.6466302E-08
   24.36000     -5.6451135E-08
   24.42000     -5.6454791E-08
   24.48000     -5.6423119E-08
   24.54000     -5.6315734E-08
   24.60000     -5.6108618E-08
   24.66000     -5.5792572E-08
   24.72000     -5.5368659E-08
   24.78000     -5.4842690E-08
   24.84000     -5.4221029E-08
   24.90000     -5.3509247E-08
   24.96000     -5.2713791E-08
   25.02000     -5.1845294E-08
   25.08000     -5.0921308E-08
   25.14000     -4.9966360E-08
   25.20000     -4.9008371E-08
   25.26000     -4.8072152E-08
   25.32000     -4.7172321E-08
   25.38000     -4.6308550E-08
   25.44000     -4.5465459E-08
   25.50000     -4.4617714E-08
   25.56000     -4.3738712E-08
   25.62000     -4.2809585E-08
   25.68000     -4.1824769E-08
   25.74000     -4.0791790E-08
   25.80000     -3.9724938E-08
   25.86000     -3.8635310E-08
   25.92000     -3.7521172E-08
   25.98000     -3.6362735E-08
   26.04000     -3.5123829E-08
   26.10000     -3.3760308E-08
   26.16000     -3.2232535E-08
   26.22000     -3.0517654E-08
   26.28000     -2.8617627E-08
   26.34000     -2.6560624E-08
   26.40000     -2.4395717E-08
   26.46000     -2.2183103E-08
   26.52000     -1.9983133E-08
   26.58000     -1.7847292E-08
   26.64000     -1.5813008E-08
   26.70000     -1.3902522E-08
   26.76000     -1.2124710E-08
   26.82000     -1.0478181E-08
   26.88000     -8.9543004E-09
   26.94000     -7.5394651E-09
   27.00000     -6.2168155E-09
   27.06000     -4.9678812E-09
   27.12000     -3.7745895E-09
   27.18000     -2.6215512E-09
   27.24000     -1.4980557E-09
   27.30000     -3.9903411E-10
   27.36000      6.7550615E-10
   27.42000      1.7224646E-09
   27.48000      2.7382991E-09
   27.54000      3.7212424E-09
   27.60000      4.6721151E-09
   27.66000      5.5933738E-09
   27.72000      6.4868346E-09
   27.78000      7.3511504E-09
   27.84000      8.1802920E-09
   27.90000      8.9638705E-09
   27.96000      9.6893116E-09
   28.02000      1.0345028E-08
   28.08000      1.0923232E-08
   28.14000      1.1421116E-08
   28.20000      1.1839826E-08
   28.26000      1.2181624E-08
   28.32000      1.2446495E-08
   28.38000      1.2629682E-08
   28.44000      1.2721313E-08
   28.50000      1.2708378E-08
   28.56000      1.2578264E-08
   28.62000      1.2322411E-08
   28.68000      1.1938623E-08
   28.74000      1.1431128E-08
   28.80000      1.0808463E-08
   28.86000      1.0080180E-08
   28.92000      9.2537906E-09
   28.98000      8.3332319E-09
   29.04000      7.3194553E-09
   29.10000      6.2128365E-09
   29.16000      5.0163824E-09
   29.22000      3.7384011E-09
   29.28000      2.3934936E-09
   29.34000      1.0013388E-09
   29.40000     -4.1650416E-10
   29.46000     -1.8409044E-09
   29.52000     -3.2593477E-09
   29.58000     -4.6687978E-09
   29.64000     -6.0763918E-09
   29.70000     -7.4977216E-09
   29.76000     -8.9531129E-09
   29.82000     -1.0462860E-08
   29.88000     -1.2042647E-08
   29.94000     -1.3700340E-08
   30.00000     -1.5434891E-08
   30.06000     -1.7237415E-08
   30.12000     -1.9093804E-08
   30.18000     -2.0987743E-08
   30.24000     -2.2902865E-08
   30.30000     -2.4823262E-08
   30.36000     -2.6732245E-08
   30.42000     -2.8610172E-08
   30.48000     -3.0432705E-08
   30.54000     -3.2170881E-08
   30.60000     -3.3793849E-08
   30.66000     -3.5273953E-08
   30.72000     -3.6592901E-08
   30.78000     -3.7746887E-08
   30.84000     -3.8748702E-08
   30.90000     -3.9625682E-08
   30.96000     -4.0413681E-08
   31.02000     -4.1148795E-08
   31.08000     -4.1859451E-08
   31.14000     -4.2561418E-08
   31.20000     -4.3257469E-08
   31.26000     -4.3941508E-08
   31.32000     -4.4605535E-08
   31.38000     -4.5246413E-08
   31.44000     -4.5869424E-08
   31.50000     -4.6486782E-08
   31.56000     -4.7111065E-08
   31.62000     -4.7745811E-08
   31.68000     -4.8376840E-08
   31.74000     -4.8968182E-08
   31.80000     -4.9465147E-08
   31.86000     -4.9804814E-08
   31.92000     -4.9931341E-08
   31.98000     -4.9811625E-08
   32.04000     -4.9446264E-08
   32.10000     -4.8871879E-08
   32.16000     -4.8153755E-08
   32.22000     -4.7370715E-08
   32.28000     -4.6596895E-08
   32.34000     -4.5885894E-08
   32.40000     -4.5261874E-08
   32.46000     -4.4719702E-08
   32.52000     -4.4233033E-08
   32.58000     -4.3766860E-08
   32.64000     -4.3290004E-08
   32.70000     -4.2783668E-08
   32.76000     -4.2244210E-08
   32.82000     -4.1680401E-08
   32.88000     -4.1107416E-08
   32.94000     -4.0540172E-08
   33.00000     -3.9988361E-08
   33.06000     -3.9454292E-08
   33.12000     -3.8933379E-08
   33.18000     -3.8416548E-08
   33.24000     -3.7893372E-08
   33.30000     -3.7355193E-08
   33.36000     -3.6797672E-08
   33.42000     -3.6222570E-08
   33.48000     -3.5638458E-08
   33.54000     -3.5060228E-08
   33.60000     -3.4507412E-08
   33.66000     -3.4001591E-08
   33.72000     -3.3563708E-08
   33.78000     -3.3212228E-08
   33.84000     -3.2962824E-08
   33.90000     -3.2829721E-08
   33.96000     -3.2827810E-08
   34.02000     -3.2974071E-08
   34.08000     -3.3286632E-08
   34.14000     -3.3780580E-08
   34.20000     -3.4460911E-08
   34.26000     -3.5314415E-08
   34.32000     -3.6303529E-08
   34.38000     -3.7364956E-08
   34.44000     -3.8415056E-08
   34.50000     -3.9361705E-08
   34.56000     -4.0120174E-08
   34.62000     -4.0628784E-08
   34.68000     -4.0859572E-08
   34.74000     -4.0820492E-08
   34.80000     -4.0548162E-08
   34.86000     -4.0093237E-08
   34.92000     -3.9503220E-08
   34.98000     -3.8808384E-08
   35.04000     -3.8015624E-08
   35.10000     -3.7112141E-08
   35.16000     -3.6077250E-08
   35.22000     -3.4897578E-08
   35.28000     -3.3579457E-08
   35.34000     -3.2153647E-08
   35.40000     -3.0670268E-08
   35.46000     -2.9186069E-08
   35.52000     -2.7749078E-08
   35.58000     -2.6386891E-08
   35.64000     -2.5103494E-08
   35.70000     -2.3886008E-08
   35.76000     -2.2718700E-08
   35.82000     -2.1598654E-08
   35.88000     -2.0546652E-08
   35.94000     -1.9608596E-08
   36.00000     -1.8846485E-08
   36.06000     -1.8322019E-08
   36.12000     -1.8078607E-08
   36.18000     -1.8128304E-08
   36.24000     -1.8448242E-08
   36.30000     -1.8987595E-08
   36.36000     -1.9682380E-08
   36.42000     -2.0472697E-08
   36.48000     -2.1316444E-08
   36.54000     -2.2195037E-08
   36.60000     -2.3109802E-08
   36.66000     -2.4070930E-08
   36.72000     -2.5083443E-08
   36.78000     -2.6135305E-08
   36.84000     -2.7191922E-08
   36.90000     -2.8198787E-08
   36.96000     -2.9091360E-08
   37.02000     -2.9808845E-08
   37.08000     -3.0307422E-08
   37.14000     -3.0568792E-08
   37.20000     -3.0601388E-08
   37.26000     -3.0434098E-08
   37.32000     -3.0104570E-08
   37.38000     -2.9646035E-08
   37.44000     -2.9077016E-08
   37.50000     -2.8397434E-08
   37.56000     -2.7592517E-08
   37.62000     -2.6643214E-08
   37.68000     -2.5539379E-08
   37.74000     -2.4290806E-08
   37.80000     -2.2931651E-08
   37.86000     -2.1516009E-08
   37.92000     -2.0105551E-08
   37.98000     -1.8753260E-08
   38.04000     -1.7488887E-08
   38.10000     -1.6311414E-08
   38.16000     -1.5191413E-08
   38.22000     -1.4082538E-08
   38.28000     -1.2938150E-08
   38.34000     -1.1727121E-08
   38.40000     -1.0443333E-08
   38.46000     -9.1057943E-09
   38.52000     -7.7497848E-09
   38.58000     -6.4127215E-09
   38.64000     -5.1201243E-09
   38.70000     -3.8768104E-09
   38.76000     -2.6662852E-09
   38.82000     -1.4582380E-09
   38.88000     -2.2115845E-10
   38.94000      1.0645952E-09
   39.00000      2.3979716E-09
   39.06000      3.7557530E-09
   39.12000      5.0989537E-09
   39.18000      6.3849006E-09
   39.24000      7.5808018E-09
   39.30000      8.6740073E-09
   39.36000      9.6751336E-09
   39.42000      1.0612533E-08
   39.48000      1.1519552E-08
   39.54000      1.2418679E-08
   39.60000      1.3308069E-08
   39.66000      1.4155504E-08
   39.72000      1.4902572E-08
   39.78000      1.5478445E-08
   39.84000      1.5819257E-08
   39.90000      1.5886950E-08
   39.96000      1.5681483E-08
   40.02000      1.5242430E-08
   40.08000      1.4639611E-08
   40.14000      1.3956012E-08
   40.20000      1.3268692E-08
   40.26000      1.2633687E-08
   40.32000      1.2079131E-08
   40.38000      1.1607632E-08
   40.44000      1.1205763E-08
   40.50000      1.0856307E-08
   40.56000      1.0548525E-08
   40.62000      1.0282942E-08
   40.68000      1.0069476E-08
   40.74000      9.9201607E-09
   40.80000      9.8394120E-09
   40.86000      9.8154000E-09
   40.92000      9.8155155E-09
   40.98000      9.7876462E-09
   41.04000      9.6672848E-09
   41.10000      9.3890016E-09
   41.16000      8.8996277E-09
   41.22000      8.1699936E-09
   41.28000      7.2022086E-09
   41.34000      6.0304304E-09
   41.40000      4.7146211E-09
   41.46000      3.3287499E-09
   41.52000      1.9466058E-09
   41.58000      6.2932537E-10
   41.64000     -5.8160121E-10
   41.70000     -1.6637849E-09
   41.76000     -2.6063594E-09
   41.82000     -3.3984573E-09
   41.88000     -4.0183834E-09
   41.94000     -4.4279456E-09
   42.00000     -4.5744475E-09
   42.06000     -4.3998059E-09
   42.12000     -3.8533225E-09
   42.18000     -2.9030200E-09
   42.24000     -1.5408270E-09
   42.30000      2.2088653E-10
   42.36000      2.3607765E-09
   42.42000      4.8645816E-09
   42.48000      7.7409936E-09
   42.54000      1.1033163E-08
   42.60000      1.4823705E-08
   42.66000      1.9233770E-08
   42.72000      2.4418908E-08
   42.78000      3.0565332E-08
   42.84000      3.7889667E-08
   42.90000      4.6643720E-08
   42.96000      5.7123888E-08
   43.02000      6.9683495E-08
   43.08000      8.4745963E-08
   43.14000      1.0281711E-07
   43.20000      1.2449617E-07
   43.26000      1.5048641E-07
   43.32000      1.8160712E-07
   43.38000      2.1880882E-07
   43.44000      2.6319344E-07
   43.50000      3.1604017E-07
   43.56000      3.7883592E-07
   43.62000      4.5331032E-07
   43.68000      5.4147176E-07
   43.74000      6.4564512E-07
   43.80000      7.6850790E-07
   43.86000      9.1312700E-07
   43.92000      1.0829965E-06
   43.98000      1.2820789E-06
   44.04000      1.5148519E-06
   44.10000      1.7863659E-06
   44.16000      2.1023091E-06
   44.22000      2.4690833E-06
   44.28000      2.8938880E-06
   44.34000      3.3848107E-06
   44.40000      3.9509191E-06
   44.46000      4.6023547E-06
   44.52000      5.3504286E-06
   44.58000      6.2077183E-06
   44.64000      7.1881700E-06
   44.70000      8.3072064E-06
   44.76000      9.5818377E-06
   44.82000      1.1030780E-05
   44.88000      1.2674572E-05
   44.94000      1.4535693E-05
   45.00000      1.6638669E-05
   45.06000      1.9010182E-05
   45.12000      2.1679161E-05
   45.18000      2.4676874E-05
   45.24000      2.8037011E-05
   45.30000      3.1795760E-05
   45.36000      3.5991878E-05
   45.42000      4.0666750E-05
   45.48000      4.5864414E-05
   45.54000      5.1631567E-05
   45.60000      5.8017529E-05
   45.66000      6.5074193E-05
   45.72000      7.2855946E-05
   45.78000      8.1419508E-05
   45.84000      9.0823829E-05
   45.90000      1.0112987E-04
   45.96000      1.1240042E-04
   46.02000      1.2469980E-04
   46.08000      1.3809359E-04
   46.14000      1.5264827E-04
   46.20000      1.6843087E-04
   46.26000      1.8550844E-04
   46.32000      2.0394764E-04
   46.38000      2.2381415E-04
   46.44000      2.4517209E-04
   46.50000      2.6808341E-04
   46.56000      2.9260732E-04
   46.62000      3.1879952E-04
   46.68000      3.4671143E-04
   46.74000      3.7638974E-04
   46.80000      4.0787543E-04
   46.86000      4.4120310E-04
   46.92000      4.7640031E-04
   46.98000      5.1348674E-04
   47.04000      5.5247347E-04
   47.10000      5.9336255E-04
   47.16000      6.3614611E-04
   47.22000      6.8080600E-04
   47.28000      7.2731322E-04
   47.34000      7.7562744E-04
   47.40000      8.2569680E-04
   47.46000      8.7745744E-04
   47.52000      9.3083357E-04
   47.58000      9.8573731E-04
   47.64000      1.0420688E-03
   47.70000      1.0997166E-03
   47.76000      1.1585575E-03
   47.82000      1.2184575E-03
   47.88000      1.2792726E-03
   47.94000      1.3408489E-03
   48.00000      1.4030245E-03
   48.06000      1.4656294E-03
   48.12000      1.5284875E-03
   48.18000      1.5914181E-03
   48.24000      1.6542355E-03
   48.30000      1.7167532E-03
   48.36000      1.7787829E-03
   48.42000      1.8401378E-03
   48.48000      1.9006331E-03
   48.54000      1.9600890E-03
   48.60000      2.0183316E-03
   48.66000      2.0751946E-03
   48.72000      2.1305217E-03
   48.78000      2.1841659E-03
   48.84000      2.2359940E-03
   48.90000      2.2858861E-03
   48.96000      2.3337374E-03
   49.02000      2.3794598E-03
   49.08000      2.4229819E-03
   49.14000      2.4642511E-03
   49.20000      2.5032323E-03
   49.26000      2.5399101E-03
   49.32000      2.5742874E-03
   49.38000      2.6063861E-03
   49.44000      2.6362468E-03
   49.50000      2.6639288E-03
   49.56000      2.6895085E-03
   49.62000      2.7130777E-03
   49.68000      2.7347447E-03
   49.74000      2.7546310E-03
   49.80000      2.7728688E-03
   49.86000      2.7896026E-03
   49.92000      2.8049836E-03
   49.98000      2.8191702E-03
   50.04000      2.8323242E-03
   50.10000      2.8446107E-03
   50.16000      2.8561931E-03
   50.22000      2.8672330E-03
   50.28000      2.8778873E-03
   50.34000      2.8883065E-03
   50.40000      2.8986316E-03
   50.46000      2.9089933E-03
   50.52000      2.9195093E-03
   50.58000      2.9302838E-03
   50.64000      2.9414052E-03
   50.70000      2.9529445E-03
   50.76000      2.9649569E-03
   50.82000      2.9774788E-03
   50.88000      2.9905273E-03
   50.94000      3.0041018E-03
   51.00000      3.0181829E-03
   51.06000      3.0327335E-03
   51.12000      3.0476986E-03
   51.18000      3.0630077E-03
   51.24000      3.0785750E-03
   51.30000      3.0943013E-03
   51.36000      3.1100756E-03
   51.42000      3.1257768E-03
   51.48000      3.1412756E-03
   51.54000      3.1564373E-03
   51.60000      3.1711231E-03
   51.66000      3.1851931E-03
   51.72000      3.1985077E-03
   51.78000      3.2109325E-03
   51.84000      3.2223375E-03
   51.90000      3.2326002E-03
   51.96000      3.2416082E-03
   52.02000      3.2492608E-03
   52.08000      3.2554697E-03
   52.14000      3.2601622E-03
   52.20000      3.2632807E-03
   52.26000      3.2647862E-03
   52.32000      3.2646561E-03
   52.38000      3.2628868E-03
   52.44000      3.2594926E-03
   52.50000      3.2545067E-03
   52.56000      3.2479793E-03
   52.62000      3.2399783E-03
   52.68000      3.2305873E-03
   52.74000      3.2199055E-03
   52.80000      3.2080458E-03
   52.86000      3.1951331E-03
   52.92000      3.1813015E-03
   52.98000      3.1666942E-03
   53.04000      3.1514596E-03
   53.10000      3.1357503E-03
   53.16000      3.1197201E-03
   53.22000      3.1035219E-03
   53.28000      3.0873052E-03
   53.34000      3.0712148E-03
   53.40000      3.0553872E-03
   53.46000      3.0399496E-03
   53.52000      3.0250177E-03
   53.58000      3.0106937E-03
   53.64000      2.9970652E-03
   53.70000      2.9842039E-03
   53.76000      2.9721640E-03
   53.82000      2.9609813E-03
   53.88000      2.9506744E-03
   53.94000      2.9412420E-03
   54.00000      2.9326647E-03
   54.06000      2.9249045E-03
   54.12000      2.9179056E-03
   54.18000      2.9115961E-03
   54.24000      2.9058873E-03
   54.30000      2.9006777E-03
   54.36000      2.8958507E-03
   54.42000      2.8912791E-03
   54.48000      2.8868257E-03
   54.54000      2.8823470E-03
   54.60000      2.8776932E-03
   54.66000      2.8727115E-03
   54.72000      2.8672484E-03
   54.78000      2.8611515E-03
   54.84000      2.8542720E-03
   54.90000      2.8464664E-03
   54.96000      2.8375983E-03
   55.02000      2.8275405E-03
   55.08000      2.8161767E-03
   55.14000      2.8034034E-03
   55.20000      2.7891307E-03
   55.26000      2.7732835E-03
   55.32000      2.7558035E-03
   55.38000      2.7366476E-03
   55.44000      2.7157906E-03
   55.50000      2.6932242E-03
   55.56000      2.6689561E-03