  -2.400000      0.0000000E+00
  -2.340000      0.0000000E+00
  -2.280000      0.0000000E+00
  -2.220000      0.0000000E+00
  -2.160000      0.0000000E+00
  -2.100000      0.0000000E+00
  -2.040000     -5.3344862E-21
  -1.980000     -4.3608665E-20
  -1.920000     -1.6736723E-19
  -1.860000     -3.5989315E-19
  -1.800000     -2.8790445E-19
  -1.740000      9.0487231E-19
  -1.680000      4.1700309E-18
  -1.620000      8.8690090E-18
  -1.560000      1.0285212E-17
  -1.500000     -9.6989594E-19
  -1.440000     -3.3286333E-17
  -1.380000     -8.0035038E-17
  -1.320000     -1.0377176E-16
  -1.260000     -3.7189097E-17
  -1.200000      1.7663508E-16
  -1.140000      5.0074026E-16
  -1.080000      7.1916750E-16
  -1.020000      4.4258864E-16
 -0.9600000     -6.9704554E-16
 -0.9000000     -2.6547169E-15
 -0.8400000     -4.5619035E-15
 -0.7800000     -4.6639392E-15
 -0.7200000     -9.8375222E-16
 -0.6600000      7.2293237E-15
 -0.6000000      1.7834296E-14
 -0.5400000      2.5105928E-14
 -0.4800000      2.1288540E-14
 -0.4200000      7.8467782E-16
 -0.3600000     -3.4404544E-14
 -0.3000000     -7.1185272E-14
 -0.2400000     -8.7508681E-14
 -0.1800000     -6.1874544E-14
 -0.1200000      1.2328043E-14
 -5.9999999E-02  1.1484570E-13
  0.0000000E+00  1.9812206E-13
  5.9999999E-02  2.0418727E-13
  0.1200000      9.5866559E-14
  0.1800000     -1.1131259E-13
  0.2400000     -3.3626213E-13
  0.3000000     -4.5416543E-13
  0.3600000     -3.5311207E-13
  0.4200000     -4.4245952E-15
  0.4800000      4.9008936E-13
  0.5400000      9.0940726E-13
  0.6000000      9.9573084E-13
  0.6600000      5.8362722E-13
  0.7200000     -2.8232928E-13
  0.7800000     -1.3094916E-12
  0.8400000     -2.0408568E-12
  0.9000000     -2.0467874E-12
  0.9600000     -1.1488811E-12
   1.020000      4.3505366E-13
   1.080000      2.1188789E-12
   1.140000      3.1712436E-12
   1.200000      3.0572383E-12
   1.260000      1.7427758E-12
   1.320000     -2.0678432E-13
   1.380000     -1.8280683E-12
   1.440000     -2.2159696E-12
   1.500000     -1.0449779E-12
   1.560000      1.1091844E-12
   1.620000      2.8647579E-12
   1.680000      2.5935358E-12
   1.740000     -7.3564863E-13
   1.800000     -6.7916562E-12
   1.860000     -1.3591748E-11
   1.920000     -1.7933339E-11
   1.980000     -1.6496261E-11
   2.040000     -7.2492689E-12
   2.100000      9.3925336E-12
   2.160000      3.0168618E-11
   2.220000      4.9566663E-11
   2.280000      6.1250650E-11
   2.340000      5.9832660E-11
   2.400000      4.2382663E-11
   2.460000      9.2273923E-12
   2.520000     -3.6065009E-11
   2.580000     -8.7264987E-11
   2.640000     -1.3620821E-10
   2.700000     -1.7336174E-10
   2.760000     -1.8825476E-10
   2.820000     -1.7016098E-10
   2.880000     -1.0957833E-10
   2.940000     -8.5704366E-13
   3.000000      1.5419868E-10
   3.060000      3.4258657E-10
   3.120000      5.3753241E-10
   3.180000      6.9843864E-10
   3.240000      7.7420576E-10
   3.300000      7.0984363E-10
   3.360000      4.5525031E-10
   3.420000     -2.5746150E-11
   3.480000     -7.4820772E-10
   3.540000     -1.7024518E-09
   3.600000     -2.8546998E-09
   3.660000     -4.1515982E-09
   3.720000     -5.5272684E-09
   3.780000     -6.9110824E-09
   3.840000     -8.2345135E-09
   3.900000     -9.4360662E-09
   3.960000     -1.0464153E-08
   4.020000     -1.1278528E-08
   4.080000     -1.1851275E-08
   4.140000     -1.2168194E-08
   4.200000     -1.2230899E-08
   4.260000     -1.2059191E-08
   4.320000     -1.1692652E-08
   4.380000     -1.1190182E-08
   4.440000     -1.0626523E-08
   4.500000     -1.0085508E-08
   4.560000     -9.6507771E-09
   4.620000     -9.3954435E-09
   4.680000     -9.3726440E-09
   4.740000     -9.6086579E-09
   4.800000     -1.0099702E-08
   4.860000     -1.0812602E-08
   4.920000     -1.1688866E-08
   4.980000     -1.2651292E-08
   5.040000     -1.3612254E-08
   5.100000     -1.4483007E-08
   5.160000     -1.5183524E-08
   5.220000     -1.5652244E-08
   5.280000     -1.5854640E-08
   5.340000     -1.5789150E-08
   5.400000     -1.5488659E-08
   5.460000     -1.5016269E-08
   5.520000     -1.4455078E-08
   5.580000     -1.3893339E-08
   5.640000     -1.3407877E-08
   5.700000     -1.3049571E-08
   5.760000     -1.2834530E-08
   5.820000     -1.2743254E-08
   5.880000     -1.2727900E-08
   5.940000     -1.2725478E-08
   6.000000     -1.2673275E-08
   6.060000     -1.2522309E-08
   6.120000     -1.2245719E-08
   6.180000     -1.1840728E-08
   6.240000     -1.1324986E-08
   6.300000     -1.0729484E-08
   6.360000     -1.0090740E-08
   6.420000     -9.4443298E-09
   6.480000     -8.8206740E-09
   6.540000     -8.2428269E-09
   6.600000     -7.7253919E-09
   6.660000     -7.2737900E-09
   6.720000     -6.8836417E-09
   6.780000     -6.5406973E-09
   6.840000     -6.2219931E-09
   6.900000     -5.8986553E-09
   6.960000     -5.5400915E-09
   7.020000     -5.1186020E-09
   7.080000     -4.6130779E-09
   7.140000     -4.0106380E-09
   7.200000     -3.3057705E-09
   7.260000     -2.4974069E-09
   7.320000     -1.5851341E-09
   7.380000     -5.6600763E-10
   7.440000      5.6679123E-10
   7.500000      1.8228757E-09
   7.560000      3.2114333E-09
   7.620000      4.7369224E-09
   7.680000      6.3952075E-09
   7.740000      8.1716438E-09
   7.800000      1.0042116E-08
   7.860000      1.1977061E-08
   7.920000      1.3947461E-08
   7.980000      1.5930860E-08
   8.040000      1.7915296E-08
   8.100000      1.9899456E-08
   8.160000      2.1888702E-08
   8.220000      2.3888003E-08
   8.280000      2.5894050E-08
   8.340000      2.7889271E-08
   8.400000      2.9839928E-08
   8.460000      3.1699209E-08
   8.520000      3.3414675E-08
   8.580000      3.4938097E-08
   8.640000      3.6234802E-08
   8.700000      3.7289990E-08
   8.760000      3.8110201E-08
   8.820000      3.8719563E-08
   8.880000      3.9152191E-08
   8.940000      3.9443055E-08
   9.000000      3.9620261E-08
   9.060000      3.9700943E-08
   9.120000      3.9691699E-08
   9.180000      3.9592859E-08
   9.240000      3.9404746E-08
   9.300000      3.9133699E-08
   9.360000      3.8796088E-08
   9.420000      3.8419586E-08
   9.480000      3.8041613E-08
   9.540000      3.7705348E-08
   9.600000      3.7453827E-08
   9.660000      3.7322664E-08
   9.720000      3.7332480E-08
   9.780000      3.7482920E-08
   9.840000      3.7750471E-08
   9.900000      3.8092043E-08
   9.960000      3.8454520E-08
   10.02000      3.8788251E-08
   10.08000      3.9060385E-08
   10.14000      3.9263419E-08
   10.20000      3.9415657E-08
   10.26000      3.9553250E-08
   10.32000      3.9716859E-08
   10.38000      3.9937916E-08
   10.44000      4.0229381E-08
   10.50000      4.0583824E-08
   10.56000      4.0978350E-08
   10.62000      4.1383252E-08
   10.68000      4.1770360E-08
   10.74000      4.2118003E-08
   10.80000      4.2411870E-08
   10.86000      4.2643059E-08
   10.92000      4.2805834E-08
   10.98000      4.2896808E-08
   11.04000      4.2915836E-08
   11.10000      4.2867192E-08
   11.16000      4.2759190E-08
   11.22000      4.2601286E-08
   11.28000      4.2399215E-08
   11.34000      4.2150322E-08
   11.40000      4.1841435E-08
   11.46000      4.1450622E-08
   11.52000      4.0952429E-08
   11.58000      4.0324537E-08
   11.64000      3.9553296E-08
   11.70000      3.8636490E-08
   11.76000      3.7582925E-08
   11.82000      3.6409883E-08
   11.88000      3.5139902E-08
   11.94000      3.3797789E-08
   12.00000      3.2408128E-08
   12.06000      3.0992851E-08
   12.12000      2.9568666E-08
   12.18000      2.8144777E-08
   12.24000      2.6721803E-08
   12.30000      2.5292698E-08
   12.36000      2.3845773E-08
   12.42000      2.2368775E-08
   12.48000      2.0852456E-08
   12.54000      1.9292301E-08
   12.60000      1.7688224E-08
   12.66000      1.6043126E-08
   12.72000      1.4361897E-08
   12.78000      1.2651847E-08
   12.84000      1.0924347E-08
   12.90000      9.1962660E-09
   12.96000      7.4893700E-09
   13.02000      5.8267879E-09
   13.08000      4.2272768E-09
   13.14000      2.6995468E-09
   13.20000      1.2393061E-09
   13.26000     -1.6936602E-10
   13.32000     -1.5487112E-09
   13.38000     -2.9203084E-09
   13.44000     -4.2993871E-09
   13.50000     -5.6925513E-09
   13.56000     -7.0991302E-09
   13.62000     -8.5145242E-09
   13.68000     -9.9331832E-09
   13.74000     -1.1349652E-08
   13.80000     -1.2757815E-08
   13.86000     -1.4150062E-08
   13.92000     -1.5518401E-08
   13.98000     -1.6858372E-08
   14.04000     -1.8174537E-08
   14.10000     -1.9484649E-08
   14.16000     -2.0819520E-08
   14.22000     -2.2217170E-08
   14.28000     -2.3712566E-08
   14.34000     -2.5326523E-08
   14.40000     -2.7058029E-08
   14.46000     -2.8882871E-08
   14.52000     -3.0758947E-08
   14.58000     -3.2636041E-08
   14.64000     -3.4466602E-08
   14.70000     -3.6214498E-08
   14.76000     -3.7859898E-08
   14.82000     -3.9400238E-08
   14.88000     -4.0847908E-08
   14.94000     -4.2225537E-08
   15.00000     -4.3559627E-08
   15.06000     -4.4873467E-08
   15.12000     -4.6180837E-08
   15.18000     -4.7482303E-08
   15.24000     -4.8765617E-08
   15.30000     -5.0010282E-08
   15.36000     -5.1194451E-08
   15.42000     -5.2301118E-08
   15.48000     -5.3320736E-08
   15.54000     -5.4249220E-08
   15.60000     -5.5082786E-08
   15.66000     -5.5812823E-08
   15.72000     -5.6423787E-08
   15.78000     -5.6895466E-08
   15.84000     -5.7208354E-08
   15.90000     -5.7349432E-08
   15.96000     -5.7315635E-08
   16.02000     -5.7114104E-08
   16.08000     -5.6760072E-08
   16.14000     -5.6274441E-08
   16.20000     -5.5682243E-08
   16.26000     -5.5011924E-08
   16.32000     -5.4294098E-08
   16.38000     -5.3558455E-08
   16.44000     -5.2828977E-08
   16.50000     -5.2119077E-08
   16.56000     -5.1429016E-08
   16.62000     -5.0746959E-08
   16.68000     -5.0053110E-08
   16.74000     -4.9324747E-08
   16.80000     -4.8539757E-08
   16.86000     -4.7677787E-08
   16.92000     -4.6720107E-08
   16.98000     -4.5650410E-08
   17.04000     -4.4458233E-08
   17.10000     -4.3144446E-08
   17.16000     -4.1726214E-08
   17.22000     -4.0238131E-08
   17.28000     -3.8727475E-08
   17.34000     -3.7244281E-08
   17.40000     -3.5829508E-08
   17.46000     -3.4505291E-08
   17.52000     -3.3270464E-08
   17.58000     -3.2102172E-08
   17.64000     -3.0962266E-08
   17.70000     -2.9806092E-08
   17.76000     -2.8591419E-08
   17.82000     -2.7285957E-08
   17.88000     -2.5872643E-08
   17.94000     -2.4352143E-08
   18.00000     -2.2742018E-08
   18.06000     -2.1072381E-08
   18.12000     -1.9378689E-08
   18.18000     -1.7693369E-08
   18.24000     -1.6038779E-08
   18.30000     -1.4423841E-08
   18.36000     -1.2845589E-08
   18.42000     -1.1295057E-08
   18.48000     -9.7652579E-09
   18.54000     -8.2581408E-09
   18.60000     -6.7877490E-09
   18.66000     -5.3783249E-09
   18.72000     -4.0582906E-09
   18.78000     -2.8528864E-09
   18.84000     -1.7790139E-09
   18.90000     -8.4490465E-10
   18.96000     -5.4947481E-11
   19.02000      5.8269739E-10
   19.08000      1.0498047E-09
   19.14000      1.3170006E-09
   19.20000      1.3495580E-09
   19.26000      1.1186113E-09
   19.32000      6.1383354E-10
   19.38000     -1.4693127E-10
   19.44000     -1.1141311E-09
   19.50000     -2.2095727E-09
   19.56000     -3.3344578E-09
   19.62000     -4.3799746E-09
   19.68000     -5.2385487E-09
   19.74000     -5.8147864E-09
   19.80000     -6.0355299E-09
   19.86000     -5.8579945E-09
   19.92000     -5.2742992E-09
   19.98000     -4.3107082E-09
   20.04000     -3.0211369E-09
   20.10000     -1.4764415E-09
   20.16000      2.4738492E-10
   20.22000      2.0787447E-09
   20.28000      3.9557109E-09
   20.34000      5.8272236E-09
   20.40000      7.6521296E-09
   20.46000      9.3983532E-09
   20.52000      1.1043475E-08
   20.58000      1.2576362E-08
   20.64000      1.3998326E-08
   20.70000      1.5322103E-08
   20.76000      1.6567855E-08
   20.82000      1.7756658E-08
   20.88000      1.8902933E-08
   20.94000      2.0007811E-08
   21.00000      2.1055190E-08
   21.06000      2.2011683E-08
   21.12000      2.2830809E-08
   21.18000      2.3460798E-08
   21.24000      2.3854520E-08
   21.30000      2.3979373E-08
   21.36000      2.3824960E-08
   21.42000      2.3406947E-08
   21.48000      2.2766393E-08
   21.54000      2.1964894E-08
   21.60000      2.1076481E-08
   21.66000      2.0177493E-08
   21.72000      1.9335822E-08
   21.78000      1.8601012E-08
   21.84000      1.7997028E-08
   21.90000      1.7519440E-08
   21.96000      1.7138264E-08
   22.02000      1.6806229E-08
   22.08000      1.6470660E-08
   22.14000      1.6085798E-08
   22.20000      1.5622227E-08
   22.26000      1.5071217E-08
   22.32000      1.4443645E-08
   22.38000      1.3765012E-08
   22.44000      1.3068819E-08
   22.50000      1.2390235E-08
   22.56000      1.1760924E-08
   22.62000      1.1204946E-08
   22.68000      1.0735418E-08
   22.74000      1.0352178E-08
   22.80000      1.0041455E-08
   22.86000      9.7786517E-09
   22.92000      9.5345767E-09
   22.98000      9.2838865E-09
   23.04000      9.0130943E-09
   23.10000      8.7250713E-09
   23.16000      8.4380209E-09
   23.22000      8.1790423E-09
   23.28000      7.9746236E-09
   23.34000      7.8416980E-09
   23.40000      7.7825746E-09
   23.46000      7.7853128E-09
   23.52000      7.8289002E-09
   23.58000      7.8908133E-09
   23.64000      7.9540632E-09
   23.70000      8.0115452E-09
   23.76000      8.0669569E-09
   23.82000      8.1329006E-09
   23.88000      8.2274560E-09
   23.94000      8.3704537E-09
   24.00000      8.5801748E-09
   24.06000      8.8705852E-09
   24.12000      9.2490016E-09
   24.18000      9.7140846E-09
   24.24000      1.0254277E-08
   24.30000      1.0847004E-08
   24.36000      1.1459007E-08
   24.42000      1.2048132E-08
   24.48000      1.2566722E-08
   24.54000      1.2966476E-08
   24.60000      1.3204318E-08
   24.66000      1.3248332E-08
   24.72000      1.3082543E-08
   24.78000      1.2709271E-08
   24.84000      1.2148194E-08
   24.90000      1.1432063E-08
   24.96000      1.0599916E-08
   25.02000      9.6893151E-09
   25.08000      8.7293035E-09
   25.14000      7.7353226E-09
   25.20000      6.7066859E-09
   25.26000      5.6265228E-09
   25.32000      4.4638524E-09
   25.38000      3.1774288E-09
   25.44000      1.7211700E-09
   25.50000      5.0841040E-11
   25.56000     -1.8687694E-09
   25.62000     -4.0574930E-09
   25.68000     -6.5158061E-09
   25.74000     -9.2243599E-09
   25.80000     -1.2147100E-08
   25.86000     -1.5236852E-08
   25.92000     -1.8441598E-08
   25.98000     -2.1709964E-08
   26.04000     -2.4995440E-08
   26.10000     -2.8260024E-08
   26.16000     -3.1478088E-08
   26.22000     -3.4640514E-08
   26.28000     -3.7757541E-08
   26.34000     -4.0857820E-08
   26.40000     -4.3981782E-08
   26.46000     -4.7169671E-08
   26.52000     -5.0447614E-08
   26.58000     -5.3816883E-08
   26.64000     -5.7251064E-08
   26.70000     -6.0702810E-08
   26.76000     -6.4117714E-08
   26.82000     -6.7449733E-08
   26.88000     -7.0672243E-08
   26.94000     -7.3781081E-08
   27.00000     -7.6789647E-08
   27.06000     -7.9719314E-08
   27.12000     -8.2589402E-08
   27.18000     -8.5409873E-08
   27.24000     -8.8177835E-08
   27.30000     -9.0877364E-08
   27.36000     -9.3481745E-08
   27.42000     -9.5957866E-08
   27.48000     -9.8272452E-08
   27.54000     -1.0039938E-07
   27.60000     -1.0232574E-07
   27.66000     -1.0405329E-07
   27.72000     -1.0559312E-07
   27.78000     -1.0695363E-07
   27.84000     -1.0812617E-07
   27.90000     -1.0907478E-07
   27.96000     -1.0973613E-07
   28.02000     -1.1003207E-07
   28.08000     -1.0989156E-07
   28.14000     -1.0927414E-07
   28.20000     -1.0818557E-07
   28.26000     -1.0667924E-07
   28.32000     -1.0484208E-07
   28.38000     -1.0277024E-07
   28.44000     -1.0054317E-07
   28.50000     -9.8205334E-08
   28.56000     -9.5760996E-08
   28.62000     -9.3182898E-08
   28.68000     -9.0430696E-08
   28.74000     -8.7472692E-08
   28.80000     -8.4304233E-08
   28.86000     -8.0958166E-08
   28.92000     -7.7505049E-08
   28.98000     -7.4043257E-08
   29.04000     -7.0681224E-08
   29.10000     -6.7515153E-08
   29.16000     -6.4607242E-08
   29.22000     -6.1970205E-08
   29.28000     -5.9563234E-08
   29.34000     -5.7302390E-08
   29.40000     -5.5083916E-08
   29.46000     -5.2814464E-08
   29.52000     -5.0438747E-08
   29.58000     -4.7955236E-08
   29.64000     -4.5414293E-08
   29.70000     -4.2899412E-08
   29.76000     -4.0498545E-08
   29.82000     -3.8275829E-08
   29.88000     -3.6253375E-08
   29.94000     -3.4408323E-08
   30.00000     -3.2684632E-08
   30.06000     -3.1014125E-08
   30.12000     -2.9339297E-08
   30.18000     -2.7631099E-08
   30.24000     -2.5897496E-08
   30.30000     -2.4181599E-08
   30.36000     -2.2550678E-08
   30.42000     -2.1079046E-08
   30.48000     -1.9829137E-08
   30.54000     -1.8835708E-08
   30.60000     -1.8097859E-08
   30.66000     -1.7581897E-08
   30.72000     -1.7234711E-08
   30.78000     -1.7003643E-08
   30.84000     -1.6855859E-08
   30.90000     -1.6789972E-08
   30.96000     -1.6835314E-08
   31.02000     -1.7039074E-08
   31.08000     -1.7446403E-08
   31.14000     -1.8081336E-08
   31.20000     -1.8936003E-08
   31.26000     -1.9972045E-08
   31.32000     -2.1133351E-08
   31.38000     -2.2365047E-08
   31.44000     -2.3631706E-08
   31.50000     -2.4928562E-08
   31.56000     -2.6282486E-08
   31.62000     -2.7743019E-08
   31.68000     -2.9366934E-08
   31.74000     -3.1201239E-08
   31.80000     -3.3269469E-08
   31.86000     -3.5564746E-08
   31.92000     -3.8050892E-08
   31.98000     -4.0671026E-08
   32.04000     -4.3361091E-08
   32.10000     -4.6064862E-08
   32.16000     -4.8746422E-08
   32.22000     -5.1396530E-08
   32.28000     -5.4030739E-08
   32.34000     -5.6679230E-08
   32.40000     -5.9371079E-08
   32.46000     -6.2117600E-08
   32.52000     -6.4900327E-08
   32.58000     -6.7667791E-08
   32.64000     -7.0342487E-08
   32.70000     -7.2835810E-08
   32.76000     -7.5065934E-08
   32.82000     -7.6972732E-08
   32.88000     -7.8525282E-08
   32.94000     -7.9720024E-08
   33.00000     -8.0571077E-08
   33.06000     -8.1096211E-08
   33.12000     -8.1303099E-08
   33.18000     -8.1179770E-08
   33.24000     -8.0692082E-08
   33.30000     -7.9788904E-08
   33.36000     -7.8413976E-08
   33.42000     -7.6521339E-08
   33.48000     -7.4090110E-08
   33.54000     -7.1133947E-08
   33.60000     -6.7702047E-08
   33.66000     -6.3871134E-08
   33.72000     -5.9731057E-08
   33.78000     -5.5368869E-08
   33.84000     -5.0856794E-08
   33.90000     -4.6247639E-08
   33.96000     -4.1578158E-08
   34.02000     -3.6877729E-08
   34.08000     -3.2178207E-08
   34.14000     -2.7520887E-08
   34.20000     -2.2958368E-08
   34.26000     -1.8551191E-08
   34.32000     -1.4360815E-08
   34.38000     -1.0441226E-08
   34.44000     -6.8313453E-09
   34.50000     -3.5499521E-09
   34.56000     -5.9426519E-10
   34.62000      2.0572988E-09
   34.68000      4.4385029E-09
   34.74000      6.5861134E-09
   34.80000      8.5303746E-09
   34.86000      1.0287686E-08
   34.92000      1.1857516E-08
   34.98000      1.3224257E-08
   35.04000      1.4363141E-08
   35.10000      1.5248009E-08
   35.16000      1.5858324E-08
   35.22000      1.6183323E-08
   35.28000      1.6222407E-08
   35.34000      1.5982280E-08
   35.40000      1.5472537E-08
   35.46000      1.4701841E-08
   35.52000      1.3676592E-08
   35.58000      1.2402837E-08
   35.64000      1.0890707E-08
   35.70000      9.1592200E-09
   35.76000      7.2386843E-09
   35.82000      5.1685731E-09
   35.88000      2.9905978E-09
   35.94000      7.3909340E-10
   36.00000     -1.5674290E-09
   36.06000     -3.9295887E-09
   36.12000     -6.3631771E-09
   36.18000     -8.8889154E-09
   36.24000     -1.1519833E-08
   36.30000     -1.4251437E-08
   36.36000     -1.7058772E-08
   36.42000     -1.9901437E-08
   36.48000     -2.2734238E-08
   36.54000     -2.5518860E-08
   36.60000     -2.8231854E-08
   36.66000     -3.0866186E-08
   36.72000     -3.3426424E-08
   36.78000     -3.5920056E-08
   36.84000     -3.8348382E-08
   36.90000     -4.0699835E-08
   36.96000     -4.2947374E-08
   37.02000     -4.5050090E-08
   37.08000     -4.6958483E-08
   37.14000     -4.8622457E-08
   37.20000     -5.0000597E-08
   37.26000     -5.1068973E-08
   37.32000     -5.1826877E-08
   37.38000     -5.2297164E-08
   37.44000     -5.2519940E-08
   37.50000     -5.2540834E-08
   37.56000     -5.2397553E-08
   37.62000     -5.2109971E-08
   37.68000     -5.1678235E-08
   37.74000     -5.1090247E-08
   37.80000     -5.0335817E-08
   37.86000     -4.9421459E-08
   37.92000     -4.8379132E-08
   37.98000     -4.7264638E-08
   38.04000     -4.6145900E-08
   38.10000     -4.5085613E-08
   38.16000     -4.4125287E-08
   38.22000     -4.3276462E-08
   38.28000     -4.2521926E-08
   38.34000     -4.1825349E-08
   38.40000     -4.1145029E-08
   38.46000     -4.0446690E-08
   38.52000     -3.9711537E-08
   38.58000     -3.8938229E-08
   38.64000     -3.8139458E-08
   38.70000     -3.7334981E-08
   38.76000     -3.6543494E-08
   38.82000     -3.5775468E-08
   38.88000     -3.5029139E-08
   38.94000     -3.4291297E-08
   39.00000     -3.3543568E-08
   39.06000     -3.2772956E-08
   39.12000     -3.1983280E-08
   39.18000     -3.1202728E-08
   39.24000     -3.0483204E-08
   39.30000     -2.9889861E-08
   39.36000     -2.9483274E-08
   39.42000     -2.9300283E-08
   39.48000     -2.9340725E-08
   39.54000     -2.9565395E-08
   39.60000     -2.9905941E-08
   39.66000     -3.0282642E-08
   39.72000     -3.0623188E-08
   39.78000     -3.0875778E-08
   39.84000     -3.1013400E-08
   39.90000     -3.1030087E-08
   39.96000     -3.0933023E-08
   40.02000     -3.0734714E-08
   40.08000     -3.0447669E-08
   40.14000     -3.0081754E-08
   40.20000     -2.9642983E-08
   40.26000     -2.9132980E-08
   40.32000     -2.8549435E-08
   40.38000     -2.7888751E-08
   40.44000     -2.7151268E-08
   40.50000     -2.6347600E-08
   40.56000     -2.5502885E-08
   40.62000     -2.4655769E-08
   40.68000     -2.3850934E-08
   40.74000     -2.3127281E-08
   40.80000     -2.2506343E-08
   40.86000     -2.1985809E-08
   40.92000     -2.1540929E-08
   40.98000     -2.1133172E-08
   41.04000     -2.0722753E-08
   41.10000     -2.0280590E-08
   41.16000     -1.9796332E-08
   41.22000     -1.9281055E-08
   41.28000     -1.8764988E-08
   41.34000     -1.8291569E-08
   41.40000     -1.7909242E-08
   41.46000     -1.7662314E-08
   41.52000     -1.7582291E-08
   41.58000     -1.7681359E-08
   41.64000     -1.7949658E-08
   41.70000     -1.8357362E-08
   41.76000     -1.8861369E-08
   41.82000     -1.9415157E-08
   41.88000     -1.9979458E-08
   41.94000     -2.0531216E-08
   42.00000     -2.1068734E-08
   42.06000     -2.1611646E-08
   42.12000     -2.2195382E-08
   42.18000     -2.2860998E-08
   42.24000     -2.3642572E-08
   42.30000     -2.4555465E-08
   42.36000     -2.5589207E-08
   42.42000     -2.6707797E-08
   42.48000     -2.7858199E-08
   42.54000     -2.8984919E-08
   42.60000     -3.0046245E-08
   42.66000     -3.1026804E-08
   42.72000     -3.1941990E-08
   42.78000     -3.2832585E-08
   42.84000     -3.3751014E-08
   42.90000     -3.4743710E-08
   42.96000     -3.5835253E-08
   43.02000     -3.7019625E-08
   43.08000     -3.8261593E-08
   43.14000     -3.9507938E-08
   43.20000     -4.0705093E-08
   43.26000     -4.1817405E-08
   43.32000     -4.2839989E-08
   43.38000     -4.3801638E-08
   43.44000     -4.4756415E-08
   43.50000     -4.5766072E-08
   43.56000     -4.6878387E-08
   43.62000     -4.8108003E-08
   43.68000     -4.9425914E-08
   43.74000     -5.0761550E-08
   43.80000     -5.2017981E-08
   43.86000     -5.3096688E-08
   43.92000     -5.3924975E-08
   43.98000     -5.4477432E-08
   44.04000     -5.4783825E-08
   44.10000     -5.4919720E-08
   44.16000     -5.4981712E-08
   44.22000     -5.5055082E-08
   44.28000     -5.5184753E-08
   44.34000     -5.5359944E-08
   44.40000     -5.5518239E-08
   44.46000     -5.5567661E-08
   44.52000     -5.5418955E-08
   44.58000     -5.5016585E-08
   44.64000     -5.4357653E-08
   44.70000     -5.3492720E-08
   44.76000     -5.2508874E-08
   44.82000     -5.1501480E-08
   44.88000     -5.0544465E-08
   44.94000     -4.9668710E-08
   45.00000     -4.8855025E-08
   45.06000     -4.8043105E-08
   45.12000     -4.7152685E-08
   45.18000     -4.6109715E-08
   45.24000     -4.4869143E-08
   45.30000     -4.3427459E-08
   45.36000     -4.1821572E-08
   45.42000     -4.0115022E-08
   45.48000     -3.8376353E-08
   45.54000     -3.6657035E-08
   45.60000     -3.4976175E-08
   45.66000     -3.3317335E-08
   45.72000     -3.1638610E-08
   45.78000     -2.9892568E-08
   45.84000     -2.8048907E-08
   45.90000     -2.6111367E-08
   45.96000     -2.4122070E-08
   46.02000     -2.2151074E-08
   46.08000     -2.0274523E-08
   46.14000     -1.8549464E-08
   46.20000     -1.6994798E-08
   46.26000     -1.5585583E-08
   46.32000     -1.4262622E-08
   46.38000     -1.2953563E-08
   46.44000     -1.1597729E-08
   46.50000     -1.0166268E-08
   46.56000     -8.6715746E-09
   46.62000     -7.1640605E-09
   46.68000     -5.7182596E-09
   46.74000     -4.4128998E-09
   46.80000     -3.3105101E-09
   46.86000     -2.4417903E-09
   46.92000     -1.7986695E-09
   46.98000     -1.3379429E-09
   47.04000     -9.9465358E-10
   47.10000     -7.0144979E-10
   47.16000     -4.0798342E-10
   47.22000     -9.4124715E-11
   47.28000      2.2711341E-10
   47.34000      5.1719024E-10
   47.40000      7.2652423E-10
   47.46000      8.1002444E-10
   47.52000      7.3834894E-10
   47.58000      5.0213134E-10
   47.64000      1.0942332E-10
   47.70000     -4.2147549E-10
   47.76000     -1.0712855E-09
   47.82000     -1.8291331E-09
   47.88000     -2.7004439E-09
   47.94000     -3.7115271E-09
   48.00000     -4.9089124E-09
   48.06000     -6.3525327E-09
   48.12000     -8.1043874E-09
   48.18000     -1.0217237E-08
   48.24000     -1.2729136E-08
   48.30000     -1.5667661E-08
   48.36000     -1.9063108E-08
   48.42000     -2.2965130E-08
   48.48000     -2.7455366E-08
   48.54000     -3.2651243E-08
   48.60000     -3.8701526E-08
   48.66000     -4.5779274E-08
   48.72000     -5.4079010E-08
   48.78000     -6.3821474E-08
   48.84000     -7.5264111E-08
   48.90000     -8.8711388E-08
   48.96000     -1.0452013E-07
   49.02000     -1.2309908E-07
   49.08000     -1.4490712E-07
   49.14000     -1.7045637E-07
   49.20000     -2.0032381E-07
   49.26000     -2.3517096E-07
   49.32000     -2.7576709E-07
   49.38000     -3.2301159E-07
   49.44000     -3.7795328E-07
   49.50000     -4.4180831E-07
   49.56000     -5.1597806E-07
   49.62000     -6.0206747E-07
   49.68000     -7.0190208E-07
   49.74000     -8.1754081E-07
   49.80000     -9.5128541E-07
   49.86000     -1.1056907E-06
   49.92000     -1.2835818E-06
   49.98000     -1.4880846E-06
   50.04000     -1.7226682E-06
   50.10000     -1.9911961E-06
   50.16000     -2.2979773E-06
   50.22000     -2.6478083E-06
   50.28000     -3.0460048E-06
   50.34000     -3.4984225E-06
   50.40000     -4.0114696E-06
   50.46000     -4.5921211E-06
   50.52000     -5.2479409E-06
   50.58000     -5.9871159E-06
   50.64000     -6.8185027E-06
   50.70000     -7.7516852E-06
   50.76000     -8.7970293E-06
   50.82000     -9.9657209E-06
   50.88000     -1.1269787E-05
   50.94000     -1.2722090E-05
   51.00000     -1.4336300E-05
   51.06000     -1.6126867E-05
   51.12000     -1.8108994E-05
   51.18000     -2.0298618E-05
   51.24000     -2.2712407E-05
   51.30000     -2.5367746E-05
   51.36000     -2.8282730E-05
   51.42000     -3.1476131E-05
   51.48000     -3.4967350E-05
   51.54000     -3.8776368E-05
   51.60000     -4.2923610E-05
   51.66000     -4.7429854E-05
   51.72000     -5.2316067E-05
   51.78000     -5.7603254E-05
   51.84000     -6.3312298E-05
   51.90000     -6.9463866E-05
   51.96000     -7.6078271E-05
   52.02000     -8.3175350E-05
   52.08000     -9.0774294E-05
   52.14000     -9.8893521E-05
   52.20000     -1.0755036E-04
   52.26000     -1.1676093E-04
   52.32000     -1.2653982E-04
   52.38000     -1.3689985E-04
   52.44000     -1.4785196E-04
   52.50000     -1.5940490E-04
   52.56000     -1.7156513E-04
   52.62000     -1.8433666E-04
   52.68000     -1.9772086E-04
   52.74000     -2.1171635E-04
   52.80000     -2.2631892E-04
   52.86000     -2.4152125E-04
   52.92000     -2.5731284E-04
   52.98000     -2.7367991E-04
   53.04000     -2.9060530E-04
   53.10000     -3.0806835E-04
   53.16000     -3.2604506E-04
   53.22000     -3.4450795E-04
   53.28000     -3.6342643E-04
   53.34000     -3.8276665E-04
   53.40000     -4.0249186E-04
   53.46000     -4.2256241E-04
   53.52000     -4.4293594E-04
   53.58000     -4.6356765E-04
   53.64000     -4.8441047E-04
   53.70000     -5.0541549E-04
   53.76000     -5.2653212E-04
   53.82000     -5.4770865E-04
   53.88000     -5.6889246E-04
   53.94000     -5.9003051E-04
   54.00000     -6.1106950E-04
   54.06000     -6.3195679E-04
   54.12000     -6.5264053E-04
   54.18000     -6.7307008E-04
   54.24000     -6.9319661E-04
   54.30000     -7.1297324E-04
   54.36000     -7.3235552E-04
   54.42000     -7.5130176E-04
   54.48000     -7.6977350E-04
   54.54000     -7.8773580E-04
   54.60000     -8.0515799E-04
   54.66000     -8.2201354E-04
   54.72000     -8.3828071E-04
   54.78000     -8.5394218E-04
   54.84000     -8.6898578E-04
   54.90000     -8.8340382E-04
   54.96000     -8.9719385E-04
   55.02000     -9.1035845E-04
   55.08000     -9.2290534E-04
   55.14000     -9.3484711E-04
   55.20000     -9.4620115E-04
   55.26000     -9.5698948E-04
   55.32000     -9.6723851E-04
   55.38000     -9.7697868E-04
   55.44000     -9.8624441E-04
   55.50000     -9.9507382E-04
   55.56000     -1.0035078E-03