  -2.400000      0.0000000E+00
  -2.340000      0.0000000E+00
  -2.280000      0.0000000E+00
  -2.220000      0.0000000E+00
  -2.160000      0.0000000E+00
  -2.100000      0.0000000E+00
  -2.040000      1.8180198E-21
  -1.980000      9.5501023E-21
  -1.920000      5.9668169E-21
  -1.860000     -1.1417995E-19
  -1.800000     -5.7315391E-19
  -1.740000     -1.4589636E-18
  -1.680000     -2.0093789E-18
  -1.620000      1.2954903E-19
  -1.560000      8.2421699E-18
  -1.500000      2.2910180E-17
  -1.440000      3.6101259E-17
  -1.380000      2.8163538E-17
  -1.320000     -2.4102834E-17
  -1.260000     -1.2458056E-16
  -1.200000     -2.3071539E-16
  -1.140000     -2.4889560E-16
  -1.080000     -7.9569216E-17
  -1.020000      2.9071523E-16
 -0.9600000      7.0596130E-16
 -0.9000000      8.5783759E-16
 -0.8400000      4.6311786E-16
 -0.7800000     -4.5551272E-16
 -0.7200000     -1.3849864E-15
 -0.6600000     -1.4774955E-15
 -0.6000000     -1.2817813E-16
 -0.5400000      2.2860483E-15
 -0.4800000      4.0807430E-15
 -0.4200000      2.9061840E-15
 -0.3600000     -2.6089407E-15
 -0.3000000     -1.1018387E-14
 -0.2400000     -1.7436434E-14
 -0.1800000     -1.5300225E-14
 -0.1200000     -3.8395998E-16
 -5.9999999E-02  2.4860043E-14
  0.0000000E+00  4.9661186E-14
  5.9999999E-02  5.8317717E-14
  0.1200000      3.8272066E-14
  0.1800000     -1.0845018E-14
  0.2400000     -7.2828489E-14
  0.3000000     -1.1942533E-13
  0.3600000     -1.2337029E-13
  0.4200000     -7.3895283E-14
  0.4800000      1.4343215E-14
  0.5400000      1.0570761E-13
  0.6000000      1.6095956E-13
  0.6600000      1.5874400E-13
  0.7200000      1.0815716E-13
  0.7800000      4.3055078E-14
  0.8400000     -6.4022255E-16
  0.9000000     -1.1629813E-14
  0.9600000     -1.5704609E-14
   1.020000     -6.1880310E-14
   1.080000     -1.8569280E-13
   1.140000     -3.6978035E-13
   1.200000     -5.2881132E-13
   1.260000     -5.3657876E-13
   1.320000     -2.9036954E-13
   1.380000      2.1682790E-13
   1.440000      8.5732436E-13
   1.500000      1.3934076E-12
   1.560000      1.5660484E-12
   1.620000      1.2128508E-12
   1.680000      3.5957725E-13
   1.740000     -7.6376535E-13
   1.800000     -1.7979610E-12
   1.860000     -2.3921637E-12
   1.920000     -2.3430886E-12
   1.980000     -1.6720589E-12
   2.040000     -6.0537751E-13
   2.100000      5.2980255E-13
   2.160000      1.4417248E-12
   2.220000      1.9769386E-12
   2.280000      2.1446605E-12
   2.340000      2.0595270E-12
   2.400000      1.8412893E-12
   2.460000      1.5297278E-12
   2.520000      1.0618650E-12
   2.580000      3.2375421E-13
   2.640000     -7.5061918E-13
   2.700000     -2.0855789E-12
   2.760000     -3.4260776E-12
   2.820000     -4.3820533E-12
   2.880000     -4.5446806E-12
   2.940000     -3.6337309E-12
   3.000000     -1.6219178E-12
   3.060000      1.2098614E-12
   3.120000      4.3079403E-12
   3.180000      6.9620382E-12
   3.240000      8.4656318E-12
   3.300000      8.2708545E-12
   3.360000      6.0924499E-12
   3.420000      1.9355904E-12
   3.480000     -3.9497082E-12
   3.540000     -1.1159241E-11
   3.600000     -1.9228910E-11
   3.660000     -2.7696097E-11
   3.720000     -3.6110809E-11
   3.780000     -4.4003998E-11
   3.840000     -5.0841817E-11
   3.900000     -5.6001575E-11
   3.960000     -5.8797925E-11
   4.020000     -5.8568643E-11
   4.080000     -5.4805629E-11
   4.140000     -4.7297923E-11
   4.200000     -3.6245937E-11
   4.260000     -2.2314312E-11
   4.320000     -6.6109696E-12
   4.380000      9.3965339E-12
   4.440000      2.4003322E-11
   4.500000      3.5410373E-11
   4.560000      4.1891341E-11
   4.620000      4.2003685E-11
   4.680000      3.4857544E-11
   4.740000      2.0409070E-11
   4.800000     -3.2028967E-13
   4.860000     -2.5236849E-11
   4.920000     -5.1491526E-11
   4.980000     -7.6120645E-11
   5.040000     -9.6855066E-11
   5.100000     -1.1282028E-10
   5.160000     -1.2484003E-10
   5.220000     -1.3519154E-10
   5.280000     -1.4688137E-10
   5.340000     -1.6271927E-10
   5.400000     -1.8455119E-10
   5.460000     -2.1292551E-10
   5.520000     -2.4725400E-10
   5.580000     -2.8630281E-10
   5.640000     -3.2872391E-10
   5.700000     -3.7336578E-10
   5.760000     -4.1926038E-10
   5.820000     -4.6537510E-10
   5.880000     -5.1034632E-10
   5.940000     -5.5241844E-10
   6.000000     -5.8971089E-10
   6.060000     -6.2077465E-10
   6.120000     -6.4526118E-10
   6.180000     -6.6445810E-10
   6.240000     -6.8146694E-10
   6.300000     -7.0089201E-10
   6.360000     -7.2805817E-10
   6.420000     -7.6792028E-10
   6.480000     -8.2393398E-10
   6.540000     -8.9718455E-10
   6.600000     -9.8600017E-10
   6.660000     -1.0861257E-09
   6.720000     -1.1913628E-09
   6.780000     -1.2944515E-09
   6.840000     -1.3879524E-09
   6.900000     -1.4649651E-09
   6.960000     -1.5196673E-09
   7.020000     -1.5477628E-09
   7.080000     -1.5469424E-09
   7.140000     -1.5173559E-09
   7.200000     -1.4619468E-09
   7.260000     -1.3864070E-09
   7.320000     -1.2985663E-09
   7.380000     -1.2072164E-09
   7.440000     -1.1206396E-09
   7.500000     -1.0453040E-09
   7.560000     -9.8519770E-10
   7.620000     -9.4209185E-10
   7.680000     -9.1668834E-10
   7.740000     -9.1028757E-10
   7.800000     -9.2642177E-10
   7.860000     -9.7191588E-10
   7.920000     -1.0570439E-09
   7.980000     -1.1947712E-09
   8.040000     -1.3993771E-09
   8.100000     -1.6849394E-09
   8.160000     -2.0641560E-09
   8.220000     -2.5477735E-09
   8.280000     -3.1445813E-09
   8.340000     -3.8615897E-09
   8.400000     -4.7039164E-09
   8.460000     -5.6740004E-09
   8.520000     -6.7701480E-09
   8.580000     -7.9847888E-09
   8.640000     -9.3030881E-09
   8.700000     -1.0702480E-08
   8.760000     -1.2153327E-08
   8.820000     -1.3620485E-08
   8.880000     -1.5065266E-08
   8.940000     -1.6447290E-08
   9.000000     -1.7725982E-08
   9.060000     -1.8861796E-08
   9.120000     -1.9817408E-08
   9.180000     -2.0559083E-08
   9.240000     -2.1058222E-08
   9.300000     -2.1292864E-08
   9.360000     -2.1248921E-08
   9.420000     -2.0920918E-08
   9.480000     -2.0312207E-08
   9.540000     -1.9434678E-08
   9.600000     -1.8308096E-08
   9.660000     -1.6959152E-08
   9.720000     -1.5420335E-08
   9.780000     -1.3728812E-08
   9.840000     -1.1925320E-08
   9.900000     -1.0053135E-08
   9.960000     -8.1568849E-09
   10.02000     -6.2810694E-09
   10.08000     -4.4681792E-09
   10.14000     -2.7566098E-09
   10.20000     -1.1787848E-09
   10.26000      2.4005054E-10
   10.32000      1.4821081E-09
   10.38000      2.5365379E-09
   10.44000      3.3985950E-09
   10.50000      4.0690371E-09
   10.56000      4.5541269E-09
   10.62000      4.8661919E-09
   10.68000      5.0243556E-09
   10.74000      5.0548903E-09
   10.80000      4.9907274E-09
   10.86000      4.8699302E-09
   10.92000      4.7331952E-09
   10.98000      4.6207016E-09
   11.04000      4.5687516E-09
   11.10000      4.6067248E-09
   11.16000      4.7548623E-09
   11.22000      5.0232529E-09
   11.28000      5.4121716E-09
   11.34000      5.9135425E-09
   11.40000      6.5130652E-09
   11.46000      7.1924044E-09
   11.52000      7.9310318E-09
   11.58000      8.7075795E-09
   11.64000      9.5008525E-09
   11.70000      1.0290769E-08
   11.76000      1.1059346E-08
   11.82000      1.1791704E-08
   11.88000      1.2476858E-08
   11.94000      1.3108187E-08
   12.00000      1.3683515E-08
   12.06000      1.4204940E-08
   12.12000      1.4678504E-08
   12.18000      1.5113576E-08
   12.24000      1.5521813E-08
   12.30000      1.5915518E-08
   12.36000      1.6305602E-08
   12.42000      1.6699557E-08
   12.48000      1.7100085E-08
   12.54000      1.7504741E-08
   12.60000      1.7906643E-08
   12.66000      1.8295797E-08
   12.72000      1.8660591E-08
   12.78000      1.8989159E-08
   12.84000      1.9270606E-08
   12.90000      1.9496209E-08
   12.96000      1.9660469E-08
   13.02000      1.9761568E-08
   13.08000      1.9800760E-08
   13.14000      1.9780467E-08
   13.20000      1.9701668E-08
   13.26000      1.9561609E-08
   13.32000      1.9352974E-08
   13.38000      1.9064933E-08
   13.44000      1.8685585E-08
   13.50000      1.8204537E-08
   13.56000      1.7614484E-08
   13.62000      1.6911359E-08
   13.68000      1.6093619E-08
   13.74000      1.5161707E-08
   13.80000      1.4118527E-08
   13.86000      1.2970871E-08
   13.92000      1.1730937E-08
   13.98000      1.0416828E-08
   14.04000      9.0514058E-09
   14.10000      7.6597422E-09
   14.16000      6.2660592E-09
   14.22000      4.8911488E-09
   14.28000      3.5507692E-09
   14.34000      2.2548698E-09
   14.40000      1.0071968E-09
   14.46000     -1.9504040E-10
   14.52000     -1.3613423E-09
   14.58000     -2.5075579E-09
   14.64000     -3.6547265E-09
   14.70000     -4.8272502E-09
   14.76000     -6.0508536E-09
   14.82000     -7.3507236E-09
   14.88000     -8.7498018E-09
   14.94000     -1.0266767E-08
   15.00000     -1.1913229E-08
   15.06000     -1.3690289E-08
   15.12000     -1.5585488E-08
   15.18000     -1.7571647E-08
   15.24000     -1.9608782E-08
   15.30000     -2.1649043E-08
   15.36000     -2.3643183E-08
   15.42000     -2.5546353E-08
   15.48000     -2.7321445E-08
   15.54000     -2.8939715E-08
   15.60000     -3.0379880E-08
   15.66000     -3.1627732E-08
   15.72000     -3.2677420E-08
   15.78000     -3.3534246E-08
   15.84000     -3.4217216E-08
   15.90000     -3.4759346E-08
   15.96000     -3.5204678E-08
   16.02000     -3.5602426E-08
   16.08000     -3.6000088E-08
   16.14000     -3.6437356E-08
   16.20000     -3.6942044E-08
   16.26000     -3.7528153E-08
   16.32000     -3.8195648E-08
   16.38000     -3.8931709E-08
   16.44000     -3.9713544E-08
   16.50000     -4.0512955E-08
   16.56000     -4.1302197E-08
   16.62000     -4.2059806E-08
   16.68000     -4.2774438E-08
   16.74000     -4.3445443E-08
   16.80000     -4.4079929E-08
   16.86000     -4.4687646E-08
   16.92000     -4.5275598E-08
   16.98000     -4.5844196E-08
   17.04000     -4.6385480E-08
   17.10000     -4.6883184E-08
   17.16000     -4.7313851E-08
   17.22000     -4.7648502E-08
   17.28000     -4.7854755E-08
   17.34000     -4.7899654E-08
   17.40000     -4.7753279E-08
   17.46000     -4.7392845E-08
   17.52000     -4.6806822E-08
   17.58000     -4.5998323E-08
   17.64000     -4.4987136E-08
   17.70000     -4.3809735E-08
   17.76000     -4.2516714E-08
   17.82000     -4.1167453E-08
   17.88000     -3.9822506E-08
   17.94000     -3.8535280E-08
   18.00000     -3.7344908E-08
   18.06000     -3.6272201E-08
   18.12000     -3.5319239E-08
   18.18000     -3.4471963E-08
   18.24000     -3.3704112E-08
   18.30000     -3.2981205E-08
   18.36000     -3.2264129E-08
   18.42000     -3.1513032E-08
   18.48000     -3.0692338E-08
   18.54000     -2.9776826E-08
   18.60000     -2.8757499E-08
   18.66000     -2.7644992E-08
   18.72000     -2.6468824E-08
   18.78000     -2.5272200E-08
   18.84000     -2.4103818E-08
   18.90000     -2.3009047E-08
   18.96000     -2.2022741E-08
   19.02000     -2.1164796E-08
   19.08000     -2.0438494E-08
   19.14000     -1.9831111E-08
   19.20000     -1.9316355E-08
   19.26000     -1.8858422E-08
   19.32000     -1.8417428E-08
   19.38000     -1.7955411E-08
   19.44000     -1.7441547E-08
   19.50000     -1.6855200E-08
   19.56000     -1.6186226E-08
   19.62000     -1.5433251E-08
   19.68000     -1.4601542E-08
   19.74000     -1.3702049E-08
   19.80000     -1.2752084E-08
   19.86000     -1.1776504E-08
   19.92000     -1.0807385E-08
   19.98000     -9.8805142E-09
   20.04000     -9.0287262E-09
   20.10000     -8.2740579E-09
   20.16000     -7.6218853E-09
   20.22000     -7.0598061E-09
   20.28000     -6.5621211E-09
   20.34000     -6.0983867E-09
   20.40000     -5.6427885E-09
   20.46000     -5.1808859E-09
   20.52000     -4.7115796E-09
   20.58000     -4.2441934E-09
   20.64000     -3.7923198E-09
   20.70000     -3.3669088E-09
   20.76000     -2.9709100E-09
   20.82000     -2.5969686E-09
   20.88000     -2.2287436E-09
   20.94000     -1.8455818E-09
   21.00000     -1.4294878E-09
   21.06000     -9.7254516E-10
   21.12000     -4.8234922E-10
   21.18000      1.6921345E-11
   21.24000      4.8906790E-10
   21.30000      8.9531021E-10
   21.36000      1.2056455E-09
   21.42000      1.4079378E-09
   21.48000      1.5111136E-09
   21.54000      1.5411528E-09
   21.60000      1.5316096E-09
   21.66000      1.5126674E-09
   21.72000      1.5030918E-09
   21.78000      1.5077638E-09
   21.84000      1.5207089E-09
   21.90000      1.5311377E-09
   21.96000      1.5291404E-09
   22.02000      1.5085601E-09
   22.08000      1.4665085E-09
   22.14000      1.4008468E-09
   22.20000      1.3078059E-09
   22.26000      1.1815200E-09
   22.32000      1.0159981E-09
   22.38000      8.0870005E-10
   22.44000      5.6407379E-10
   22.50000      2.9539998E-10
   22.56000      2.3996347E-11
   22.62000     -2.2414029E-10
   22.68000     -4.2323250E-10
   22.74000     -5.5262700E-10
   22.80000     -6.0024452E-10
   22.86000     -5.6371541E-10
   22.92000     -4.4921861E-10
   22.98000     -2.6882627E-10
   23.04000     -3.7527564E-11
   23.10000      2.2906124E-10
   23.16000      5.1587734E-10
   23.22000      8.0873552E-10
   23.28000      1.0944934E-09
   23.34000      1.3617619E-09
   23.40000      1.6024646E-09
   23.46000      1.8139211E-09
   23.52000      2.0005535E-09
   23.58000      2.1740463E-09
   23.64000      2.3510316E-09
   23.70000      2.5481772E-09
   23.76000      2.7757383E-09
   23.82000      3.0317611E-09
   23.88000      3.2995706E-09
   23.94000      3.5504677E-09
   24.00000      3.7516852E-09
   24.06000      3.8772972E-09
   24.12000      3.9180446E-09
   24.18000      3.8859307E-09
   24.24000      3.8112917E-09
   24.30000      3.7330601E-09
   24.36000      3.6857841E-09
   24.42000      3.6882410E-09
   24.48000      3.7376653E-09
   24.54000      3.8112278E-09
   24.60000      3.8736578E-09
   24.66000      3.8879922E-09
   24.72000      3.8258943E-09
   24.78000      3.6746208E-09
   24.84000      3.4389620E-09
   24.90000      3.1378493E-09
   24.96000      2.7966822E-09
   25.02000      2.4376550E-09
   25.08000      2.0712474E-09
   25.14000      1.6920285E-09
   25.20000      1.2806207E-09
   25.26000      8.1123630E-10
   25.32000      2.6162864E-10
   25.38000     -3.7902712E-10
   25.44000     -1.1079729E-09
   25.50000     -1.9132620E-09
   25.56000     -2.7821703E-09
   25.62000     -3.7089967E-09
   25.68000     -4.6980220E-09
   25.74000     -5.7600498E-09
   25.80000     -6.9043993E-09
   25.86000     -8.1305611E-09
   25.92000     -9.4238004E-09
   25.98000     -1.0756965E-08
   26.04000     -1.2097842E-08
   26.10000     -1.3419116E-08
   26.16000     -1.4707227E-08
   26.22000     -1.5967160E-08
   26.28000     -1.7221804E-08
   26.34000     -1.8506155E-08
   26.40000     -1.9857822E-08
   26.46000     -2.1306139E-08
   26.52000     -2.2862391E-08
   26.58000     -2.4513687E-08
   26.64000     -2.6222365E-08
   26.70000     -2.7931570E-08
   26.76000     -2.9576068E-08
   26.82000     -3.1095784E-08
   26.88000     -3.2448686E-08
   26.94000     -3.3619607E-08
   27.00000     -3.4622786E-08
   27.06000     -3.5497454E-08
   27.12000     -3.6297781E-08
   27.18000     -3.7079865E-08
   27.24000     -3.7889283E-08
   27.30000     -3.8752390E-08
   27.36000     -3.9673395E-08
   27.42000     -4.0637602E-08
   27.48000     -4.1619174E-08
   27.54000     -4.2590703E-08
   27.60000     -4.3531447E-08
   27.66000     -4.4431811E-08
   27.72000     -4.5293088E-08
   27.78000     -4.6122803E-08
   27.84000     -4.6927422E-08
   27.90000     -4.7704759E-08
   27.96000     -4.8438647E-08
   28.02000     -4.9097874E-08
   28.08000     -4.9640498E-08
   28.14000     -5.0022937E-08
   28.20000     -5.0211447E-08
   28.26000     -5.0192327E-08
   28.32000     -4.9976954E-08
   28.38000     -4.9599194E-08
   28.44000     -4.9105445E-08
   28.50000     -4.8540354E-08
   28.56000     -4.7933177E-08
   28.62000     -4.7289443E-08
   28.68000     -4.6590856E-08
   28.74000     -4.5803137E-08
   28.80000     -4.4889028E-08
   28.86000     -4.3822144E-08
   28.92000     -4.2597652E-08
   28.98000     -4.1236902E-08
   29.04000     -3.9785103E-08
   29.10000     -3.8302680E-08
   29.16000     -3.6852381E-08
   29.22000     -3.5485023E-08
   29.28000     -3.4227273E-08
   29.34000     -3.3074702E-08
   29.40000     -3.1992222E-08
   29.46000     -3.0922575E-08
   29.52000     -2.9801081E-08
   29.58000     -2.8573261E-08
   29.64000     -2.7210726E-08
   29.70000     -2.5721112E-08
   29.76000     -2.4149275E-08
   29.82000     -2.2569317E-08
   29.88000     -2.1069635E-08
   29.94000     -1.9735072E-08
   30.00000     -1.8631280E-08
   30.06000     -1.7795676E-08
   30.12000     -1.7237340E-08
   30.18000     -1.6945163E-08
   30.24000     -1.6900774E-08
   30.30000     -1.7091123E-08
   30.36000     -1.7515809E-08
   30.42000     -1.8186446E-08
   30.48000     -1.9118430E-08
   30.54000     -2.0318399E-08
   30.60000     -2.1772179E-08
   30.66000     -2.3437810E-08
   30.72000     -2.5246562E-08
   30.78000     -2.7112350E-08
   30.84000     -2.8947625E-08
   30.90000     -3.0681772E-08
   30.96000     -3.2277104E-08
   31.02000     -3.3737436E-08
   31.08000     -3.5105835E-08
   31.14000     -3.6450981E-08
   31.20000     -3.7845354E-08
   31.26000     -3.9341938E-08
   31.32000     -4.0957229E-08
   31.38000     -4.2666628E-08
   31.44000     -4.4413742E-08
   31.50000     -4.6129660E-08
   31.56000     -4.7754579E-08
   31.62000     -4.9253764E-08
   31.68000     -5.0623026E-08
   31.74000     -5.1883699E-08
   31.80000     -5.3071219E-08
   31.86000     -5.4222799E-08
   31.92000     -5.5368215E-08
   31.98000     -5.6524986E-08
   32.04000     -5.7696987E-08
   32.10000     -5.8874942E-08
   32.16000     -6.0038097E-08
   32.22000     -6.1157365E-08
   32.28000     -6.2200350E-08
   32.34000     -6.3137705E-08
   32.40000     -6.3948875E-08
   32.46000     -6.4625041E-08
   32.52000     -6.5167931E-08
   32.58000     -6.5585077E-08
   32.64000     -6.5883420E-08
   32.70000     -6.6063762E-08
   32.76000     -6.6117700E-08
   32.82000     -6.6027305E-08
   32.88000     -6.5767132E-08
   32.94000     -6.5308029E-08
   33.00000     -6.4622320E-08
   33.06000     -6.3689981E-08
   33.12000     -6.2504895E-08
   33.18000     -6.1079312E-08
   33.24000     -5.9444609E-08
   33.30000     -5.7647334E-08
   33.36000     -5.5740784E-08
   33.42000     -5.3774571E-08
   33.48000     -5.1785136E-08
   33.54000     -4.9789989E-08
   33.60000     -4.7787090E-08
   33.66000     -4.5759123E-08
   33.72000     -4.3681158E-08
   33.78000     -4.1529375E-08
   33.84000     -3.9288523E-08
   33.90000     -3.6956241E-08
   33.96000     -3.4543302E-08
   34.02000     -3.2070229E-08
   34.08000     -2.9561869E-08
   34.14000     -2.7042308E-08
   34.20000     -2.4532122E-08
   34.26000     -2.2048704E-08
   34.32000     -1.9608784E-08
   34.38000     -1.7231208E-08
   34.44000     -1.4938168E-08
   34.50000     -1.2754128E-08
   34.56000     -1.0702942E-08
   34.62000     -8.8044070E-09
   34.68000     -7.0712356E-09
   34.74000     -5.5068483E-09
   34.80000     -4.1040149E-09
   34.86000     -2.8446572E-09
   34.92000     -1.7017442E-09
   34.98000     -6.4424527E-10
   35.04000      3.5492642E-10
   35.10000      1.3099493E-09
   35.16000      2.2156843E-09
   35.22000      3.0474343E-09
   35.28000      3.7683687E-09
   35.34000      4.3426667E-09
   35.40000      4.7493631E-09
   35.46000      4.9909059E-09
   35.52000      5.0923665E-09
   35.58000      5.0911142E-09
   35.64000      5.0208890E-09
   35.70000      4.8964752E-09
   35.76000      4.7047894E-09
   35.82000      4.4054005E-09
   35.88000      3.9398524E-09
   35.94000      3.2461700E-09
   36.00000      2.2736573E-09
   36.06000      9.9368558E-10
   36.12000     -5.9607491E-10
   36.18000     -2.4744169E-09
   36.24000     -4.6049524E-09
   36.30000     -6.9474559E-09
   36.36000     -9.4689492E-09
   36.42000     -1.2151331E-08
   36.48000     -1.4993176E-08
   36.54000     -1.8004885E-08
   36.60000     -2.1198543E-08
   36.66000     -2.4575781E-08
   36.72000     -2.8117983E-08
   36.78000     -3.1782605E-08
   36.84000     -3.5507163E-08
   36.90000     -3.9219536E-08
   36.96000     -4.2850829E-08
   37.02000     -4.6346148E-08
   37.08000     -4.9669929E-08
   37.14000     -5.2804801E-08
   37.20000     -5.5745634E-08
   37.26000     -5.8491946E-08
   37.32000     -6.1041661E-08
   37.38000     -6.3387844E-08
   37.44000     -6.5518392E-08
   37.50000     -6.7417538E-08
   37.56000     -6.9067646E-08
   37.62000     -7.0450604E-08
   37.68000     -7.1548847E-08
   37.74000     -7.2346182E-08
   37.80000     -7.2829010E-08
   37.86000     -7.2987888E-08
   37.92000     -7.2819184E-08
   37.98000     -7.2326287E-08
   38.04000     -7.1520283E-08
   38.10000     -7.0419759E-08
   38.16000     -6.9049960E-08
   38.22000     -6.7441547E-08
   38.28000     -6.5628917E-08
   38.34000     -6.3648187E-08
   38.40000     -6.1534692E-08
   38.46000     -5.9320143E-08
   38.52000     -5.7029748E-08
   38.58000     -5.4680196E-08
   38.64000     -5.2279685E-08
   38.70000     -4.9830646E-08
   38.76000     -4.7335085E-08
   38.82000     -4.4801020E-08
   38.88000     -4.2247585E-08
   38.94000     -3.9706478E-08
   39.00000     -3.7218744E-08
   39.06000     -3.4828016E-08
   39.12000     -3.2573073E-08
   39.18000     -3.0482990E-08
   39.24000     -2.8576922E-08
   39.30000     -2.6868140E-08
   39.36000     -2.5369893E-08
   39.42000     -2.4099766E-08
   39.48000     -2.3080203E-08
   39.54000     -2.2334838E-08
   39.60000     -2.1882304E-08
   39.66000     -2.1730020E-08
   39.72000     -2.1870097E-08
   39.78000     -2.2278298E-08
   39.84000     -2.2915886E-08
   39.90000     -2.3733584E-08
   39.96000     -2.4676876E-08
   40.02000     -2.5691964E-08
   40.08000     -2.6731513E-08
   40.14000     -2.7758986E-08
   40.20000     -2.8750273E-08
   40.26000     -2.9691861E-08
   40.32000     -3.0576128E-08
   40.38000     -3.1395590E-08
   40.44000     -3.2138711E-08
   40.50000     -3.2789181E-08
   40.56000     -3.3329030E-08
   40.62000     -3.3743834E-08
   40.68000     -3.4027263E-08
   40.74000     -3.4182200E-08
   40.80000     -3.4217546E-08
   40.86000     -3.4141824E-08
   40.92000     -3.3956724E-08
   40.98000     -3.3653869E-08
   41.04000     -3.3217148E-08
   41.10000     -3.2630314E-08
   41.16000     -3.1887271E-08
   41.22000     -3.1000901E-08
   41.28000     -3.0006504E-08
   41.34000     -2.8957984E-08
   41.40000     -2.7917707E-08
   41.46000     -2.6943493E-08
   41.52000     -2.6077224E-08
   41.58000     -2.5338720E-08
   41.64000     -2.4726278E-08
   41.70000     -2.4222839E-08
   41.76000     -2.3804981E-08
   41.82000     -2.3451799E-08
   41.88000     -2.3151520E-08
   41.94000     -2.2904924E-08
   42.00000     -2.2725480E-08
   42.06000     -2.2636325E-08
   42.12000     -2.2664416E-08
   42.18000     -2.2832669E-08
   42.24000     -2.3151891E-08
   42.30000     -2.3615184E-08
   42.36000     -2.4197513E-08
   42.42000     -2.4861487E-08
   42.48000     -2.5567996E-08
   42.54000     -2.6287925E-08
   42.60000     -2.7010326E-08
   42.66000     -2.7743861E-08
   42.72000     -2.8511128E-08
   42.78000     -2.9338711E-08
   42.84000     -3.0247239E-08
   42.90000     -3.1245406E-08
   42.96000     -3.2329613E-08
   43.02000     -3.3488252E-08
   43.08000     -3.4707995E-08
   43.14000     -3.5979014E-08
   43.20000     -3.7297330E-08
   43.26000     -3.8663952E-08
   43.32000     -4.0081943E-08
   43.38000     -4.1553093E-08
   43.44000     -4.3075833E-08
   43.50000     -4.4645148E-08
   43.56000     -4.6254371E-08
   43.62000     -4.7897746E-08
   43.68000     -4.9572421E-08
   43.74000     -5.1278668E-08
   43.80000     -5.3018073E-08
   43.86000     -5.4790380E-08
   43.92000     -5.6590341E-08
   43.98000     -5.8405902E-08
   44.04000     -6.0218170E-08
   44.10000     -6.2003046E-08
   44.16000     -6.3733793E-08
   44.22000     -6.5384100E-08
   44.28000     -6.6931399E-08
   44.34000     -6.8360272E-08
   44.40000     -6.9665028E-08
   44.46000     -7.0850213E-08
   44.52000     -7.1927680E-08
   44.58000     -7.2910389E-08
   44.64000     -7.3805026E-08
   44.70000     -7.4606646E-08
   44.76000     -7.5298608E-08
   44.82000     -7.5858189E-08
   44.88000     -7.6265763E-08
   44.94000     -7.6512954E-08
   45.00000     -7.6606000E-08
   45.06000     -7.6562962E-08
   45.12000     -7.6406593E-08
   45.18000     -7.6156944E-08
   45.24000     -7.5826833E-08
   45.30000     -7.5421411E-08
   45.36000     -7.4940793E-08
   45.42000     -7.4383067E-08
   45.48000     -7.3746101E-08
   45.54000     -7.3027643E-08
   45.60000     -7.2224381E-08
   45.66000     -7.1331009E-08
   45.72000     -7.0339816E-08
   45.78000     -6.9240919E-08
   45.84000     -6.8023439E-08
   45.90000     -6.6677764E-08
   45.96000     -6.5199110E-08
   46.02000     -6.3591592E-08
   46.08000     -6.1871042E-08
   46.14000     -6.0064885E-08
   46.20000     -5.8208194E-08
   46.26000     -5.6337068E-08
   46.32000     -5.4481770E-08
   46.38000     -5.2662195E-08
   46.44000     -5.0886936E-08
   46.50000     -4.9155449E-08
   46.56000     -4.7461743E-08
   46.62000     -4.5798341E-08
   46.68000     -4.4159837E-08
   46.74000     -4.2546144E-08
   46.80000     -4.0964903E-08
   46.86000     -3.9432006E-08
   46.92000     -3.7968945E-08
   46.98000     -3.6596891E-08
   47.04000     -3.5329233E-08
   47.10000     -3.4165829E-08
   47.16000     -3.3091823E-08
   47.22000     -3.2081971E-08
   47.28000     -3.1108801E-08
   47.34000     -3.0151391E-08
   47.40000     -2.9201649E-08
   47.46000     -2.8266626E-08
   47.52000     -2.7366836E-08
   47.58000     -2.6531650E-08
   47.64000     -2.5792753E-08
   47.70000     -2.5176814E-08
   47.76000     -2.4699107E-08
   47.82000     -2.4360387E-08
   47.88000     -2.4149291E-08
   47.94000     -2.4050708E-08
   48.00000     -2.4057940E-08
   48.06000     -2.4184249E-08
   48.12000     -2.4469259E-08
   48.18000     -2.4978013E-08
   48.24000     -2.5793774E-08
   48.30000     -2.7008056E-08
   48.36000     -2.8711755E-08
   48.42000     -3.0989760E-08
   48.48000     -3.3919896E-08
   48.54000     -3.7576282E-08
   48.60000     -4.2037424E-08
   48.66000     -4.7399222E-08
   48.72000     -5.3791432E-08
   48.78000     -6.1393656E-08
   48.84000     -7.0445701E-08
   48.90000     -8.1248217E-08
   48.96000     -9.4154530E-08
   49.02000     -1.0955931E-07
   49.08000     -1.2789251E-07
   49.14000     -1.4962453E-07
   49.20000     -1.7528296E-07
   49.26000     -2.0547516E-07
   49.32000     -2.4090872E-07
   49.38000     -2.8240535E-07
   49.44000     -3.3090907E-07
   49.50000     -3.8749434E-07
   49.56000     -4.5338018E-07
   49.62000     -5.2995199E-07
   49.68000     -6.1878774E-07
   49.74000     -7.2168268E-07
   49.80000     -8.4066733E-07
   49.86000     -9.7802013E-07
   49.92000     -1.1362799E-06
   49.98000     -1.3182621E-06
   50.04000     -1.5270862E-06
   50.10000     -1.7662101E-06
   50.16000     -2.0394698E-06
   50.22000     -2.3511166E-06
   50.28000     -2.7058486E-06
   50.34000     -3.1088423E-06
   50.40000     -3.5657783E-06
   50.46000     -4.0828668E-06
   50.52000     -4.6668729E-06
   50.58000     -5.3251383E-06
   50.64000     -6.0656002E-06
   50.70000     -6.8968093E-06
   50.76000     -7.8279518E-06
   50.82000     -8.8688748E-06
   50.88000     -1.0030105E-05
   50.94000     -1.1322873E-05
   51.00000     -1.2759125E-05
   51.06000     -1.4351509E-05
   51.12000     -1.6113368E-05
   51.18000     -1.8058710E-05
   51.24000     -2.0202175E-05
   51.30000     -2.2558999E-05
   51.36000     -2.5144967E-05
   51.42000     -2.7976343E-05
   51.48000     -3.1069816E-05
   51.54000     -3.4442430E-05
   51.60000     -3.8111506E-05
   51.66000     -4.2094580E-05
   51.72000     -4.6409285E-05
   51.78000     -5.1073224E-05
   51.84000     -5.6103840E-05
   51.90000     -6.1518214E-05
   51.96000     -6.7332905E-05
   52.02000     -7.3563810E-05
   52.08000     -8.0225996E-05
   52.14000     -8.7333559E-05
   52.20000     -9.4899442E-05
   52.26000     -1.0293523E-04
   52.32000     -1.1145094E-04
   52.38000     -1.2045485E-04
   52.44000     -1.2995326E-04
   52.50000     -1.3995031E-04
   52.56000     -1.5044787E-04
   52.62000     -1.6144528E-04
   52.68000     -1.7293921E-04
   52.74000     -1.8492350E-04
   52.80000     -1.9738900E-04
   52.86000     -2.1032344E-04
   52.92000     -2.2371144E-04
   52.98000     -2.3753436E-04
   53.04000     -2.5177043E-04
   53.10000     -2.6639467E-04
   53.16000     -2.8137880E-04
   53.22000     -2.9669132E-04
   53.28000     -3.1229755E-04
   53.34000     -3.2815980E-04
   53.40000     -3.4423746E-04
   53.46000     -3.6048738E-04
   53.52000     -3.7686393E-04
   53.58000     -3.9331923E-04
   53.64000     -4.0980353E-04
   53.70000     -4.2626547E-04
   53.76000     -4.4265247E-04
   53.82000     -4.5891097E-04
   53.88000     -4.7498703E-04
   53.94000     -4.9082638E-04
   54.00000     -5.0637522E-04
   54.06000     -5.2158011E-04
   54.12000     -5.3638924E-04
   54.18000     -5.5075251E-04
   54.24000     -5.6462170E-04
   54.30000     -5.7795114E-04
   54.36000     -5.9069810E-04
   54.42000     -6.0282293E-04
   54.48000     -6.1428978E-04
   54.54000     -6.2506663E-04
   54.60000     -6.3512585E-04
   54.66000     -6.4444449E-04
   54.72000     -6.5300456E-04
   54.78000     -6.6079275E-04
   54.84000     -6.6780089E-04
   54.90000     -6.7402609E-04
   54.96000     -6.7947095E-04
   55.02000     -6.8414351E-04
   55.08000     -6.8805681E-04
   55.14000     -6.9122913E-04
   55.20000     -6.9368369E-04
   55.26000     -6.9544825E-04
   55.32000     -6.9655519E-04
   55.38000     -6.9704087E-04
   55.44000     -6.9694570E-04
   55.50000     -6.9631351E-04
   55.56000     -6.9519138E-04