  -2.400000      0.0000000E+00
  -2.340000      0.0000000E+00
  -2.280000      0.0000000E+00
  -2.220000      0.0000000E+00
  -2.160000      0.0000000E+00
  -2.100000      0.0000000E+00
  -2.040000     -2.7148488E-21
  -1.980000     -1.1962330E-20
  -1.920000      1.7034374E-20
  -1.860000      3.1656543E-19
  -1.800000      1.3926919E-18
  -1.740000      3.5818050E-18
  -1.680000      5.6020964E-18
  -1.620000      2.6929547E-18
  -1.560000     -1.2999465E-17
  -1.500000     -4.6050177E-17
  -1.440000     -8.4883726E-17
  -1.380000     -9.0742150E-17
  -1.320000     -6.1964257E-18
  -1.260000      2.0127373E-16
  -1.200000      4.6974912E-16
  -1.140000      5.9845281E-16
  -1.080000      3.0743630E-16
  -1.020000     -5.5213700E-16
 -0.9600000     -1.7068065E-15
 -0.9000000     -2.3122261E-15
 -0.8400000     -1.2356859E-15
 -0.7800000      2.1088054E-15
 -0.7200000      6.6807903E-15
 -0.6600000      9.2890893E-15
 -0.6000000      5.5682099E-15
 -0.5400000     -7.1926167E-15
 -0.4800000     -2.6354210E-14
 -0.4200000     -4.1798633E-14
 -0.3600000     -3.8211584E-14
 -0.3000000     -3.0048291E-15
 -0.2400000      6.2481575E-14
 -0.1800000      1.3477076E-13
 -0.1200000      1.7074361E-13
 -5.9999999E-02  1.2511116E-13
  0.0000000E+00 -2.1144106E-14
  5.9999999E-02 -2.3493653E-13
  0.1200000     -4.2617057E-13
  0.1800000     -4.7655423E-13
  0.2400000     -2.9850891E-13
  0.3000000      1.0027645E-13
  0.3600000      5.8439083E-13
  0.4200000      9.2240581E-13
  0.4800000      8.8690860E-13
  0.5400000      3.8676947E-13
  0.6000000     -4.3617735E-13
  0.6600000     -1.2148146E-12
  0.7200000     -1.4975149E-12
  0.7800000     -9.8136072E-13
  0.8400000      2.6893770E-13
  0.9000000      1.7462051E-12
  0.9600000      2.6544799E-12
   1.020000      2.2696879E-12
   1.080000      3.6384803E-13
   1.140000     -2.5237379E-12
   1.200000     -5.1561711E-12
   1.260000     -6.0585720E-12
   1.320000     -4.2187820E-12
   1.380000      2.8178241E-13
   1.440000      6.0487110E-12
   1.500000      1.0763794E-11
   1.560000      1.2103340E-11
   1.620000      8.8200888E-12
   1.680000      1.4784045E-12
   1.740000     -7.5694433E-12
   1.800000     -1.5049786E-11
   1.860000     -1.8141041E-11
   1.920000     -1.5718510E-11
   1.980000     -8.8335329E-12
   2.040000     -1.2993933E-13
   2.100000      7.5561571E-12
   2.160000      1.2691348E-11
   2.220000      1.5777055E-11
   2.280000      1.8789853E-11
   2.340000      2.3479496E-11
   2.400000      2.9377861E-11
   2.460000      3.2715008E-11
   2.520000      2.7176201E-11
   2.580000      6.6133084E-12
   2.640000     -3.1204400E-11
   2.700000     -8.1448473E-11
   2.760000     -1.3137647E-10
   2.820000     -1.6267242E-10
   2.880000     -1.5661504E-10
   2.940000     -1.0048334E-10
   3.000000      6.9966320E-12
   3.060000      1.5305988E-10
   3.120000      3.1198899E-10
   3.180000      4.4934900E-10
   3.240000      5.2782023E-10
   3.300000      5.1282240E-10
   3.360000      3.7667305E-10
   3.420000      1.0103162E-10
   3.480000     -3.2171316E-10
   3.540000     -8.8712065E-10
   3.600000     -1.5768421E-09
   3.660000     -2.3565270E-09
   3.720000     -3.1746781E-09
   3.780000     -3.9640295E-09
   3.840000     -4.6466395E-09
   3.900000     -5.1427920E-09
   3.960000     -5.3824305E-09
   4.020000     -5.3167226E-09
   4.080000     -4.9269202E-09
   4.140000     -4.2281703E-09
   4.200000     -3.2672081E-09
   4.260000     -2.1145075E-09
   4.320000     -8.5295998E-10
   4.380000      4.3399739E-10
   4.440000      1.6719924E-09
   4.500000      2.8012763E-09
   4.560000      3.7780294E-09
   4.620000      4.5727795E-09
   4.680000      5.1681930E-09
   4.740000      5.5583791E-09
   4.800000      5.7506448E-09
   4.860000      5.7689182E-09
   4.920000      5.6565836E-09
   4.980000      5.4759703E-09
   5.040000      5.3026725E-09
   5.100000      5.2148725E-09
   5.160000      5.2801554E-09
   5.220000      5.5438076E-09
   5.280000      6.0224927E-09
   5.340000      6.7053723E-09
   5.400000      7.5619022E-09
   5.460000      8.5528917E-09
   5.520000      9.6402966E-09
   5.580000      1.0792113E-08
   5.640000      1.1981389E-08
   5.700000      1.3181441E-08
   5.760000      1.4361381E-08
   5.820000      1.5485941E-08
   5.880000      1.6521220E-08
   5.940000      1.7444604E-08
   6.000000      1.8254374E-08
   6.060000      1.8973809E-08
   6.120000      1.9646595E-08
   6.180000      2.0324075E-08
   6.240000      2.1048624E-08
   6.300000      2.1839519E-08
   6.360000      2.2686791E-08
   6.420000      2.3555438E-08
   6.480000      2.4398155E-08
   6.540000      2.5171458E-08
   6.600000      2.5849122E-08
   6.660000      2.6428362E-08
   6.720000      2.6927413E-08
   6.780000      2.7376576E-08
   6.840000      2.7806847E-08
   6.900000      2.8240542E-08
   6.960000      2.8686715E-08
   7.020000      2.9141937E-08
   7.080000      2.9594876E-08
   7.140000      3.0032055E-08
   7.200000      3.0442376E-08
   7.260000      3.0819031E-08
   7.320000      3.1158976E-08
   7.380000      3.1461312E-08
   7.440000      3.1726358E-08
   7.500000      3.1956869E-08
   7.560000      3.2161566E-08
   7.620000      3.2359903E-08
   7.680000      3.2585667E-08
   7.740000      3.2887105E-08
   7.800000      3.3321964E-08
   7.860000      3.3947966E-08
   7.920000      3.4811013E-08
   7.980000      3.5934853E-08
   8.040000      3.7315797E-08
   8.100000      3.8924249E-08
   8.160000      4.0712525E-08
   8.220000      4.2625793E-08
   8.280000      4.4612207E-08
   8.340000      4.6628639E-08
   8.400000      4.8640732E-08
   8.460000      5.0618301E-08
   8.520000      5.2529241E-08
   8.580000      5.4335242E-08
   8.640000      5.5991638E-08
   8.700000      5.7451384E-08
   8.760000      5.8671208E-08
   8.820000      5.9616603E-08
   8.880000      6.0262991E-08
   8.940000      6.0592086E-08
   9.000000      6.0585322E-08
   9.060000      6.0217779E-08
   9.120000      5.9456877E-08
   9.180000      5.8267787E-08
   9.240000      5.6624909E-08
   9.300000      5.4525007E-08
   9.360000      5.1996469E-08
   9.420000      4.9100095E-08
   9.480000      4.5920498E-08
   9.540000      4.2551214E-08
   9.600000      3.9079488E-08
   9.660000      3.5576214E-08
   9.720000      3.2093666E-08
   9.780000      2.8669426E-08
   9.840000      2.5332138E-08
   9.900000      2.2104821E-08
   9.960000      1.9004050E-08
   10.02000      1.6036871E-08
   10.08000      1.3199272E-08
   10.14000      1.0479281E-08
   10.20000      7.8647622E-09
   10.26000      5.3525731E-09
   10.32000      2.9543288E-09
   10.38000      6.9534950E-10
   10.44000     -1.3931832E-09
   10.50000     -3.2853320E-09
   10.56000     -4.9696798E-09
   10.62000     -6.4528276E-09
   10.68000     -7.7561992E-09
   10.74000     -8.9084145E-09
   10.80000     -9.9371036E-09
   10.86000     -1.0863546E-08
   10.92000     -1.1701470E-08
   10.98000     -1.2459165E-08
   11.04000     -1.3142719E-08
   11.10000     -1.3758267E-08
   11.16000     -1.4312215E-08
   11.22000     -1.4809617E-08
   11.28000     -1.5251944E-08
   11.34000     -1.5635587E-08
   11.40000     -1.5952260E-08
   11.46000     -1.6191603E-08
   11.52000     -1.6345558E-08
   11.58000     -1.6413173E-08
   11.64000     -1.6404158E-08
   11.70000     -1.6339552E-08
   11.76000     -1.6248748E-08
   11.82000     -1.6163296E-08
   11.88000     -1.6109318E-08
   11.94000     -1.6100895E-08
   12.00000     -1.6136777E-08
   12.06000     -1.6201509E-08
   12.12000     -1.6270677E-08
   12.18000     -1.6318593E-08
   12.24000     -1.6325961E-08
   12.30000     -1.6285197E-08
   12.36000     -1.6201785E-08
   12.42000     -1.6091311E-08
   12.48000     -1.5973233E-08
   12.54000     -1.5863757E-08
   12.60000     -1.5770636E-08
   12.66000     -1.5692388E-08
   12.72000     -1.5622510E-08
   12.78000     -1.5557022E-08
   12.84000     -1.5501472E-08
   12.90000     -1.5473189E-08
   12.96000     -1.5496415E-08
   13.02000     -1.5591457E-08
   13.08000     -1.5762593E-08
   13.14000     -1.5991057E-08
   13.20000     -1.6237635E-08
   13.26000     -1.6455092E-08
   13.32000     -1.6605648E-08
   13.38000     -1.6675859E-08
   13.44000     -1.6682190E-08
   13.50000     -1.6664998E-08
   13.56000     -1.6673948E-08
   13.62000     -1.6751725E-08
   13.68000     -1.6922844E-08
   13.74000     -1.7191017E-08
   13.80000     -1.7543874E-08
   13.86000     -1.7960600E-08
   13.92000     -1.8417706E-08
   13.98000     -1.8890690E-08
   14.04000     -1.9352706E-08
   14.10000     -1.9773468E-08
   14.16000     -2.0121220E-08
   14.22000     -2.0368260E-08
   14.28000     -2.0497662E-08
   14.34000     -2.0507418E-08
   14.40000     -2.0409082E-08
   14.46000     -2.0220551E-08
   14.52000     -1.9955641E-08
   14.58000     -1.9614996E-08
   14.64000     -1.9182568E-08
   14.70000     -1.8629857E-08
   14.76000     -1.7926759E-08
   14.82000     -1.7055031E-08
   14.88000     -1.6019097E-08
   14.94000     -1.4849615E-08
   15.00000     -1.3598186E-08
   15.06000     -1.2325132E-08
   15.12000     -1.1085304E-08
   15.18000     -9.9175912E-09
   15.24000     -8.8419556E-09
   15.30000     -7.8639735E-09
   15.36000     -6.9831407E-09
   15.42000     -6.1994978E-09
   15.48000     -5.5145515E-09
   15.54000     -4.9263340E-09
   15.60000     -4.4224433E-09
   15.66000     -3.9766825E-09
   15.72000     -3.5531680E-09
   15.78000     -3.1173362E-09
   15.84000     -2.6487863E-09
   15.90000     -2.1490374E-09
   15.96000     -1.6394278E-09
   16.02000     -1.1494428E-09
   16.08000     -7.0096678E-10
   16.14000     -2.9626612E-10
   16.20000      8.4330910E-11
   16.26000      4.7409360E-10
   16.32000      9.0524338E-10
   16.38000      1.3951656E-09
   16.44000      1.9396063E-09
   16.50000      2.5150251E-09
   16.56000      3.0877907E-09
   16.62000      3.6252761E-09
   16.68000      4.1042321E-09
   16.74000      4.5143005E-09
   16.80000      4.8573590E-09
   16.86000      5.1448201E-09
   16.92000      5.3945857E-09
   16.98000      5.6278391E-09
   17.04000      5.8647416E-09
   17.10000      6.1184138E-09
   17.16000      6.3882166E-09
   17.22000      6.6551138E-09
   17.28000      6.8822845E-09
   17.34000      7.0225106E-09
   17.40000      7.0307640E-09
   17.46000      6.8775163E-09
   17.52000      6.5573782E-09
   17.58000      6.0894960E-09
   17.64000      5.5098632E-09
   17.70000      4.8594351E-09
   17.76000      4.1735939E-09
   17.82000      3.4772327E-09
   17.88000      2.7862967E-09
   17.94000      2.1130730E-09
   18.00000      1.4708971E-09
   18.06000      8.7509872E-10
   18.12000      3.4006001E-10
   18.18000     -1.2482267E-10
   18.24000     -5.1662208E-10
   18.30000     -8.3593094E-10
   18.36000     -1.0808768E-09
   18.42000     -1.2421041E-09
   18.48000     -1.3028432E-09
   18.54000     -1.2454427E-09
   18.60000     -1.0616589E-09
   18.66000     -7.6096623E-10
   18.72000     -3.7126616E-10
   18.78000      7.0110612E-11
   18.84000      5.3191973E-10
   18.90000      1.0036896E-09
   18.96000      1.5016672E-09
   19.02000      2.0618902E-09
   19.08000      2.7226397E-09
   19.14000      3.5043217E-09
   19.20000      4.3967683E-09
   19.26000      5.3607065E-09
   19.32000      6.3431105E-09
   19.38000      7.2989272E-09
   19.44000      8.2081453E-09
   19.50000      9.0794803E-09
   19.56000      9.9390087E-09
   19.62000      1.0810139E-08
   19.68000      1.1695866E-08
   19.74000      1.2572779E-08
   19.80000      1.3399546E-08
   19.86000      1.4134423E-08
   19.92000      1.4751500E-08
   19.98000      1.5246579E-08
   20.04000      1.5630075E-08
   20.10000      1.5912098E-08
   20.16000      1.6089498E-08
   20.22000      1.6143298E-08
   20.28000      1.6048666E-08
   20.34000      1.5792168E-08
   20.40000      1.5386746E-08
   20.46000      1.4876150E-08
   20.52000      1.4326151E-08
   20.58000      1.3806745E-08
   20.64000      1.3373618E-08
   20.70000      1.3056706E-08
   20.76000      1.2859464E-08
   20.82000      1.2767139E-08
   20.88000      1.2758792E-08
   20.94000      1.2817303E-08
   21.00000      1.2933836E-08
   21.06000      1.3106404E-08
   21.12000      1.3334598E-08
   21.18000      1.3613418E-08
   21.24000      1.3928681E-08
   21.30000      1.4255422E-08
   21.36000      1.4559668E-08
   21.42000      1.4803219E-08
   21.48000      1.4950412E-08
   21.54000      1.4975290E-08
   21.60000      1.4867185E-08
   21.66000      1.4632822E-08
   21.72000      1.4293929E-08
   21.78000      1.3880744E-08
   21.84000      1.3423437E-08
   21.90000      1.2944439E-08
   21.96000      1.2454560E-08
   22.02000      1.1954486E-08
   22.08000      1.1441101E-08
   22.14000      1.0915906E-08
   22.20000      1.0391735E-08
   22.26000      9.8942836E-09
   22.32000      9.4571888E-09
   22.38000      9.1121812E-09
   22.44000      8.8784828E-09
   22.50000      8.7563050E-09
   22.56000      8.7277776E-09
   22.62000      8.7652472E-09
   22.68000      8.8432692E-09
   22.74000      8.9485974E-09
   22.80000      9.0832630E-09
   22.86000      9.2591250E-09
   22.92000      9.4866053E-09
   22.98000      9.7632764E-09
   23.04000      1.0068179E-08
   23.10000      1.0364902E-08
   23.16000      1.0612140E-08
   23.22000      1.0776804E-08
   23.28000      1.0843745E-08
   23.34000      1.0818028E-08
   23.40000      1.0719485E-08
   23.46000      1.0572859E-08
   23.52000      1.0398471E-08
   23.58000      1.0207327E-08
   23.64000      1.0001751E-08
   23.70000      9.7795638E-09
   23.76000      9.5382129E-09
   23.82000      9.2758423E-09
   23.88000      8.9885210E-09
   23.94000      8.6655279E-09
   24.00000      8.2861131E-09
   24.06000      7.8208187E-09
   24.12000      7.2382420E-09
   24.18000      6.5153212E-09
   24.24000      5.6470313E-09
   24.30000      4.6510853E-09
   24.36000      3.5650063E-09
   24.42000      2.4361368E-09
   24.48000      1.3083600E-09
   24.54000      2.1106185E-10
   24.60000     -8.4479657E-10
   24.66000     -1.8615831E-09
   24.72000     -2.8430467E-09
   24.78000     -3.7810670E-09
   24.84000     -4.6476392E-09
   24.90000     -5.3965676E-09
   24.96000     -5.9749583E-09
   25.02000     -6.3398975E-09
   25.08000     -6.4729853E-09
   25.14000     -6.3861383E-09
   25.20000     -6.1160566E-09
   25.26000     -5.7100831E-09
   25.32000     -5.2101754E-09
   25.38000     -4.6422799E-09
   25.44000     -4.0153223E-09
   25.50000     -3.3289393E-09
   25.56000     -2.5847728E-09
   25.62000     -1.7948786E-09
   25.68000     -9.8308595E-10
   25.74000     -1.7951088E-10
   25.80000      5.8776423E-10
   25.86000      1.2987255E-09
   25.92000      1.9421182E-09
   25.98000      2.5115277E-09
   26.04000      3.0006386E-09
   26.10000      3.4019241E-09
   26.16000      3.7105823E-09
   26.22000      3.9318664E-09
   26.28000      4.0873269E-09
   26.34000      4.2156079E-09
   26.40000      4.3662816E-09
   26.46000      4.5890913E-09
   26.52000      4.9235180E-09
   26.58000      5.3933364E-09
   26.64000      6.0079035E-09
   26.70000      6.7681567E-09
   26.76000      7.6729378E-09
   26.82000      8.7216563E-09
   26.88000      9.9120916E-09
   26.94000      1.1235598E-08
   27.00000      1.2673648E-08
   27.06000      1.4198786E-08
   27.12000      1.5779952E-08
   27.18000      1.7389013E-08
   27.24000      1.9004235E-08
   27.30000      2.0608123E-08
   27.36000      2.2180716E-08
   27.42000      2.3692438E-08
   27.48000      2.5101293E-08
   27.54000      2.6356590E-08
   27.60000      2.7407497E-08
   27.66000      2.8211725E-08
   27.72000      2.8739837E-08
   27.78000      2.8973961E-08
   27.84000      2.8903969E-08
   27.90000      2.8526369E-08
   27.96000      2.7849524E-08
   28.02000      2.6903916E-08
   28.08000      2.5750996E-08
   28.14000      2.4482528E-08
   28.20000      2.3205825E-08
   28.26000      2.2017694E-08
   28.32000      2.0977344E-08
   28.38000      2.0090972E-08
   28.44000      1.9316735E-08
   28.50000      1.8589281E-08
   28.56000      1.7853326E-08
   28.62000      1.7090775E-08
   28.68000      1.6328965E-08
   28.74000      1.5626778E-08
   28.80000      1.5046313E-08
   28.86000      1.4624456E-08
   28.92000      1.4357877E-08
   28.98000      1.4207455E-08
   29.04000      1.4118232E-08
   29.10000      1.4043903E-08
   29.16000      1.3964084E-08
   29.22000      1.3887754E-08
   29.28000      1.3843969E-08
   29.34000      1.3866919E-08
   29.40000      1.3983637E-08
   29.46000      1.4209417E-08
   29.52000      1.4550679E-08
   29.58000      1.5011040E-08
   29.64000      1.5595589E-08
   29.70000      1.6310819E-08
   29.76000      1.7161085E-08
   29.82000      1.8144817E-08
   29.88000      1.9253465E-08
   29.94000      2.0473841E-08
   30.00000      2.1791903E-08
   30.06000      2.3194730E-08
   30.12000      2.4668374E-08
   30.18000      2.6191863E-08
   30.24000      2.7730247E-08
   30.30000      2.9230938E-08
   30.36000      3.0626641E-08
   30.42000      3.1845627E-08
   30.48000      3.2826911E-08
   30.54000      3.3535493E-08
   30.60000      3.3972476E-08
   30.66000      3.4176264E-08
   30.72000      3.4213901E-08
   30.78000      3.4164930E-08
   30.84000      3.4102477E-08
   30.90000      3.4077228E-08
   30.96000      3.4109039E-08
   31.02000      3.4188449E-08
   31.08000      3.4287140E-08
   31.14000      3.4373514E-08
   31.20000      3.4427746E-08
   31.26000      3.4451087E-08
   31.32000      3.4466158E-08
   31.38000      3.4508496E-08
   31.44000      3.4612707E-08
   31.50000      3.4798521E-08
   31.56000      3.5061930E-08
   31.62000      3.5374438E-08
   31.68000      3.5690409E-08
   31.74000      3.5959843E-08
   31.80000      3.6142268E-08
   31.86000      3.6217735E-08
   31.92000      3.6192020E-08
   31.98000      3.6094981E-08
   32.04000      3.5972516E-08
   32.10000      3.5874024E-08
   32.16000      3.5838195E-08
   32.22000      3.5880891E-08
   32.28000      3.5988826E-08
   32.34000      3.6121705E-08
   32.40000      3.6222993E-08
   32.46000      3.6236258E-08
   32.52000      3.6121534E-08
   32.58000      3.5865707E-08
   32.64000      3.5483197E-08
   32.70000      3.5007407E-08
   32.76000      3.4477562E-08
   32.82000      3.3927542E-08
   32.88000      3.3381969E-08
   32.94000      3.2860598E-08
   33.00000      3.2387586E-08
   33.06000      3.1999345E-08
   33.12000      3.1745348E-08
   33.18000      3.1680106E-08
   33.24000      3.1849211E-08
   33.30000      3.2275629E-08
   33.36000      3.2952542E-08
   33.42000      3.3845712E-08
   33.48000      3.4903792E-08
   33.54000      3.6071199E-08
   33.60000      3.7297482E-08
   33.66000      3.8539632E-08
   33.72000      3.9758227E-08
   33.78000      4.0911960E-08
   33.84000      4.1955978E-08
   33.90000      4.2846708E-08
   33.96000      4.3551321E-08
   34.02000      4.4055994E-08
   34.08000      4.4366693E-08
   34.14000      4.4499796E-08
   34.20000      4.4466059E-08
   34.26000      4.4256279E-08
   34.32000      4.3837620E-08
   34.38000      4.3164931E-08
   34.44000      4.2203318E-08
   34.50000      4.0951733E-08
   34.56000      3.9455578E-08
   34.62000      3.7801343E-08
   34.68000      3.6094850E-08
   34.74000      3.4432759E-08
   34.80000      3.2879527E-08
   34.86000      3.1458214E-08
   34.92000      3.0155942E-08
   34.98000      2.8937663E-08
   35.04000      2.7759739E-08
   35.10000      2.6577869E-08
   35.16000      2.5349619E-08
   35.22000      2.4035927E-08
   35.28000      2.2605638E-08
   35.34000      2.1042949E-08
   35.40000      1.9352854E-08
   35.46000      1.7558456E-08
   35.52000      1.5687691E-08
   35.58000      1.3753803E-08
   35.64000      1.1739401E-08
   35.70000      9.5940438E-09
   35.76000      7.2492408E-09
   35.82000      4.6453521E-09
   35.88000      1.7577134E-09
   35.94000     -1.3914289E-09
   36.00000     -4.7418736E-09
   36.06000     -8.2213392E-09
   36.12000     -1.1775425E-08
   36.18000     -1.5386712E-08
   36.24000     -1.9073877E-08
   36.30000     -2.2872239E-08
   36.36000     -2.6806687E-08
   36.42000     -3.0871167E-08
   36.48000     -3.5024488E-08
   36.54000     -3.9202565E-08
   36.60000     -4.3338400E-08
   36.66000     -4.7377636E-08
   36.72000     -5.1281575E-08
   36.78000     -5.5018287E-08
   36.84000     -5.8550285E-08
   36.90000     -6.1829525E-08
   36.96000     -6.4805405E-08
   37.02000     -6.7442244E-08
   37.08000     -6.9735130E-08
   37.14000     -7.1712229E-08
   37.20000     -7.3418597E-08
   37.26000     -7.4887780E-08
   37.32000     -7.6116109E-08
   37.38000     -7.7054899E-08
   37.44000     -7.7627305E-08
   37.50000     -7.7762941E-08
   37.56000     -7.7433121E-08
   37.62000     -7.6668400E-08
   37.68000     -7.5549082E-08
   37.74000     -7.4173933E-08
   37.80000     -7.2623578E-08
   37.86000     -7.0937190E-08
   37.92000     -6.9112630E-08
   37.98000     -6.7126415E-08
   38.04000     -6.4959373E-08
   38.10000     -6.2612180E-08
   38.16000     -6.0103048E-08
   38.22000     -5.7452301E-08
   38.28000     -5.4666607E-08
   38.34000     -5.1735515E-08
   38.40000     -4.8643972E-08
   38.46000     -4.5393268E-08
   38.52000     -4.2016691E-08
   38.58000     -3.8579074E-08
   38.64000     -3.5159328E-08
   38.70000     -3.1825738E-08
   38.76000     -2.8618432E-08
   38.82000     -2.5548673E-08
   38.88000     -2.2614095E-08
   38.94000     -1.9819135E-08
   39.00000     -1.7187007E-08
   39.06000     -1.4755527E-08
   39.12000     -1.2559736E-08
   39.18000     -1.0612953E-08
   39.24000     -8.8988834E-09
   39.30000     -7.3802755E-09
   39.36000     -6.0188929E-09
   39.42000     -4.7941251E-09
   39.48000     -3.7082986E-09
   39.54000     -2.7751057E-09
   39.60000     -1.9985149E-09
   39.66000     -1.3560701E-09
   39.72000     -7.9841977E-10
   39.78000     -2.6725516E-10
   39.84000      2.7767580E-10
   39.90000      8.3819529E-10
   39.96000      1.3768376E-09
   40.02000      1.8376659E-09
   40.08000      2.1783628E-09
   40.14000      2.3961348E-09
   40.20000      2.5326252E-09
   40.26000      2.6542186E-09
   40.32000      2.8176410E-09
   40.38000      3.0390273E-09
   40.44000      3.2829470E-09
   40.50000      3.4771030E-09
   40.56000      3.5445311E-09
   40.62000      3.4359293E-09
   40.68000      3.1452605E-09
   40.74000      2.7015650E-09
   40.80000      2.1433009E-09
   40.86000      1.4908436E-09
   40.92000      7.3291023E-10
   40.98000     -1.6608999E-10
   41.04000     -1.2430571E-09
   41.10000     -2.5113676E-09
   41.16000     -3.9480716E-09
   41.22000     -5.4990608E-09
   41.28000     -7.0973902E-09
   41.34000     -8.6830134E-09
   41.40000     -1.0212959E-08
   41.46000     -1.1658367E-08
   41.52000     -1.2993703E-08
   41.58000     -1.4187989E-08
   41.64000     -1.5205449E-08
   41.70000     -1.6015461E-08
   41.76000     -1.6604476E-08
   41.82000     -1.6980549E-08
   41.88000     -1.7165819E-08
   41.94000     -1.7180483E-08
   42.00000     -1.7028190E-08
   42.06000     -1.6692821E-08
   42.12000     -1.6150178E-08
   42.18000     -1.5388816E-08
   42.24000     -1.4428209E-08
   42.30000     -1.3323224E-08
   42.36000     -1.2151423E-08
   42.42000     -1.0989464E-08
   42.48000     -9.8911563E-09
   42.54000     -8.8786551E-09
   42.60000     -7.9506908E-09
   42.66000     -7.1019661E-09
   42.72000     -6.3416947E-09
   42.78000     -5.7002123E-09
   42.84000     -5.2200173E-09
   42.90000     -4.9369628E-09
   42.96000     -4.8630908E-09
   43.02000     -4.9813722E-09
   43.08000     -5.2551785E-09
   43.14000     -5.6462559E-09
   43.20000     -6.1298642E-09
   43.26000     -6.6977761E-09
   43.32000     -7.3478814E-09
   43.38000     -8.0681888E-09
   43.44000     -8.8272580E-09
   43.50000     -9.5795398E-09
   43.56000     -1.0284542E-08
   43.62000     -1.0929113E-08
   43.68000     -1.1538600E-08
   43.74000     -1.2168062E-08
   43.80000     -1.2876230E-08
   43.86000     -1.3695742E-08
   43.92000     -1.4616405E-08
   43.98000     -1.5591482E-08
   44.04000     -1.6563989E-08
   44.10000     -1.7498248E-08
   44.16000     -1.8398902E-08
   44.22000     -1.9306801E-08
   44.28000     -2.0274713E-08
   44.34000     -2.1337229E-08
   44.40000     -2.2492056E-08
   44.46000     -2.3702604E-08
   44.52000     -2.4919123E-08
   44.58000     -2.6105470E-08
   44.64000     -2.7256396E-08
   44.70000     -2.8397046E-08
   44.76000     -2.9566992E-08
   44.82000     -3.0799303E-08
   44.88000     -3.2105920E-08
   44.94000     -3.3474940E-08
   45.00000     -3.4877086E-08
   45.06000     -3.6273814E-08
   45.12000     -3.7620463E-08
   45.18000     -3.8863682E-08
   45.24000     -3.9938541E-08
   45.30000     -4.0772708E-08
   45.36000     -4.1301185E-08
   45.42000     -4.1487660E-08
   45.48000     -4.1342307E-08
   45.54000     -4.0925141E-08
   45.60000     -4.0330125E-08
   45.66000     -3.9655387E-08
   45.72000     -3.8972853E-08
   45.78000     -3.8312301E-08
   45.84000     -3.7667512E-08
   45.90000     -3.7020637E-08
   45.96000     -3.6370444E-08
   46.02000     -3.5747842E-08
   46.08000     -3.5209261E-08
   46.14000     -3.4811585E-08
   46.20000     -3.4583380E-08
   46.26000     -3.4509778E-08
   46.32000     -3.4540331E-08
   46.38000     -3.4615525E-08
   46.44000     -3.4696495E-08
   46.50000     -3.4780903E-08
   46.56000     -3.4896694E-08
   46.62000     -3.5079154E-08
   46.68000     -3.5346190E-08
   46.74000     -3.5686913E-08
   46.80000     -3.6069071E-08
   46.86000     -3.6458598E-08
   46.92000     -3.6837395E-08
   46.98000     -3.7207627E-08
   47.04000     -3.7580328E-08
   47.10000     -3.7956401E-08
   47.16000     -3.8312631E-08
   47.22000     -3.8601655E-08
   47.28000     -3.8765979E-08
   47.34000     -3.8757957E-08
   47.40000     -3.8554838E-08
   47.46000     -3.8161378E-08
   47.52000     -3.7599648E-08
   47.58000     -3.6891674E-08
   47.64000     -3.6043183E-08
   47.70000     -3.5034834E-08
   47.76000     -3.3822655E-08
   47.82000     -3.2344790E-08
   47.88000     -3.0528760E-08
   47.94000     -2.8293741E-08
   48.00000     -2.5545768E-08
   48.06000     -2.2168374E-08
   48.12000     -1.8014706E-08
   48.18000     -1.2906624E-08
   48.24000     -6.6414234E-09
   48.30000      9.9996500E-10
   48.36000      1.0253697E-08
   48.42000      2.1390587E-08
   48.48000      3.4749608E-08
   48.54000      5.0776180E-08
   48.60000      7.0049516E-08
   48.66000      9.3288861E-08
   48.72000      1.2134164E-07
   48.78000      1.5516905E-07
   48.84000      1.9584820E-07
   48.90000      2.4460087E-07
   48.96000      3.0284374E-07
   49.02000      3.7224297E-07
   49.08000      4.5475605E-07
   49.14000      5.5265622E-07
   49.20000      6.6854824E-07
   49.26000      8.0539422E-07
   49.32000      9.6656152E-07
   49.38000      1.1558930E-06
   49.44000      1.3777891E-06
   49.50000      1.6372871E-06
   49.56000      1.9401323E-06
   49.62000      2.2928461E-06
   49.68000      2.7028025E-06
   49.74000      3.1783197E-06
   49.80000      3.7287666E-06
   49.86000      4.3646774E-06
   49.92000      5.0978670E-06
   49.98000      5.9415452E-06
   50.04000      6.9104285E-06
   50.10000      8.0208574E-06
   50.16000      9.2909213E-06
   50.22000      1.0740590E-05
   50.28000      1.2391854E-05
   50.34000      1.4268887E-05
   50.40000      1.6398197E-05
   50.46000      1.8808805E-05
   50.52000      2.1532394E-05
   50.58000      2.4603451E-05
   50.64000      2.8059358E-05
   50.70000      3.1940490E-05
   50.76000      3.6290261E-05
   50.82000      4.1155221E-05
   50.88000      4.6585141E-05
   50.94000      5.2633088E-05
   51.00000      5.9355491E-05
   51.06000      6.6812150E-05
   51.12000      7.5066229E-05
   51.18000      8.4184125E-05
   51.24000      9.4235402E-05
   51.30000      1.0529265E-04
   51.36000      1.1743131E-04
   51.42000      1.3072937E-04
   51.48000      1.4526711E-04
   51.54000      1.6112674E-04
   51.60000      1.7839191E-04
   51.66000      1.9714740E-04
   51.72000      2.1747858E-04
   51.78000      2.3947092E-04
   51.84000      2.6320943E-04
   51.90000      2.8877798E-04
   51.96000      3.1625872E-04
   52.02000      3.4573104E-04
   52.08000      3.7727083E-04
   52.14000      4.1094975E-04
   52.20000      4.4683425E-04
   52.26000      4.8498486E-04
   52.32000      5.2545511E-04
   52.38000      5.6829088E-04
   52.44000      6.1352947E-04
   52.50000      6.6119840E-04
   52.56000      7.1131508E-04
   52.62000      7.6388562E-04
   52.68000      8.1890414E-04
   52.74000      8.7635202E-04
   52.80000      9.3619729E-04
   52.86000      9.9839410E-04
   52.92000      1.0628826E-03
   52.98000      1.1295880E-03
   53.04000      1.1984210E-03
   53.10000      1.2692774E-03
   53.16000      1.3420382E-03
   53.22000      1.4165699E-03
   53.28000      1.4927251E-03
   53.34000      1.5703421E-03
   53.40000      1.6492467E-03
   53.46000      1.7292519E-03
   53.52000      1.8101599E-03
   53.58000      1.8917624E-03
   53.64000      1.9738420E-03
   53.70000      2.0561751E-03
   53.76000      2.1385308E-03
   53.82000      2.2206749E-03
   53.88000      2.3023698E-03
   53.94000      2.3833781E-03
   54.00000      2.4634621E-03
   54.06000      2.5423875E-03
   54.12000      2.6199252E-03
   54.18000      2.6958520E-03
   54.24000      2.7699538E-03
   54.30000      2.8420270E-03
   54.36000      2.9118804E-03
   54.42000      2.9793363E-03
   54.48000      3.0442320E-03
   54.54000      3.1064223E-03
   54.60000      3.1657789E-03
   54.66000      3.2221936E-03
   54.72000      3.2755770E-03
   54.78000      3.3258614E-03
   54.84000      3.3729991E-03
   54.90000      3.4169643E-03
   54.96000      3.4577521E-03
   55.02000      3.4953791E-03
   55.08000      3.5298825E-03
   55.14000      3.5613200E-03
   55.20000      3.5897680E-03
   55.26000      3.6153204E-03
   55.32000      3.6380887E-03
   55.38000      3.6581995E-03
   55.44000      3.6757935E-03
   55.50000      3.6910239E-03
   55.56000      3.7040531E-03