  -2.400000      0.0000000E+00
  -2.340000      0.0000000E+00
  -2.280000      0.0000000E+00
  -2.220000      0.0000000E+00
  -2.160000      0.0000000E+00
  -2.100000      0.0000000E+00
  -2.040000     -6.6997401E-23
  -1.980000     -5.8078833E-22
  -1.920000     -2.4323115E-21
  -1.860000     -6.1103436E-21
  -1.800000     -8.1634762E-21
  -1.740000      4.8414845E-21
  -1.680000      6.0314831E-20
  -1.620000      1.9223716E-19
  -1.560000      4.1335397E-19
  -1.500000      6.6856035E-19
  -1.440000      7.9085100E-19
  -1.380000      4.9971687E-19
  -1.320000     -5.1797383E-19
  -1.260000     -2.4366663E-18
  -1.200000     -5.0845634E-18
  -1.140000     -7.8188850E-18
  -1.080000     -9.6213132E-18
  -1.020000     -9.4731032E-18
 -0.9600000     -6.8839964E-18
 -0.9000000     -2.2246603E-18
 -0.8400000      3.5931150E-18
 -0.7800000      1.0340227E-17
 -0.7200000      2.0247533E-17
 -0.6600000      3.9157652E-17
 -0.6000000      7.5313663E-17
 -0.5400000      1.3442011E-16
 -0.4800000      2.1133604E-16
 -0.4200000      2.8152111E-16
 -0.3600000      2.9786816E-16
 -0.3000000      1.9891486E-16
 -0.2400000     -6.8893187E-17
 -0.1800000     -5.1912018E-16
 -0.1200000     -1.0956962E-15
 -5.9999999E-02 -1.6627915E-15
  0.0000000E+00 -2.0285969E-15
  5.9999999E-02 -2.0054744E-15
  0.1200000     -1.4906060E-15
  0.1800000     -5.3380832E-16
  0.2400000      6.4799445E-16
  0.3000000      1.7395967E-15
  0.3600000      2.4798461E-15
  0.4200000      2.8552778E-15
  0.4800000      3.2518904E-15
  0.5400000      4.4606394E-15
  0.6000000      7.4480039E-15
  0.6600000      1.2865838E-14
  0.7200000      2.0381004E-14
  0.7800000      2.8032313E-14
  0.8400000      3.1927203E-14
  0.9000000      2.6617180E-14
  0.9600000      6.3875542E-15
   1.020000     -3.2558222E-14
   1.080000     -8.9410941E-14
   1.140000     -1.5634275E-13
   1.200000     -2.1739803E-13
   1.260000     -2.4968089E-13
   1.320000     -2.2742707E-13
   1.380000     -1.2880310E-13
   1.440000      5.5637363E-14
   1.500000      3.1474796E-13
   1.560000      6.1125069E-13
   1.620000      8.8128539E-13
   1.680000      1.0409216E-12
   1.740000      1.0004399E-12
   1.800000      6.8568220E-13
   1.860000      6.3904543E-14
   1.920000     -8.3051534E-13
   1.980000     -1.8771282E-12
   2.040000     -2.8650936E-12
   2.100000     -3.5110450E-12
   2.160000     -3.5039500E-12
   2.220000     -2.5761812E-12
   2.280000     -5.9209083E-13
   2.340000      2.3632964E-12
   2.400000      5.9196033E-12
   2.460000      9.4066465E-12
   2.520000      1.1911601E-11
   2.580000      1.2416946E-11
   2.640000      1.0010264E-11
   2.700000      4.1365023E-12
   2.760000     -5.1547659E-12
   2.820000     -1.7025258E-11
   2.880000     -2.9784796E-11
   2.940000     -4.0993146E-11
   3.000000     -4.7745172E-11
   3.060000     -4.7123264E-11
   3.120000     -3.6764262E-11
   3.180000     -1.5457153E-11
   3.240000      1.6330952E-11
   3.300000      5.6103990E-11
   3.360000      9.9247506E-11
   3.420000      1.3925537E-10
   3.480000      1.6828831E-10
   3.540000      1.7804094E-10
   3.600000      1.6085973E-10
   3.660000      1.1102654E-10
   3.720000      2.6097322E-11
   3.780000     -9.1840022E-11
   3.840000     -2.3515004E-10
   3.900000     -3.9005835E-10
   3.960000     -5.3666938E-10
   4.020000     -6.4974820E-10
   4.080000     -7.0035083E-10
   4.140000     -6.5827088E-10
   4.200000     -4.9513282E-10
   4.260000     -1.8781660E-10
   4.320000      2.7820421E-10
   4.380000      9.0606911E-10
   4.440000      1.6856953E-09
   4.500000      2.5931859E-09
   4.560000      3.5915828E-09
   4.620000      4.6328625E-09
   4.680000      5.6609064E-09
   4.740000      6.6150885E-09
   4.800000      7.4340996E-09
   4.860000      8.0597298E-09
   4.920000      8.4404235E-09
   4.980000      8.5345819E-09
   5.040000      8.3136014E-09
   5.100000      7.7646503E-09
   5.160000      6.8930723E-09
   5.220000      5.7241265E-09
   5.280000      4.3036441E-09
   5.340000      2.6970759E-09
   5.400000      9.8646702E-10
   5.460000     -7.3491313E-10
   5.520000     -2.3702029E-09
   5.580000     -3.8282995E-09
   5.640000     -5.0339097E-09
   5.700000     -5.9368732E-09
   5.760000     -6.5191434E-09
   5.820000     -6.7978947E-09
   5.880000     -6.8236679E-09
   5.940000     -6.6732371E-09
   6.000000     -6.4378538E-09
   6.060000     -6.2085053E-09
   6.120000     -6.0606204E-09
   6.180000     -6.0409828E-09
   6.240000     -6.1593872E-09
   6.300000     -6.3867809E-09
   6.360000     -6.6603918E-09
   6.420000     -6.8949659E-09
   6.480000     -6.9979960E-09
   6.540000     -6.8860198E-09
   6.600000     -6.4989170E-09
   6.660000     -5.8095941E-09
   6.720000     -4.8274682E-09
   6.780000     -3.5954419E-09
   6.840000     -2.1813440E-09
   6.900000     -6.6580558E-10
   6.960000      8.7091717E-10
   7.020000      2.3606688E-09
   7.080000      3.7556500E-09
   7.140000      5.0320392E-09
   7.200000      6.1888121E-09
   7.260000      7.2425563E-09
   7.320000      8.2197804E-09
   7.380000      9.1485637E-09
   7.440000      1.0051322E-08
   7.500000      1.0940021E-08
   7.560000      1.1814482E-08
   7.620000      1.2663695E-08
   7.680000      1.3469422E-08
   7.740000      1.4211004E-08
   7.800000      1.4870163E-08
   7.860000      1.5434820E-08
   7.920000      1.5901223E-08
   7.980000      1.6274095E-08
   8.040000      1.6564863E-08
   8.100000      1.6788373E-08
   8.160000      1.6958680E-08
   8.220000      1.7084760E-08
   8.280000      1.7167094E-08
   8.340000      1.7195974E-08
   8.400000      1.7152255E-08
   8.460000      1.7010708E-08
   8.520000      1.6745579E-08
   8.580000      1.6337260E-08
   8.640000      1.5778578E-08
   8.700000      1.5079049E-08
   8.760000      1.4265887E-08
   8.820000      1.3381217E-08
   8.880000      1.2475972E-08
   8.940000      1.1601796E-08
   9.000000      1.0802808E-08
   9.060000      1.0109143E-08
   9.120000      9.5336263E-09
   9.180000      9.0720871E-09
   9.240000      8.7068104E-09
   9.300000      8.4118232E-09
   9.360000      8.1583700E-09
   9.420000      7.9191009E-09
   9.480000      7.6701570E-09
   9.540000      7.3911504E-09
   9.600000      7.0638566E-09
   9.660000      6.6707559E-09
   9.720000      6.1944965E-09
   9.780000      5.6187681E-09
   9.840000      4.9303277E-09
   9.900000      4.1212544E-09
   9.960000      3.1902607E-09
   10.02000      2.1421203E-09
   10.08000      9.8496433E-10
   10.14000     -2.7393171E-10
   10.20000     -1.6325051E-09
   10.26000     -3.0967260E-09
   10.32000     -4.6804414E-09
   10.38000     -6.4015846E-09
   10.44000     -8.2751859E-09
   10.50000     -1.0304754E-08
   10.56000     -1.2474364E-08
   10.62000     -1.4743998E-08
   10.68000     -1.7050176E-08
   10.74000     -1.9312646E-08
   10.80000     -2.1446315E-08
   10.86000     -2.3375890E-08
   10.92000     -2.5049575E-08
   10.98000     -2.6447859E-08
   11.04000     -2.7584443E-08
   11.10000     -2.8498301E-08
   11.16000     -2.9238439E-08
   11.22000     -2.9845427E-08
   11.28000     -3.0335066E-08
   11.34000     -3.0689591E-08
   11.40000     -3.0859795E-08
   11.46000     -3.0778306E-08
   11.52000     -3.0380846E-08
   11.58000     -2.9629296E-08
   11.64000     -2.8529501E-08
   11.70000     -2.7137746E-08
   11.76000     -2.5553080E-08
   11.82000     -2.3896744E-08
   11.88000     -2.2284091E-08
   11.94000     -2.0796803E-08
   12.00000     -1.9463521E-08
   12.06000     -1.8254685E-08
   12.12000     -1.7093395E-08
   12.18000     -1.5879429E-08
   12.24000     -1.4519784E-08
   12.30000     -1.2957141E-08
   12.36000     -1.1188379E-08
   12.42000     -9.2680361E-09
   12.48000     -7.2959421E-09
   12.54000     -5.3926117E-09
   12.60000     -3.6693049E-09
   12.66000     -2.2009037E-09
   12.72000     -1.0087692E-09
   12.78000     -5.7786324E-11
   12.84000      7.3218909E-10
   12.90000      1.4641861E-09
   12.96000      2.2377302E-09
   13.02000      3.1255261E-09
   13.08000      4.1593164E-09
   13.14000      5.3281339E-09
   13.20000      6.5884960E-09
   13.26000      7.8827203E-09
   13.32000      9.1594341E-09
   13.38000      1.0390112E-08
   13.44000      1.1577098E-08
   13.50000      1.2751409E-08
   13.56000      1.3961881E-08
   13.62000      1.5259699E-08
   13.68000      1.6683467E-08
   13.74000      1.8249379E-08
   13.80000      1.9949079E-08
   13.86000      2.1755099E-08
   13.92000      2.3631383E-08
   13.98000      2.5544853E-08
   14.04000      2.7473995E-08
   14.10000      2.9411595E-08
   14.16000      3.1361040E-08
   14.22000      3.3327847E-08
   14.28000      3.5309821E-08
   14.34000      3.7289841E-08
   14.40000      3.9234344E-08
   14.46000      4.1098762E-08
   14.52000      4.2838515E-08
   14.58000      4.4422269E-08
   14.64000      4.5842864E-08
   14.70000      4.7122008E-08
   14.76000      4.8306429E-08
   14.82000      4.9456059E-08
   14.88000      5.0627314E-08
   14.94000      5.1856308E-08
   15.00000      5.3147023E-08
   15.06000      5.4467993E-08
   15.12000      5.5758644E-08
   15.18000      5.6943502E-08
   15.24000      5.7950274E-08
   15.30000      5.8726602E-08
   15.36000      5.9250986E-08
   15.42000      5.9534969E-08
   15.48000      5.9616383E-08
   15.54000      5.9545957E-08
   15.60000      5.9371448E-08
   15.66000      5.9123984E-08
   15.72000      5.8810532E-08
   15.78000      5.8414457E-08
   15.84000      5.7903652E-08
   15.90000      5.7243412E-08
   15.96000      5.6409984E-08
   16.02000      5.5400509E-08
   16.08000      5.4236409E-08
   16.14000      5.2959304E-08
   16.20000      5.1620830E-08
   16.26000      5.0269580E-08
   16.32000      4.8939015E-08
   16.38000      4.7639869E-08
   16.44000      4.6359084E-08
   16.50000      4.5065367E-08
   16.56000      4.3719716E-08
   16.62000      4.2287951E-08
   16.68000      4.0751885E-08
   16.74000      3.9116394E-08
   16.80000      3.7410640E-08
   16.86000      3.5683343E-08
   16.92000      3.3993292E-08
   16.98000      3.2397484E-08
   17.04000      3.0939638E-08
   17.10000      2.9641749E-08
   17.16000      2.8500516E-08
   17.22000      2.7489486E-08
   17.28000      2.6566322E-08
   17.34000      2.5683580E-08
   17.40000      2.4800480E-08
   17.46000      2.3892987E-08
   17.52000      2.2959735E-08
   17.58000      2.2022345E-08
   17.64000      2.1119886E-08
   17.70000      2.0298787E-08
   17.76000      1.9600543E-08
   17.82000      1.9050367E-08
   17.88000      1.8649521E-08
   17.94000      1.8373271E-08
   18.00000      1.8174653E-08
   18.06000      1.7992686E-08
   18.12000      1.7762414E-08
   18.18000      1.7423838E-08
   18.24000      1.6927494E-08
   18.30000      1.6235838E-08
   18.36000      1.5321291E-08
   18.42000      1.4163112E-08
   18.48000      1.2745629E-08
   18.54000      1.1059824E-08
   18.60000      9.1088266E-09
   18.66000      6.9161512E-09
   18.72000      4.5340660E-09
   18.78000      2.0488318E-09
   18.84000     -4.2015022E-10
   18.90000     -2.7289291E-09
   18.96000     -4.7251123E-09
   19.02000     -6.2692531E-09
   19.08000     -7.2576771E-09
   19.14000     -7.6421429E-09
   19.20000     -7.4420483E-09
   19.26000     -6.7462915E-09
   19.32000     -5.7040292E-09
   19.38000     -4.5059902E-09
   19.44000     -3.3599845E-09
   19.50000     -2.4653679E-09
   19.56000     -1.9910775E-09
   19.62000     -2.0606237E-09
   19.68000     -2.7454476E-09
   19.74000     -4.0659893E-09
   19.80000     -5.9982450E-09
   19.86000     -8.4829477E-09
   19.92000     -1.1434849E-08
   19.98000     -1.4750651E-08
   20.04000     -1.8315532E-08
   20.10000     -2.2009202E-08
   20.16000     -2.5712980E-08
   20.22000     -2.9318837E-08
   20.28000     -3.2740338E-08
   20.34000     -3.5923964E-08
   20.40000     -3.8858214E-08
   20.46000     -4.1577373E-08
   20.52000     -4.4157545E-08
   20.58000     -4.6704233E-08
   20.64000     -4.9332787E-08
   20.70000     -5.2145406E-08
   20.76000     -5.5209643E-08
   20.82000     -5.8543396E-08
   20.88000     -6.2110097E-08
   20.94000     -6.5825304E-08
   21.00000     -6.9573161E-08
   21.06000     -7.3228748E-08
   21.12000     -7.6681033E-08
   21.18000     -7.9851183E-08
   21.24000     -8.2702464E-08
   21.30000     -8.5239975E-08
   21.36000     -8.7501199E-08
   21.42000     -8.9540286E-08
   21.48000     -9.1410342E-08
   21.54000     -9.3148280E-08
   21.60000     -9.4765852E-08
   21.66000     -9.6248861E-08
   21.72000     -9.7564076E-08
   21.78000     -9.8671485E-08
   21.84000     -9.9537758E-08
   21.90000     -1.0014654E-07
   21.96000     -1.0050217E-07
   22.02000     -1.0062533E-07
   22.08000     -1.0054214E-07
   22.14000     -1.0027026E-07
   22.20000     -9.9806876E-08
   22.26000     -9.9123440E-08
   22.32000     -9.8169586E-08
   22.38000     -9.6886168E-08
   22.44000     -9.5224259E-08
   22.50000     -9.3164566E-08
   22.56000     -9.0731540E-08
   22.62000     -8.7997407E-08
   22.68000     -8.5073943E-08
   22.74000     -8.2093450E-08
   22.80000     -7.9183103E-08
   22.86000     -7.6439079E-08
   22.92000     -7.3907167E-08
   22.98000     -7.1574966E-08
   23.04000     -6.9378096E-08
   23.10000     -6.7219005E-08
   23.16000     -6.4993834E-08
   23.22000     -6.2620394E-08
   23.28000     -6.0060096E-08
   23.34000     -5.7328233E-08
   23.40000     -5.4490243E-08
   23.46000     -5.1645475E-08
   23.52000     -4.8903239E-08
   23.58000     -4.6358075E-08
   23.64000     -4.4070944E-08
   23.70000     -4.2061043E-08
   23.76000     -4.0309747E-08
   23.82000     -3.8774576E-08
   23.88000     -3.7408387E-08
   23.94000     -3.6177710E-08
   24.00000     -3.5074883E-08
   24.06000     -3.4120511E-08
   24.12000     -3.3355899E-08
   24.18000     -3.2827987E-08
   24.24000     -3.2571453E-08
   24.30000     -3.2593473E-08
   24.36000     -3.2865859E-08
   24.42000     -3.3327158E-08
   24.48000     -3.3894512E-08
   24.54000     -3.4482220E-08
   24.60000     -3.5021930E-08
   24.66000     -3.5478809E-08
   24.72000     -3.5859003E-08
   24.78000     -3.6206089E-08
   24.84000     -3.6587199E-08
   24.90000     -3.7072361E-08
   24.96000     -3.7712574E-08
   25.02000     -3.8522373E-08
   25.08000     -3.9471491E-08
   25.14000     -4.0487759E-08
   25.20000     -4.1470276E-08
   25.26000     -4.2309303E-08
   25.32000     -4.2907537E-08
   25.38000     -4.3197307E-08
   25.44000     -4.3149626E-08
   25.50000     -4.2773404E-08
   25.56000     -4.2106016E-08
   25.62000     -4.1198753E-08
   25.68000     -4.0101849E-08
   25.74000     -3.8853486E-08
   25.80000     -3.7475399E-08
   25.86000     -3.5975418E-08
   25.92000     -3.4354819E-08
   25.98000     -3.2616960E-08
   26.04000     -3.0773453E-08
   26.10000     -2.8845424E-08
   26.16000     -2.6859251E-08
   26.22000     -2.4838371E-08
   26.28000     -2.2794216E-08
   26.34000     -2.0719691E-08
   26.40000     -1.8587928E-08
   26.46000     -1.6357328E-08
   26.52000     -1.3982131E-08
   26.58000     -1.1426042E-08
   26.64000     -8.6755518E-09
   26.70000     -5.7495351E-09
   26.76000     -2.7025178E-09
   26.82000      3.7963738E-10
   26.88000      3.3912224E-09
   26.94000      6.2233583E-09
   27.00000      8.7826164E-09
   27.06000      1.1007726E-08
   27.12000      1.2880656E-08
   27.18000      1.4429354E-08
   27.24000      1.5721163E-08
   27.30000      1.6848052E-08
   27.36000      1.7906830E-08
   27.42000      1.8978852E-08
   27.48000      2.0113960E-08
   27.54000      2.1322300E-08
   27.60000      2.2575630E-08
   27.66000      2.3817170E-08
   27.72000      2.4976885E-08
   27.78000      2.5987928E-08
   27.84000      2.6800077E-08
   27.90000      2.7387301E-08
   27.96000      2.7748650E-08
   28.02000      2.7903530E-08
   28.08000      2.7883907E-08
   28.14000      2.7726244E-08
   28.20000      2.7465529E-08
   28.26000      2.7132463E-08
   28.32000      2.6753554E-08
   28.38000      2.6352827E-08
   28.44000      2.5953433E-08
   28.50000      2.5577725E-08
   28.56000      2.5245219E-08
   28.62000      2.4968942E-08
   28.68000      2.4751536E-08
   28.74000      2.4582828E-08
   28.80000      2.4440247E-08
   28.86000      2.4292468E-08
   28.92000      2.4105491E-08
   28.98000      2.3849262E-08
   29.04000      2.3502649E-08
   29.10000      2.3054952E-08
   29.16000      2.2503322E-08
   29.22000      2.1846933E-08
   29.28000      2.1079916E-08
   29.34000      2.0185686E-08
   29.40000      1.9134815E-08
   29.46000      1.7887620E-08
   29.52000      1.6401085E-08
   29.58000      1.4638376E-08
   29.64000      1.2578490E-08
   29.70000      1.0223312E-08
   29.76000      7.6000388E-09
   29.82000      4.7580273E-09
   29.88000      1.7604501E-09
   29.94000     -1.3274650E-09
   30.00000     -4.4508850E-09
   30.06000     -7.5753643E-09
   30.12000     -1.0691635E-08
   30.18000     -1.3813638E-08
   30.24000     -1.6970024E-08
   30.30000     -2.0191221E-08
   30.36000     -2.3495625E-08
   30.42000     -2.6878855E-08
   30.48000     -3.0309241E-08
   30.54000     -3.3731020E-08
   30.60000     -3.7074308E-08
   30.66000     -4.0269217E-08
   30.72000     -4.3260165E-08
   30.78000     -4.6016769E-08
   30.84000     -4.8538787E-08
   30.90000     -5.0854052E-08
   30.96000     -5.3010339E-08
   31.02000     -5.5062998E-08
   31.08000     -5.7061133E-08
   31.14000     -5.9035070E-08
   31.20000     -6.0987603E-08
   31.26000     -6.2890877E-08
   31.32000     -6.4689672E-08
   31.38000     -6.6310797E-08
   31.44000     -6.7676538E-08
   31.50000     -6.8719459E-08
   31.56000     -6.9394822E-08
   31.62000     -6.9687722E-08
   31.68000     -6.9613193E-08
   31.74000     -6.9209612E-08
   31.80000     -6.8527783E-08
   31.86000     -6.7619091E-08
   31.92000     -6.6526276E-08
   31.98000     -6.5279245E-08
   32.04000     -6.3896330E-08
   32.10000     -6.2389660E-08
   32.16000     -6.0771988E-08
   32.22000     -5.9062099E-08
   32.28000     -5.7286670E-08
   32.34000     -5.5477749E-08
   32.40000     -5.3666646E-08
   32.46000     -5.1876011E-08
   32.52000     -5.0112526E-08
   32.58000     -4.8362583E-08
   32.64000     -4.6592532E-08
   32.70000     -4.4754191E-08
   32.76000     -4.2794898E-08
   32.82000     -4.0670251E-08
   32.88000     -3.8356731E-08
   32.94000     -3.5861007E-08
   33.00000     -3.3223309E-08
   33.06000     -3.0513430E-08
   33.12000     -2.7819741E-08
   33.18000     -2.5233415E-08
   33.24000     -2.2831506E-08
   33.30000     -2.0662879E-08
   33.36000     -1.8740453E-08
   33.42000     -1.7041609E-08
   33.48000     -1.5516676E-08
   33.54000     -1.4103304E-08
   33.60000     -1.2743229E-08
   33.66000     -1.1397188E-08
   33.72000     -1.0054350E-08
   33.78000     -8.7338439E-09
   33.84000     -7.4780289E-09
   33.90000     -6.3392771E-09
   33.96000     -5.3637823E-09
   34.02000     -4.5768553E-09
   34.08000     -3.9738488E-09
   34.14000     -3.5194117E-09
   34.20000     -3.1554701E-09
   34.26000     -2.8158584E-09
   34.32000     -2.4436022E-09
   34.38000     -2.0060447E-09
   34.44000     -1.5035572E-09
   34.50000     -9.6932218E-10
   34.56000     -4.6008897E-10
   34.62000     -4.0218370E-11
   34.68000      2.3686292E-10
   34.74000      3.4493816E-10
   34.80000      2.9462185E-10
   34.86000      1.3351620E-10
   34.92000     -6.3556285E-11
   34.98000     -2.1211097E-10
   35.04000     -2.3899949E-10
   35.10000     -1.0126236E-10
   35.16000      2.0252341E-10
   35.22000      6.3198163E-10
   35.28000      1.1163261E-09
   35.34000      1.5745250E-09
   35.40000      1.9385322E-09
   35.46000      2.1726665E-09
   35.52000      2.2831268E-09
   35.58000      2.3145337E-09
   35.64000      2.3344215E-09
   35.70000      2.4104436E-09
   35.76000      2.5874169E-09
   35.82000      2.8714122E-09
   35.88000      3.2258209E-09
   35.94000      3.5805001E-09
   36.00000      3.8509733E-09
   36.06000      3.9616022E-09
   36.12000      3.8656194E-09
   36.18000      3.5561252E-09
   36.24000      3.0651697E-09
   36.30000      2.4517732E-09
   36.36000      1.7829990E-09
   36.42000      1.1140242E-09
   36.48000      4.7308335E-10
   36.54000     -1.4465956E-10
   36.60000     -7.7312784E-10
   36.66000     -1.4630883E-09
   36.72000     -2.2657771E-09
   36.78000     -3.2174639E-09
   36.84000     -4.3294612E-09
   36.90000     -5.5862746E-09
   36.96000     -6.9520874E-09
   37.02000     -8.3833687E-09
   37.08000     -9.8436219E-09
   37.14000     -1.1315731E-08
   37.20000     -1.2808068E-08
   37.26000     -1.4352381E-08
   37.32000     -1.5993910E-08
   37.38000     -1.7776577E-08
   37.44000     -1.9727683E-08
   37.50000     -2.1846818E-08
   37.56000     -2.4102588E-08
   37.62000     -2.6438336E-08
   37.68000     -2.8785337E-08
   37.74000     -3.1079630E-08
   37.80000     -3.3277466E-08
   37.86000     -3.5364934E-08
   37.92000     -3.7359122E-08
   37.98000     -3.9300922E-08
   38.04000     -4.1242085E-08
   38.10000     -4.3230621E-08
   38.16000     -4.5298982E-08
   38.22000     -4.7458141E-08
   38.28000     -4.9698791E-08
   38.34000     -5.1998629E-08
   38.40000     -5.4333007E-08
   38.46000     -5.6685483E-08
   38.52000     -5.9055012E-08
   38.58000     -6.1457776E-08
   38.64000     -6.3923132E-08
   38.70000     -6.6484986E-08
   38.76000     -6.9171087E-08
   38.82000     -7.1993242E-08
   38.88000     -7.4941127E-08
   38.94000     -7.7981284E-08
   39.00000     -8.1061330E-08
   39.06000     -8.4117779E-08
   39.12000     -8.7085120E-08
   39.18000     -8.9903537E-08
   39.24000     -9.2523557E-08
   39.30000     -9.4906973E-08
   39.36000     -9.7025108E-08
   39.42000     -9.8855999E-08
   39.48000     -1.0038250E-07
   39.54000     -1.0159251E-07
   39.60000     -1.0248134E-07
   39.66000     -1.0305535E-07
   39.72000     -1.0333487E-07
   39.78000     -1.0335459E-07
   39.84000     -1.0316015E-07
   39.90000     -1.0280058E-07
   39.96000     -1.0231783E-07
   40.02000     -1.0173581E-07
   40.08000     -1.0105204E-07
   40.14000     -1.0023513E-07
   40.20000     -9.9230107E-08
   40.26000     -9.7971551E-08
   40.32000     -9.6402367E-08
   40.38000     -9.4493252E-08
   40.44000     -9.2257480E-08
   40.50000     -8.9755687E-08
   40.56000     -8.7088296E-08
   40.62000     -8.4376317E-08
   40.68000     -8.1735301E-08
   40.74000     -7.9249489E-08
   40.80000     -7.6953427E-08
   40.86000     -7.4826502E-08
   40.92000     -7.2801988E-08
   40.98000     -7.0788154E-08
   41.04000     -6.8695456E-08
   41.10000     -6.6462633E-08
   41.16000     -6.4074605E-08
   41.22000     -6.1567846E-08
   41.28000     -5.9022142E-08
   41.34000     -5.6541037E-08
   41.40000     -5.4226092E-08
   41.46000     -5.2151343E-08
   41.52000     -5.0344394E-08
   41.58000     -4.8778787E-08
   41.64000     -4.7379885E-08
   41.70000     -4.6042938E-08
   41.76000     -4.4659195E-08
   41.82000     -4.3143427E-08
   41.88000     -4.1455664E-08
   41.94000     -3.9611212E-08
   42.00000     -3.7675804E-08
   42.06000     -3.5746915E-08
   42.12000     -3.3926074E-08
   42.18000     -3.2289904E-08
   42.24000     -3.0868051E-08
   42.30000     -2.9634574E-08
   42.36000     -2.8515394E-08
   42.42000     -2.7409968E-08
   42.48000     -2.6221096E-08
   42.54000     -2.4884523E-08
   42.60000     -2.3390067E-08
   42.66000     -2.1788567E-08
   42.72000     -2.0183002E-08
   42.78000     -1.8706540E-08
   42.84000     -1.7493701E-08
   42.90000     -1.6652324E-08
   42.96000     -1.6243332E-08
   43.02000     -1.6272724E-08
   43.08000     -1.6696683E-08
   43.14000     -1.7437266E-08
   43.20000     -1.8403670E-08
   43.26000     -1.9513203E-08
   43.32000     -2.0706887E-08
   43.38000     -2.1956614E-08
   43.44000     -2.3263521E-08
   43.50000     -2.4649635E-08
   43.56000     -2.6146523E-08
   43.62000     -2.7785067E-08
   43.68000     -2.9589566E-08
   43.74000     -3.1577574E-08
   43.80000     -3.3764668E-08
   43.86000     -3.6171706E-08
   43.92000     -3.8831306E-08
   43.98000     -4.1790894E-08
   44.04000     -4.5111321E-08
   44.10000     -4.8862137E-08
   44.16000     -5.3116320E-08
   44.22000     -5.7947940E-08
   44.28000     -6.3435380E-08
   44.34000     -6.9670804E-08
   44.40000     -7.6773901E-08
   44.46000     -8.4906375E-08
   44.52000     -9.4282818E-08
   44.58000     -1.0517493E-07
   44.64000     -1.1790873E-07
   44.70000     -1.3285711E-07
   44.76000     -1.5043233E-07
   44.82000     -1.7108357E-07
   44.88000     -1.9530334E-07
   44.94000     -2.2364380E-07
   45.00000     -2.5674058E-07
   45.06000     -2.9534021E-07
   45.12000     -3.4032507E-07
   45.18000     -3.9273203E-07
   45.24000     -4.5376237E-07
   45.30000     -5.2478458E-07
   45.36000     -6.0733294E-07
   45.42000     -7.0310773E-07
   45.48000     -8.1398139E-07
   45.54000     -9.4201442E-07
   45.60000     -1.0894830E-06
   45.66000     -1.2589148E-06
   45.72000     -1.4531322E-06
   45.78000     -1.6752959E-06
   45.84000     -1.9289471E-06
   45.90000     -2.2180413E-06
   45.96000     -2.5469762E-06
   46.02000     -2.9206110E-06
   46.08000     -3.3442807E-06
   46.14000     -3.8238077E-06
   46.20000     -4.3655155E-06
   46.26000     -4.9762457E-06
   46.32000     -5.6633794E-06
   46.38000     -6.4348669E-06
   46.44000     -7.2992575E-06
   46.50000     -8.2657270E-06
   46.56000     -9.3441049E-06
   46.62000     -1.0544890E-05
   46.68000     -1.1879258E-05
   46.74000     -1.3359057E-05
   46.80000     -1.4996795E-05
   46.86000     -1.6805616E-05
   46.92000     -1.8799270E-05
   46.98000     -2.0992080E-05
   47.04000     -2.3398901E-05
   47.10000     -2.6035079E-05
   47.16000     -2.8916393E-05
   47.22000     -3.2059001E-05
   47.28000     -3.5479359E-05
   47.34000     -3.9194139E-05
   47.40000     -4.3220130E-05
   47.46000     -4.7574136E-05
   47.52000     -5.2272826E-05
   47.58000     -5.7332647E-05
   47.64000     -6.2769635E-05
   47.70000     -6.8599300E-05
   47.76000     -7.4836404E-05
   47.82000     -8.1494843E-05
   47.88000     -8.8587447E-05
   47.94000     -9.6125797E-05
   48.00000     -1.0412007E-04
   48.06000     -1.1257888E-04
   48.12000     -1.2150906E-04
   48.18000     -1.3091556E-04
   48.24000     -1.4080129E-04
   48.30000     -1.5116690E-04
   48.36000     -1.6201063E-04
   48.42000     -1.7332830E-04
   48.48000     -1.8511296E-04
   48.54000     -1.9735495E-04
   48.60000     -2.1004176E-04
   48.66000     -2.2315794E-04
   48.72000     -2.3668511E-04
   48.78000     -2.5060194E-04
   48.84000     -2.6488421E-04
   48.90000     -2.7950483E-04
   48.96000     -2.9443402E-04
   49.02000     -3.0963935E-04
   49.08000     -3.2508594E-04
   49.14000     -3.4073662E-04
   49.20000     -3.5655207E-04
   49.26000     -3.7249131E-04
   49.32000     -3.8851166E-04
   49.38000     -4.0456932E-04
   49.44000     -4.2061953E-04
   49.50000     -4.3661700E-04
   49.56000     -4.5251628E-04
   49.62000     -4.6827219E-04
   49.68000     -4.8384003E-04
   49.74000     -4.9917621E-04
   49.80000     -5.1423855E-04
   49.86000     -5.2898680E-04
   49.92000     -5.4338289E-04
   49.98000     -5.5739144E-04
   50.04000     -5.7097990E-04
   50.10000     -5.8411917E-04
   50.16000     -5.9678376E-04
   50.22000     -6.0895196E-04
   50.28000     -6.2060630E-04
   50.34000     -6.3173362E-04
   50.40000     -6.4232515E-04
   50.46000     -6.5237662E-04
   50.52000     -6.6188845E-04
   50.58000     -6.7086547E-04
   50.64000     -6.7931705E-04
   50.70000     -6.8725721E-04
   50.76000     -6.9470389E-04
   50.82000     -7.0167938E-04
   50.88000     -7.0820947E-04
   50.94000     -7.1432337E-04
   51.00000     -7.2005304E-04
   51.06000     -7.2543294E-04
   51.12000     -7.3049974E-04
   51.18000     -7.3529145E-04
   51.24000     -7.3984743E-04
   51.30000     -7.4420747E-04
   51.36000     -7.4841152E-04
   51.42000     -7.5249927E-04
   51.48000     -7.5650914E-04
   51.54000     -7.6047820E-04
   51.60000     -7.6444144E-04
   51.66000     -7.6843146E-04
   51.72000     -7.7247783E-04
   51.78000     -7.7660655E-04
   51.84000     -7.8084006E-04
   51.90000     -7.8519672E-04
   51.96000     -7.8969065E-04
   52.02000     -7.9433143E-04
   52.08000     -7.9912413E-04
   52.14000     -8.0406939E-04
   52.20000     -8.0916297E-04
   52.26000     -8.1439607E-04
   52.32000     -8.1975578E-04
   52.38000     -8.2522479E-04
   52.44000     -8.3078200E-04
   52.50000     -8.3640253E-04
   52.56000     -8.4205845E-04
   52.62000     -8.4771909E-04
   52.68000     -8.5335097E-04
   52.74000     -8.5891900E-04
   52.80000     -8.6438656E-04
   52.86000     -8.6971611E-04
   52.92000     -8.7487005E-04
   52.98000     -8.7981101E-04
   53.04000     -8.8450260E-04
   53.10000     -8.8890968E-04
   53.16000     -8.9299923E-04
   53.22000     -8.9674041E-04
   53.28000     -9.0010522E-04
   53.34000     -9.0306875E-04
   53.40000     -9.0560934E-04
   53.46000     -9.0770936E-04
   53.52000     -9.0935489E-04
   53.58000     -9.1053644E-04
   53.64000     -9.1124879E-04
   53.70000     -9.1149122E-04
   53.76000     -9.1126747E-04
   53.82000     -9.1058563E-04
   53.88000     -9.0945768E-04
   53.94000     -9.0789964E-04
   54.00000     -9.0593082E-04
   54.06000     -9.0357393E-04
   54.12000     -9.0085436E-04
   54.18000     -8.9780014E-04
   54.24000     -8.9444133E-04
   54.30000     -8.9080969E-04
   54.36000     -8.8693795E-04
   54.42000     -8.8285952E-04
   54.48000     -8.7860803E-04
   54.54000     -8.7421649E-04
   54.60000     -8.6971693E-04
   54.66000     -8.6514006E-04
   54.72000     -8.6051453E-04
   54.78000     -8.5586688E-04
   54.84000     -8.5122103E-04
   54.90000     -8.4659806E-04
   54.96000     -8.4201572E-04
   55.02000     -8.3748839E-04
   55.08000     -8.3302683E-04
   55.14000     -8.2863797E-04
   55.20000     -8.2432473E-04
   55.26000     -8.2008622E-04
   55.32000     -8.1591762E-04
   55.38000     -8.1181043E-04
   55.44000     -8.0775283E-04
   55.50000     -8.0372975E-04
   55.56000     -7.9972291E-04