  -2.400000      0.0000000E+00
  -2.340000      0.0000000E+00
  -2.280000      0.0000000E+00
  -2.220000      0.0000000E+00
  -2.160000      0.0000000E+00
  -2.100000      0.0000000E+00
  -2.040000      1.3592376E-23
  -1.980000      1.2832202E-22
  -1.920000      6.1866996E-22
  -1.860000      2.0043031E-21
  -1.800000      4.8190678E-21
  -1.740000      8.8922207E-21
  -1.680000      1.2252113E-20
  -1.620000      1.0198022E-20
  -1.560000     -4.6907135E-21
  -1.500000     -4.0980434E-20
  -1.440000     -1.0478344E-19
  -1.380000     -1.9340899E-19
  -1.320000     -2.8540176E-19
  -1.260000     -3.2844351E-19
  -1.200000     -2.3407092E-19
  -1.140000      1.0079306E-19
  -1.080000      7.2157653E-19
  -1.020000      1.4907643E-18
 -0.9600000      1.9669275E-18
 -0.9000000      1.4260254E-18
 -0.8400000     -7.9959786E-19
 -0.7800000     -4.5899806E-18
 -0.7200000     -8.1398981E-18
 -0.6600000     -7.5497511E-18
 -0.6000000      2.1496594E-18
 -0.5400000      2.3847146E-17
 -0.4800000      5.3492847E-17
 -0.4200000      7.5775938E-17
 -0.3600000      6.4286684E-17
 -0.3000000     -9.7484972E-18
 -0.2400000     -1.5887872E-16
 -0.1800000     -3.5570527E-16
 -0.1200000     -5.1605149E-16
 -5.9999999E-02 -5.0556834E-16
  0.0000000E+00 -1.8309676E-16
  5.9999999E-02  5.1980734E-16
  0.1200000      1.5062579E-15
  0.1800000      2.4536912E-15
  0.2400000      2.8397480E-15
  0.3000000      2.0908443E-15
  0.3600000     -1.5713209E-16
  0.4200000     -3.7612900E-15
  0.4800000     -7.8681687E-15
  0.5400000     -1.0947799E-14
  0.6000000     -1.1155256E-14
  0.6600000     -6.9906489E-15
  0.7200000      1.9205204E-15
  0.7800000      1.4222435E-14
  0.8400000      2.6717054E-14
  0.9000000      3.4951019E-14
  0.9600000      3.4475725E-14
   1.020000      2.2474412E-14
   1.080000     -7.7272100E-16
   1.140000     -3.1174743E-14
   1.200000     -6.1298168E-14
   1.260000     -8.2089581E-14
   1.320000     -8.5469744E-14
   1.380000     -6.7022404E-14
   1.440000     -2.7835473E-14
   1.500000      2.5272978E-14
   1.560000      8.1393015E-14
   1.620000      1.2855599E-13
   1.680000      1.5704628E-13
   1.740000      1.6162232E-13
   1.800000      1.4165027E-13
   1.860000      9.9134575E-14
   1.920000      3.5862542E-14
   1.980000     -4.8263205E-14
   2.040000     -1.5378748E-13
   2.100000     -2.7668875E-13
   2.160000     -4.0164291E-13
   2.220000     -4.9753517E-13
   2.280000     -5.1973210E-13
   2.340000     -4.2167596E-13
   2.400000     -1.7417472E-13
   2.460000      2.1405471E-13
   2.520000      6.8398163E-13
   2.580000      1.1303549E-12
   2.640000      1.4251490E-12
   2.700000      1.4550285E-12
   2.760000      1.1602601E-12
   2.820000      5.5994505E-13
   2.880000     -2.4744451E-13
   2.940000     -1.1096819E-12
   3.000000     -1.8630607E-12
   3.060000     -2.3746758E-12
   3.120000     -2.5683305E-12
   3.180000     -2.4256233E-12
   3.240000     -1.9656828E-12
   3.300000     -1.2173499E-12
   3.360000     -2.0120843E-13
   3.420000      1.0660110E-12
   3.480000      2.5432894E-12
   3.540000      4.1244837E-12
   3.600000      5.6039405E-12
   3.660000      6.6681482E-12
   3.720000      6.9259529E-12
   3.780000      5.9783029E-12
   3.840000      3.5167125E-12
   3.900000     -5.6867656E-13
   3.960000     -6.0939582E-12
   4.020000     -1.2520486E-11
   4.080000     -1.8944617E-11
   4.140000     -2.4147698E-11
   4.200000     -2.6707190E-11
   4.260000     -2.5159612E-11
   4.320000     -1.8195310E-11
   4.380000     -4.8562833E-12
   4.440000      1.5295936E-11
   4.500000      4.2071676E-11
   4.560000      7.4622024E-11
   4.620000      1.1148598E-10
   4.680000      1.5070066E-10
   4.740000      1.8994922E-10
   4.800000      2.2672191E-10
   4.860000      2.5847519E-10
   4.920000      2.8278865E-10
   4.980000      2.9752681E-10
   5.040000      3.0101249E-10
   5.100000      2.9220523E-10
   5.160000      2.7085847E-10
   5.220000      2.3761876E-10
   5.280000      1.9403003E-10
   5.340000      1.4242742E-10
   5.400000      8.5732185E-11
   5.460000      2.7188784E-11
   5.520000     -2.9903382E-11
   5.580000     -8.2419425E-11
   5.640000     -1.2758336E-10
   5.700000     -1.6309891E-10
   5.760000     -1.8726873E-10
   5.820000     -1.9912938E-10
   5.880000     -1.9860584E-10
   5.940000     -1.8665369E-10
   6.000000     -1.6533079E-10
   6.060000     -1.3772591E-10
   6.120000     -1.0769264E-10
   6.180000     -7.9382674E-11
   6.240000     -5.6627491E-11
   6.300000     -4.2275052E-11
   6.360000     -3.7622249E-11
   6.420000     -4.2087570E-11
   6.480000     -5.3224859E-11
   6.540000     -6.7105960E-11
   6.600000     -7.9003200E-11
   6.660000     -8.4217272E-11
   6.720000     -7.8843598E-11
   6.780000     -6.0291855E-11
   6.840000     -2.7443547E-11
   6.900000      1.9544718E-11
   6.960000      7.9666579E-11
   7.020000      1.5152608E-10
   7.080000      2.3364630E-10
   7.140000      3.2453079E-10
   7.200000      4.2251577E-10
   7.260000      5.2557181E-10
   7.320000      6.3126143E-10
   7.380000      7.3701295E-10
   7.440000      8.4072571E-10
   7.500000      9.4155372E-10
   7.560000      1.0405787E-09
   7.620000      1.1410546E-09
   7.680000      1.2480040E-09
   7.740000      1.3671516E-09
   7.800000      1.5034101E-09
   7.860000      1.6593169E-09
   7.920000      1.8338736E-09
   7.980000      2.0221476E-09
   8.040000      2.2157909E-09
   8.100000      2.4043718E-09
   8.160000      2.5772138E-09
   8.220000      2.7253102E-09
   8.280000      2.8429135E-09
   8.340000      2.9285026E-09
   8.400000      2.9850096E-09
   8.460000      3.0193548E-09
   8.520000      3.0414500E-09
   8.580000      3.0629088E-09
   8.640000      3.0957021E-09
   8.700000      3.1509715E-09
   8.760000      3.2381609E-09
   8.820000      3.3645562E-09
   8.880000      3.5352394E-09
   8.940000      3.7533954E-09
   9.000000      4.0208437E-09
   9.060000      4.3386668E-09
   9.120000      4.7078150E-09
   9.180000      5.1296110E-09
   9.240000      5.6061396E-09
   9.300000      6.1404948E-09
   9.360000      6.7368409E-09
   9.420000      7.4002111E-09
   9.480000      8.1359461E-09
   9.540000      8.9487200E-09
   9.600000      9.8411981E-09
   9.660000      1.0812522E-08
   9.720000      1.1856869E-08
   9.780000      1.2962403E-08
   9.840000      1.4110794E-08
   9.900000      1.5277401E-08
   9.960000      1.6432010E-08
   10.02000      1.7540001E-08
   10.08000      1.8563798E-08
   10.14000      1.9464515E-08
   10.20000      2.0203817E-08
   10.26000      2.0745977E-08
   10.32000      2.1060021E-08
   10.38000      2.1121785E-08
   10.44000      2.0915536E-08
   10.50000      2.0434847E-08
   10.56000      1.9682558E-08
   10.62000      1.8669786E-08
   10.68000      1.7414260E-08
   10.74000      1.5938307E-08
   10.80000      1.4266890E-08
   10.86000      1.2425946E-08
   10.92000      1.0441171E-08
   10.98000      8.3372029E-09
   11.04000      6.1371961E-09
   11.10000      3.8627244E-09
   11.16000      1.5340704E-09
   11.22000     -8.2906321E-10
   11.28000     -3.2064287E-09
   11.34000     -5.5758544E-09
   11.40000     -7.9119413E-09
   11.46000     -1.0185232E-08
   11.52000     -1.2362281E-08
   11.58000     -1.4406805E-08
   11.64000     -1.6281968E-08
   11.70000     -1.7953473E-08
   11.76000     -1.9393021E-08
   11.82000     -2.0581558E-08
   11.88000     -2.1511841E-08
   11.94000     -2.2189949E-08
   12.00000     -2.2635531E-08
   12.06000     -2.2880819E-08
   12.12000     -2.2968564E-08
   12.18000     -2.2949092E-08
   12.24000     -2.2876804E-08
   12.30000     -2.2806358E-08
   12.36000     -2.2788845E-08
   12.42000     -2.2868159E-08
   12.48000     -2.3077842E-08
   12.54000     -2.3438622E-08
   12.60000     -2.3956906E-08
   12.66000     -2.4624404E-08
   12.72000     -2.5418986E-08
   12.78000     -2.6306687E-08
   12.84000     -2.7244596E-08
   12.90000     -2.8184251E-08
   12.96000     -2.9075069E-08
   13.02000     -2.9867394E-08
   13.08000     -3.0514876E-08
   13.14000     -3.0976082E-08
   13.20000     -3.1215404E-08
   13.26000     -3.1203474E-08
   13.32000     -3.0917402E-08
   13.38000     -3.0341138E-08
   13.44000     -2.9466145E-08
   13.50000     -2.8292593E-08
   13.56000     -2.6830781E-08
   13.62000     -2.5102548E-08
   13.68000     -2.3142039E-08
   13.74000     -2.0995351E-08
   13.80000     -1.8718662E-08
   13.86000     -1.6374853E-08
   13.92000     -1.4029032E-08
   13.98000     -1.1743633E-08
   14.04000     -9.5738653E-09
   14.10000     -7.5640667E-09
   14.16000     -5.7451448E-09
   14.22000     -4.1330299E-09
   14.28000     -2.7279012E-09
   14.34000     -1.5141010E-09
   14.40000     -4.6090265E-10
   14.46000      4.7548993E-10
   14.52000      1.3483636E-09
   14.58000      2.2153210E-09
   14.64000      3.1320069E-09
   14.70000      4.1456887E-09
   14.76000      5.2898281E-09
   14.82000      6.5805557E-09
   14.88000      8.0154754E-09
   14.94000      9.5746575E-09
   15.00000      1.1223287E-08
   15.06000      1.2915392E-08
   15.12000      1.4598248E-08
   15.18000      1.6217301E-08
   15.24000      1.7721529E-08
   15.30000      1.9068958E-08
   15.36000      2.0231715E-08
   15.42000      2.1199639E-08
   15.48000      2.1981499E-08
   15.54000      2.2603210E-08
   15.60000      2.3103174E-08
   15.66000      2.3525613E-08
   15.72000      2.3913358E-08
   15.78000      2.4301643E-08
   15.84000      2.4714033E-08
   15.90000      2.5161015E-08
   15.96000      2.5640986E-08
   16.02000      2.6142851E-08
   16.08000      2.6649282E-08
   16.14000      2.7139777E-08
   16.20000      2.7593037E-08
   16.26000      2.7988484E-08
   16.32000      2.8306973E-08
   16.38000      2.8530923E-08
   16.44000      2.8644074E-08
   16.50000      2.8631076E-08
   16.56000      2.8477295E-08
   16.62000      2.8169168E-08
   16.68000      2.7695535E-08
   16.74000      2.7050080E-08
   16.80000      2.6234776E-08
   16.86000      2.5263613E-08
   16.92000      2.4165537E-08
   16.98000      2.2985439E-08
   17.04000      2.1782283E-08
   17.10000      2.0624165E-08
   17.16000      1.9581037E-08
   17.22000      1.8716458E-08
   17.28000      1.8080149E-08
   17.34000      1.7702872E-08
   17.40000      1.7594425E-08
   17.46000      1.7744631E-08
   17.52000      1.8126480E-08
   17.58000      1.8700115E-08
   17.64000      1.9416500E-08
   17.70000      2.0220078E-08
   17.76000      2.1050232E-08
   17.82000      2.1842039E-08
   17.88000      2.2526914E-08
   17.94000      2.3033886E-08
   18.00000      2.3292118E-08
   18.06000      2.3234961E-08
   18.12000      2.2805576E-08
   18.18000      2.1963768E-08
   18.24000      2.0693120E-08
   18.30000      1.9007221E-08
   18.36000      1.6953294E-08
   18.42000      1.4611876E-08
   18.48000      1.2091537E-08
   18.54000      9.5188719E-09
   18.60000      7.0251120E-09
   18.66000      4.7317541E-09
   18.72000      2.7380316E-09
   18.78000      1.1126112E-09
   18.84000     -1.0926894E-10
   18.90000     -9.2353225E-10
   18.96000     -1.3515445E-09
   19.02000     -1.4333047E-09
   19.08000     -1.2216874E-09
   19.14000     -7.7888679E-10
   19.20000     -1.7489329E-10
   19.26000      5.1325433E-10
   19.32000      1.2030956E-09
   19.38000      1.8104985E-09
   19.44000      2.2557547E-09
   19.50000      2.4710891E-09
   19.56000      2.4078326E-09
   19.62000      2.0413387E-09
   19.68000      1.3722321E-09
   19.74000      4.2350418E-10
   19.80000     -7.6601564E-10
   19.86000     -2.1504882E-09
   19.92000     -3.6864616E-09
   19.98000     -5.3410654E-09
   20.04000     -7.0974893E-09
   20.10000     -8.9567118E-09
   20.16000     -1.0935111E-08
   20.22000     -1.3058386E-08
   20.28000     -1.5353073E-08
   20.34000     -1.7837580E-08
   20.40000     -2.0514904E-08
   20.46000     -2.3368811E-08
   20.52000     -2.6364269E-08
   20.58000     -2.9451702E-08
   20.64000     -3.2573475E-08
   20.70000     -3.5670620E-08
   20.76000     -3.8687965E-08
   20.82000     -4.1576865E-08
   20.88000     -4.4295810E-08
   20.94000     -4.6810026E-08
   21.00000     -4.9091486E-08
   21.06000     -5.1120125E-08
   21.12000     -5.2886296E-08
   21.18000     -5.4393578E-08
   21.24000     -5.5660539E-08
   21.30000     -5.6720271E-08
   21.36000     -5.7616965E-08
   21.42000     -5.8400001E-08
   21.48000     -5.9116417E-08
   21.54000     -5.9803440E-08
   21.60000     -6.0482563E-08
   21.66000     -6.1156385E-08
   21.72000     -6.1808777E-08
   21.78000     -6.2408091E-08
   21.84000     -6.2912669E-08
   21.90000     -6.3277291E-08
   21.96000     -6.3459417E-08
   22.02000     -6.3424139E-08
   22.08000     -6.3147510E-08
   22.14000     -6.2618355E-08
   22.20000     -6.1838840E-08
   22.26000     -6.0824576E-08
   22.32000     -5.9604027E-08
   22.38000     -5.8217275E-08
   22.44000     -5.6713336E-08
   22.50000     -5.5145655E-08
   22.56000     -5.3565671E-08
   22.62000     -5.2015189E-08
   22.68000     -5.0518970E-08
   22.74000     -4.9079404E-08
   22.80000     -4.7674906E-08
   22.86000     -4.6263128E-08
   22.92000     -4.4788784E-08
   22.98000     -4.3194699E-08
   23.04000     -4.1433900E-08
   23.10000     -3.9479840E-08
   23.16000     -3.7332509E-08
   23.22000     -3.5018854E-08
   23.28000     -3.2587586E-08
   23.34000     -3.0099699E-08
   23.40000     -2.7617336E-08
   23.46000     -2.5193854E-08
   23.52000     -2.2867631E-08
   23.58000     -2.0660844E-08
   23.64000     -1.8582927E-08
   23.70000     -1.6636918E-08
   23.76000     -1.4826045E-08
   23.82000     -1.3158067E-08
   23.88000     -1.1645767E-08
   23.94000     -1.0303689E-08
   24.00000     -9.1426520E-09
   24.06000     -8.1645837E-09
   24.12000     -7.3601081E-09
   24.18000     -6.7103398E-09
   24.24000     -6.1926531E-09
   24.30000     -5.7885940E-09
   24.36000     -5.4911466E-09
   24.42000     -5.3086313E-09
   24.48000     -5.2636175E-09
   24.54000     -5.3869518E-09
   24.60000     -5.7086877E-09
   24.66000     -6.2487397E-09
   24.72000     -7.0101223E-09
   24.78000     -7.9767402E-09
   24.84000     -9.1161576E-09
   24.90000     -1.0386277E-08
   24.96000     -1.1743732E-08
   25.02000     -1.3151578E-08
   25.08000     -1.4584199E-08
   25.14000     -1.6028459E-08
   25.20000     -1.7481190E-08
   25.26000     -1.8944252E-08
   25.32000     -2.0418959E-08
   25.38000     -2.1901879E-08
   25.44000     -2.3383516E-08
   25.50000     -2.4850479E-08
   25.56000     -2.6290532E-08
   25.62000     -2.7698709E-08
   25.68000     -2.9081953E-08
   25.74000     -3.0459901E-08
   25.80000     -3.1860417E-08
   25.86000     -3.3310315E-08
   25.92000     -3.4823746E-08
   25.98000     -3.6391970E-08
   26.04000     -3.7978502E-08
   26.10000     -3.9522121E-08
   26.16000     -4.0947764E-08
   26.22000     -4.2182617E-08
   26.28000     -4.3172644E-08
   26.34000     -4.3894506E-08
   26.40000     -4.4359229E-08
   26.46000     -4.4606669E-08
   26.52000     -4.4692868E-08
   26.58000     -4.4674600E-08
   26.64000     -4.4595975E-08
   26.70000     -4.4480888E-08
   26.76000     -4.4332886E-08
   26.82000     -4.4141434E-08
   26.88000     -4.3891511E-08
   26.94000     -4.3572921E-08
   27.00000     -4.3186066E-08
   27.06000     -4.2742656E-08
   27.12000     -4.2261501E-08
   27.18000     -4.1761371E-08
   27.24000     -4.1253642E-08
   27.30000     -4.0737394E-08
   27.36000     -4.0198806E-08
   27.42000     -3.9615024E-08
   27.48000     -3.8961311E-08
   27.54000     -3.8219071E-08
   27.60000     -3.7381991E-08
   27.66000     -3.6458182E-08
   27.72000     -3.5467490E-08
   27.78000     -3.4434962E-08
   27.84000     -3.3382676E-08
   27.90000     -3.2322916E-08
   27.96000     -3.1255158E-08
   28.02000     -3.0168064E-08
   28.08000     -2.9045893E-08
   28.14000     -2.7877217E-08
   28.20000     -2.6662953E-08
   28.26000     -2.5420926E-08
   28.32000     -2.4185317E-08
   28.38000     -2.3000952E-08
   28.44000     -2.1914058E-08
   28.50000     -2.0962206E-08
   28.56000     -2.0166368E-08
   28.62000     -1.9527391E-08
   28.68000     -1.9027800E-08
   28.74000     -1.8638218E-08
   28.80000     -1.8326348E-08
   28.86000     -1.8065755E-08
   28.92000     -1.7841836E-08
   28.98000     -1.7653493E-08
   29.04000     -1.7510390E-08
   29.10000     -1.7427229E-08
   29.16000     -1.7417248E-08
   29.22000     -1.7487235E-08
   29.28000     -1.7635495E-08
   29.34000     -1.7852987E-08
   29.40000     -1.8126617E-08
   29.46000     -1.8443099E-08
   29.52000     -1.8791882E-08
   29.58000     -1.9166398E-08
   29.64000     -1.9563881E-08
   29.70000     -1.9984613E-08
   29.76000     -2.0431587E-08
   29.82000     -2.0910990E-08
   29.88000     -2.1433191E-08
   29.94000     -2.2013255E-08
   30.00000     -2.2669941E-08
   30.06000     -2.3422743E-08
   30.12000     -2.4287413E-08
   30.18000     -2.5271332E-08
   30.24000     -2.6370294E-08
   30.30000     -2.7568031E-08
   30.36000     -2.8838636E-08
   30.42000     -3.0151018E-08
   30.48000     -3.1473643E-08
   30.54000     -3.2777773E-08
   30.60000     -3.4038067E-08
   30.66000     -3.5230617E-08
   30.72000     -3.6329656E-08
   30.78000     -3.7304826E-08
   30.84000     -3.8120959E-08
   30.90000     -3.8741305E-08
   30.96000     -3.9133980E-08
   31.02000     -3.9279872E-08
   31.08000     -3.9179497E-08
   31.14000     -3.8856111E-08
   31.20000     -3.8353342E-08
   31.26000     -3.7727098E-08
   31.32000     -3.7033505E-08
   31.38000     -3.6316056E-08
   31.44000     -3.5595825E-08
   31.50000     -3.4867863E-08
   31.56000     -3.4105231E-08
   31.62000     -3.3269689E-08
   31.68000     -3.2325911E-08
   31.74000     -3.1254839E-08
   31.80000     -3.0062047E-08
   31.86000     -2.8778622E-08
   31.92000     -2.7454377E-08
   31.98000     -2.6145708E-08
   32.04000     -2.4901983E-08
   32.10000     -2.3754616E-08
   32.16000     -2.2711935E-08
   32.22000     -2.1760981E-08
   32.28000     -2.0875198E-08
   32.34000     -2.0025212E-08
   32.40000     -1.9189004E-08
   32.46000     -1.8358280E-08
   32.52000     -1.7539037E-08
   32.58000     -1.6746386E-08
   32.64000     -1.5995649E-08
   32.70000     -1.5293057E-08
   32.76000     -1.4629574E-08
   32.82000     -1.3980369E-08
   32.88000     -1.3310420E-08
   32.94000     -1.2584442E-08
   33.00000     -1.1777630E-08
   33.06000     -1.0883243E-08
   33.12000     -9.9141797E-09
   33.18000     -8.8978780E-09
   33.24000     -7.8664790E-09
   33.30000     -6.8459829E-09
   33.36000     -5.8485696E-09
   33.42000     -4.8709468E-09
   33.48000     -3.8992818E-09
   33.54000     -2.9187239E-09
   33.60000     -1.9237780E-09
   33.66000     -9.2557251E-10
   33.72000      4.6745427E-11
   33.78000      9.5102604E-10
   33.84000      1.7418009E-09
   33.90000      2.3812956E-09
   33.96000      2.8480975E-09
   34.02000      3.1407119E-09
   34.08000      3.2750238E-09
   34.14000      3.2766938E-09
   34.20000      3.1711094E-09
   34.26000      2.9742186E-09
   34.32000      2.6872242E-09
   34.38000      2.2968392E-09
   34.44000      1.7810344E-09
   34.50000      1.1184619E-09
   34.56000      2.9856070E-10
   34.62000     -6.7087041E-10
   34.68000     -1.7610777E-09
   34.74000     -2.9256026E-09
   34.80000     -4.1084327E-09
   34.86000     -5.2546252E-09
   34.92000     -6.3203198E-09
   34.98000     -7.2794135E-09
   35.04000     -8.1253715E-09
   35.10000     -8.8681880E-09
   35.16000     -9.5278452E-09
   35.22000     -1.0126326E-08
   35.28000     -1.0680141E-08
   35.34000     -1.1194685E-08
   35.40000     -1.1660886E-08
   35.46000     -1.2054056E-08
   35.52000     -1.2334665E-08
   35.58000     -1.2451027E-08
   35.64000     -1.2344093E-08
   35.70000     -1.1954539E-08
   35.76000     -1.1231777E-08
   35.82000     -1.0143612E-08
   35.88000     -8.6843759E-09
   35.94000     -6.8791031E-09
   36.00000     -4.7819544E-09
   36.06000     -2.4686586E-09
   36.12000     -2.4753416E-11
   36.18000      2.4669289E-09
   36.24000      4.9355600E-09
   36.30000      7.3254069E-09
   36.36000      9.5919903E-09
   36.42000      1.1693346E-08
   36.48000      1.3580559E-08
   36.54000      1.5192313E-08
   36.60000      1.6456887E-08
   36.66000      1.7302151E-08
   36.72000      1.7670830E-08
   36.78000      1.7535868E-08
   36.84000      1.6910038E-08
   36.90000      1.5845513E-08
   36.96000      1.4422375E-08
   37.02000      1.2728815E-08
   37.08000      1.0838861E-08
   37.14000      8.7946059E-09
   37.20000      6.5987886E-09
   37.26000      4.2203583E-09
   37.32000      1.6114847E-09
   37.38000     -1.2693686E-09
   37.44000     -4.4358521E-09
   37.50000     -7.8608648E-09
   37.56000     -1.1476919E-08
   37.62000     -1.5189855E-08
   37.68000     -1.8901522E-08
   37.74000     -2.2533897E-08
   37.80000     -2.6046612E-08
   37.86000     -2.9442084E-08
   37.92000     -3.2756738E-08
   37.98000     -3.6041634E-08
   38.04000     -3.9339337E-08
   38.10000     -4.2664986E-08
   38.16000     -4.5997620E-08
   38.22000     -4.9284118E-08
   38.28000     -5.2453576E-08
   38.34000     -5.5436654E-08
   38.40000     -5.8183101E-08
   38.46000     -6.0671852E-08
   38.52000     -6.2911163E-08
   38.58000     -6.4929488E-08
   38.64000     -6.6761203E-08
   38.70000     -6.8432108E-08
   38.76000     -6.9949813E-08
   38.82000     -7.1301827E-08
   38.88000     -7.2461759E-08
   38.94000     -7.3401218E-08
   39.00000     -7.4103191E-08
   39.06000     -7.4572128E-08
   39.12000     -7.4836905E-08
   39.18000     -7.4945170E-08
   39.24000     -7.4950584E-08
   39.30000     -7.4896974E-08
   39.36000     -7.4805179E-08
   39.42000     -7.4667483E-08
   39.48000     -7.4452252E-08
   39.54000     -7.4117914E-08
   39.60000     -7.3631576E-08
   39.66000     -7.2985898E-08
   39.72000     -7.2207982E-08
   39.78000     -7.1356816E-08
   39.84000     -7.0509778E-08
   39.90000     -6.9742711E-08
   39.96000     -6.9110087E-08
   40.02000     -6.8631834E-08
   40.08000     -6.8290738E-08
   40.14000     -6.8040912E-08
   40.20000     -6.7823876E-08
   40.26000     -6.7586967E-08
   40.32000     -6.7298160E-08
   40.38000     -6.6953092E-08
   40.44000     -6.6572554E-08
   40.50000     -6.6191745E-08
   40.56000     -6.5844596E-08
   40.62000     -6.5548065E-08
   40.68000     -6.5290969E-08
   40.74000     -6.5030918E-08
   40.80000     -6.4700799E-08
   40.86000     -6.4223464E-08
   40.92000     -6.3531068E-08
   40.98000     -6.2583645E-08
   41.04000     -6.1381257E-08
   41.10000     -5.9965757E-08
   41.16000     -5.8410695E-08
   41.22000     -5.6802051E-08
   41.28000     -5.5215153E-08
   41.34000     -5.3694880E-08
   41.40000     -5.2245337E-08
   41.46000     -5.0832185E-08
   41.52000     -4.9396782E-08
   41.58000     -4.7877286E-08
   41.64000     -4.6229690E-08
   41.70000     -4.4441943E-08
   41.76000     -4.2536900E-08
   41.82000     -4.0563844E-08
   41.88000     -3.8582133E-08
   41.94000     -3.6643193E-08
   42.00000     -3.4777077E-08
   42.06000     -3.2988016E-08
   42.12000     -3.1259820E-08
   42.18000     -2.9568673E-08
   42.24000     -2.7898304E-08
   42.30000     -2.6252080E-08
   42.36000     -2.4657876E-08
   42.42000     -2.3164237E-08
   42.48000     -2.1829257E-08
   42.54000     -2.0705944E-08
   42.60000     -1.9828654E-08
   42.66000     -1.9204689E-08
   42.72000     -1.8813299E-08
   42.78000     -1.8612035E-08
   42.84000     -1.8548219E-08
   42.90000     -1.8572031E-08
   42.96000     -1.8647404E-08
   43.02000     -1.8757882E-08
   43.08000     -1.8906352E-08
   43.14000     -1.9109406E-08
   43.20000     -1.9388906E-08
   43.26000     -1.9763990E-08
   43.32000     -2.0246356E-08
   43.38000     -2.0840384E-08
   43.44000     -2.1547530E-08
   43.50000     -2.2372751E-08
   43.56000     -2.3329831E-08
   43.62000     -2.4442874E-08
   43.68000     -2.5742878E-08
   43.74000     -2.7260421E-08
   43.80000     -2.9017389E-08
   43.86000     -3.1021326E-08
   43.92000     -3.3265316E-08
   43.98000     -3.5734356E-08
   44.04000     -3.8416893E-08
   44.10000     -4.1318255E-08
   44.16000     -4.4472191E-08
   44.22000     -4.7947324E-08
   44.28000     -5.1847216E-08
   44.34000     -5.6305002E-08
   44.40000     -6.1475184E-08
   44.46000     -6.7526116E-08
   44.52000     -7.4636169E-08
   44.58000     -8.2995413E-08
   44.64000     -9.2812570E-08
   44.70000     -1.0432570E-07
   44.76000     -1.1781381E-07
   44.82000     -1.3360687E-07
   44.88000     -1.5209265E-07
   44.94000     -1.7372025E-07
   45.00000     -1.9900214E-07
   45.06000     -2.2851683E-07
   45.12000     -2.6291505E-07
   45.18000     -3.0293103E-07
   45.24000     -3.4939936E-07
   45.30000     -4.0327558E-07
   45.36000     -4.6565847E-07
   45.42000     -5.3781145E-07
   45.48000     -6.2117999E-07
   45.54000     -7.1740556E-07
   45.60000     -8.2833452E-07
   45.66000     -9.5602570E-07
   45.72000     -1.1027593E-06
   45.78000     -1.2710478E-06
   45.84000     -1.4636543E-06
   45.90000     -1.6836152E-06
   45.96000     -1.9342694E-06
   46.02000     -2.2192908E-06
   46.08000     -2.5427209E-06
   46.14000     -2.9090008E-06
   46.20000     -3.3229958E-06
   46.26000     -3.7900170E-06
   46.32000     -4.3158357E-06
   46.38000     -4.9066966E-06
   46.44000     -5.5693299E-06
   46.50000     -6.3109624E-06
   46.56000     -7.1393360E-06
   46.62000     -8.0627224E-06
   46.68000     -9.0899375E-06
   46.74000     -1.0230347E-05
   46.80000     -1.1493868E-05
   46.86000     -1.2890959E-05
   46.92000     -1.4432600E-05
   46.98000     -1.6130265E-05
   47.04000     -1.7995890E-05
   47.10000     -2.0041844E-05
   47.16000     -2.2280889E-05
   47.22000     -2.4726156E-05
   47.28000     -2.7391083E-05
   47.34000     -3.0289366E-05
   47.40000     -3.3434877E-05
   47.46000     -3.6841568E-05
   47.52000     -4.0523380E-05
   47.58000     -4.4494114E-05
   47.64000     -4.8767321E-05
   47.70000     -5.3356191E-05
   47.76000     -5.8273450E-05
   47.82000     -6.3531217E-05
   47.88000     -6.9140893E-05
   47.94000     -7.5113028E-05
   48.00000     -8.1457161E-05
   48.06000     -8.8181652E-05
   48.12000     -9.5293573E-05
   48.18000     -1.0279849E-04
   48.24000     -1.1070039E-04
   48.30000     -1.1900150E-04
   48.36000     -1.2770228E-04
   48.42000     -1.3680119E-04
   48.48000     -1.4629465E-04
   48.54000     -1.5617693E-04
   48.60000     -1.6643998E-04
   48.66000     -1.7707348E-04
   48.72000     -1.8806473E-04
   48.78000     -1.9939867E-04
   48.84000     -2.1105782E-04
   48.90000     -2.2302241E-04
   48.96000     -2.3527024E-04
   49.02000     -2.4777700E-04
   49.08000     -2.6051610E-04
   49.14000     -2.7345898E-04
   49.20000     -2.8657520E-04
   49.26000     -2.9983267E-04
   49.32000     -3.1319790E-04
   49.38000     -3.2663607E-04
   49.44000     -3.4011141E-04
   49.50000     -3.5358744E-04
   49.56000     -3.6702710E-04
   49.62000     -3.8039315E-04
   49.68000     -3.9364849E-04
   49.74000     -4.0675639E-04
   49.80000     -4.1968105E-04
   49.86000     -4.3238769E-04
   49.92000     -4.4484317E-04
   49.98000     -4.5701591E-04
   50.04000     -4.6887650E-04
   50.10000     -4.8039784E-04
   50.16000     -4.9155526E-04
   50.22000     -5.0232705E-04
   50.28000     -5.1269459E-04
   50.34000     -5.2264234E-04
   50.40000     -5.3215836E-04
   50.46000     -5.4123398E-04
   50.52000     -5.4986443E-04
   50.58000     -5.5804831E-04
   50.64000     -5.6578801E-04
   50.70000     -5.7308906E-04
   50.76000     -5.7996059E-04
   50.82000     -5.8641494E-04
   50.88000     -5.9246755E-04
   50.94000     -5.9813674E-04
   51.00000     -6.0344359E-04
   51.06000     -6.0841133E-04
   51.12000     -6.1306555E-04
   51.18000     -6.1743328E-04
   51.24000     -6.2154274E-04
   51.30000     -6.2542310E-04
   51.36000     -6.2910403E-04
   51.42000     -6.3261518E-04
   51.48000     -6.3598593E-04
   51.54000     -6.3924497E-04
   51.60000     -6.4241985E-04
   51.66000     -6.4553652E-04
   51.72000     -6.4861903E-04
   51.78000     -6.5168913E-04
   51.84000     -6.5476605E-04
   51.90000     -6.5786653E-04
   51.96000     -6.6100422E-04
   52.02000     -6.6418975E-04
   52.08000     -6.6743046E-04
   52.14000     -6.7073019E-04
   52.20000     -6.7408924E-04
   52.26000     -6.7750463E-04
   52.32000     -6.8096991E-04
   52.38000     -6.8447553E-04
   52.44000     -6.8800902E-04
   52.50000     -6.9155527E-04
   52.56000     -6.9509674E-04
   52.62000     -6.9861324E-04
   52.68000     -7.0208288E-04
   52.74000     -7.0548191E-04
   52.80000     -7.0878526E-04
   52.86000     -7.1196712E-04
   52.92000     -7.1500137E-04
   52.98000     -7.1786210E-04
   53.04000     -7.2052382E-04
   53.10000     -7.2296208E-04
   53.16000     -7.2515343E-04
   53.22000     -7.2707626E-04
   53.28000     -7.2871044E-04
   53.34000     -7.3003792E-04
   53.40000     -7.3104328E-04
   53.46000     -7.3171395E-04
   53.52000     -7.3204021E-04
   53.58000     -7.3201564E-04
   53.64000     -7.3163706E-04
   53.70000     -7.3090440E-04
   53.76000     -7.2982081E-04
   53.82000     -7.2839257E-04
   53.88000     -7.2662887E-04
   53.94000     -7.2454195E-04
   54.00000     -7.2214677E-04
   54.06000     -7.1946072E-04
   54.12000     -7.1650342E-04
   54.18000     -7.1329635E-04
   54.24000     -7.0986239E-04
   54.30000     -7.0622569E-04
   54.36000     -7.0241088E-04
   54.42000     -6.9844309E-04
   54.48000     -6.9434755E-04
   54.54000     -6.9014891E-04
   54.60000     -6.8587117E-04
   54.66000     -6.8153715E-04
   54.72000     -6.7716814E-04
   54.78000     -6.7278370E-04
   54.84000     -6.6840107E-04
   54.90000     -6.6403532E-04
   54.96000     -6.5969862E-04
   55.02000     -6.5540051E-04
   55.08000     -6.5114762E-04
   55.14000     -6.4694352E-04
   55.20000     -6.4278883E-04
   55.26000     -6.3868111E-04
   55.32000     -6.3461502E-04
   55.38000     -6.3058181E-04
   55.44000     -6.2657037E-04
   55.50000     -6.2256644E-04
   55.56000     -6.1855390E-04