  -2.400000      0.0000000E+00
  -2.340000      0.0000000E+00
  -2.280000      0.0000000E+00
  -2.220000      0.0000000E+00
  -2.160000      0.0000000E+00
  -2.100000      0.0000000E+00
  -2.040000     -1.5398411E-22
  -1.980000     -1.3265180E-21
  -1.920000     -5.5130190E-21
  -1.860000     -1.3713834E-20
  -1.800000     -1.8030624E-20
  -1.740000      1.1190468E-20
  -1.680000      1.3212973E-19
  -1.620000      4.1075522E-19
  -1.560000      8.5328473E-19
  -1.500000      1.2979588E-18
  -1.440000      1.3175498E-18
  -1.380000      2.2596005E-19
  -1.320000     -2.7145474E-18
  -1.260000     -7.8518068E-18
  -1.200000     -1.4560812E-17
  -1.140000     -2.0759709E-17
  -1.080000     -2.2857361E-17
  -1.020000     -1.6420081E-17
 -0.9600000      2.3837724E-18
 -0.9000000      3.4878792E-17
 -0.8400000      7.8210139E-17
 -0.7800000      1.2473791E-16
 -0.7200000      1.6302713E-16
 -0.6600000      1.8019214E-16
 -0.6000000      1.6443130E-16
 -0.5400000      1.0612975E-16
 -0.4800000     -3.4595847E-18
 -0.4200000     -1.7505611E-16
 -0.3600000     -4.2235382E-16
 -0.3000000     -7.5631889E-16
 -0.2400000     -1.1690665E-15
 -0.1800000     -1.6082717E-15
 -0.1200000     -1.9503577E-15
 -5.9999999E-02 -1.9877629E-15
  0.0000000E+00 -1.4485003E-15
  5.9999999E-02 -6.1587924E-17
  0.1200000      2.3314419E-15
  0.1800000      5.6388563E-15
  0.2400000      9.3963372E-15
  0.3000000      1.2716660E-14
  0.3600000      1.4368371E-14
  0.4200000      1.3018027E-14
  0.4800000      7.6229247E-15
  0.5400000     -2.1045876E-15
  0.6000000     -1.5304896E-14
  0.6600000     -2.9827401E-14
  0.7200000     -4.2480627E-14
  0.7800000     -4.9710727E-14
  0.8400000     -4.8572376E-14
  0.9000000     -3.7687803E-14
  0.9600000     -1.7813974E-14
   1.020000      8.2686162E-15
   1.080000      3.6559619E-14
   1.140000      6.2990174E-14
   1.200000      8.4316045E-14
   1.260000      9.8184536E-14
   1.320000      1.0224234E-13
   1.380000      9.2874676E-14
   1.440000      6.4831068E-14
   1.500000      1.3128850E-14
   1.560000     -6.2141779E-14
   1.620000     -1.4916138E-13
   1.680000     -2.1897463E-13
   1.740000     -2.2585860E-13
   1.800000     -1.1765221E-13
   1.860000      1.4258656E-13
   1.920000      5.4729729E-13
   1.980000      1.0170645E-12
   2.040000      1.3889401E-12
   2.100000      1.4340426E-12
   2.160000      9.1182042E-13
   2.220000     -3.4359348E-13
   2.280000     -2.3242942E-12
   2.340000     -4.7686295E-12
   2.400000     -7.1365548E-12
   2.460000     -8.6685494E-12
   2.520000     -8.5355317E-12
   2.580000     -6.0581800E-12
   2.640000     -9.4573817E-13
   2.700000      6.5126398E-12
   2.760000      1.5368349E-11
   2.820000      2.4085711E-11
   2.880000      3.0766500E-11
   2.940000      3.3484267E-11
   3.000000      3.0655783E-11
   3.060000      2.1370218E-11
   3.120000      5.6155978E-12
   3.180000     -1.5622139E-11
   3.240000     -4.0375408E-11
   3.300000     -6.5793822E-11
   3.360000     -8.8297557E-11
   3.420000     -1.0378397E-10
   3.480000     -1.0792021E-10
   3.540000     -9.6574949E-11
   3.600000     -6.6430736E-11
   3.660000     -1.5770944E-11
   3.720000      5.4639404E-11
   3.780000      1.4073691E-10
   3.840000      2.3461755E-10
   3.900000      3.2448277E-10
   3.960000      3.9523360E-10
   4.020000      4.2976564E-10
   4.080000      4.1088258E-10
   4.140000      3.2360997E-10
   4.200000      1.5758848E-10
   4.260000     -9.0816119E-11
   4.320000     -4.1701986E-10
   4.380000     -8.0757817E-10
   4.440000     -1.2404784E-09
   4.500000     -1.6862911E-09
   4.560000     -2.1099684E-09
   4.620000     -2.4730109E-09
   4.680000     -2.7357352E-09
   4.740000     -2.8594613E-09
   4.800000     -2.8085609E-09
   4.860000     -2.5524149E-09
   4.920000     -2.0673765E-09
   4.980000     -1.3387953E-09
   5.040000     -3.6303094E-10
   5.100000      8.5078111E-10
   5.160000      2.2795907E-09
   5.220000      3.8863570E-09
   5.280000      5.6213998E-09
   5.340000      7.4253315E-09
   5.400000      9.2334309E-09
   5.460000      1.0980984E-08
   5.520000      1.2608887E-08
   5.580000      1.4068667E-08
   5.640000      1.5326183E-08
   5.700000      1.6363479E-08
   5.760000      1.7178637E-08
   5.820000      1.7783822E-08
   5.880000      1.8201982E-08
   5.940000      1.8462881E-08
   6.000000      1.8599012E-08
   6.060000      1.8641947E-08
   6.120000      1.8619373E-08
   6.180000      1.8552983E-08
   6.240000      1.8457202E-08
   6.300000      1.8338733E-08
   6.360000      1.8196875E-08
   6.420000      1.8024569E-08
   6.480000      1.7810098E-08
   6.540000      1.7539275E-08
   6.600000      1.7197854E-08
   6.660000      1.6773770E-08
   6.720000      1.6258848E-08
   6.780000      1.5649590E-08
   6.840000      1.4946927E-08
   6.900000      1.4154989E-08
   6.960000      1.3279288E-08
   7.020000      1.2324895E-08
   7.080000      1.1295231E-08
   7.140000      1.0191972E-08
   7.200000      9.0162455E-09
   7.260000      7.7708977E-09
   7.320000      6.4631820E-09
   7.380000      5.1070339E-09
   7.440000      3.7241168E-09
   7.500000      2.3431164E-09
   7.560000      9.9727082E-10
   7.620000     -2.7937574E-10
   7.680000     -1.4561131E-09
   7.740000     -2.5091205E-09
   7.800000     -3.4236416E-09
   7.860000     -4.1944164E-09
   7.920000     -4.8244928E-09
   7.980000     -5.3229687E-09
   8.040000     -5.7024003E-09
   8.100000     -5.9765668E-09
   8.160000     -6.1590297E-09
   8.220000     -6.2626020E-09
   8.280000     -6.2995511E-09
   8.340000     -6.2821881E-09
   8.400000     -6.2234813E-09
   8.460000     -6.1374164E-09
   8.520000     -6.0389427E-09
   8.580000     -5.9434679E-09
   8.640000     -5.8659526E-09
   8.700000     -5.8197078E-09
   8.760000     -5.8150835E-09
   8.820000     -5.8582823E-09
   8.880000     -5.9506187E-09
   8.940000     -6.0885248E-09
   9.000000     -6.2645054E-09
   9.060000     -6.4690080E-09
   9.120000     -6.6929240E-09
   9.180000     -6.9301467E-09
   9.240000     -7.1795330E-09
   9.300000     -7.4457045E-09
   9.360000     -7.7384410E-09
   9.420000     -8.0708489E-09
   9.480000     -8.4568530E-09
   9.540000     -8.9087653E-09
   9.600000     -9.4356132E-09
   9.660000     -1.0042569E-08
   9.720000     -1.0731407E-08
   9.780000     -1.1501532E-08
   9.840000     -1.2350976E-08
   9.900000     -1.3276834E-08
   9.960000     -1.4274974E-08
   10.02000     -1.5339177E-08
   10.08000     -1.6460161E-08
   10.14000     -1.7624961E-08
   10.20000     -1.8816952E-08
   10.26000     -2.0016492E-08
   10.32000     -2.1201888E-08
   10.38000     -2.2350267E-08
   10.44000     -2.3438034E-08
   10.50000     -2.4440919E-08
   10.56000     -2.5333906E-08
   10.62000     -2.6091456E-08
   10.68000     -2.6688488E-08
   10.74000     -2.7102233E-08
   10.80000     -2.7314810E-08
   10.86000     -2.7315965E-08
   10.92000     -2.7105347E-08
   10.98000     -2.6693751E-08
   11.04000     -2.6102949E-08
   11.10000     -2.5364153E-08
   11.16000     -2.4515328E-08
   11.22000     -2.3597806E-08
   11.28000     -2.2652637E-08
   11.34000     -2.1717108E-08
   11.40000     -2.0821812E-08
   11.46000     -1.9988596E-08
   11.52000     -1.9229686E-08
   11.58000     -1.8548210E-08
   11.64000     -1.7940135E-08
   11.70000     -1.7397442E-08
   11.76000     -1.6911974E-08
   11.82000     -1.6479150E-08
   11.88000     -1.6100618E-08
   11.94000     -1.5785000E-08
   12.00000     -1.5546204E-08
   12.06000     -1.5399365E-08
   12.12000     -1.5355120E-08
   12.18000     -1.5413466E-08
   12.24000     -1.5558822E-08
   12.30000     -1.5757760E-08
   12.36000     -1.5960460E-08
   12.42000     -1.6105981E-08
   12.48000     -1.6130567E-08
   12.54000     -1.5977308E-08
   12.60000     -1.5605119E-08
   12.66000     -1.4995143E-08
   12.72000     -1.4153327E-08
   12.78000     -1.3108886E-08
   12.84000     -1.1909360E-08
   12.90000     -1.0613656E-08
   12.96000     -9.2847570E-09
   13.02000     -7.9835267E-09
   13.08000     -6.7644699E-09
   13.14000     -5.6736114E-09
   13.20000     -4.7479851E-09
   13.26000     -4.0158450E-09
   13.32000     -3.4966570E-09
   13.38000     -3.2002416E-09
   13.44000     -3.1249479E-09
   13.50000     -3.2553569E-09
   13.56000     -3.5604659E-09
   13.62000     -3.9934434E-09
   13.68000     -4.4937645E-09
   13.74000     -4.9918900E-09
   13.80000     -5.4158544E-09
   13.86000     -5.6984435E-09
   13.92000     -5.7833800E-09
   13.98000     -5.6292202E-09
   14.04000     -5.2103841E-09
   14.10000     -4.5157091E-09
   14.16000     -3.5456331E-09
   14.22000     -2.3094158E-09
   14.28000     -8.2348317E-10
   14.34000      8.8874347E-10
   14.40000      2.7960101E-09
   14.46000      4.8584128E-09
   14.52000      7.0276949E-09
   14.58000      9.2492920E-09
   14.64000      1.1466036E-08
   14.70000      1.3622738E-08
   14.76000      1.5670530E-08
   14.82000      1.7569976E-08
   14.88000      1.9292452E-08
   14.94000      2.0819870E-08
   15.00000      2.2143382E-08
   15.06000      2.3261705E-08
   15.12000      2.4179654E-08
   15.18000      2.4907056E-08
   15.24000      2.5457885E-08
   15.30000      2.5849424E-08
   15.36000      2.6101276E-08
   15.42000      2.6234392E-08
   15.48000      2.6270353E-08
   15.54000      2.6231250E-08
   15.60000      2.6140166E-08
   15.66000      2.6021944E-08
   15.72000      2.5903605E-08
   15.78000      2.5813732E-08
   15.84000      2.5780460E-08
   15.90000      2.5828186E-08
   15.96000      2.5973778E-08
   16.02000      2.6223393E-08
   16.08000      2.6570980E-08
   16.14000      2.6999137E-08
   16.20000      2.7482381E-08
   16.26000      2.7992048E-08
   16.32000      2.8501702E-08
   16.38000      2.8991655E-08
   16.44000      2.9451540E-08
   16.50000      2.9880319E-08
   16.56000      3.0283694E-08
   16.62000      3.0669575E-08
   16.68000      3.1042536E-08
   16.74000      3.1398788E-08
   16.80000      3.1723030E-08
   16.86000      3.1988417E-08
   16.92000      3.2160354E-08
   16.98000      3.2203719E-08
   17.04000      3.2092164E-08
   17.10000      3.1817212E-08
   17.16000      3.1394293E-08
   17.22000      3.0863553E-08
   17.28000      3.0284312E-08
   17.34000      2.9724065E-08
   17.40000      2.9244793E-08
   17.46000      2.8890314E-08
   17.52000      2.8678583E-08
   17.58000      2.8601256E-08
   17.64000      2.8630643E-08
   17.70000      2.8731614E-08
   17.76000      2.8874258E-08
   17.82000      2.9042727E-08
   17.88000      2.9236915E-08
   17.94000      2.9466159E-08
   18.00000      2.9737041E-08
   18.06000      3.0039615E-08
   18.12000      3.0337350E-08
   18.18000      3.0565040E-08
   18.24000      3.0636606E-08
   18.30000      3.0461397E-08
   18.36000      2.9964973E-08
   18.42000      2.9108550E-08
   18.48000      2.7901716E-08
   18.54000      2.6404813E-08
   18.60000      2.4720462E-08
   18.66000      2.2976687E-08
   18.72000      2.1306326E-08
   18.78000      1.9828063E-08
   18.84000      1.8633507E-08
   18.90000      1.7782499E-08
   18.96000      1.7306245E-08
   19.02000      1.7215594E-08
   19.08000      1.7510530E-08
   19.14000      1.8186935E-08
   19.20000      1.9238019E-08
   19.26000      2.0649706E-08
   19.32000      2.2391443E-08
   19.38000      2.4405658E-08
   19.44000      2.6599754E-08
   19.50000      2.8844370E-08
   19.56000      3.0980022E-08
   19.62000      3.2832208E-08
   19.68000      3.4232606E-08
   19.74000      3.5042060E-08
   19.80000      3.5170231E-08
   19.86000      3.4587273E-08
   19.92000      3.3324667E-08
   19.98000      3.1465255E-08
   20.04000      2.9125104E-08
   20.10000      2.6432053E-08
   20.16000      2.3506233E-08
   20.22000      2.0446949E-08
   20.28000      1.7327942E-08
   20.34000      1.4200339E-08
   20.40000      1.1100275E-08
   20.46000      8.0571398E-09
   20.52000      5.0988205E-09
   20.58000      2.2521254E-09
   20.64000     -4.6125578E-10
   20.70000     -3.0309064E-09
   20.76000     -5.4627525E-09
   20.82000     -7.7802573E-09
   20.88000     -1.0020441E-08
   20.94000     -1.2225377E-08
   21.00000     -1.4431492E-08
   21.06000     -1.6659889E-08
   21.12000     -1.8910686E-08
   21.18000     -2.1163251E-08
   21.24000     -2.3382526E-08
   21.30000     -2.5529863E-08
   21.36000     -2.7575409E-08
   21.42000     -2.9508554E-08
   21.48000     -3.1343163E-08
   21.54000     -3.3115697E-08
   21.60000     -3.4876248E-08
   21.66000     -3.6674631E-08
   21.72000     -3.8545423E-08
   21.78000     -4.0496417E-08
   21.84000     -4.2504109E-08
   21.90000     -4.4517705E-08
   21.96000     -4.6470412E-08
   22.02000     -4.8294318E-08
   22.08000     -4.9934094E-08
   22.14000     -5.1355368E-08
   22.20000     -5.2545698E-08
   22.26000     -5.3508959E-08
   22.32000     -5.4256262E-08
   22.38000     -5.4797468E-08
   22.44000     -5.5136745E-08
   22.50000     -5.5273450E-08
   22.56000     -5.5207387E-08
   22.62000     -5.4945495E-08
   22.68000     -5.4506561E-08
   22.74000     -5.3921482E-08
   22.80000     -5.3228376E-08
   22.86000     -5.2464074E-08
   22.92000     -5.1655039E-08
   22.98000     -5.0811170E-08
   23.04000     -4.9925180E-08
   23.10000     -4.8978212E-08
   23.16000     -4.7950305E-08
   23.22000     -4.6832216E-08
   23.28000     -4.5634476E-08
   23.34000     -4.4390145E-08
   23.40000     -4.3149878E-08
   23.46000     -4.1970619E-08
   23.52000     -4.0901778E-08
   23.58000     -3.9973973E-08
   23.64000     -3.9194632E-08
   23.70000     -3.8552354E-08
   23.76000     -3.8028485E-08
   23.82000     -3.7611400E-08
   23.88000     -3.7307800E-08
   23.94000     -3.7146034E-08
   24.00000     -3.7169642E-08
   24.06000     -3.7422812E-08
   24.12000     -3.7932644E-08
   24.18000     -3.8694463E-08
   24.24000     -3.9665395E-08
   24.30000     -4.0768782E-08
   24.36000     -4.1908361E-08
   24.42000     -4.2988091E-08
   24.48000     -4.3932019E-08
   24.54000     -4.4698556E-08
   24.60000     -4.5285439E-08
   24.66000     -4.5724303E-08
   24.72000     -4.6066646E-08
   24.78000     -4.6365354E-08
   24.84000     -4.6656865E-08
   24.90000     -4.6949157E-08
   24.96000     -4.7219004E-08
   25.02000     -4.7419391E-08
   25.08000     -4.7495032E-08
   25.14000     -4.7401414E-08
   25.20000     -4.7121301E-08
   25.26000     -4.6673289E-08
   25.32000     -4.6109214E-08
   25.38000     -4.5500684E-08
   25.44000     -4.4918604E-08
   25.50000     -4.4412182E-08
   25.56000     -4.3994241E-08
   25.62000     -4.3637733E-08
   25.68000     -4.3285020E-08
   25.74000     -4.2866983E-08
   25.80000     -4.2326018E-08
   25.86000     -4.1635438E-08
   25.92000     -4.0808978E-08
   25.98000     -3.9897252E-08
   26.04000     -3.8972168E-08
   26.10000     -3.8104119E-08
   26.16000     -3.7339209E-08
   26.22000     -3.6683687E-08
   26.28000     -3.6100790E-08
   26.34000     -3.5521307E-08
   26.40000     -3.4865053E-08
   26.46000     -3.4066908E-08
   26.52000     -3.3099393E-08
   26.58000     -3.1984523E-08
   26.64000     -3.0790623E-08
   26.70000     -2.9614238E-08
   26.76000     -2.8552163E-08
   26.82000     -2.7671915E-08
   26.88000     -2.6990095E-08
   26.94000     -2.6466010E-08
   27.00000     -2.6013351E-08
   27.06000     -2.5526974E-08
   27.12000     -2.4916623E-08
   27.18000     -2.4136959E-08
   27.24000     -2.3203960E-08
   27.30000     -2.2192081E-08
   27.36000     -2.1212685E-08
   27.42000     -2.0380412E-08
   27.48000     -1.9778119E-08
   27.54000     -1.9431527E-08
   27.60000     -1.9301604E-08
   27.66000     -1.9296982E-08
   27.72000     -1.9302426E-08
   27.78000     -1.9214360E-08
   27.84000     -1.8972404E-08
   27.90000     -1.8577280E-08
   27.96000     -1.8089796E-08
   28.02000     -1.7611400E-08
   28.08000     -1.7252463E-08
   28.14000     -1.7097868E-08
   28.20000     -1.7180202E-08
   28.26000     -1.7468270E-08
   28.32000     -1.7873930E-08
   28.38000     -1.8274767E-08
   28.44000     -1.8545594E-08
   28.50000     -1.8589487E-08
   28.56000     -1.8359716E-08
   28.62000     -1.7866979E-08
   28.68000     -1.7171107E-08
   28.74000     -1.6360758E-08
   28.80000     -1.5527950E-08
   28.86000     -1.4745118E-08
   28.92000     -1.4050986E-08
   28.98000     -1.3448428E-08
   29.04000     -1.2913606E-08
   29.10000     -1.2412391E-08
   29.16000     -1.1918079E-08
   29.22000     -1.1424439E-08
   29.28000     -1.0949869E-08
   29.34000     -1.0531498E-08
   29.40000     -1.0211445E-08
   29.46000     -1.0020112E-08
   29.52000     -9.9625970E-09
   29.58000     -1.0013509E-08
   29.64000     -1.0122879E-08
   29.70000     -1.0232197E-08
   29.76000     -1.0295931E-08
   29.82000     -1.0301579E-08
   29.88000     -1.0281077E-08
   29.94000     -1.0308733E-08
   30.00000     -1.0484987E-08
   30.06000     -1.0910107E-08
   30.12000     -1.1655604E-08
   30.18000     -1.2742532E-08
   30.24000     -1.4134020E-08
   30.30000     -1.5745044E-08
   30.36000     -1.7466776E-08
   30.42000     -1.9197921E-08
   30.48000     -2.0872974E-08
   30.54000     -2.2478226E-08
   30.60000     -2.4050395E-08
   30.66000     -2.5658627E-08
   30.72000     -2.7376048E-08
   30.78000     -2.9250447E-08
   30.84000     -3.1283680E-08
   30.90000     -3.3426151E-08
   30.96000     -3.5587600E-08
   31.02000     -3.7660168E-08
   31.08000     -3.9545998E-08
   31.14000     -4.1180890E-08
   31.20000     -4.2547377E-08
   31.26000     -4.3674522E-08
   31.32000     -4.4625931E-08
   31.38000     -4.5480878E-08
   31.44000     -4.6314650E-08
   31.50000     -4.7183644E-08
   31.56000     -4.8118213E-08
   31.62000     -4.9123528E-08
   31.68000     -5.0186006E-08
   31.74000     -5.1281855E-08
   31.80000     -5.2384099E-08
   31.86000     -5.3466060E-08
   31.92000     -5.4501037E-08
   31.98000     -5.5459552E-08
   32.04000     -5.6306575E-08
   32.10000     -5.7000996E-08
   32.16000     -5.7498557E-08
   32.22000     -5.7758065E-08
   32.28000     -5.7749311E-08
   32.34000     -5.7460323E-08
   32.40000     -5.6901573E-08
   32.46000     -5.6105581E-08
   32.52000     -5.5121603E-08
   32.58000     -5.4006730E-08
   32.64000     -5.2815647E-08
   32.70000     -5.1592156E-08
   32.76000     -5.0365031E-08
   32.82000     -4.9149623E-08
   32.88000     -4.7954988E-08
   32.94000     -4.6794156E-08
   33.00000     -4.5693902E-08
   33.06000     -4.4699984E-08
   33.12000     -4.3874763E-08
   33.18000     -4.3286580E-08
   33.24000     -4.2992848E-08
   33.30000     -4.3021593E-08
   33.36000     -4.3357129E-08
   33.42000     -4.3934925E-08
   33.48000     -4.4648161E-08
   33.54000     -4.5364914E-08
   33.60000     -4.5951506E-08
   33.66000     -4.6295479E-08
   33.72000     -4.6321698E-08
   33.78000     -4.5997428E-08
   33.84000     -4.5325731E-08
   33.90000     -4.4330378E-08
   33.96000     -4.3037986E-08
   34.02000     -4.1463633E-08
   34.08000     -3.9604611E-08
   34.14000     -3.7443680E-08
   34.20000     -3.4959932E-08
   34.26000     -3.2142630E-08
   34.32000     -2.9002733E-08
   34.38000     -2.5577851E-08
   34.44000     -2.1928873E-08
   34.50000     -1.8129541E-08
   34.56000     -1.4252501E-08
   34.62000     -1.0356468E-08
   34.68000     -6.4786567E-09
   34.74000     -2.6348732E-09
   34.80000      1.1727833E-09
   34.86000      4.9429554E-09
   34.92000      8.6608143E-09
   34.98000      1.2287065E-08
   35.04000      1.5753850E-08
   35.10000      1.8969342E-08
   35.16000      2.1830269E-08
   35.22000      2.4239283E-08
   35.28000      2.6122308E-08
   35.34000      2.7440869E-08
   35.40000      2.8195654E-08
   35.46000      2.8420125E-08
   35.52000      2.8166188E-08
   35.58000      2.7486468E-08
   35.64000      2.6419073E-08
   35.70000      2.4979938E-08
   35.76000      2.3165578E-08
   35.82000      2.0965448E-08
   35.88000      1.8379803E-08
   35.94000      1.5436797E-08
   36.00000      1.2202451E-08
   36.06000      8.7792680E-09
   36.12000      5.2928999E-09
   36.18000      1.8704922E-09
   36.24000     -1.3826862E-09
   36.30000     -4.4006945E-09
   36.36000     -7.1625865E-09
   36.42000     -9.6843289E-09
   36.48000     -1.1999825E-08
   36.54000     -1.4137960E-08
   36.60000     -1.6104194E-08
   36.66000     -1.7873841E-08
   36.72000     -1.9400010E-08
   36.78000     -2.0633689E-08
   36.84000     -2.1548738E-08
   36.90000     -2.2162265E-08
   36.96000     -2.2541981E-08
   37.02000     -2.2796362E-08
   37.08000     -2.3049333E-08
   37.14000     -2.3406573E-08
   37.20000     -2.3923770E-08
   37.26000     -2.4586887E-08
   37.32000     -2.5311010E-08
   37.38000     -2.5958782E-08
   37.44000     -2.6373577E-08
   37.50000     -2.6418189E-08
   37.56000     -2.6008339E-08
   37.62000     -2.5131905E-08
   37.68000     -2.3849021E-08
   37.74000     -2.2273611E-08
   37.80000     -2.0542188E-08
   37.86000     -1.8778966E-08
   37.92000     -1.7067132E-08
   37.98000     -1.5433999E-08
   38.04000     -1.3853437E-08
   38.10000     -1.2263882E-08
   38.16000     -1.0595691E-08
   38.22000     -8.7989500E-09
   38.28000     -6.8630110E-09
   38.34000     -4.8217506E-09
   38.40000     -2.7431939E-09
   38.46000     -7.0716444E-10
   38.52000      1.2214146E-09
   38.58000      3.0144509E-09
   38.64000      4.6901096E-09
   38.70000      6.3059886E-09
   38.76000      7.9376310E-09
   38.82000      9.6489865E-09
   38.88000      1.1464484E-08
   38.94000      1.3352340E-08
   39.00000      1.5225556E-08
   39.06000      1.6961527E-08
   39.12000      1.8435157E-08
   39.18000      1.9555687E-08
   39.24000      2.0295795E-08
   39.30000      2.0703490E-08
   39.36000      2.0892452E-08
   39.42000      2.1013237E-08
   39.48000      2.1213749E-08
   39.54000      2.1600972E-08
   39.60000      2.2215593E-08
   39.66000      2.3027063E-08
   39.72000      2.3950058E-08
   39.78000      2.4876538E-08
   39.84000      2.5712605E-08
   39.90000      2.6408195E-08
   39.96000      2.6970206E-08
   40.02000      2.7455474E-08
   40.08000      2.7946847E-08
   40.14000      2.8521105E-08
   40.20000      2.9220068E-08
   40.26000      3.0034705E-08
   40.32000      3.0907394E-08
   40.38000      3.1751089E-08
   40.44000      3.2478365E-08
   40.50000      3.3030037E-08
   40.56000      3.3393540E-08
   40.62000      3.3604806E-08
   40.68000      3.3733276E-08
   40.74000      3.3855276E-08
   40.80000      3.4024691E-08
   40.86000      3.4250633E-08
   40.92000      3.4489066E-08
   40.98000      3.4650785E-08
   41.04000      3.4622797E-08
   41.10000      3.4296328E-08
   41.16000      3.3592958E-08
   41.22000      3.2481395E-08
   41.28000      3.0980747E-08
   41.34000      2.9150035E-08
   41.40000      2.7067802E-08
   41.46000      2.4808068E-08
   41.52000      2.2419723E-08
   41.58000      1.9915124E-08
   41.64000      1.7271111E-08
   41.70000      1.4441977E-08
   41.76000      1.1380608E-08
   41.82000      8.0614555E-09
   41.88000      4.4983008E-09
   41.94000      7.5096929E-10
   42.00000     -3.0816680E-09
   42.06000     -6.8809842E-09
   42.12000     -1.0534785E-08
   42.18000     -1.3962620E-08
   42.24000     -1.7132438E-08
   42.30000     -2.0063379E-08
   42.36000     -2.2813898E-08
   42.42000     -2.5459160E-08
   42.48000     -2.8065035E-08
   42.54000     -3.0667156E-08
   42.60000     -3.3261404E-08
   42.66000     -3.5808277E-08
   42.72000     -3.8248558E-08
   42.78000     -4.0524050E-08
   42.84000     -4.2595538E-08
   42.90000     -4.4451635E-08
   42.96000     -4.6106006E-08
   43.02000     -4.7584994E-08
   43.08000     -4.8911470E-08
   43.14000     -5.0091881E-08
   43.20000     -5.1111755E-08
   43.26000     -5.1941086E-08
   43.32000     -5.2546206E-08
   43.38000     -5.2901736E-08
   43.44000     -5.2995638E-08
   43.50000     -5.2823200E-08
   43.56000     -5.2370517E-08
   43.62000     -5.1592885E-08
   43.68000     -5.0396327E-08
   43.74000     -4.8629865E-08
   43.80000     -4.6092278E-08
   43.86000     -4.2551438E-08
   43.92000     -3.7768864E-08
   43.98000     -3.1519573E-08
   44.04000     -2.3598307E-08
   44.10000     -1.3807576E-08
   44.16000     -1.9290629E-09
   44.22000      1.2314549E-08
   44.28000      2.9297551E-08
   44.34000      4.9519954E-08
   44.40000      7.3622012E-08
   44.46000      1.0238525E-07
   44.52000      1.3672575E-07
   44.58000      1.7768849E-07
   44.64000      2.2645126E-07
   44.70000      2.8434326E-07
   44.76000      3.5287954E-07
   44.82000      4.3380697E-07
   44.88000      5.2915550E-07
   44.94000      6.4128790E-07
   45.00000      7.7294294E-07
   45.06000      9.2727191E-07
   45.12000      1.1078706E-06
   45.18000      1.3188140E-06
   45.24000      1.5646987E-06
   45.30000      1.8506994E-06
   45.36000      2.1826411E-06
   45.42000      2.5670854E-06
   45.48000      3.0114268E-06
   45.54000      3.5239923E-06
   45.60000      4.1141393E-06
   45.66000      4.7923500E-06
   45.72000      5.5703213E-06
   45.78000      6.4610522E-06
   45.84000      7.4789373E-06
   45.90000      8.6398668E-06
   45.96000      9.9613389E-06
   46.02000      1.1462587E-05
   46.08000      1.3164704E-05
   46.14000      1.5090781E-05
   46.20000      1.7266026E-05
   46.26000      1.9717882E-05
   46.32000      2.2476106E-05
   46.38000      2.5572863E-05
   46.44000      2.9042782E-05
   46.50000      3.2923017E-05
   46.56000      3.7253292E-05
   46.62000      4.2075968E-05
   46.68000      4.7436075E-05
   46.74000      5.3381333E-05
   46.80000      5.9962164E-05
   46.86000      6.7231624E-05
   46.92000      7.5245356E-05
   46.98000      8.4061416E-05
   47.04000      9.3740135E-05
   47.10000      1.0434389E-04
   47.16000      1.1593687E-04
   47.22000      1.2858483E-04
   47.28000      1.4235471E-04
   47.34000      1.5731441E-04
   47.40000      1.7353235E-04
   47.46000      1.9107701E-04
   47.52000      2.1001650E-04
   47.58000      2.3041798E-04
   47.64000      2.5234706E-04
   47.70000      2.7586721E-04
   47.76000      3.0103908E-04
   47.82000      3.2791976E-04
   47.88000      3.5656214E-04
   47.94000      3.8701433E-04
   48.00000      4.1931868E-04
   48.06000      4.5351128E-04
   48.12000      4.8962107E-04
   48.18000      5.2766927E-04
   48.24000      5.6766841E-04
   48.30000      6.0962193E-04
   48.36000      6.5352337E-04
   48.42000      6.9935585E-04
   48.48000      7.4709160E-04
   48.54000      7.9669151E-04
   48.60000      8.4810489E-04
   48.66000      9.0126909E-04
   48.72000      9.5610978E-04
   48.78000      1.0125401E-03
   48.84000      1.0704618E-03
   48.90000      1.1297644E-03
   48.96000      1.1903263E-03
   49.02000      1.2520145E-03
   49.08000      1.3146865E-03
   49.14000      1.3781893E-03
   49.20000      1.4423619E-03
   49.26000      1.5070356E-03
   49.32000      1.5720351E-03
   49.38000      1.6371803E-03
   49.44000      1.7022869E-03
   49.50000      1.7671683E-03
   49.56000      1.8316366E-03
   49.62000      1.8955052E-03
   49.68000      1.9585893E-03
   49.74000      2.0207083E-03
   49.80000      2.0816871E-03
   49.86000      2.1413583E-03
   49.92000      2.1995634E-03
   49.98000      2.2561543E-03
   50.04000      2.3109948E-03
   50.10000      2.3639621E-03
   50.16000      2.4149476E-03
   50.22000      2.4638586E-03
   50.28000      2.5106189E-03
   50.34000      2.5551696E-03
   50.40000      2.5974701E-03
   50.46000      2.6374974E-03
   50.52000      2.6752476E-03
   50.58000      2.7107352E-03
   50.64000      2.7439920E-03
   50.70000      2.7750684E-03
   50.76000      2.8040314E-03
   50.82000      2.8309629E-03
   50.88000      2.8559610E-03
   50.94000      2.8791358E-03
   51.00000      2.9006097E-03
   51.06000      2.9205158E-03
   51.12000      2.9389954E-03
   51.18000      2.9561964E-03
   51.24000      2.9722715E-03
   51.30000      2.9873755E-03
   51.36000      3.0016638E-03
   51.42000      3.0152902E-03
   51.48000      3.0284047E-03
   51.54000      3.0411514E-03
   51.60000      3.0536673E-03
   51.66000      3.0660799E-03
   51.72000      3.0785059E-03
   51.78000      3.0910494E-03
   51.84000      3.1038013E-03
   51.90000      3.1168365E-03
   51.96000      3.1302162E-03
   52.02000      3.1439837E-03
   52.08000      3.1581668E-03
   52.14000      3.1727762E-03
   52.20000      3.1878061E-03
   52.26000      3.2032351E-03
   52.32000      3.2190257E-03
   52.38000      3.2351259E-03
   52.44000      3.2514711E-03
   52.50000      3.2679837E-03
   52.56000      3.2845768E-03
   52.62000      3.3011534E-03
   52.68000      3.3176099E-03
   52.74000      3.3338366E-03
   52.80000      3.3497203E-03
   52.86000      3.3651467E-03
   52.92000      3.3800011E-03
   52.98000      3.3941725E-03
   53.04000      3.4075535E-03
   53.10000      3.4200440E-03
   53.16000      3.4315512E-03
   53.22000      3.4419918E-03
   53.28000      3.4512936E-03
   53.34000      3.4593956E-03
   53.40000      3.4662504E-03
   53.46000      3.4718236E-03
   53.52000      3.4760966E-03
   53.58000      3.4790642E-03
   53.64000      3.4807371E-03
   53.70000      3.4811397E-03
   53.76000      3.4803115E-03
   53.82000      3.4783043E-03
   53.88000      3.4751832E-03
   53.94000      3.4710241E-03
   54.00000      3.4659128E-03
   54.06000      3.4599444E-03
   54.12000      3.4532205E-03
   54.18000      3.4458484E-03
   54.24000      3.4379382E-03
   54.30000      3.4296031E-03
   54.36000      3.4209548E-03
   54.42000      3.4121030E-03
   54.48000      3.4031540E-03
   54.54000      3.3942070E-03
   54.60000      3.3853536E-03
   54.66000      3.3766767E-03
   54.72000      3.3682485E-03
   54.78000      3.3601297E-03
   54.84000      3.3523671E-03
   54.90000      3.3449943E-03
   54.96000      3.3380294E-03
   55.02000      3.3314750E-03
   55.08000      3.3253187E-03
   55.14000      3.3195326E-03
   55.20000      3.3140744E-03
   55.26000      3.3088860E-03
   55.32000      3.3038966E-03
   55.38000      3.2990221E-03
   55.44000      3.2941659E-03
   55.50000      3.2892211E-03
   55.56000      3.2840702E-03