  -2.400000      0.0000000E+00
  -2.340000      0.0000000E+00
  -2.280000      0.0000000E+00
  -2.220000      0.0000000E+00
  -2.160000      0.0000000E+00
  -2.100000      0.0000000E+00
  -2.040000      0.0000000E+00
  -1.980000      0.0000000E+00
  -1.920000      0.0000000E+00
  -1.860000      0.0000000E+00
  -1.800000      0.0000000E+00
  -1.740000      3.5739319E-32
  -1.680000      6.1341273E-31
  -1.620000      5.0657118E-30
  -1.560000      2.6758850E-29
  -1.500000      1.0082054E-28
  -1.440000      2.8184824E-28
  -1.380000      5.5948366E-28
  -1.320000      5.0014114E-28
  -1.260000     -1.8354675E-27
  -1.200000     -1.2267619E-26
  -1.140000     -4.3008958E-26
  -1.080000     -1.0673394E-25
  -1.020000     -1.7890689E-25
 -0.9600000     -9.8853762E-26
 -0.9000000      5.6649457E-25
 -0.8400000      2.4925721E-24
 -0.7800000      5.9262907E-24
 -0.7200000      8.8734482E-24
 -0.6600000      4.5523483E-24
 -0.6000000     -1.9117528E-23
 -0.5400000     -7.2391960E-23
 -0.4800000     -1.4383902E-22
 -0.4200000     -1.7211728E-22
 -0.3600000     -3.4191545E-23
 -0.3000000      4.0480083E-22
 -0.2400000      1.1428144E-21
 -0.1800000      1.8251847E-21
 -0.1200000      1.6234461E-21
 -5.9999999E-02 -5.1797304E-22
  0.0000000E+00 -5.0578209E-21
  5.9999999E-02 -1.0631200E-20
  0.1200000     -1.3240417E-20
  0.1800000     -7.1737061E-21
  0.2400000      1.1405294E-20
  0.3000000      3.8981571E-20
  0.3600000      6.0763111E-20
  0.4200000      5.3506537E-20
  0.4800000     -1.4196647E-21
  0.5400000     -9.7860759E-20
  0.6000000     -1.9003446E-19
  0.6600000     -2.0082114E-19
  0.7200000     -6.4088422E-20
  0.7800000      2.1040911E-19
  0.8400000      4.9003901E-19
  0.9000000      5.4482804E-19
  0.9600000      1.7575268E-19
   1.020000     -5.9252550E-19
   1.080000     -1.3755276E-18
   1.140000     -1.5047323E-18
   1.200000     -3.9457485E-19
   1.260000      1.9126976E-18
   1.320000      4.3582310E-18
   1.380000      5.0495145E-18
   1.440000      2.2230208E-18
   1.500000     -4.3033604E-18
   1.560000     -1.2031547E-17
   1.620000     -1.6082486E-17
   1.680000     -1.1437864E-17
   1.740000      3.5122370E-18
   1.800000      2.4057011E-17
   1.860000      3.9327942E-17
   1.920000      3.6905219E-17
   1.980000      1.0650415E-17
   2.040000     -3.2336250E-17
   2.100000     -7.0939750E-17
   2.160000     -7.8652588E-17
   2.220000     -3.9526137E-17
   2.280000      3.6659004E-17
   2.340000      1.1092290E-16
   2.400000      1.3052101E-16
   2.460000      6.0260922E-17
   2.520000     -8.5504164E-17
   2.580000     -2.3191251E-16
   2.640000     -2.6962226E-16
   2.700000     -1.1514797E-16
   2.760000      2.2096691E-16
   2.820000      5.9971727E-16
   2.880000      7.8815728E-16
   2.940000      5.6713795E-16
   3.000000     -1.2750388E-16
   3.060000     -1.1039908E-15
   3.120000     -1.9276551E-15
   3.180000     -2.0781238E-15
   3.240000     -1.2069533E-15
   3.300000      6.1724503E-16
   3.360000      2.8132984E-15
   3.420000      4.4333400E-15
   3.480000      4.5359322E-15
   3.540000      2.6499735E-15
   3.600000     -8.8432484E-16
   3.660000     -4.8939556E-15
   3.720000     -7.7472208E-15
   3.780000     -8.0181274E-15
   3.840000     -5.1737132E-15
   3.900000      4.2113244E-17
   3.960000      5.7638746E-15
   4.020000      9.7123618E-15
   4.080000      1.0199894E-14
   4.140000      6.9859191E-15
   4.200000      1.5301490E-15
   4.260000     -3.5879718E-15
   4.320000     -5.9278034E-15
   4.380000     -4.5763975E-15
   4.440000     -9.2603073E-16
   4.500000      1.7436146E-15
   4.560000     -5.6705296E-17
   4.620000     -7.7209103E-15
   4.680000     -1.8790220E-14
   4.740000     -2.6956151E-14
   4.800000     -2.4402003E-14
   4.860000     -5.9106573E-15
   4.920000      2.7005784E-14
   4.980000      6.4247171E-14
   5.040000      8.9273729E-14
   5.100000      8.5341869E-14
   5.160000      4.3763150E-14
   5.220000     -2.9481409E-14
   5.280000     -1.1251384E-13
   5.340000     -1.7361901E-13
   5.400000     -1.8327507E-13
   5.460000     -1.2762142E-13
   5.520000     -1.7263104E-14
   5.580000      1.1351875E-13
   5.640000      2.1827753E-13
   5.700000      2.5680003E-13
   5.760000      2.1272601E-13
   5.820000      1.0208332E-13
   5.880000     -3.2235590E-14
   5.940000     -1.3882314E-13
   6.000000     -1.8129881E-13
   6.060000     -1.5596241E-13
   6.120000     -9.4097195E-14
   6.180000     -4.6039432E-14
   6.240000     -5.3075735E-14
   6.300000     -1.2039974E-13
   6.360000     -2.0589787E-13
   6.420000     -2.3380514E-13
   6.480000     -1.3098950E-13
   6.540000      1.2849511E-13
   6.600000      4.9204293E-13
   6.660000      8.2952877E-13
   6.720000      9.7386357E-13
   6.780000      7.9042762E-13
   6.840000      2.4875506E-13
   6.900000     -5.3653322E-13
   6.960000     -1.3207594E-12
   7.020000     -1.8046862E-12
   7.080000     -1.7486653E-12
   7.140000     -1.0826398E-12
   7.200000      3.6235602E-14
   7.260000      1.2516632E-12
   7.320000      2.1234683E-12
   7.380000      2.2943635E-12
   7.440000      1.6453979E-12
   7.500000      3.7351884E-13
   7.560000     -1.0510041E-12
   7.620000     -2.0441793E-12
   7.680000     -2.1326573E-12
   7.740000     -1.1585995E-12
   7.800000      6.1862071E-13
   7.860000      2.5719990E-12
   7.920000      3.8984497E-12
   7.980000      3.8873874E-12
   8.040000      2.1715921E-12
   8.100000     -1.1254098E-12
   8.160000     -5.3880702E-12
   8.220000     -9.6394316E-12
   8.280000     -1.2745517E-11
   8.340000     -1.3624062E-11
   8.400000     -1.1412054E-11
   8.460000     -5.5897544E-12
   8.520000      3.9052065E-12
   8.580000      1.6534848E-11
   8.640000      3.0983861E-11
   8.700000      4.5003171E-11
   8.760000      5.5385578E-11
   8.820000      5.8206075E-11
   8.880000      4.9423025E-11
   8.940000      2.5841052E-11
   9.000000     -1.3695158E-11
   9.060000     -6.7135006E-11
   9.120000     -1.2842259E-10
   9.180000     -1.8739782E-10
   9.240000     -2.3063015E-10
   9.300000     -2.4323152E-10
   9.360000     -2.1146866E-10
   9.420000     -1.2578559E-10
   9.480000      1.6286446E-11
   9.540000      2.0787015E-10
   9.600000      4.3156939E-10
   9.660000      6.5961997E-10
   9.720000      8.5537538E-10
   9.780000      9.7594510E-10
   9.840000      9.7569430E-10
   9.900000      8.1029322E-10
   9.960000      4.4105056E-10
   10.02000     -1.6069361E-10
   10.08000     -1.0093469E-09
   10.14000     -2.1013398E-09
   10.20000     -3.4123688E-09
   10.26000     -4.8962172E-09
   10.32000     -6.4857710E-09
   10.38000     -8.0966895E-09
   10.44000     -9.6337791E-09
   10.50000     -1.0999608E-08
   10.56000     -1.2104330E-08
   10.62000     -1.2875332E-08
   10.68000     -1.3265226E-08
   10.74000     -1.3256997E-08
   10.80000     -1.2865621E-08
   10.86000     -1.2136156E-08
   10.92000     -1.1138795E-08
   10.98000     -9.9617141E-09
   11.04000     -8.7026129E-09
   11.10000     -7.4596898E-09
   11.16000     -6.3227157E-09
   11.22000     -5.3648059E-09
   11.28000     -4.6356239E-09
   11.34000     -4.1568584E-09
   11.40000     -3.9208592E-09
   11.46000     -3.8930370E-09
   11.52000     -4.0180677E-09
   11.58000     -4.2291490E-09
   11.64000     -4.4587938E-09
   11.70000     -4.6491548E-09
   11.76000     -4.7598911E-09
   11.82000     -4.7721409E-09
   11.88000     -4.6881077E-09
   11.94000     -4.5268576E-09
   12.00000     -4.3177617E-09
   12.06000     -4.0934047E-09
   12.12000     -3.8835912E-09
   12.18000     -3.7114269E-09
   12.24000     -3.5916059E-09
   12.30000     -3.5303449E-09
   12.36000     -3.5260672E-09
   12.42000     -3.5700951E-09
   12.48000     -3.6470762E-09
   12.54000     -3.7354630E-09
   12.60000     -3.8087027E-09
   12.66000     -3.8377950E-09
   12.72000     -3.7954044E-09
   12.78000     -3.6610519E-09
   12.84000     -3.4262211E-09
   12.90000     -3.0978882E-09
   12.96000     -2.6991362E-09
   13.02000     -2.2661761E-09
   13.08000     -1.8420888E-09
   13.14000     -1.4686231E-09
   13.20000     -1.1780530E-09
   13.26000     -9.8719910E-10
   13.32000     -8.9514784E-10
   13.38000     -8.8512292E-10
   13.44000     -9.2974234E-10
   13.50000     -9.9793374E-10
   13.56000     -1.0614412E-09
   13.62000     -1.0992444E-09
   13.68000     -1.0991570E-09
   13.74000     -1.0569768E-09
   13.80000     -9.7437003E-10
   13.86000     -8.5683527E-10
   13.92000     -7.1259837E-10
   13.98000     -5.5238220E-10
   14.04000     -3.8917325E-10
   14.10000     -2.3681671E-10
   14.16000     -1.0673442E-10
   14.22000     -3.1174787E-12
   14.28000      8.1883604E-11
   14.34000      1.7077662E-10
   14.40000      2.9923228E-10
   14.46000      5.0981802E-10
   14.52000      8.4212726E-10
   14.58000      1.3221066E-09
   14.64000      1.9540698E-09
   14.70000      2.7182316E-09
   14.76000      3.5747627E-09
   14.82000      4.4730459E-09
   14.88000      5.3629776E-09
   14.94000      6.2045404E-09
   15.00000      6.9727495E-09
   15.06000      7.6570386E-09
   15.12000      8.2563609E-09
   15.18000      8.7727976E-09
   15.24000      9.2066834E-09
   15.30000      9.5552313E-09
   15.36000      9.8147579E-09
   15.42000      9.9849240E-09
   15.48000      1.0072414E-08
   15.54000      1.0091779E-08
   15.60000      1.0062431E-08
   15.66000      1.0002521E-08
   15.72000      9.9219317E-09
   15.78000      9.8171986E-09
   15.84000      9.6706501E-09
   15.90000      9.4546202E-09
   15.96000      9.1396775E-09
   16.02000      8.7042773E-09
   16.08000      8.1425569E-09
   16.14000      7.4674942E-09
   16.20000      6.7082193E-09
   16.26000      5.9023408E-09
   16.32000      5.0859117E-09
   16.38000      4.2845971E-09
   16.44000      3.5091277E-09
   16.50000      2.7565532E-09
   16.56000      2.0166129E-09
   16.62000      1.2806043E-09
   16.68000      5.4916988E-10
   16.74000     -1.6415608E-10
   16.80000     -8.3519613E-10
   16.86000     -1.4365217E-09
   16.92000     -1.9474100E-09
   16.98000     -2.3628424E-09
   17.04000     -2.6983751E-09
   17.10000     -2.9891760E-09
   17.16000     -3.2834839E-09
   17.22000     -3.6324566E-09
   17.28000     -4.0792667E-09
   17.34000     -4.6501678E-09
   17.40000     -5.3493197E-09
   17.46000     -6.1579062E-09
   17.52000     -7.0370287E-09
   17.58000     -7.9332914E-09
   17.64000     -8.7859648E-09
   17.70000     -9.5348360E-09
   17.76000     -1.0128042E-08
   17.82000     -1.0529144E-08
   17.88000     -1.0722438E-08
   17.94000     -1.0715349E-08
   18.00000     -1.0536879E-08
   18.06000     -1.0231821E-08
   18.12000     -9.8515534E-09
   18.18000     -9.4434265E-09
   18.24000     -9.0414760E-09
   18.30000     -8.6610692E-09
   18.36000     -8.2990130E-09
   18.42000     -7.9389517E-09
   18.48000     -7.5601143E-09
   18.54000     -7.1463124E-09
   18.60000     -6.6920118E-09
   18.66000     -6.2033436E-09
   18.72000     -5.6937481E-09
   18.78000     -5.1759725E-09
   18.84000     -4.6536450E-09
   18.90000     -4.1160741E-09
   18.96000     -3.5391015E-09
   19.02000     -2.8928833E-09
   19.08000     -2.1549496E-09
   19.14000     -1.3246041E-09
   19.20000     -4.3351436E-10
   19.26000      4.5218843E-10
   19.32000      1.2406906E-09
   19.38000      1.8330589E-09
   19.44000      2.1468951E-09
   19.50000      2.1380935E-09
   19.56000      1.8137055E-09
   19.62000      1.2314444E-09
   19.68000      4.8561588E-10
   19.74000     -3.1627054E-10
   19.80000     -1.0789329E-09
   19.86000     -1.7390904E-09
   19.92000     -2.2740922E-09
   19.98000     -2.6978997E-09
   20.04000     -3.0471095E-09
   20.10000     -3.3626184E-09
   20.16000     -3.6733132E-09
   20.22000     -3.9867611E-09
   20.28000     -4.2890651E-09
   20.34000     -4.5528590E-09
   20.40000     -4.7499271E-09
   20.46000     -4.8637938E-09
   20.52000     -4.8980029E-09
   20.58000     -4.8774513E-09
   20.64000     -4.8424873E-09
   20.70000     -4.8378186E-09
   20.76000     -4.8999431E-09
   20.82000     -5.0472848E-09
   20.88000     -5.2763749E-09
   20.94000     -5.5654370E-09
   21.00000     -5.8842278E-09
   21.06000     -6.2067733E-09
   21.12000     -6.5224581E-09
   21.18000     -6.8412902E-09
   21.24000     -7.1910171E-09
   21.30000     -7.6066033E-09
   21.36000     -8.1154301E-09
   21.42000     -8.7234024E-09
   21.48000     -9.4072474E-09
   21.54000     -1.0116405E-08
   21.60000     -1.0784678E-08
   21.66000     -1.1348311E-08
   21.72000     -1.1764623E-08
   21.78000     -1.2024915E-08
   21.84000     -1.2157121E-08
   21.90000     -1.2217241E-08
   21.96000     -1.2272485E-08
   22.02000     -1.2381975E-08
   22.08000     -1.2581626E-08
   22.14000     -1.2878213E-08
   22.20000     -1.3254209E-08
   22.26000     -1.3681022E-08
   22.32000     -1.4135202E-08
   22.38000     -1.4611141E-08
   22.44000     -1.5125039E-08
   22.50000     -1.5708210E-08
   22.56000     -1.6391729E-08
   22.62000     -1.7187862E-08
   22.68000     -1.8075255E-08
   22.74000     -1.8993955E-08
   22.80000     -1.9853202E-08
   22.86000     -2.0550594E-08
   22.92000     -2.0997172E-08
   22.98000     -2.1140666E-08
   23.04000     -2.0979488E-08
   23.10000     -2.0562887E-08
   23.16000     -1.9977243E-08
   23.22000     -1.9322899E-08
   23.28000     -1.8688855E-08
   23.34000     -1.8133047E-08
   23.40000     -1.7673566E-08
   23.46000     -1.7292383E-08
   23.52000     -1.6948880E-08
   23.58000     -1.6597712E-08
   23.64000     -1.6204737E-08
   23.70000     -1.5756351E-08
   23.76000     -1.5260419E-08
   23.82000     -1.4740213E-08
   23.88000     -1.4224952E-08
   23.94000     -1.3741150E-08
   24.00000     -1.3307877E-08
   24.06000     -1.2936980E-08
   24.12000     -1.2637010E-08
   24.18000     -1.2418076E-08
   24.24000     -1.2294557E-08
   24.30000     -1.2283563E-08
   24.36000     -1.2398961E-08
   24.42000     -1.2642804E-08
   24.48000     -1.2997465E-08
   24.54000     -1.3422013E-08
   24.60000     -1.3855310E-08
   24.66000     -1.4226083E-08
   24.72000     -1.4467798E-08
   24.78000     -1.4534227E-08
   24.84000     -1.4411039E-08
   24.90000     -1.4119697E-08
   24.96000     -1.3712244E-08
   25.02000     -1.3258343E-08
   25.08000     -1.2828244E-08
   25.14000     -1.2476544E-08
   25.20000     -1.2231213E-08
   25.26000     -1.2090732E-08
   25.32000     -1.2029727E-08
   25.38000     -1.2011091E-08
   25.44000     -1.2000798E-08
   25.50000     -1.1980959E-08
   25.56000     -1.1957272E-08
   25.62000     -1.1958716E-08
   25.68000     -1.2029741E-08
   25.74000     -1.2217427E-08
   25.80000     -1.2557739E-08
   25.86000     -1.3065212E-08
   25.92000     -1.3729355E-08
   25.98000     -1.4518755E-08
   26.04000     -1.5391350E-08
   26.10000     -1.6307171E-08
   26.16000     -1.7239044E-08
   26.22000     -1.8177529E-08
   26.28000     -1.9128315E-08
   26.34000     -2.0103194E-08
   26.40000     -2.1108045E-08
   26.46000     -2.2132527E-08
   26.52000     -2.3145649E-08
   26.58000     -2.4099332E-08
   26.64000     -2.4939045E-08
   26.70000     -2.5617902E-08
   26.76000     -2.6109236E-08
   26.82000     -2.6413124E-08
   26.88000     -2.6554636E-08
   26.94000     -2.6574659E-08
   27.00000     -2.6516839E-08
   27.06000     -2.6415467E-08
   27.12000     -2.6288452E-08
   27.18000     -2.6137394E-08
   27.24000     -2.5953918E-08
   27.30000     -2.5729113E-08
   27.36000     -2.5461890E-08
   27.42000     -2.5162642E-08
   27.48000     -2.4850529E-08
   27.54000     -2.4545280E-08
   27.60000     -2.4256684E-08
   27.66000     -2.3976090E-08
   27.72000     -2.3673776E-08
   27.78000     -2.3303951E-08
   27.84000     -2.2816245E-08
   27.90000     -2.2169729E-08
   27.96000     -2.1344224E-08
   28.02000     -2.0344311E-08
   28.08000     -1.9194260E-08
   28.14000     -1.7925625E-08
   28.20000     -1.6562504E-08
   28.26000     -1.5110453E-08
   28.32000     -1.3553962E-08
   28.38000     -1.1864040E-08
   28.44000     -1.0013600E-08
   28.50000     -7.9952942E-09
   28.56000     -5.8352638E-09
   28.62000     -3.5975298E-09
   28.68000     -1.3766653E-09
   28.74000      7.1979595E-10
   28.80000      2.5943971E-09
   28.86000      4.1814179E-09
   28.92000      5.4603868E-09
   28.98000      6.4568049E-09
   29.04000      7.2291968E-09
   29.10000      7.8459239E-09
   29.16000      8.3586924E-09
   29.22000      8.7811598E-09
   29.28000      9.0797334E-09
   29.34000      9.1799368E-09
   29.40000      8.9866834E-09
   29.46000      8.4122158E-09
   29.52000      7.4029374E-09
   29.58000      5.9567444E-09
   29.64000      4.1255896E-09
   29.70000      2.0027577E-09
   29.76000     -3.0088709E-10
   29.82000     -2.6841924E-09
   29.88000     -5.0782774E-09
   29.94000     -7.4579409E-09
   30.00000     -9.8392450E-09
   30.06000     -1.2265020E-08
   30.12000     -1.4783648E-08
   30.18000     -1.7428269E-08
   30.24000     -2.0202874E-08
   30.30000     -2.3079123E-08
   30.36000     -2.6003898E-08
   30.42000     -2.8914185E-08
   30.48000     -3.1753689E-08
   30.54000     -3.4485470E-08
   30.60000     -3.7096697E-08
   30.66000     -3.9594390E-08
   30.72000     -4.1994340E-08
   30.78000     -4.4307480E-08
   30.84000     -4.6528843E-08
   30.90000     -4.8633272E-08
   30.96000     -5.0579757E-08
   31.02000     -5.2322989E-08
   31.08000     -5.3828291E-08
   31.14000     -5.5084467E-08
   31.20000     -5.6109688E-08
   31.26000     -5.6947947E-08
   31.32000     -5.7656870E-08
   31.38000     -5.8290826E-08
   31.44000     -5.8885039E-08
   31.50000     -5.9445853E-08
   31.56000     -5.9950239E-08
   31.62000     -6.0354289E-08
   31.68000     -6.0607505E-08
   31.74000     -6.0668064E-08
   31.80000     -6.0514168E-08
   31.86000     -6.0148352E-08
   31.92000     -5.9594054E-08
   31.98000     -5.8886261E-08
   32.04000     -5.8060014E-08
   32.10000     -5.7140859E-08
   32.16000     -5.6140500E-08
   32.22000     -5.5058873E-08
   32.28000     -5.3891316E-08
   32.34000     -5.2637642E-08
   32.40000     -5.1309232E-08
   32.46000     -4.9931153E-08
   32.52000     -4.8538350E-08
   32.58000     -4.7167461E-08
   32.64000     -4.5847511E-08
   32.70000     -4.4593232E-08
   32.76000     -4.3403627E-08
   32.82000     -4.2266443E-08
   32.88000     -4.1166942E-08
   32.94000     -4.0097593E-08
   33.00000     -3.9064883E-08
   33.06000     -3.8090135E-08
   33.12000     -3.7203144E-08
   33.18000     -3.6429991E-08
   33.24000     -3.5778815E-08
   33.30000     -3.5228751E-08
   33.36000     -3.4726984E-08
   33.42000     -3.4196599E-08
   33.48000     -3.3554386E-08
   33.54000     -3.2733830E-08
   33.60000     -3.1706168E-08
   33.66000     -3.0492160E-08
   33.72000     -2.9159972E-08
   33.78000     -2.7808975E-08
   33.84000     -2.6544052E-08
   33.90000     -2.5448212E-08
   33.96000     -2.4562070E-08
   34.02000     -2.3876636E-08
   34.08000     -2.3341585E-08
   34.14000     -2.2886303E-08
   34.20000     -2.2446764E-08
   34.26000     -2.1989290E-08
   34.32000     -2.1522958E-08
   34.38000     -2.1096014E-08
   34.44000     -2.0777041E-08
   34.50000     -2.0627096E-08
   34.56000     -2.0672710E-08
   34.62000     -2.0889873E-08
   34.68000     -2.1205583E-08
   34.74000     -2.1517263E-08
   34.80000     -2.1723713E-08
   34.86000     -2.1756829E-08
   34.92000     -2.1602863E-08
   34.98000     -2.1305739E-08
   35.04000     -2.0951404E-08
   35.10000     -2.0638881E-08
   35.16000     -2.0448073E-08
   35.22000     -2.0415115E-08
   35.28000     -2.0523103E-08
   35.34000     -2.0710631E-08
   35.40000     -2.0894753E-08
   35.46000     -2.1000469E-08
   35.52000     -2.0987185E-08
   35.58000     -2.0863666E-08
   35.64000     -2.0686958E-08
   35.70000     -2.0545766E-08
   35.76000     -2.0533765E-08
   35.82000     -2.0721384E-08
   35.88000     -2.1135092E-08
   35.94000     -2.1750553E-08
   36.00000     -2.2501405E-08
   36.06000     -2.3300226E-08
   36.12000     -2.4064244E-08
   36.18000     -2.4737094E-08
   36.24000     -2.5299471E-08
   36.30000     -2.5765637E-08
   36.36000     -2.6167726E-08
   36.42000     -2.6534050E-08
   36.48000     -2.6869747E-08
   36.54000     -2.7147356E-08
   36.60000     -2.7311492E-08
   36.66000     -2.7296814E-08
   36.72000     -2.7053458E-08
   36.78000     -2.6570952E-08
   36.84000     -2.5891373E-08
   36.90000     -2.5105772E-08
   36.96000     -2.4333387E-08
   37.02000     -2.3689422E-08
   37.08000     -2.3251694E-08
   37.14000     -2.3037533E-08
   37.20000     -2.2999348E-08
   37.26000     -2.3041267E-08
   37.32000     -2.3051953E-08
   37.38000     -2.2943157E-08
   37.44000     -2.2681212E-08
   37.50000     -2.2300886E-08
   37.56000     -2.1896634E-08
   37.62000     -2.1593744E-08
   37.68000     -2.1508544E-08
   37.74000     -2.1710518E-08
   37.80000     -2.2198567E-08
   37.86000     -2.2899229E-08
   37.92000     -2.3687392E-08
   37.98000     -2.4422755E-08
   38.04000     -2.4990209E-08
   38.10000     -2.5331156E-08
   38.16000     -2.5456044E-08
   38.22000     -2.5434820E-08
   38.28000     -2.5369475E-08
   38.34000     -2.5358629E-08
   38.40000     -2.5466440E-08
   38.46000     -2.5706001E-08
   38.52000     -2.6042061E-08
   38.58000     -2.6410785E-08
   38.64000     -2.6748484E-08
   38.70000     -2.7018160E-08
   38.76000     -2.7223923E-08
   38.82000     -2.7408110E-08
   38.88000     -2.7632572E-08
   38.94000     -2.7951792E-08
   39.00000     -2.8388751E-08
   39.06000     -2.8923536E-08
   39.12000     -2.9499796E-08
   39.18000     -3.0047048E-08
   39.24000     -3.0510414E-08
   39.30000     -3.0876151E-08
   39.36000     -3.1182658E-08
   39.42000     -3.1511973E-08
   39.48000     -3.1964234E-08
   39.54000     -3.2623742E-08
   39.60000     -3.3528590E-08
   39.66000     -3.4654452E-08
   39.72000     -3.5918418E-08
   39.78000     -3.7201975E-08
   39.84000     -3.8386091E-08
   39.90000     -3.9387242E-08
   39.96000     -4.0182787E-08
   40.02000     -4.0817028E-08
   40.08000     -4.1385213E-08
   40.14000     -4.1999940E-08
   40.20000     -4.2750440E-08
   40.26000     -4.3668592E-08
   40.32000     -4.4714039E-08
   40.38000     -4.5784649E-08
   40.44000     -4.6749882E-08
   40.50000     -4.7496076E-08
   40.56000     -4.7967760E-08
   40.62000     -4.8190014E-08
   40.68000     -4.8263473E-08
   40.74000     -4.8333327E-08
   40.80000     -4.8542883E-08
   40.86000     -4.8987925E-08
   40.92000     -4.9687323E-08
   40.98000     -5.0579825E-08
   41.04000     -5.1547605E-08
   41.10000     -5.2458166E-08
   41.16000     -5.3210137E-08
   41.22000     -5.3767359E-08
   41.28000     -5.4169867E-08
   41.34000     -5.4518186E-08
   41.40000     -5.4936386E-08
   41.46000     -5.5526534E-08
   41.52000     -5.6329924E-08
   41.58000     -5.7308029E-08
   41.64000     -5.8349343E-08
   41.70000     -5.9299449E-08
   41.76000     -6.0004147E-08
   41.82000     -6.0351631E-08
   41.88000     -6.0300607E-08
   41.94000     -5.9886396E-08
   42.00000     -5.9204428E-08
   42.06000     -5.8377260E-08
   42.12000     -5.7516466E-08
   42.18000     -5.6691498E-08
   42.24000     -5.5915301E-08
   42.30000     -5.5150664E-08
   42.36000     -5.4334372E-08
   42.42000     -5.3409881E-08
   42.48000     -5.2356206E-08
   42.54000     -5.1201972E-08
   42.60000     -5.0019175E-08
   42.66000     -4.8899267E-08
   42.72000     -4.7921340E-08
   42.78000     -4.7125244E-08
   42.84000     -4.6500656E-08
   42.90000     -4.5996288E-08
   42.96000     -4.5545281E-08
   43.02000     -4.5096492E-08
   43.08000     -4.4639265E-08
   43.14000     -4.4212239E-08
   43.20000     -4.3893071E-08
   43.26000     -4.3772875E-08
   43.32000     -4.3924523E-08
   43.38000     -4.4375611E-08
   43.44000     -4.5095145E-08
   43.50000     -4.5998380E-08
   43.56000     -4.6968239E-08
   43.62000     -4.7886697E-08
   43.68000     -4.8666152E-08
   43.74000     -4.9270977E-08
   43.80000     -4.9722541E-08
   43.86000     -5.0086697E-08
   43.92000     -5.0448413E-08
   43.98000     -5.0882552E-08
   44.04000     -5.1430678E-08
   44.10000     -5.2091380E-08
   44.16000     -5.2826316E-08
   44.22000     -5.3578731E-08
   44.28000     -5.4296951E-08
   44.34000     -5.4953912E-08
   44.40000     -5.5555862E-08
   44.46000     -5.6137548E-08
   44.52000     -5.6746391E-08
   44.58000     -5.7422263E-08
   44.64000     -5.8180856E-08
   44.70000     -5.9007053E-08
   44.76000     -5.9860419E-08
   44.82000     -6.0690184E-08
   44.88000     -6.1453399E-08
   44.94000     -6.2129182E-08
   45.00000     -6.2724226E-08
   45.06000     -6.3268487E-08
   45.12000     -6.3804038E-08
   45.18000     -6.4371839E-08
   45.24000     -6.5001316E-08
   45.30000     -6.5705621E-08
   45.36000     -6.6483196E-08
   45.42000     -6.7324336E-08
   45.48000     -6.8220203E-08
   45.54000     -6.9171655E-08
   45.60000     -7.0195163E-08
   45.66000     -7.1324052E-08
   45.72000     -7.2604948E-08
   45.78000     -7.4091332E-08
   45.84000     -7.5837761E-08
   45.90000     -7.7898825E-08
   45.96000     -8.0335049E-08
   46.02000     -8.3224805E-08
   46.08000     -8.6678078E-08
   46.14000     -9.0846250E-08
   46.20000     -9.5923362E-08
   46.26000     -1.0213794E-07
   46.32000     -1.0973856E-07
   46.38000     -1.1897986E-07
   46.44000     -1.3011594E-07
   46.50000     -1.4340625E-07
   46.56000     -1.5913514E-07
   46.62000     -1.7764150E-07
   46.68000     -1.9935152E-07
   46.74000     -2.2480627E-07
   46.80000     -2.5467651E-07
   46.86000     -2.8976143E-07
   46.92000     -3.3097427E-07
   46.98000     -3.7932247E-07
   47.04000     -4.3589418E-07
   47.10000     -5.0186122E-07
   47.16000     -5.7850332E-07
   47.22000     -6.6725067E-07
   47.28000     -7.6973464E-07
   47.34000     -8.8783548E-07
   47.40000     -1.0237161E-06
   47.46000     -1.1798377E-06
   47.52000     -1.3589594E-06
   47.58000     -1.5641286E-06
   47.64000     -1.7986730E-06
   47.70000     -2.0662012E-06
   47.76000     -2.3706207E-06
   47.82000     -2.7161734E-06
   47.88000     -3.1074883E-06
   47.94000     -3.5496428E-06
   48.00000     -4.0482173E-06
   48.06000     -4.6093351E-06
   48.12000     -5.2396758E-06
   48.18000     -5.9464628E-06
   48.24000     -6.7374363E-06
   48.30000     -7.6208216E-06
   48.36000     -8.6053142E-06
   48.42000     -9.7000830E-06
   48.48000     -1.0914798E-05
   48.54000     -1.2259657E-05
   48.60000     -1.3745422E-05
   48.66000     -1.5383428E-05
   48.72000     -1.7185568E-05
   48.78000     -1.9164239E-05
   48.84000     -2.1332273E-05
   48.90000     -2.3702825E-05
   48.96000     -2.6289290E-05
   49.02000     -2.9105204E-05
   49.08000     -3.2164175E-05
   49.14000     -3.5479839E-05
   49.20000     -3.9065788E-05
   49.26000     -4.2935560E-05
   49.32000     -4.7102509E-05
   49.38000     -5.1579726E-05
   49.44000     -5.6379838E-05
   49.50000     -6.1514875E-05
   49.56000     -6.6996021E-05
   49.62000     -7.2833500E-05
   49.68000     -7.9036334E-05
   49.74000     -8.5612293E-05
   49.80000     -9.2567701E-05
   49.86000     -9.9907375E-05
   49.92000     -1.0763452E-04
   49.98000     -1.1575060E-04
   50.04000     -1.2425525E-04
   50.10000     -1.3314605E-04
   50.16000     -1.4241842E-04
   50.22000     -1.5206542E-04
   50.28000     -1.6207766E-04
   50.34000     -1.7244325E-04
   50.40000     -1.8314777E-04
   50.46000     -1.9417422E-04
   50.52000     -2.0550322E-04
   50.58000     -2.1711290E-04
   50.64000     -2.2897906E-04
   50.70000     -2.4107525E-04
   50.76000     -2.5337288E-04
   50.82000     -2.6584123E-04
   50.88000     -2.7844770E-04
   50.94000     -2.9115780E-04
   51.00000     -3.0393549E-04
   51.06000     -3.1674356E-04
   51.12000     -3.2954366E-04
   51.18000     -3.4229693E-04
   51.24000     -3.5496408E-04
   51.30000     -3.6750583E-04
   51.36000     -3.7988325E-04
   51.42000     -3.9205799E-04
   51.48000     -4.0399263E-04
   51.54000     -4.1565098E-04
   51.60000     -4.2699854E-04
   51.66000     -4.3800284E-04
   51.72000     -4.4863374E-04
   51.78000     -4.5886388E-04
   51.84000     -4.6866870E-04
   51.90000     -4.7802678E-04
   51.96000     -4.8692009E-04
   52.02000     -4.9533433E-04
   52.08000     -5.0325901E-04
   52.14000     -5.1068742E-04
   52.20000     -5.1761710E-04
   52.26000     -5.2404922E-04
   52.32000     -5.2998908E-04
   52.38000     -5.3544564E-04
   52.44000     -5.4043171E-04
   52.50000     -5.4496364E-04
   52.56000     -5.4906140E-04
   52.62000     -5.5274827E-04
   52.68000     -5.5605039E-04
   52.74000     -5.5899634E-04
   52.80000     -5.6161702E-04
   52.86000     -5.6394475E-04
   52.92000     -5.6601356E-04
   52.98000     -5.6785828E-04
   53.04000     -5.6951446E-04
   53.10000     -5.7101785E-04
   53.16000     -5.7240372E-04
   53.22000     -5.7370658E-04
   53.28000     -5.7495921E-04
   53.34000     -5.7619280E-04
   53.40000     -5.7743595E-04
   53.46000     -5.7871523E-04
   53.52000     -5.8005413E-04
   53.58000     -5.8147329E-04
   53.64000     -5.8298995E-04
   53.70000     -5.8461766E-04
   53.76000     -5.8636628E-04
   53.82000     -5.8824132E-04
   53.88000     -5.9024448E-04
   53.94000     -5.9237320E-04
   54.00000     -5.9462147E-04
   54.06000     -5.9697911E-04
   54.12000     -5.9943268E-04
   54.18000     -6.0196489E-04
   54.24000     -6.0455519E-04
   54.30000     -6.0718012E-04
   54.36000     -6.0981355E-04
   54.42000     -6.1242725E-04
   54.48000     -6.1499118E-04
   54.54000     -6.1747408E-04
   54.60000     -6.1984372E-04
   54.66000     -6.2206725E-04
   54.72000     -6.2411174E-04
   54.78000     -6.2594470E-04
   54.84000     -6.2753429E-04
   54.90000     -6.2885013E-04
   54.96000     -6.2986370E-04
   55.02000     -6.3054863E-04
   55.08000     -6.3088088E-04
   55.14000     -6.3083920E-04
   55.20000     -6.3040527E-04
   55.26000     -6.2956411E-04
   55.32000     -6.2830409E-04
   55.38000     -6.2661729E-04
   55.44000     -6.2449923E-04
   55.50000     -6.2194926E-04
   55.56000     -6.1897020E-04