  -2.400000      0.0000000E+00
  -2.340000      0.0000000E+00
  -2.280000      0.0000000E+00
  -2.220000      0.0000000E+00
  -2.160000      0.0000000E+00
  -2.100000      0.0000000E+00
  -2.040000      0.0000000E+00
  -1.980000      0.0000000E+00
  -1.920000      0.0000000E+00
  -1.860000      0.0000000E+00
  -1.800000      0.0000000E+00
  -1.740000      1.6959096E-31
  -1.680000      3.5849685E-30
  -1.620000      3.2874803E-29
  -1.560000      1.7517606E-28
  -1.500000      5.7378181E-28
  -1.440000      9.2550785E-28
  -1.380000     -1.3493440E-27
  -1.320000     -1.3849690E-26
  -1.260000     -4.6492254E-26
  -1.200000     -8.7160755E-26
  -1.140000     -4.1921088E-26
  -1.080000      3.2343487E-25
  -1.020000      1.2844666E-24
 -0.9600000      2.6441152E-24
 -0.9000000      2.7343966E-24
 -0.8400000     -2.3285235E-24
 -0.7800000     -1.7106999E-23
 -0.7200000     -4.0521257E-23
 -0.6600000     -5.5049219E-23
 -0.6000000     -1.9476644E-23
 -0.5400000      1.1728810E-22
 -0.4800000      3.6359846E-22
 -0.4200000      6.0004820E-22
 -0.3600000      5.2111313E-22
 -0.3000000     -2.8376541E-22
 -0.2400000     -2.0080837E-21
 -0.1800000     -4.1108380E-21
 -0.1200000     -4.9295061E-21
 -5.9999999E-02 -2.0020204E-21
  0.0000000E+00  6.4082239E-21
  5.9999999E-02  1.8789480E-20
  0.1200000      2.8292233E-20
  0.1800000      2.3536631E-20
  0.2400000     -5.5978204E-21
  0.3000000     -5.7844301E-20
  0.3600000     -1.1130579E-19
  0.4200000     -1.2405949E-19
  0.4800000     -5.2337194E-20
  0.5400000      1.1507465E-19
  0.6000000      3.2253794E-19
  0.6600000      4.4188955E-19
  0.7200000      3.2086147E-19
  0.7800000     -1.1534465E-19
  0.8400000     -7.5385751E-19
  0.9000000     -1.2560839E-18
  0.9600000     -1.1674620E-18
   1.020000     -1.8290682E-19
   1.080000      1.5384093E-18
   1.140000      3.2139691E-18
   1.200000      3.6385541E-18
   1.260000      1.7956836E-18
   1.320000     -2.3382278E-18
   1.380000     -7.2604604E-18
   1.440000     -1.0176409E-17
   1.500000     -8.2015338E-18
   1.560000     -1.6769484E-19
   1.620000      1.1879723E-17
   1.680000      2.2570644E-17
   1.740000      2.5090252E-17
   1.800000      1.4639663E-17
   1.860000     -8.0234559E-18
   1.920000     -3.4985690E-17
   1.980000     -5.3040551E-17
   2.040000     -4.9066528E-17
   2.100000     -1.7145115E-17
   2.160000      3.5685253E-17
   2.220000      8.8300888E-17
   2.280000      1.1105904E-16
   2.340000      7.7870803E-17
   2.400000     -1.8238313E-17
   2.460000     -1.5194563E-16
   2.520000     -2.6270076E-16
   2.580000     -2.6956580E-16
   2.640000     -1.0661208E-16
   2.700000      2.2855405E-16
   2.760000      6.3411576E-16
   2.820000      9.0210936E-16
   2.880000      7.8207595E-16
   2.940000      1.1144144E-16
   3.000000     -1.0303696E-15
   3.060000     -2.2301217E-15
   3.120000     -2.8076419E-15
   3.180000     -2.0881780E-15
   3.240000      1.8244859E-16
   3.300000      3.4693603E-15
   3.360000      6.3829468E-15
   3.420000      7.1036295E-15
   3.480000      4.2617866E-15
   3.540000     -2.0641151E-15
   3.600000     -9.7872548E-15
   3.660000     -1.5207242E-14
   3.720000     -1.4501024E-14
   3.780000     -5.8436045E-15
   3.840000      8.8547325E-15
   3.900000      2.3736699E-14
   3.960000      3.0943852E-14
   4.020000      2.4302080E-14
   4.080000      3.1967394E-15
   4.140000     -2.5482578E-14
   4.200000     -4.8959382E-14
   4.260000     -5.3826172E-14
   4.320000     -3.3004073E-14
   4.380000      8.9641768E-15
   4.440000      5.5565243E-14
   4.500000      8.4256163E-14
   4.560000      7.6928223E-14
   4.620000      3.0291938E-14
   4.680000     -3.9360744E-14
   4.740000     -1.0070772E-13
   4.800000     -1.2074539E-13
   4.860000     -8.1658225E-14
   4.920000      6.9474184E-15
   4.980000      1.0772919E-13
   5.040000      1.6964819E-13
   5.100000      1.5179931E-13
   5.160000      4.6582658E-14
   5.220000     -1.0977807E-13
   5.280000     -2.4704395E-13
   5.340000     -2.8981071E-13
   5.400000     -1.9430609E-13
   5.460000      2.3808068E-14
   5.520000      2.8590292E-13
   5.580000      4.7687245E-13
   5.640000      4.9357409E-13
   5.700000      2.9521866E-13
   5.760000     -6.8163099E-14
   5.820000     -4.6580713E-13
   5.880000     -7.3515353E-13
   5.940000     -7.5127383E-13
   6.000000     -4.8629341E-13
   6.060000     -2.9509191E-14
   6.120000      4.4543031E-13
   6.180000      7.5564446E-13
   6.240000      7.9380697E-13
   6.300000      5.8145703E-13
   6.360000      2.6064765E-13
   6.420000      2.1285337E-14
   6.480000     -5.8881851E-15
   6.540000      1.6133804E-13
   6.600000      3.3597729E-13
   6.660000      2.3414121E-13
   6.720000     -3.7849948E-13
   6.780000     -1.5254951E-12
   6.840000     -2.9212581E-12
   6.900000     -3.9973779E-12
   6.960000     -4.0687410E-12
   7.020000     -2.5948688E-12
   7.080000      5.5539720E-13
   7.140000      4.9407809E-12
   7.200000      9.5618574E-12
   7.260000      1.3067529E-11
   7.320000      1.4099744E-11
   7.380000      1.1673898E-11
   7.440000      5.4826746E-12
   7.500000     -3.9576072E-12
   7.560000     -1.5342382E-11
   7.620000     -2.6763517E-11
   7.680000     -3.5977950E-11
   7.740000     -4.0697015E-11
   7.800000     -3.8864641E-11
   7.860000     -2.8933142E-11
   7.920000     -1.0169554E-11
   7.980000      1.6985323E-11
   8.040000      5.0531867E-11
   8.100000      8.6598055E-11
   8.160000      1.1935609E-10
   8.220000      1.4134441E-10
   8.280000      1.4431877E-10
   8.340000      1.2063503E-10
   8.400000      6.5005140E-11
   8.460000     -2.3683689E-11
   8.520000     -1.4088054E-10
   8.580000     -2.7558542E-10
   8.640000     -4.1050541E-10
   8.700000     -5.2318377E-10
   8.760000     -5.8791844E-10
   8.820000     -5.7813782E-10
   8.880000     -4.6886628E-10
   8.940000     -2.3899180E-10
   9.000000      1.2680412E-10
   9.060000      6.3645328E-10
   9.120000      1.2891800E-09
   9.180000      2.0744342E-09
   9.240000      2.9711948E-09
   9.300000      3.9479016E-09
   9.360000      4.9633431E-09
   9.420000      5.9687570E-09
   9.480000      6.9111707E-09
   9.540000      7.7377065E-09
   9.600000      8.4002787E-09
   9.660000      8.8599590E-09
   9.720000      9.0903267E-09
   9.780000      9.0793382E-09
   9.840000      8.8296161E-09
   9.900000      8.3573539E-09
   9.960000      7.6902298E-09
   10.02000      6.8647639E-09
   10.08000      5.9233791E-09
   10.14000      4.9112945E-09
   10.20000      3.8732608E-09
   10.26000      2.8501681E-09
   10.32000      1.8757387E-09
   10.38000      9.7373054E-10
   10.44000      1.5619554E-10
   10.50000     -5.7670480E-10
   10.56000     -1.2351014E-09
   10.62000     -1.8362334E-09
   10.68000     -2.4003053E-09
   10.74000     -2.9462894E-09
   10.80000     -3.4885912E-09
   10.86000     -4.0352175E-09
   10.92000     -4.5876121E-09
   10.98000     -5.1418176E-09
   11.04000     -5.6902656E-09
   11.10000     -6.2234018E-09
   11.16000     -6.7305912E-09
   11.22000     -7.2001649E-09
   11.28000     -7.6189499E-09
   11.34000     -7.9719609E-09
   11.40000     -8.2429379E-09
   11.46000     -8.4161327E-09
   11.52000     -8.4791854E-09
   11.58000     -8.4263716E-09
   11.64000     -8.2611571E-09
   11.70000     -7.9969773E-09
   11.76000     -7.6556237E-09
   11.82000     -7.2633402E-09
   11.88000     -6.8455046E-09
   11.94000     -6.4213124E-09
   12.00000     -5.9999592E-09
   12.06000     -5.5794263E-09
   12.12000     -5.1481739E-09
   12.18000     -4.6892032E-09
   12.24000     -4.1852442E-09
   12.30000     -3.6235930E-09
   12.36000     -2.9993330E-09
   12.42000     -2.3162592E-09
   12.48000     -1.5855480E-09
   12.54000     -8.2281382E-10
   12.60000     -4.4492132E-11
   12.66000      7.3552686E-10
   12.72000      1.5083657E-09
   12.78000      2.2714237E-09
   12.84000      3.0284237E-09
   12.90000      3.7883754E-09
   12.96000      4.5636410E-09
   13.02000      5.3673181E-09
   13.08000      6.2102306E-09
   13.14000      7.0979840E-09
   13.20000      8.0286897E-09
   13.26000      8.9920205E-09
   13.32000      9.9700532E-09
   13.38000      1.0940012E-08
   13.44000      1.1878405E-08
   13.50000      1.2765580E-08
   13.56000      1.3589351E-08
   13.62000      1.4346455E-08
   13.68000      1.5041072E-08
   13.74000      1.5680456E-08
   13.80000      1.6268711E-08
   13.86000      1.6800520E-08
   13.92000      1.7256996E-08
   13.98000      1.7605529E-08
   14.04000      1.7804494E-08
   14.10000      1.7812386E-08
   14.16000      1.7599461E-08
   14.22000      1.7159016E-08
   14.28000      1.6515271E-08
   14.34000      1.5725584E-08
   14.40000      1.4876100E-08
   14.46000      1.4071655E-08
   14.52000      1.3422066E-08
   14.58000      1.3027589E-08
   14.64000      1.2966107E-08
   14.70000      1.3283848E-08
   14.76000      1.3990342E-08
   14.82000      1.5057600E-08
   14.88000      1.6423026E-08
   14.94000      1.7995635E-08
   15.00000      1.9665208E-08
   15.06000      2.1313992E-08
   15.12000      2.2830076E-08
   15.18000      2.4120878E-08
   15.24000      2.5124537E-08
   15.30000      2.5816815E-08
   15.36000      2.6211735E-08
   15.42000      2.6355583E-08
   15.48000      2.6315613E-08
   15.54000      2.6166289E-08
   15.60000      2.5976570E-08
   15.66000      2.5801267E-08
   15.72000      2.5677917E-08
   15.78000      2.5628772E-08
   15.84000      2.5665651E-08
   15.90000      2.5794751E-08
   15.96000      2.6018899E-08
   16.02000      2.6336108E-08
   16.08000      2.6735307E-08
   16.14000      2.7191550E-08
   16.20000      2.7663758E-08
   16.26000      2.8097418E-08
   16.32000      2.8433073E-08
   16.38000      2.8619301E-08
   16.44000      2.8626962E-08
   16.50000      2.8460496E-08
   16.56000      2.8162454E-08
   16.62000      2.7808992E-08
   16.68000      2.7496684E-08
   16.74000      2.7323461E-08
   16.80000      2.7368342E-08
   16.86000      2.7674970E-08
   16.92000      2.8242894E-08
   16.98000      2.9028376E-08
   17.04000      2.9953767E-08
   17.10000      3.0922585E-08
   17.16000      3.1836215E-08
   17.22000      3.2608497E-08
   17.28000      3.3175745E-08
   17.34000      3.3501284E-08
   17.40000      3.3575294E-08
   17.46000      3.3411432E-08
   17.52000      3.3041921E-08
   17.58000      3.2512258E-08
   17.64000      3.1876009E-08
   17.70000      3.1189671E-08
   17.76000      3.0507341E-08
   17.82000      2.9875309E-08
   17.88000      2.9327104E-08
   17.94000      2.8879811E-08
   18.00000      2.8532677E-08
   18.06000      2.8268444E-08
   18.12000      2.8057270E-08
   18.18000      2.7862352E-08
   18.24000      2.7645964E-08
   18.30000      2.7374634E-08
   18.36000      2.7022606E-08
   18.42000      2.6573247E-08
   18.48000      2.6018672E-08
   18.54000      2.5358162E-08
   18.60000      2.4596055E-08
   18.66000      2.3739782E-08
   18.72000      2.2798611E-08
   18.78000      2.1783389E-08
   18.84000      2.0707263E-08
   18.90000      1.9586857E-08
   18.96000      1.8442975E-08
   19.02000      1.7299627E-08
   19.08000      1.6180598E-08
   19.14000      1.5103543E-08
   19.20000      1.4072766E-08
   19.26000      1.3072824E-08
   19.32000      1.2065414E-08
   19.38000      1.0991443E-08
   19.44000      9.7787867E-09
   19.50000      8.3544727E-09
   19.56000      6.6585328E-09
   19.62000      4.6559165E-09
   19.68000      2.3432032E-09
   19.74000     -2.5192581E-10
   19.80000     -3.0785541E-09
   19.86000     -6.0757990E-09
   19.92000     -9.1879766E-09
   19.98000     -1.2377573E-08
   20.04000     -1.5632533E-08
   20.10000     -1.8966000E-08
   20.16000     -2.2408839E-08
   20.22000     -2.5997220E-08
   20.28000     -2.9758761E-08
   20.34000     -3.3700726E-08
   20.40000     -3.7802845E-08
   20.46000     -4.2015852E-08
   20.52000     -4.6265388E-08
   20.58000     -5.0459885E-08
   20.64000     -5.4500557E-08
   20.70000     -5.8291466E-08
   20.76000     -6.1747947E-08
   20.82000     -6.4801995E-08
   20.88000     -6.7404017E-08
   20.94000     -6.9521498E-08
   21.00000     -7.1135801E-08
   21.06000     -7.2239239E-08
   21.12000     -7.2834126E-08
   21.18000     -7.2934633E-08
   21.24000     -7.2570629E-08
   21.30000     -7.1791760E-08
   21.36000     -7.0669294E-08
   21.42000     -6.9293776E-08
   21.48000     -6.7768276E-08
   21.54000     -6.6198083E-08
   21.60000     -6.4679199E-08
   21.66000     -6.3288411E-08
   21.72000     -6.2077298E-08
   21.78000     -6.1071674E-08
   21.84000     -6.0276399E-08
   21.90000     -5.9684318E-08
   21.96000     -5.9286606E-08
   22.02000     -5.9081373E-08
   22.08000     -5.9077585E-08
   22.14000     -5.9292841E-08
   22.20000     -5.9745531E-08
   22.26000     -6.0443973E-08
   22.32000     -6.1376404E-08
   22.38000     -6.2505691E-08
   22.44000     -6.3770898E-08
   22.50000     -6.5095669E-08
   22.56000     -6.6400574E-08
   22.62000     -6.7615673E-08
   22.68000     -6.8689076E-08
   22.74000     -6.9588971E-08
   22.80000     -7.0298711E-08
   22.86000     -7.0807147E-08
   22.92000     -7.1097901E-08
   22.98000     -7.1142026E-08
   23.04000     -7.0897364E-08
   23.10000     -7.0315899E-08
   23.16000     -6.9357533E-08
   23.22000     -6.8006237E-08
   23.28000     -6.6283029E-08
   23.34000     -6.4251005E-08
   23.40000     -6.2009612E-08
   23.46000     -5.9678754E-08
   23.52000     -5.7376838E-08
   23.58000     -5.5198502E-08
   23.64000     -5.3198207E-08
   23.70000     -5.1383662E-08
   23.76000     -4.9720217E-08
   23.82000     -4.8144095E-08
   23.88000     -4.6580261E-08
   23.94000     -4.4959979E-08
   24.00000     -4.3233936E-08
   24.06000     -4.1378613E-08
   24.12000     -3.9395459E-08
   24.18000     -3.7304339E-08
   24.24000     -3.5133660E-08
   24.30000     -3.2910116E-08
   24.36000     -3.0650494E-08
   24.42000     -2.8357444E-08
   24.48000     -2.6019856E-08
   24.54000     -2.3617376E-08
   24.60000     -2.1127613E-08
   24.66000     -1.8533862E-08
   24.72000     -1.5831247E-08
   24.78000     -1.3029657E-08
   24.84000     -1.0152918E-08
   24.90000     -7.2348039E-09
   24.96000     -4.3134314E-09
   25.02000     -1.4259459E-09
   25.08000      1.3948519E-09
   25.14000      4.1211470E-09
   25.20000      6.7283090E-09
   25.26000      9.1918757E-09
   25.32000      1.1484997E-08
   25.38000      1.3577836E-08
   25.44000      1.5439635E-08
   25.50000      1.7043108E-08
   25.56000      1.8369787E-08
   25.62000      1.9414406E-08
   25.68000      2.0186475E-08
   25.74000      2.0708011E-08
   25.80000      2.1007551E-08
   25.86000      2.1111902E-08
   25.92000      2.1037991E-08
   25.98000      2.0787352E-08
   26.04000      2.0345166E-08
   26.10000      1.9684457E-08
   26.16000      1.8774546E-08
   26.22000      1.7591548E-08
   26.28000      1.6128100E-08
   26.34000      1.4399767E-08
   26.40000      1.2446415E-08
   26.46000      1.0328260E-08
   26.52000      8.1175102E-09
   26.58000      5.8874856E-09
   26.64000      3.7015473E-09
   26.70000      1.6041318E-09
   26.76000     -3.8422393E-10
   26.82000     -2.2667499E-09
   26.88000     -4.0651029E-09
   26.94000     -5.8099259E-09
   27.00000     -7.5295468E-09
   27.06000     -9.2397991E-09
   27.12000     -1.0937926E-08
   27.18000     -1.2602585E-08
   27.24000     -1.4200251E-08
   27.30000     -1.5696317E-08
   27.36000     -1.7067549E-08
   27.42000     -1.8311912E-08
   27.48000     -1.9452248E-08
   27.54000     -2.0532044E-08
   27.60000     -2.1603716E-08
   27.66000     -2.2712166E-08
   27.72000     -2.3878069E-08
   27.78000     -2.5085878E-08
   27.84000     -2.6280727E-08
   27.90000     -2.7376185E-08
   27.96000     -2.8271776E-08
   28.02000     -2.8875984E-08
   28.08000     -2.9128463E-08
   28.14000     -2.9014871E-08
   28.20000     -2.8569836E-08
   28.26000     -2.7867214E-08
   28.32000     -2.7000731E-08
   28.38000     -2.6061299E-08
   28.44000     -2.5117927E-08
   28.50000     -2.4207798E-08
   28.56000     -2.3337780E-08
   28.62000     -2.2495957E-08
   28.68000     -2.1668855E-08
   28.74000     -2.0858613E-08
   28.80000     -2.0094756E-08
   28.86000     -1.9437005E-08
   28.92000     -1.8968205E-08
   28.98000     -1.8779270E-08
   29.04000     -1.8950301E-08
   29.10000     -1.9533200E-08
   29.16000     -2.0540671E-08
   29.22000     -2.1944722E-08
   29.28000     -2.3684814E-08
   29.34000     -2.5682946E-08
   29.40000     -2.7860830E-08
   29.46000     -3.0153998E-08
   29.52000     -3.2518908E-08
   29.58000     -3.4931631E-08
   29.64000     -3.7379568E-08
   29.70000     -3.9849684E-08
   29.76000     -4.2317875E-08
   29.82000     -4.4743427E-08
   29.88000     -4.7070987E-08
   29.94000     -4.9239965E-08
   30.00000     -5.1198697E-08
   30.06000     -5.2919134E-08
   30.12000     -5.4406971E-08
   30.18000     -5.5703627E-08
   30.24000     -5.6878775E-08
   30.30000     -5.8015370E-08
   30.36000     -5.9191620E-08
   30.42000     -6.0465382E-08
   30.48000     -6.1865691E-08
   30.54000     -6.3393266E-08
   30.60000     -6.5029184E-08
   30.66000     -6.6747852E-08
   30.72000     -6.8529516E-08
   30.78000     -7.0368110E-08
   30.84000     -7.2271810E-08
   30.90000     -7.4256569E-08
   30.96000     -7.6334977E-08
   31.02000     -7.8504407E-08
   31.08000     -8.0738580E-08
   31.14000     -8.2985572E-08
   31.20000     -8.5173120E-08
   31.26000     -8.7220165E-08
   31.32000     -8.9051198E-08
   31.38000     -9.0609575E-08
   31.44000     -9.1866397E-08
   31.50000     -9.2822575E-08
   31.56000     -9.3503928E-08
   31.62000     -9.3950383E-08
   31.68000     -9.4201823E-08
   31.74000     -9.4283664E-08
   31.80000     -9.4195663E-08
   31.86000     -9.3907026E-08
   31.92000     -9.3360107E-08
   31.98000     -9.2482551E-08
   32.04000     -9.1205898E-08
   32.10000     -8.9485766E-08
   32.16000     -8.7318163E-08
   32.22000     -8.4746688E-08
   32.28000     -8.1858374E-08
   32.34000     -7.8768828E-08
   32.40000     -7.5600752E-08
   32.46000     -7.2461297E-08
   32.52000     -6.9423848E-08
   32.58000     -6.6518027E-08
   32.64000     -6.3729843E-08
   32.70000     -6.1011178E-08
   32.76000     -5.8296351E-08
   32.82000     -5.5521816E-08
   32.88000     -5.2644364E-08
   32.94000     -4.9653227E-08
   33.00000     -4.6572762E-08
   33.06000     -4.3454666E-08
   33.12000     -4.0361765E-08
   33.18000     -3.7348336E-08
   33.24000     -3.4443065E-08
   33.30000     -3.1640319E-08
   33.36000     -2.8902617E-08
   33.42000     -2.6173614E-08
   33.48000     -2.3397545E-08
   33.54000     -2.0539023E-08
   33.60000     -1.7597106E-08
   33.66000     -1.4609352E-08
   33.72000     -1.1644489E-08
   33.78000     -8.7857002E-09
   33.84000     -6.1091860E-09
   33.90000     -3.6642425E-09
   33.96000     -1.4608722E-09
   34.02000      5.3097987E-10
   34.08000      2.3698357E-09
   34.14000      4.1218433E-09
   34.20000      5.8369269E-09
   34.26000      7.5294677E-09
   34.32000      9.1699119E-09
   34.38000      1.0690405E-08
   34.44000      1.2003089E-08
   34.50000      1.3025675E-08
   34.56000      1.3706497E-08
   34.62000      1.4041378E-08
   34.68000      1.4077014E-08
   34.74000      1.3899645E-08
   34.80000      1.3612074E-08
   34.86000      1.3305673E-08
   34.92000      1.3035645E-08
   34.98000      1.2807173E-08
   35.04000      1.2577074E-08
   35.10000      1.2270998E-08
   35.16000      1.1811223E-08
   35.22000      1.1146409E-08
   35.28000      1.0273509E-08
   35.34000      9.2441343E-09
   35.40000      8.1525569E-09
   35.46000      7.1086110E-09
   35.52000      6.2039649E-09
   35.58000      5.4826730E-09
   35.64000      4.9257118E-09
   35.70000      4.4547841E-09
   35.76000      3.9545092E-09
   35.82000      3.3064222E-09
   35.88000      2.4245637E-09
   35.94000      1.2820827E-09
   36.00000     -7.9025016E-11
   36.06000     -1.5579799E-09
   36.12000     -3.0223009E-09
   36.18000     -4.3442441E-09
   36.24000     -5.4361760E-09
   36.30000     -6.2746719E-09
   36.36000     -6.9062804E-09
   36.42000     -7.4332305E-09
   36.48000     -7.9833038E-09
   36.54000     -8.6729299E-09
   36.60000     -9.5745856E-09
   36.66000     -1.0698273E-08
   36.72000     -1.1992364E-08
   36.78000     -1.3363001E-08
   36.84000     -1.4705442E-08
   36.90000     -1.5937060E-08
   36.96000     -1.7021469E-08
   37.02000     -1.7976252E-08
   37.08000     -1.8862238E-08
   37.14000     -1.9758255E-08
   37.20000     -2.0729857E-08
   37.26000     -2.1802331E-08
   37.32000     -2.2946619E-08
   37.38000     -2.4082500E-08
   37.44000     -2.5097711E-08
   37.50000     -2.5876771E-08
   37.56000     -2.6330513E-08
   37.62000     -2.6417476E-08
   37.68000     -2.6151250E-08
   37.74000     -2.5592309E-08
   37.80000     -2.4827495E-08
   37.86000     -2.3943768E-08
   37.92000     -2.3004143E-08
   37.98000     -2.2032811E-08
   38.04000     -2.1013490E-08
   38.10000     -1.9901055E-08
   38.16000     -1.8642472E-08
   38.22000     -1.7200231E-08
   38.28000     -1.5570654E-08
   38.34000     -1.3791168E-08
   38.40000     -1.1934095E-08
   38.46000     -1.0089034E-08
   38.52000     -8.3395904E-09
   38.58000     -6.7420882E-09
   38.64000     -5.3131610E-09
   38.70000     -4.0301211E-09
   38.76000     -2.8438083E-09
   38.82000     -1.6996381E-09
   38.88000     -5.6011740E-10
   38.94000      5.7812771E-10
   39.00000      1.6778239E-09
   39.06000      2.6666525E-09
   39.12000      3.4529835E-09
   39.18000      3.9469552E-09
   39.24000      4.0809747E-09
   39.30000      3.8243702E-09
   39.36000      3.1889538E-09
   39.42000      2.2248887E-09
   39.48000      1.0086417E-09
   39.54000     -3.7358064E-10
   39.60000     -1.8429066E-09
   39.66000     -3.3416618E-09
   39.72000     -4.8412674E-09
   39.78000     -6.3428893E-09
   39.84000     -7.8712565E-09
   39.90000     -9.4637667E-09
   39.96000     -1.1158195E-08
   40.02000     -1.2982532E-08
   40.08000     -1.4949574E-08
   40.14000     -1.7057037E-08
   40.20000     -1.9291887E-08
   40.26000     -2.1636167E-08
   40.32000     -2.4071548E-08
   40.38000     -2.6580924E-08
   40.44000     -2.9147168E-08
   40.50000     -3.1750670E-08
   40.56000     -3.4367655E-08
   40.62000     -3.6970743E-08
   40.68000     -3.9531791E-08
   40.74000     -4.2026063E-08
   40.80000     -4.4436085E-08
   40.86000     -4.6754018E-08
   40.92000     -4.8982145E-08
   40.98000     -5.1131721E-08
   41.04000     -5.3220912E-08
   41.10000     -5.5272221E-08
   41.16000     -5.7309538E-08
   41.22000     -5.9354505E-08
   41.28000     -6.1422035E-08
   41.34000     -6.3515422E-08
   41.40000     -6.5621968E-08
   41.46000     -6.7710978E-08
   41.52000     -6.9735606E-08
   41.58000     -7.1639306E-08
   41.64000     -7.3366408E-08
   41.70000     -7.4874279E-08
   41.76000     -7.6143806E-08
   41.82000     -7.7184659E-08
   41.88000     -7.8033196E-08
   41.94000     -7.8742694E-08
   42.00000     -7.9368533E-08
   42.06000     -7.9951917E-08
   42.12000     -8.0507071E-08
   42.18000     -8.1015614E-08
   42.24000     -8.1430038E-08
   42.30000     -8.1685890E-08
   42.36000     -8.1719556E-08
   42.42000     -8.1486725E-08
   42.48000     -8.0976015E-08
   42.54000     -8.0213226E-08
   42.60000     -7.9254207E-08
   42.66000     -7.8168156E-08
   42.72000     -7.7016523E-08
   42.78000     -7.5834521E-08
   42.84000     -7.4622136E-08
   42.90000     -7.3347735E-08
   42.96000     -7.1963385E-08
   43.02000     -7.0426118E-08
   43.08000     -6.8717661E-08
   43.14000     -6.6855677E-08
   43.20000     -6.4892816E-08
   43.26000     -6.2904832E-08
   43.32000     -6.0972326E-08
   43.38000     -5.9162687E-08
   43.44000     -5.7518058E-08
   43.50000     -5.6052080E-08
   43.56000     -5.4755169E-08
   43.62000     -5.3605113E-08
   43.68000     -5.2578564E-08
   43.74000     -5.1659345E-08
   43.80000     -5.0841201E-08
   43.86000     -5.0124697E-08
   43.92000     -4.9510021E-08
   43.98000     -4.8988671E-08
   44.04000     -4.8537373E-08
   44.10000     -4.8116910E-08
   44.16000     -4.7677023E-08
   44.22000     -4.7166761E-08
   44.28000     -4.6547790E-08
   44.34000     -4.5806893E-08
   44.40000     -4.4963819E-08
   44.46000     -4.4071676E-08
   44.52000     -4.3209212E-08
   44.58000     -4.2466844E-08
   44.64000     -4.1930264E-08
   44.70000     -4.1666073E-08
   44.76000     -4.1713111E-08
   44.82000     -4.2081144E-08
   44.88000     -4.2756209E-08
   44.94000     -4.3710148E-08
   45.00000     -4.4911172E-08
   45.06000     -4.6332499E-08
   45.12000     -4.7957222E-08
   45.18000     -4.9778755E-08
   45.24000     -5.1797365E-08
   45.30000     -5.4014457E-08
   45.36000     -5.6426789E-08
   45.42000     -5.9022980E-08
   45.48000     -6.1784043E-08
   45.54000     -6.4688173E-08
   45.60000     -6.7718609E-08
   45.66000     -7.0871870E-08
   45.72000     -7.4163715E-08
   45.78000     -7.7631157E-08
   45.84000     -8.1330654E-08
   45.90000     -8.5334257E-08
   45.96000     -8.9726079E-08
   46.02000     -9.4601269E-08
   46.08000     -1.0006863E-07
   46.14000     -1.0625676E-07
   46.20000     -1.1332293E-07
   46.26000     -1.2146317E-07
   46.32000     -1.3092139E-07
   46.38000     -1.4199529E-07
   46.44000     -1.5503733E-07
   46.50000     -1.7045058E-07
   46.56000     -1.8868202E-07
   46.62000     -2.1021859E-07
   46.68000     -2.3559107E-07
   46.74000     -2.6538996E-07
   46.80000     -3.0029167E-07
   46.86000     -3.4108990E-07
   46.92000     -3.8872420E-07
   46.98000     -4.4429945E-07
   47.04000     -5.0909421E-07
   47.10000     -5.8456197E-07
   47.16000     -6.7233094E-07
   47.22000     -7.7421021E-07
   47.28000     -8.9220532E-07
   47.34000     -1.0285436E-06
   47.40000     -1.1857072E-06
   47.46000     -1.3664721E-06
   47.52000     -1.5739477E-06
   47.58000     -1.8116154E-06
   47.64000     -2.0833627E-06
   47.70000     -2.3935074E-06
   47.76000     -2.7468141E-06
   47.82000     -3.1485013E-06
   47.88000     -3.6042500E-06
   47.94000     -4.1202184E-06
   48.00000     -4.7030721E-06
   48.06000     -5.3600252E-06
   48.12000     -6.0988878E-06
   48.18000     -6.9281159E-06
   48.24000     -7.8568446E-06
   48.30000     -8.8949091E-06
   48.36000     -1.0052852E-05
   48.42000     -1.1341924E-05
   48.48000     -1.2774070E-05
   48.54000     -1.4361925E-05
   48.60000     -1.6118789E-05
   48.66000     -1.8058614E-05
   48.72000     -2.0195983E-05
   48.78000     -2.2546079E-05
   48.84000     -2.5124658E-05
   48.90000     -2.7948006E-05
   48.96000     -3.1032898E-05
   49.02000     -3.4396486E-05
   49.08000     -3.8056238E-05
   49.14000     -4.2029809E-05
   49.20000     -4.6334939E-05
   49.26000     -5.0989314E-05
   49.32000     -5.6010453E-05
   49.38000     -6.1415580E-05
   49.44000     -6.7221488E-05
   49.50000     -7.3444382E-05
   49.56000     -8.0099693E-05
   49.62000     -8.7201945E-05
   49.68000     -9.4764560E-05
   49.74000     -1.0279961E-04
   49.80000     -1.1131768E-04
   49.86000     -1.2032761E-04
   49.92000     -1.2983633E-04
   49.98000     -1.3984865E-04
   50.04000     -1.5036712E-04
   50.10000     -1.6139187E-04
   50.16000     -1.7292051E-04
   50.22000     -1.8494796E-04
   50.28000     -1.9746638E-04
   50.34000     -2.1046499E-04
   50.40000     -2.2392999E-04
   50.46000     -2.3784458E-04
   50.52000     -2.5218882E-04
   50.58000     -2.6693969E-04
   50.64000     -2.8207112E-04
   50.70000     -2.9755395E-04
   50.76000     -3.1335626E-04
   50.82000     -3.2944328E-04
   50.88000     -3.4577766E-04
   50.94000     -3.6231961E-04
   51.00000     -3.7902730E-04
   51.06000     -3.9585689E-04
   51.12000     -4.1276295E-04
   51.18000     -4.2969879E-04
   51.24000     -4.4661673E-04
   51.30000     -4.6346846E-04
   51.36000     -4.8020561E-04
   51.42000     -4.9677998E-04
   51.48000     -5.1314401E-04
   51.54000     -5.2925141E-04
   51.60000     -5.4505735E-04
   51.66000     -5.6051888E-04
   51.72000     -5.7559559E-04
   51.78000     -5.9024978E-04
   51.84000     -6.0444692E-04
   51.90000     -6.1815599E-04
   51.96000     -6.3134974E-04
   52.02000     -6.4400514E-04
   52.08000     -6.5610331E-04
   52.14000     -6.6763011E-04
   52.20000     -6.7857606E-04
   52.26000     -6.8893650E-04
   52.32000     -6.9871190E-04
   52.38000     -7.0790784E-04
   52.44000     -7.1653456E-04
   52.50000     -7.2460721E-04
   52.56000     -7.3214527E-04
   52.62000     -7.3917274E-04
   52.68000     -7.4571732E-04
   52.74000     -7.5181079E-04
   52.80000     -7.5748813E-04
   52.86000     -7.6278759E-04
   52.92000     -7.6774968E-04
   52.98000     -7.7241700E-04
   53.04000     -7.7683351E-04
   53.10000     -7.8104407E-04
   53.16000     -7.8509399E-04
   53.22000     -7.8902836E-04
   53.28000     -7.9289178E-04
   53.34000     -7.9672743E-04
   53.40000     -8.0057670E-04
   53.46000     -8.0447871E-04
   53.52000     -8.0846966E-04
   53.58000     -8.1258232E-04
   53.64000     -8.1684598E-04
   53.70000     -8.2128600E-04
   53.76000     -8.2592340E-04
   53.82000     -8.3077472E-04
   53.88000     -8.3585153E-04
   53.94000     -8.4116071E-04
   54.00000     -8.4670412E-04
   54.06000     -8.5247908E-04
   54.12000     -8.5847778E-04
   54.18000     -8.6468813E-04
   54.24000     -8.7109342E-04
   54.30000     -8.7767257E-04
   54.36000     -8.8440051E-04
   54.42000     -8.9124858E-04
   54.48000     -8.9818548E-04
   54.54000     -9.0517703E-04
   54.60000     -9.1218710E-04
   54.66000     -9.1917790E-04
   54.72000     -9.2611049E-04
   54.78000     -9.3294546E-04
   54.84000     -9.3964359E-04
   54.90000     -9.4616611E-04
   54.96000     -9.5247565E-04
   55.02000     -9.5853617E-04
   55.08000     -9.6431398E-04
   55.14000     -9.6977764E-04
   55.20000     -9.7489881E-04
   55.26000     -9.7965263E-04
   55.32000     -9.8401774E-04
   55.38000     -9.8797726E-04
   55.44000     -9.9151779E-04
   55.50000     -9.9463039E-04
   55.56000     -9.9731016E-04