  -2.400000      0.0000000E+00
  -2.340000      0.0000000E+00
  -2.280000      0.0000000E+00
  -2.220000      0.0000000E+00
  -2.160000      0.0000000E+00
  -2.100000      0.0000000E+00
  -2.040000      0.0000000E+00
  -1.980000      0.0000000E+00
  -1.920000      0.0000000E+00
  -1.860000      0.0000000E+00
  -1.800000      0.0000000E+00
  -1.740000      6.4662623E-31
  -1.680000      7.8239512E-30
  -1.620000      3.9556037E-29
  -1.560000      7.3510989E-29
  -1.500000     -2.8395365E-28
  -1.440000     -2.6135151E-27
  -1.380000     -9.9963321E-27
  -1.320000     -2.2410166E-26
  -1.260000     -1.9806244E-26
  -1.200000      6.5376065E-26
  -1.140000      3.4659186E-25
  -1.080000      8.5450853E-25
  -1.020000      1.1874764E-24
 -0.9600000      7.3808815E-26
 -0.9000000     -4.4942964E-24
 -0.8400000     -1.3409665E-23
 -0.7800000     -2.2283415E-23
 -0.7200000     -1.7073350E-23
 -0.6600000      2.3919929E-23
 -0.6000000      1.1286586E-22
 -0.5400000      2.1835246E-22
 -0.4800000      2.3402393E-22
 -0.4200000     -3.6184194E-24
 -0.3600000     -5.9754383E-22
 -0.3000000     -1.3777533E-21
 -0.2400000     -1.7241378E-21
 -0.1800000     -6.8247697E-22
 -0.1200000      2.3890087E-21
 -5.9999999E-02  6.7264239E-21
  0.0000000E+00  9.3033545E-21
  5.9999999E-02  5.4080414E-21
  0.1200000     -8.3705443E-21
  0.1800000     -2.9257908E-20
  0.2400000     -4.4482067E-20
  0.3000000     -3.3379914E-20
  0.3600000      2.0861146E-20
  0.4200000      1.1185333E-19
  0.4800000      1.9399458E-19
  0.5400000      1.8718755E-19
  0.6000000      1.5774835E-20
  0.6600000     -3.2378406E-19
  0.7200000     -7.0083348E-19
  0.7800000     -8.4967739E-19
  0.8400000     -4.7604441E-19
  0.9000000      5.3679209E-19
  0.9600000      1.9136263E-18
   1.020000      2.9225896E-18
   1.080000      2.6049539E-18
   1.140000      3.1425951E-19
   1.200000     -3.6375160E-18
   1.260000     -7.6218117E-18
   1.320000     -9.0349439E-18
   1.380000     -5.4881341E-18
   1.440000      3.5040297E-18
   1.500000      1.5196815E-17
   1.560000      2.3695909E-17
   1.620000      2.2083199E-17
   1.680000      6.2243530E-18
   1.740000     -2.1324880E-17
   1.800000     -4.9673096E-17
   1.860000     -6.2245090E-17
   1.920000     -4.4084051E-17
   1.980000      8.4593495E-18
   2.040000      8.0332419E-17
   2.100000      1.3810471E-16
   2.160000      1.4135257E-16
   2.220000      6.3473314E-17
   2.280000     -8.6028954E-17
   2.340000     -2.5039403E-16
   2.400000     -3.3762291E-16
   2.460000     -2.5960948E-16
   2.520000      1.2205382E-17
   2.580000      4.0067536E-16
   2.640000      7.1948858E-16
   2.700000      7.3569899E-16
   2.760000      2.9188451E-16
   2.820000     -5.5912470E-16
   2.880000     -1.4852117E-15
   2.940000     -1.9466687E-15
   3.000000     -1.4309300E-15
   3.060000      2.1961244E-16
   3.120000      2.5477472E-15
   3.180000      4.4812015E-15
   3.240000      4.7067321E-15
   3.300000      2.3503036E-15
   3.360000     -2.3229849E-15
   3.420000     -7.6053166E-15
   3.480000     -1.0778731E-14
   3.540000     -9.3077079E-15
   3.600000     -2.3648997E-15
   3.660000      8.0934134E-15
   3.720000      1.7494334E-14
   3.780000      2.0383685E-14
   3.840000      1.3235913E-14
   3.900000     -2.9493583E-15
   3.960000     -2.1835513E-14
   4.020000     -3.3737007E-14
   4.080000     -3.0102064E-14
   4.140000     -8.6534715E-15
   4.200000      2.3554241E-14
   4.260000      5.1479237E-14
   4.320000      5.8287617E-14
   4.380000      3.4225244E-14
   4.440000     -1.6082681E-14
   4.500000     -7.2362757E-14
   4.560000     -1.0568226E-13
   4.620000     -9.1912040E-14
   4.680000     -2.5903711E-14
   4.740000      7.1116825E-14
   4.800000      1.5648367E-13
   4.860000      1.8351167E-13
   4.920000      1.2492840E-13
   4.980000     -8.7293454E-15
   5.040000     -1.6644681E-13
   5.100000     -2.7440794E-13
   5.160000     -2.6893838E-13
   5.220000     -1.3072567E-13
   5.280000      9.6989602E-14
   5.340000      3.1852567E-13
   5.400000      4.2417941E-13
   5.460000      3.4250622E-13
   5.520000      8.2430434E-14
   5.580000     -2.5781273E-13
   5.640000     -5.2499861E-13
   5.700000     -5.7841400E-13
   5.760000     -3.6204178E-13
   5.820000      5.4101600E-14
   5.880000      4.8929101E-13
   5.940000      7.2564031E-13
   6.000000      6.1250565E-13
   6.060000      1.5451399E-13
   6.120000     -4.6351269E-13
   6.180000     -9.3769892E-13
   6.240000     -9.7647823E-13
   6.300000     -4.4932929E-13
   6.360000      5.1673211E-13
   6.420000      1.5479591E-12
   6.480000      2.1537843E-12
   6.540000      1.9327105E-12
   6.600000      7.6935122E-13
   6.660000     -1.0689936E-12
   6.720000     -2.9921987E-12
   6.780000     -4.2935664E-12
   6.840000     -4.4240887E-12
   6.900000     -3.2179997E-12
   6.960000     -9.6594640E-13
   7.020000      1.7045171E-12
   7.080000      4.0931178E-12
   7.140000      5.7146341E-12
   7.200000      6.4682756E-12
   7.260000      6.5939780E-12
   7.320000      6.4212177E-12
   7.380000      6.0268982E-12
   7.440000      4.9877524E-12
   7.500000      2.4000979E-12
   7.560000     -2.7607586E-12
   7.620000     -1.1024072E-11
   7.680000     -2.1779035E-11
   7.740000     -3.2900720E-11
   7.800000     -4.0895929E-11
   7.860000     -4.1653347E-11
   7.920000     -3.1655591E-11
   7.980000     -9.3087951E-12
   8.040000      2.4047049E-11
   8.100000      6.3819325E-11
   8.160000      1.0270074E-10
   8.220000      1.3195378E-10
   8.280000      1.4309529E-10
   8.340000      1.2953245E-10
   8.400000      8.7775107E-11
   8.460000      1.8061559E-11
   8.520000     -7.5511743E-11
   8.580000     -1.8509645E-10
   8.640000     -2.9917319E-10
   8.700000     -4.0252437E-10
   8.760000     -4.7629067E-10
   8.820000     -4.9852950E-10
   8.880000     -4.4573553E-10
   8.940000     -2.9556535E-10
   9.000000     -3.0578651E-11
   9.060000      3.5768510E-10
   9.120000      8.6532131E-10
   9.180000      1.4744244E-09
   9.240000      2.1539055E-09
   9.300000      2.8628293E-09
   9.360000      3.5556127E-09
   9.420000      4.1878980E-09
   9.480000      4.7217870E-09
   9.540000      5.1294133E-09
   9.600000      5.3944937E-09
   9.660000      5.5121681E-09
   9.720000      5.4879354E-09
   9.780000      5.3365232E-09
   9.840000      5.0811515E-09
   9.900000      4.7530033E-09
   9.960000      4.3901842E-09
   10.02000      4.0352299E-09
   10.08000      3.7306069E-09
   10.14000      3.5124215E-09
   10.20000      3.4035059E-09
   10.26000      3.4077112E-09
   10.32000      3.5072862E-09
   10.38000      3.6645429E-09
   10.44000      3.8277861E-09
   10.50000      3.9401375E-09
   10.56000      3.9489625E-09
   10.62000      3.8134562E-09
   10.68000      3.5086845E-09
   10.74000      3.0257183E-09
   10.80000      2.3689031E-09
   10.86000      1.5522155E-09
   10.92000      5.9669664E-10
   10.98000     -4.6992205E-10
   11.04000     -1.6116496E-09
   11.10000     -2.7822562E-09
   11.16000     -3.9249928E-09
   11.22000     -4.9756950E-09
   11.28000     -5.8696541E-09
   11.34000     -6.5509633E-09
   11.40000     -6.9817414E-09
   11.46000     -7.1483073E-09
   11.52000     -7.0621984E-09
   11.58000     -6.7556938E-09
   11.64000     -6.2734480E-09
   11.70000     -5.6632028E-09
   11.76000     -4.9687077E-09
   11.82000     -4.2268562E-09
   11.88000     -3.4690757E-09
   11.94000     -2.7250504E-09
   12.00000     -2.0257860E-09
   12.06000     -1.4033475E-09
   12.12000     -8.8625329E-10
   12.18000     -4.9182236E-10
   12.24000     -2.1869360E-10
   12.30000     -4.3375067E-11
   12.36000      7.6401753E-11
   12.42000      1.9124717E-10
   12.48000      3.4528269E-10
   12.54000      5.6178306E-10
   12.60000      8.3457724E-10
   12.66000      1.1288133E-09
   12.72000      1.3914415E-09
   12.78000      1.5681740E-09
   12.84000      1.6211479E-09
   12.90000      1.5411125E-09
   12.96000      1.3499051E-09
   13.02000      1.0925606E-09
   13.08000      8.2222607E-10
   13.14000      5.8363092E-10
   13.20000      4.0115850E-10
   13.26000      2.7551142E-10
   13.32000      1.8939984E-10
   13.38000      1.1909783E-10
   13.44000      4.6575872E-11
   13.50000     -3.2916427E-11
   13.56000     -1.1058585E-10
   13.62000     -1.7043955E-10
   13.68000     -1.9846078E-10
   13.74000     -1.8957662E-10
   13.80000     -1.4851063E-10
   13.86000     -8.3671618E-11
   13.92000      3.1334588E-12
   13.98000      1.2585177E-10
   14.04000      3.1672964E-10
   14.10000      6.1922745E-10
   14.16000      1.0724180E-09
   14.22000      1.6920695E-09
   14.28000      2.4558249E-09
   14.34000      3.2991310E-09
   14.40000      4.1249311E-09
   14.46000      4.8250137E-09
   14.52000      5.3062874E-09
   14.58000      5.5130909E-09
   14.64000      5.4378382E-09
   14.70000      5.1165072E-09
   14.76000      4.6110893E-09
   14.82000      3.9859138E-09
   14.88000      3.2869385E-09
   14.94000      2.5317064E-09
   15.00000      1.7133349E-09
   15.06000      8.1625123E-10
   15.12000     -1.6331839E-10
   15.18000     -1.2010221E-09
   15.24000     -2.2394802E-09
   15.30000     -3.1975014E-09
   15.36000     -3.9903996E-09
   15.42000     -4.5538329E-09
   15.48000     -4.8620272E-09
   15.54000     -4.9333200E-09
   15.60000     -4.8209041E-09
   15.66000     -4.5924411E-09
   15.72000     -4.3065498E-09
   15.78000     -3.9952530E-09
   15.84000     -3.6589036E-09
   15.90000     -3.2748968E-09
   15.96000     -2.8158702E-09
   16.02000     -2.2693276E-09
   16.08000     -1.6502729E-09
   16.14000     -1.0016064E-09
   16.20000     -3.8230008E-10
   16.26000      1.5147780E-10
   16.32000      5.6426802E-10
   16.38000      8.5081120E-10
   16.44000      1.0333887E-09
   16.50000      1.1484685E-09
   16.56000      1.2285697E-09
   16.62000      1.2871348E-09
   16.68000      1.3127742E-09
   16.74000      1.2751946E-09
   16.80000      1.1402193E-09
   16.86000      8.8756003E-10
   16.92000      5.2393656E-10
   16.98000      8.6073544E-11
   17.04000     -3.6782799E-10
   17.10000     -7.7503698E-10
   17.16000     -1.0873904E-09
   17.22000     -1.2856237E-09
   17.28000     -1.3840210E-09
   17.34000     -1.4242409E-09
   17.40000     -1.4611965E-09
   17.46000     -1.5466048E-09
   17.52000     -1.7162883E-09
   17.58000     -1.9854400E-09
   17.64000     -2.3526674E-09
   17.70000     -2.8100851E-09
   17.76000     -3.3544376E-09
   17.82000     -3.9940717E-09
   17.88000     -4.7485562E-09
   17.94000     -5.6410139E-09
   18.00000     -6.6864057E-09
   18.06000     -7.8807449E-09
   18.12000     -9.1958157E-09
   18.18000     -1.0581573E-08
   18.24000     -1.1975146E-08
   18.30000     -1.3312603E-08
   18.36000     -1.4538633E-08
   18.42000     -1.5610471E-08
   18.48000     -1.6495168E-08
   18.54000     -1.7162382E-08
   18.60000     -1.7576896E-08
   18.66000     -1.7695156E-08
   18.72000     -1.7468089E-08
   18.78000     -1.6849677E-08
   18.84000     -1.5807933E-08
   18.90000     -1.4333970E-08
   18.96000     -1.2445521E-08
   19.02000     -1.0183674E-08
   19.08000     -7.6043438E-09
   19.14000     -4.7679851E-09
   19.20000     -1.7314785E-09
   19.26000      1.4551335E-09
   19.32000      4.7466586E-09
   19.38000      8.0974223E-09
   19.44000      1.1455891E-08
   19.50000      1.4762559E-08
   19.56000      1.7952999E-08
   19.62000      2.0965915E-08
   19.68000      2.3753845E-08
   19.74000      2.6292865E-08
   19.80000      2.8587580E-08
   19.86000      3.0668915E-08
   19.92000      3.2584545E-08
   19.98000      3.4384222E-08
   20.04000      3.6104403E-08
   20.10000      3.7757026E-08
   20.16000      3.9326466E-08
   20.22000      4.0775927E-08
   20.28000      4.2061526E-08
   20.34000      4.3149246E-08
   20.40000      4.4029015E-08
   20.46000      4.4720732E-08
   20.52000      4.5270088E-08
   20.58000      4.5735703E-08
   20.64000      4.6172310E-08
   20.70000      4.6616236E-08
   20.76000      4.7078586E-08
   20.82000      4.7548554E-08
   20.88000      4.8005383E-08
   20.94000      4.8434131E-08
   21.00000      4.8838952E-08
   21.06000      4.9248481E-08
   21.12000      4.9710994E-08
   21.18000      5.0280914E-08
   21.24000      5.1001557E-08
   21.30000      5.1890421E-08
   21.36000      5.2932300E-08
   21.42000      5.4082555E-08
   21.48000      5.5278953E-08
   21.54000      5.6457555E-08
   21.60000      5.7566769E-08
   21.66000      5.8574912E-08
   21.72000      5.9469155E-08
   21.78000      6.0247245E-08
   21.84000      6.0905776E-08
   21.90000      6.1429930E-08
   21.96000      6.1788619E-08
   22.02000      6.1936902E-08
   22.08000      6.1824942E-08
   22.14000      6.1410674E-08
   22.20000      6.0672122E-08
   22.26000      5.9615608E-08
   22.32000      5.8277202E-08
   22.38000      5.6716726E-08
   22.44000      5.5005810E-08
   22.50000      5.3213054E-08
   22.56000      5.1390298E-08
   22.62000      4.9563766E-08
   22.68000      4.7732378E-08
   22.74000      4.5873623E-08
   22.80000      4.3954913E-08
   22.86000      4.1946887E-08
   22.92000      3.9834511E-08
   22.98000      3.7622517E-08
   23.04000      3.5333816E-08
   23.10000      3.3001651E-08
   23.16000      3.0658445E-08
   23.22000      2.8325271E-08
   23.28000      2.6005527E-08
   23.34000      2.3684827E-08
   23.40000      2.1336739E-08
   23.46000      1.8931951E-08
   23.52000      1.6447244E-08
   23.58000      1.3870901E-08
   23.64000      1.1202854E-08
   23.70000      8.4500549E-09
   23.76000      5.6197411E-09
   23.82000      2.7141249E-09
   23.88000     -2.7047059E-10
   23.94000     -3.3388823E-09
   24.00000     -6.4881154E-09
   24.06000     -9.6974961E-09
   24.12000     -1.2922209E-08
   24.18000     -1.6093674E-08
   24.24000     -1.9128027E-08
   24.30000     -2.1941021E-08
   24.36000     -2.4465161E-08
   24.42000     -2.6663582E-08
   24.48000     -2.8535917E-08
   24.54000     -3.0113696E-08
   24.60000     -3.1446483E-08
   24.66000     -3.2583127E-08
   24.72000     -3.3554500E-08
   24.78000     -3.4363772E-08
   24.84000     -3.4987568E-08
   24.90000     -3.5387625E-08
   24.96000     -3.5528565E-08
   25.02000     -3.5395246E-08
   25.08000     -3.5003403E-08
   25.14000     -3.4399939E-08
   25.20000     -3.3653137E-08
   25.26000     -3.2836954E-08
   25.32000     -3.2015336E-08
   25.38000     -3.1232233E-08
   25.44000     -3.0510002E-08
   25.50000     -2.9855464E-08
   25.56000     -2.9269508E-08
   25.62000     -2.8755160E-08
   25.68000     -2.8320075E-08
   25.74000     -2.7972494E-08
   25.80000     -2.7713039E-08
   25.86000     -2.7527095E-08
   25.92000     -2.7382418E-08
   25.98000     -2.7234531E-08
   26.04000     -2.7038707E-08
   26.10000     -2.6764173E-08
   26.16000     -2.6404651E-08
   26.22000     -2.5980436E-08
   26.28000     -2.5530555E-08
   26.34000     -2.5097577E-08
   26.40000     -2.4710817E-08
   26.46000     -2.4374476E-08
   26.52000     -2.4065384E-08
   26.58000     -2.3741247E-08
   26.64000     -2.3356250E-08
   26.70000     -2.2878154E-08
   26.76000     -2.2300609E-08
   26.82000     -2.1646398E-08
   26.88000     -2.0960783E-08
   26.94000     -2.0297534E-08
   27.00000     -1.9702629E-08
   27.06000     -1.9200989E-08
   27.12000     -1.8790326E-08
   27.18000     -1.8443595E-08
   27.24000     -1.8118852E-08
   27.30000     -1.7773049E-08
   27.36000     -1.7375356E-08
   27.42000     -1.6915960E-08
   27.48000     -1.6407935E-08
   27.54000     -1.5882041E-08
   27.60000     -1.5376518E-08
   27.66000     -1.4925439E-08
   27.72000     -1.4549307E-08
   27.78000     -1.4250563E-08
   27.84000     -1.4014785E-08
   27.90000     -1.3816501E-08
   27.96000     -1.3627255E-08
   28.02000     -1.3423394E-08
   28.08000     -1.3191563E-08
   28.14000     -1.2930928E-08
   28.20000     -1.2652030E-08
   28.26000     -1.2372753E-08
   28.32000     -1.2112348E-08
   28.38000     -1.1884815E-08
   28.44000     -1.1693366E-08
   28.50000     -1.1527978E-08
   28.56000     -1.1367549E-08
   28.62000     -1.1186986E-08
   28.68000     -1.0967592E-08
   28.74000     -1.0707389E-08
   28.80000     -1.0427162E-08
   28.86000     -1.0168929E-08
   28.92000     -9.9859410E-09
   28.98000     -9.9265325E-09
   29.04000     -1.0016839E-08
   29.10000     -1.0248390E-08
   29.16000     -1.0575453E-08
   29.22000     -1.0923971E-08
   29.28000     -1.1210039E-08
   29.34000     -1.1362570E-08
   29.40000     -1.1343091E-08
   29.46000     -1.1156252E-08
   29.52000     -1.0847485E-08
   29.58000     -1.0488364E-08
   29.64000     -1.0154410E-08
   29.70000     -9.9027622E-09
   29.76000     -9.7573229E-09
   29.82000     -9.7063673E-09
   29.88000     -9.7130579E-09
   29.94000     -9.7345163E-09
   30.00000     -9.7418607E-09
   30.06000     -9.7334780E-09
   30.12000     -9.7366488E-09
   30.18000     -9.7974890E-09
   30.24000     -9.9638262E-09
   30.30000     -1.0268112E-08
   30.36000     -1.0716935E-08
   30.42000     -1.1290453E-08
   30.48000     -1.1950775E-08
   30.54000     -1.2654892E-08
   30.60000     -1.3366535E-08
   30.66000     -1.4062566E-08
   30.72000     -1.4732314E-08
   30.78000     -1.5371327E-08
   30.84000     -1.5972962E-08
   30.90000     -1.6521557E-08
   30.96000     -1.6989885E-08
   31.02000     -1.7341527E-08
   31.08000     -1.7536912E-08
   31.14000     -1.7540549E-08
   31.20000     -1.7326625E-08
   31.26000     -1.6881145E-08
   31.32000     -1.6200136E-08
   31.38000     -1.5285304E-08
   31.44000     -1.4139657E-08
   31.50000     -1.2765658E-08
   31.56000     -1.1167367E-08
   31.62000     -9.3559969E-09
   31.68000     -7.3563688E-09
   31.74000     -5.2108069E-09
   31.80000     -2.9777121E-09
   31.86000     -7.2415851E-10
   31.92000      1.4855097E-09
   31.98000      3.6011676E-09
   32.04000      5.5942948E-09
   32.10000      7.4585973E-09
   32.16000      9.2038750E-09
   32.22000      1.0845746E-08
   32.28000      1.2395273E-08
   32.34000      1.3852318E-08
   32.40000      1.5204721E-08
   32.46000      1.6433118E-08
   32.52000      1.7519058E-08
   32.58000      1.8453184E-08
   32.64000      1.9240284E-08
   32.70000      1.9899513E-08
   32.76000      2.0459780E-08
   32.82000      2.0952156E-08
   32.88000      2.1402185E-08
   32.94000      2.1825004E-08
   33.00000      2.2225013E-08
   33.06000      2.2600000E-08
   33.12000      2.2947752E-08
   33.18000      2.3272099E-08
   33.24000      2.3585510E-08
   33.30000      2.3906745E-08
   33.36000      2.4254183E-08
   33.42000      2.4637194E-08
   33.48000      2.5048793E-08
   33.54000      2.5462414E-08
   33.60000      2.5834217E-08
   33.66000      2.6110612E-08
   33.72000      2.6239189E-08
   33.78000      2.6180233E-08
   33.84000      2.5915918E-08
   33.90000      2.5454586E-08
   33.96000      2.4828658E-08
   34.02000      2.4086233E-08
   34.08000      2.3278284E-08
   34.14000      2.2445047E-08
   34.20000      2.1605867E-08
   34.26000      2.0756138E-08
   34.32000      1.9872626E-08
   34.38000      1.8925494E-08
   34.44000      1.7892605E-08
   34.50000      1.6770631E-08
   34.56000      1.5578738E-08
   34.62000      1.4353490E-08
   34.68000      1.3137258E-08
   34.74000      1.1964751E-08
   34.80000      1.0852806E-08
   34.86000      9.7966790E-09
   34.92000      8.7732852E-09
   34.98000      7.7490787E-09
   35.04000      6.6890102E-09
   35.10000      5.5634413E-09
   35.16000      4.3514619E-09
   35.22000      3.0408136E-09
   35.28000      1.6256640E-09
   35.34000      1.0354465E-10
   35.40000     -1.5276709E-09
   35.46000     -3.2722589E-09
   35.52000     -5.1380078E-09
   35.58000     -7.1354651E-09
   35.64000     -9.2740153E-09
   35.70000     -1.1554586E-08
   35.76000     -1.3960524E-08
   35.82000     -1.6450070E-08
   35.88000     -1.8954678E-08
   35.94000     -2.1386322E-08
   36.00000     -2.3653778E-08
   36.06000     -2.5684001E-08
   36.12000     -2.7441748E-08
   36.18000     -2.8940308E-08
   36.24000     -3.0238745E-08
   36.30000     -3.1425955E-08
   36.36000     -3.2596443E-08
   36.42000     -3.3825760E-08
   36.48000     -3.5153139E-08
   36.54000     -3.6575951E-08
   36.60000     -3.8056125E-08
   36.66000     -3.9534857E-08
   36.72000     -4.0949924E-08
   36.78000     -4.2250232E-08
   36.84000     -4.3404270E-08
   36.90000     -4.4401791E-08
   36.96000     -4.5250065E-08
   37.02000     -4.5967202E-08
   37.08000     -4.6574819E-08
   37.14000     -4.7091760E-08
   37.20000     -4.7529689E-08
   37.26000     -4.7890897E-08
   37.32000     -4.8168420E-08
   37.38000     -4.8348682E-08
   37.44000     -4.8416297E-08
   37.50000     -4.8360281E-08
   37.56000     -4.8180002E-08
   37.62000     -4.7888552E-08
   37.68000     -4.7511783E-08
   37.74000     -4.7082338E-08
   37.80000     -4.6630142E-08
   37.86000     -4.6172431E-08
   37.92000     -4.5707036E-08
   37.98000     -4.5211525E-08
   38.04000     -4.4648598E-08
   38.10000     -4.3975568E-08
   38.16000     -4.3154543E-08
   38.22000     -4.2160146E-08
   38.28000     -4.0983252E-08
   38.34000     -3.9631136E-08
   38.40000     -3.8125471E-08
   38.46000     -3.6499454E-08
   38.52000     -3.4794297E-08
   38.58000     -3.3054757E-08
   38.64000     -3.1323573E-08
   38.70000     -2.9635896E-08
   38.76000     -2.8015851E-08
   38.82000     -2.6477231E-08
   38.88000     -2.5028692E-08
   38.94000     -2.3681238E-08
   39.00000     -2.2454019E-08
   39.06000     -2.1374639E-08
   39.12000     -2.0472726E-08
   39.18000     -1.9769097E-08
   39.24000     -1.9265720E-08
   39.30000     -1.8941730E-08
   39.36000     -1.8758207E-08
   39.42000     -1.8670061E-08
   39.48000     -1.8639735E-08
   39.54000     -1.8646503E-08
   39.60000     -1.8687183E-08
   39.66000     -1.8768555E-08
   39.72000     -1.8895815E-08
   39.78000     -1.9063416E-08
   39.84000     -1.9253191E-08
   39.90000     -1.9440858E-08
   39.96000     -1.9607423E-08
   40.02000     -1.9749317E-08
   40.08000     -1.9881471E-08
   40.14000     -2.0030880E-08
   40.20000     -2.0222982E-08
   40.26000     -2.0466837E-08
   40.32000     -2.0746048E-08
   40.38000     -2.1019915E-08
   40.44000     -2.1234635E-08
   40.50000     -2.1339766E-08
   40.56000     -2.1302714E-08
   40.62000     -2.1114976E-08
   40.68000     -2.0787633E-08
   40.74000     -2.0338538E-08
   40.80000     -1.9777413E-08
   40.86000     -1.9095912E-08
   40.92000     -1.8267603E-08
   40.98000     -1.7258454E-08
   41.04000     -1.6044021E-08
   41.10000     -1.4626592E-08
   41.16000     -1.3045419E-08
   41.22000     -1.1375485E-08
   41.28000     -9.7143191E-09
   41.34000     -8.1604066E-09
   41.40000     -6.7896853E-09
   41.46000     -5.6372818E-09
   41.52000     -4.6900746E-09
   41.58000     -3.8922470E-09
   41.64000     -3.1619305E-09
   41.70000     -2.4136217E-09
   41.76000     -1.5794329E-09
   41.82000     -6.2295452E-10
   41.88000      4.5767284E-10
   41.94000      1.6370511E-09
   42.00000      2.8763092E-09
   42.06000      4.1377213E-09
   42.12000      5.3949529E-09
   42.18000      6.6361365E-09
   42.24000      7.8601987E-09
   42.30000      9.0694874E-09
   42.36000      1.0262790E-08
   42.42000      1.1431831E-08
   42.48000      1.2562150E-08
   42.54000      1.3636859E-08
   42.60000      1.4640655E-08
   42.66000      1.5561795E-08
   42.72000      1.6391539E-08
   42.78000      1.7122332E-08
   42.84000      1.7746846E-08
   42.90000      1.8259250E-08
   42.96000      1.8658179E-08
   43.02000      1.8949214E-08
   43.08000      1.9144176E-08
   43.14000      1.9256092E-08
   43.20000      1.9291097E-08
   43.26000      1.9240929E-08
   43.32000      1.9080144E-08
   43.38000      1.8770589E-08
   43.44000      1.8272504E-08
   43.50000      1.7558403E-08
   43.56000      1.6624346E-08
   43.62000      1.5493853E-08
   43.68000      1.4212517E-08
   43.74000      1.2834970E-08
   43.80000      1.1408830E-08
   43.86000      9.9615667E-09
   43.92000      8.4952783E-09
   43.98000      6.9915860E-09
   44.04000      5.4250902E-09
   44.10000      3.7804702E-09
   44.16000      2.0665933E-09
   44.22000      3.2176631E-10
   44.28000     -1.3925656E-09
   44.34000     -3.0078771E-09
   44.40000     -4.4686419E-09
   44.46000     -5.7489826E-09
   44.52000     -6.8597217E-09
   44.58000     -7.8434672E-09
   44.64000     -8.7598400E-09
   44.70000     -9.6663149E-09
   44.76000     -1.0601049E-08
   44.82000     -1.1572561E-08
   44.88000     -1.2558207E-08
   44.94000     -1.3510383E-08
   45.00000     -1.4367339E-08
   45.06000     -1.5064739E-08
   45.12000     -1.5544542E-08
   45.18000     -1.5758879E-08
   45.24000     -1.5668313E-08
   45.30000     -1.5235479E-08
   45.36000     -1.4416491E-08
   45.42000     -1.3152834E-08
   45.48000     -1.1365738E-08
   45.54000     -8.9533705E-09
   45.60000     -5.7895693E-09
   45.66000     -1.7219526E-09
   45.72000      3.4321694E-09
   45.78000      9.8922381E-09
   45.84000      1.7921986E-08
   45.90000      2.7836391E-08
   45.96000      4.0007176E-08
   46.02000      5.4867517E-08
   46.08000      7.2917800E-08
   46.14000      9.4734524E-08
   46.20000      1.2098370E-07
   46.26000      1.5243887E-07
   46.32000      1.9000304E-07
   46.38000      2.3473399E-07
   46.44000      2.8787207E-07
   46.50000      3.5087004E-07
   46.56000      4.2542484E-07
   46.62000      5.1351014E-07
   46.68000      6.1740980E-07
   46.74000      7.3975298E-07
   46.80000      8.8355205E-07
   46.86000      1.0522461E-06
   46.92000      1.2497520E-06
   46.98000      1.4805224E-06
   47.04000      1.7496124E-06
   47.10000      2.0627501E-06
   47.16000      2.4264141E-06
   47.22000      2.8479124E-06
   47.28000      3.3354652E-06
   47.34000      3.8982926E-06
   47.40000      4.5467041E-06
   47.46000      5.2921951E-06
   47.52000      6.1475430E-06
   47.58000      7.1269155E-06
   47.64000      8.2459774E-06
   47.70000      9.5220048E-06
   47.76000      1.0974008E-05
   47.82000      1.2622847E-05
   47.88000      1.4491364E-05
   47.94000      1.6604494E-05
   48.00000      1.8989385E-05
   48.06000      2.1675507E-05
   48.12000      2.4694742E-05
   48.18000      2.8081471E-05
   48.24000      3.1872645E-05
   48.30000      3.6107831E-05
   48.36000      4.0829269E-05
   48.42000      4.6081899E-05
   48.48000      5.1913376E-05
   48.54000      5.8374069E-05
   48.60000      6.5517008E-05
   48.66000      7.3397809E-05
   48.72000      8.2074541E-05
   48.78000      9.1607602E-05
   48.84000      1.0205949E-04
   48.90000      1.1349460E-04
   48.96000      1.2597894E-04
   49.02000      1.3957988E-04
   49.08000      1.5436574E-04
   49.14000      1.7040546E-04
   49.20000      1.8776808E-04
   49.26000      2.0652231E-04
   49.32000      2.2673598E-04
   49.38000      2.4847544E-04
   49.44000      2.7180486E-04
   49.50000      2.9678579E-04
   49.56000      3.2347630E-04
   49.62000      3.5193042E-04
   49.68000      3.8219726E-04
   49.74000      4.1432050E-04
   49.80000      4.4833744E-04
   49.86000      4.8427840E-04
   49.92000      5.2216597E-04
   49.98000      5.6201406E-04
   50.04000      6.0382765E-04
   50.10000      6.4760179E-04
   50.16000      6.9332123E-04
   50.22000      7.4096012E-04
   50.28000      7.9048122E-04
   50.34000      8.4183580E-04
   50.40000      8.9496310E-04
   50.46000      9.4979053E-04
   50.52000      1.0062334E-03
   50.58000      1.0641952E-03
   50.64000      1.1235676E-03
   50.70000      1.1842309E-03
   50.76000      1.2460547E-03
   50.82000      1.3088980E-03
   50.88000      1.3726107E-03
   50.94000      1.4370336E-03
   51.00000      1.5020004E-03
   51.06000      1.5673377E-03
   51.12000      1.6328676E-03
   51.18000      1.6984077E-03
   51.24000      1.7637736E-03
   51.30000      1.8287802E-03
   51.36000      1.8932428E-03
   51.42000      1.9569790E-03
   51.48000      2.0198105E-03
   51.54000      2.0815646E-03
   51.60000      2.1420759E-03
   51.66000      2.2011886E-03
   51.72000      2.2587569E-03
   51.78000      2.3146467E-03
   51.84000      2.3687384E-03
   51.90000      2.4209262E-03
   51.96000      2.4711206E-03
   52.02000      2.5192488E-03
   52.08000      2.5652552E-03
   52.14000      2.6091030E-03
   52.20000      2.6507739E-03
   52.26000      2.6902680E-03
   52.32000      2.7276042E-03
   52.38000      2.7628210E-03
   52.44000      2.7959743E-03
   52.50000      2.8271379E-03
   52.56000      2.8564015E-03
   52.62000      2.8838704E-03
   52.68000      2.9096643E-03
   52.74000      2.9339148E-03
   52.80000      2.9567648E-03
   52.86000      2.9783661E-03
   52.92000      2.9988787E-03
   52.98000      3.0184668E-03
   53.04000      3.0372979E-03
   53.10000      3.0555404E-03
   53.16000      3.0733608E-03
   53.22000      3.0909234E-03
   53.28000      3.1083853E-03
   53.34000      3.1258971E-03
   53.40000      3.1436000E-03
   53.46000      3.1616222E-03
   53.52000      3.1800801E-03
   53.58000      3.1990740E-03
   53.64000      3.2186890E-03
   53.70000      3.2389928E-03
   53.76000      3.2600344E-03
   53.82000      3.2818448E-03
   53.88000      3.3044345E-03
   53.94000      3.3277958E-03
   54.00000      3.3519000E-03
   54.06000      3.3767007E-03
   54.12000      3.4021316E-03
   54.18000      3.4281102E-03
   54.24000      3.4545362E-03
   54.30000      3.4812943E-03
   54.36000      3.5082551E-03
   54.42000      3.5352770E-03
   54.48000      3.5622071E-03
   54.54000      3.5888853E-03
   54.60000      3.6151435E-03
   54.66000      3.6408103E-03
   54.72000      3.6657108E-03
   54.78000      3.6896709E-03
   54.84000      3.7125181E-03
   54.90000      3.7340850E-03
   54.96000      3.7542090E-03
   55.02000      3.7727377E-03
   55.08000      3.7895273E-03
   55.14000      3.8044455E-03
   55.20000      3.8173734E-03
   55.26000      3.8282068E-03
   55.32000      3.8368565E-03
   55.38000      3.8432509E-03
   55.44000      3.8473357E-03
   55.50000      3.8490740E-03
   55.56000      3.8484472E-03