  -2.400000      0.0000000E+00
  -2.340000      0.0000000E+00
  -2.280000      0.0000000E+00
  -2.220000      0.0000000E+00
  -2.160000      0.0000000E+00
  -2.100000      0.0000000E+00
  -2.040000      0.0000000E+00
  -1.980000      0.0000000E+00
  -1.920000      0.0000000E+00
  -1.860000      1.2676613E-27
  -1.800000      1.5794359E-26
  -1.740000      9.3204193E-26
  -1.680000      3.2491689E-25
  -1.620000      6.0952585E-25
  -1.560000     -2.4912937E-25
  -1.500000     -6.1871532E-24
  -1.440000     -2.4350581E-23
  -1.380000     -5.8689011E-23
  -1.320000     -8.9073017E-23
  -1.260000     -3.7327655E-23
  -1.200000      2.4994950E-22
  -1.140000      9.3221074E-22
  -1.080000      1.9419295E-21
  -1.020000      2.6048029E-21
 -0.9600000      1.3656071E-21
 -0.9000000     -3.8492030E-21
 -0.8400000     -1.4075218E-20
 -0.7800000     -2.6612769E-20
 -0.7200000     -3.2595233E-20
 -0.6600000     -1.7707775E-20
 -0.6000000      3.0925898E-20
 -0.5400000      1.1149861E-19
 -0.4800000      1.9369443E-19
 -0.4200000      2.1632389E-19
 -0.3600000      1.0919999E-19
 -0.3000000     -1.5843855E-19
 -0.2400000     -5.2225361E-19
 -0.1800000     -8.0131106E-19
 -0.1200000     -7.5519558E-19
 -5.9999999E-02 -2.3040452E-19
  0.0000000E+00  6.6191696E-19
  5.9999999E-02  1.4640105E-18
  0.1200000      1.5225155E-18
  0.1800000      4.0975682E-19
  0.2400000     -1.5496727E-18
  0.3000000     -3.0175112E-18
  0.3600000     -2.0563094E-18
  0.4200000      2.6384911E-18
  0.4800000      1.0112658E-17
  0.5400000      1.6162818E-17
  0.6000000      1.4209572E-17
  0.6600000     -1.3530651E-18
  0.7200000     -3.0182146E-17
  0.7800000     -6.1971472E-17
  0.8400000     -7.6897529E-17
  0.9000000     -5.2992575E-17
  0.9600000      2.0423020E-17
   1.020000      1.2871551E-16
   1.080000      2.2622154E-16
   1.140000      2.4715013E-16
   1.200000      1.3516260E-16
   1.260000     -1.1698311E-16
   1.320000     -4.3684485E-16
   1.380000     -6.7368453E-16
   1.440000     -6.4653644E-16
   1.500000     -2.3309341E-16
   1.560000      5.3256355E-16
   1.620000      1.4042708E-15
   1.680000      1.9591224E-15
   1.740000      1.7431849E-15
   1.800000      4.9535429E-16
   1.860000     -1.6364978E-15
   1.920000     -4.0007839E-15
   1.980000     -5.5613244E-15
   2.040000     -5.2473285E-15
   2.100000     -2.4428108E-15
   2.160000      2.5728992E-15
   2.220000      8.4558672E-15
   2.280000      1.3058257E-14
   2.340000      1.4120902E-14
   2.400000      1.0200299E-14
   2.460000      1.4749120E-15
   2.520000     -9.9551308E-15
   2.580000     -2.0520347E-14
   2.640000     -2.6345727E-14
   2.700000     -2.4755746E-14
   2.760000     -1.5520784E-14
   2.820000     -1.2452923E-15
   2.880000      1.3423335E-14
   2.940000      2.3601262E-14
   3.000000      2.6319682E-14
   3.060000      2.2057722E-14
   3.120000      1.4797574E-14
   3.180000      1.0280212E-14
   3.240000      1.2950153E-14
   3.300000      2.2836879E-14
   3.360000      3.3960122E-14
   3.420000      3.5512144E-14
   3.480000      1.6063307E-14
   3.540000     -3.0338047E-14
   3.600000     -9.8510481E-14
   3.660000     -1.6973987E-13
   3.720000     -2.1480070E-13
   3.780000     -2.0281086E-13
   3.840000     -1.1394104E-13
   3.900000      4.8208280E-14
   3.960000      2.4983477E-13
   4.020000      4.3029138E-13
   4.080000      5.1733184E-13
   4.140000      4.5176531E-13
   4.200000      2.1457566E-13
   4.260000     -1.5346139E-13
   4.320000     -5.4961851E-13
   4.380000     -8.3055969E-13
   4.440000     -8.5582024E-13
   4.500000     -5.4305188E-13
   4.560000      8.2859582E-14
   4.620000      8.6735854E-13
   4.680000      1.5464713E-12
   4.740000      1.8138685E-12
   4.800000      1.4224251E-12
   4.860000      2.9216224E-13
   4.920000     -1.4125624E-12
   4.980000     -3.2712453E-12
   5.040000     -4.6800454E-12
   5.100000     -5.0034738E-12
   5.160000     -3.7718825E-12
   5.220000     -8.7106201E-13
   5.280000      3.3358494E-12
   5.340000      8.0020209E-12
   5.400000      1.1926282E-11
   5.460000      1.3802248E-11
   5.520000      1.2537260E-11
   5.580000      7.5690513E-12
   5.640000     -8.9611760E-13
   5.700000     -1.1785560E-11
   5.760000     -2.3235571E-11
   5.820000     -3.2838197E-11
   5.880000     -3.8024597E-11
   5.940000     -3.6525758E-11
   6.000000     -2.6838993E-11
   6.060000     -8.6281633E-12
   6.120000      1.7004561E-11
   6.180000      4.7420880E-11
   6.240000      7.8547086E-11
   6.300000      1.0517685E-10
   6.360000      1.2146130E-10
   6.420000      1.2155807E-10
   6.480000      1.0040385E-10
   6.540000      5.4570719E-11
   6.600000     -1.6838631E-11
   6.660000     -1.1131424E-10
   6.720000     -2.2215969E-10
   6.780000     -3.3791686E-10
   6.840000     -4.4212389E-10
   6.900000     -5.1353849E-10
   6.960000     -5.2692911E-10
   7.020000     -4.5447215E-10
   7.080000     -2.6770114E-10
   7.140000      6.0141753E-11
   7.200000      5.5157878E-10
   7.260000      1.2224571E-09
   7.320000      2.0798574E-09
   7.380000      3.1205640E-09
   7.440000      4.3302579E-09
   7.500000      5.6835212E-09
   7.560000      7.1446919E-09
   7.620000      8.6695380E-09
   7.680000      1.0207660E-08
   7.740000      1.1705434E-08
   7.800000      1.3109266E-08
   7.860000      1.4368815E-08
   7.920000      1.5439904E-08
   7.980000      1.6286823E-08
   8.040000      1.6883902E-08
   8.100000      1.7216257E-08
   8.160000      1.7279788E-08
   8.220000      1.7080506E-08
   8.280000      1.6633246E-08
   8.340000      1.5959875E-08
   8.400000      1.5087020E-08
   8.460000      1.4043445E-08
   8.520000      1.2857307E-08
   8.580000      1.1553603E-08
   8.640000      1.0152208E-08
   8.700000      8.6669134E-09
   8.760000      7.1056565E-09
   8.820000      5.4719558E-09
   8.880000      3.7672581E-09
   8.940000      1.9936888E-09
   9.000000      1.5659338E-10
   9.060000     -1.7336999E-09
   9.120000     -3.6612731E-09
   9.180000     -5.6052794E-09
   9.240000     -7.5416944E-09
   9.300000     -9.4457553E-09
   9.360000     -1.1294558E-08
   9.420000     -1.3069302E-08
   9.480000     -1.4756767E-08
   9.540000     -1.6349846E-08
   9.600000     -1.7847130E-08
   9.660000     -1.9251811E-08
   9.720000     -2.0570207E-08
   9.780000     -2.1810330E-08
   9.840000     -2.2980759E-08
   9.900000     -2.4089966E-08
   9.960000     -2.5146091E-08
   10.02000     -2.6156956E-08
   10.08000     -2.7130055E-08
   10.14000     -2.8072309E-08
   10.20000     -2.8989426E-08
   10.26000     -2.9884845E-08
   10.32000     -3.0758500E-08
   10.38000     -3.1605619E-08
   10.44000     -3.2415862E-08
   10.50000     -3.3173105E-08
   10.56000     -3.3855887E-08
   10.62000     -3.4438610E-08
   10.68000     -3.4893226E-08
   10.74000     -3.5191338E-08
   10.80000     -3.5306396E-08
   10.86000     -3.5215923E-08
   10.92000     -3.4903621E-08
   10.98000     -3.4361257E-08
   11.04000     -3.3590119E-08
   11.10000     -3.2601864E-08
   11.16000     -3.1418363E-08
   11.22000     -3.0070314E-08
   11.28000     -2.8594551E-08
   11.34000     -2.7030181E-08
   11.40000     -2.5414161E-08
   11.46000     -2.3777098E-08
   11.52000     -2.2140171E-08
   11.58000     -2.0513989E-08
   11.64000     -1.8899716E-08
   11.70000     -1.7292349E-08
   11.76000     -1.5685369E-08
   11.82000     -1.4075657E-08
   11.88000     -1.2467363E-08
   11.94000     -1.0873592E-08
   12.00000     -9.3152845E-09
   12.06000     -7.8173983E-09
   12.12000     -6.4031860E-09
   12.18000     -5.0880598E-09
   12.24000     -3.8747201E-09
   12.30000     -2.7511342E-09
   12.36000     -1.6922588E-09
   12.42000     -6.6546990E-10
   12.48000      3.6141676E-10
   12.54000      1.4115276E-09
   12.60000      2.4920896E-09
   12.66000      3.5914833E-09
   12.72000      4.6813859E-09
   12.78000      5.7238623E-09
   12.84000      6.6818320E-09
   12.90000      7.5302902E-09
   12.96000      8.2652560E-09
   13.02000      8.9079411E-09
   13.08000      9.5027648E-09
   13.14000      1.0109529E-08
   13.20000      1.0791573E-08
   13.26000      1.1602803E-08
   13.32000      1.2576738E-08
   13.38000      1.3720086E-08
   13.44000      1.5012096E-08
   13.50000      1.6409365E-08
   13.56000      1.7854457E-08
   13.62000      1.9285890E-08
   13.68000      2.0647009E-08
   13.74000      2.1892019E-08
   13.80000      2.2988434E-08
   13.86000      2.3916485E-08
   13.92000      2.4666711E-08
   13.98000      2.5237332E-08
   14.04000      2.5632598E-08
   14.10000      2.5862658E-08
   14.16000      2.5944560E-08
   14.22000      2.5903347E-08
   14.28000      2.5771932E-08
   14.34000      2.5588671E-08
   14.40000      2.5392197E-08
   14.46000      2.5214135E-08
   14.52000      2.5071200E-08
   14.58000      2.4958892E-08
   14.64000      2.4849070E-08
   14.70000      2.4693067E-08
   14.76000      2.4430689E-08
   14.82000      2.4003670E-08
   14.88000      2.3370701E-08
   14.94000      2.2519984E-08
   15.00000      2.1475659E-08
   15.06000      2.0295602E-08
   15.12000      1.9060529E-08
   15.18000      1.7856724E-08
   15.24000      1.6756722E-08
   15.30000      1.5802945E-08
   15.36000      1.4998497E-08
   15.42000      1.4307292E-08
   15.48000      1.3663123E-08
   15.54000      1.2984939E-08
   15.60000      1.2194236E-08
   15.66000      1.1230340E-08
   15.72000      1.0060396E-08
   15.78000      8.6825818E-09
   15.84000      7.1228983E-09
   15.90000      5.4273901E-09
   15.96000      3.6524437E-09
   16.02000      1.8558537E-09
   16.08000      9.0766283E-11
   16.14000     -1.5964877E-09
   16.20000     -3.1649068E-09
   16.26000     -4.5750577E-09
   16.32000     -5.7851408E-09
   16.38000     -6.7490222E-09
   16.44000     -7.4176625E-09
   16.50000     -7.7440756E-09
   16.56000     -7.6904758E-09
   16.62000     -7.2351378E-09
   16.68000     -6.3762164E-09
   16.74000     -5.1305293E-09
   16.80000     -3.5269576E-09
   16.86000     -1.5960987E-09
   16.92000      6.4061878E-10
   16.98000      3.1785881E-09
   17.04000      6.0314433E-09
   17.10000      9.2251220E-09
   17.16000      1.2785833E-08
   17.22000      1.6725256E-08
   17.28000      2.1027368E-08
   17.34000      2.5640912E-08
   17.40000      3.0479907E-08
   17.46000      3.5432237E-08
   17.52000      4.0374044E-08
   17.58000      4.5185967E-08
   17.64000      4.9767145E-08
   17.70000      5.4043667E-08
   17.76000      5.7970137E-08
   17.82000      6.1525199E-08
   17.88000      6.4703535E-08
   17.94000      6.7507621E-08
   18.00000      6.9942089E-08
   18.06000      7.2012114E-08
   18.12000      7.3725545E-08
   18.18000      7.5097013E-08
   18.24000      7.6151572E-08
   18.30000      7.6925680E-08
   18.36000      7.7464541E-08
   18.42000      7.7816125E-08
   18.48000      7.8023490E-08
   18.54000      7.8117587E-08
   18.60000      7.8112393E-08
   18.66000      7.8003595E-08
   18.72000      7.7770977E-08
   18.78000      7.7383845E-08
   18.84000      7.6807972E-08
   18.90000      7.6012697E-08
   18.96000      7.4976569E-08
   19.02000      7.3690700E-08
   19.08000      7.2159082E-08
   19.14000      7.0396084E-08
   19.20000      6.8422089E-08
   19.26000      6.6258380E-08
   19.32000      6.3922940E-08
   19.38000      6.1428594E-08
   19.44000      5.8783868E-08
   19.50000      5.5996463E-08
   19.56000      5.3077823E-08
   19.62000      5.0047099E-08
   19.68000      4.6932605E-08
   19.74000      4.3770019E-08
   19.80000      4.0597520E-08
   19.86000      3.7449471E-08
   19.92000      3.4350894E-08
   19.98000      3.1314858E-08
   20.04000      2.8343830E-08
   20.10000      2.5434595E-08
   20.16000      2.2584747E-08
   20.22000      1.9798161E-08
   20.28000      1.7087009E-08
   20.34000      1.4469300E-08
   20.40000      1.1962777E-08
   20.46000      9.5774961E-09
   20.52000      7.3101378E-09
   20.58000      5.1423394E-09
   20.64000      3.0437632E-09
   20.70000      9.7858632E-10
   20.76000     -1.0872542E-09
   20.82000     -3.1809102E-09
   20.88000     -5.3213558E-09
   20.94000     -7.5219528E-09
   21.00000     -9.7950528E-09
   21.06000     -1.2155983E-08
   21.12000     -1.4624089E-08
   21.18000     -1.7219897E-08
   21.24000     -1.9959197E-08
   21.30000     -2.2846244E-08
   21.36000     -2.5868712E-08
   21.42000     -2.8996530E-08
   21.48000     -3.2185373E-08
   21.54000     -3.5384055E-08
   21.60000     -3.8543899E-08
   21.66000     -4.1627430E-08
   21.72000     -4.4613998E-08
   21.78000     -4.7500691E-08
   21.84000     -5.0298144E-08
   21.90000     -5.3022333E-08
   21.96000     -5.5684556E-08
   22.02000     -5.8282573E-08
   22.08000     -6.0795678E-08
   22.14000     -6.3185546E-08
   22.20000     -6.5403050E-08
   22.26000     -6.7399334E-08
   22.32000     -6.9138082E-08
   22.38000     -7.0605360E-08
   22.44000     -7.1814085E-08
   22.50000     -7.2801733E-08
   22.56000     -7.3621976E-08
   22.62000     -7.4332753E-08
   22.68000     -7.4984037E-08
   22.74000     -7.5608810E-08
   22.80000     -7.6219088E-08
   22.86000     -7.6807517E-08
   22.92000     -7.7353093E-08
   22.98000     -7.7828709E-08
   23.04000     -7.8207862E-08
   23.10000     -7.8468567E-08
   23.16000     -7.8593999E-08
   23.22000     -7.8570451E-08
   23.28000     -7.8384495E-08
   23.34000     -7.8021181E-08
   23.40000     -7.7464513E-08
   23.46000     -7.6700623E-08
   23.52000     -7.5722632E-08
   23.58000     -7.4535613E-08
   23.64000     -7.3160074E-08
   23.70000     -7.1632726E-08
   23.76000     -7.0004127E-08
   23.82000     -6.8333740E-08
   23.88000     -6.6683207E-08
   23.94000     -6.5108978E-08
   24.00000     -6.3655513E-08
   24.06000     -6.2350061E-08
   24.12000     -6.1200055E-08
   24.18000     -6.0193770E-08
   24.24000     -5.9304178E-08
   24.30000     -5.8495488E-08
   24.36000     -5.7730713E-08
   24.42000     -5.6978479E-08
   24.48000     -5.6217488E-08
   24.54000     -5.5437742E-08
   24.60000     -5.4639006E-08
   24.66000     -5.3827684E-08
   24.72000     -5.3013771E-08
   24.78000     -5.2209010E-08
   24.84000     -5.1426532E-08
   24.90000     -5.0681322E-08
   24.96000     -4.9990490E-08
   25.02000     -4.9372364E-08
   25.08000     -4.8844282E-08
   25.14000     -4.8419572E-08
   25.20000     -4.8104855E-08
   25.26000     -4.7898645E-08
   25.32000     -4.7791840E-08
   25.38000     -4.7769994E-08
   25.44000     -4.7816670E-08
   25.50000     -4.7917052E-08
   25.56000     -4.8060940E-08
   25.62000     -4.8244658E-08
   25.68000     -4.8471534E-08
   25.74000     -4.8750984E-08
   25.80000     -4.9096233E-08
   25.86000     -4.9521020E-08
   25.92000     -5.0035716E-08
   25.98000     -5.0643699E-08
   26.04000     -5.1338784E-08
   26.10000     -5.2104564E-08
   26.16000     -5.2916008E-08
   26.22000     -5.3743044E-08
   26.28000     -5.4555322E-08
   26.34000     -5.5326737E-08
   26.40000     -5.6038555E-08
   26.46000     -5.6680221E-08
   26.52000     -5.7247824E-08
   26.58000     -5.7740962E-08
   26.64000     -5.8159340E-08
   26.70000     -5.8500504E-08
   26.76000     -5.8759657E-08
   26.82000     -5.8931651E-08
   26.88000     -5.9014258E-08
   26.94000     -5.9011061E-08
   27.00000     -5.8932255E-08
   27.06000     -5.8792200E-08
   27.12000     -5.8603742E-08
   27.18000     -5.8370901E-08
   27.24000     -5.8082311E-08
   27.30000     -5.7708277E-08
   27.36000     -5.7203184E-08
   27.42000     -5.6513571E-08
   27.48000     -5.5589862E-08
   27.54000     -5.4398559E-08
   27.60000     -5.2931007E-08
   27.66000     -5.1205799E-08
   27.72000     -4.9263853E-08
   27.78000     -4.7157410E-08
   27.84000     -4.4936186E-08
   27.90000     -4.2634788E-08
   27.96000     -4.0264997E-08
   28.02000     -3.7815006E-08
   28.08000     -3.5255649E-08
   28.14000     -3.2551522E-08
   28.20000     -2.9673886E-08
   28.26000     -2.6611700E-08
   28.32000     -2.3378233E-08
   28.38000     -2.0011910E-08
   28.44000     -1.6571756E-08
   28.50000     -1.3129068E-08
   28.56000     -9.7577022E-09
   28.62000     -6.5251835E-09
   28.68000     -3.4864185E-09
   28.74000     -6.8070094E-10
   28.80000      1.8681343E-09
   28.86000      4.1492831E-09
   28.92000      6.1614527E-09
   28.98000      7.9093594E-09
   29.04000      9.4010426E-09
   29.10000      1.0646306E-08
   29.16000      1.1656192E-08
   29.22000      1.2443095E-08
   29.28000      1.3021078E-08
   29.34000      1.3406034E-08
   29.40000      1.3615630E-08
   29.46000      1.3669111E-08
   29.52000      1.3587214E-08
   29.58000      1.3392313E-08
   29.64000      1.3108739E-08
   29.70000      1.2762964E-08
   29.76000      1.2383266E-08
   29.82000      1.1998549E-08
   29.88000      1.1636312E-08
   29.94000      1.1320102E-08
   30.00000      1.1067046E-08
   30.06000      1.0886140E-08
   30.12000      1.0777794E-08
   30.18000      1.0734797E-08
   30.24000      1.0744500E-08
   30.30000      1.0791726E-08
   30.36000      1.0861734E-08
   30.42000      1.0942584E-08
   30.48000      1.1026353E-08
   30.54000      1.1109007E-08
   30.60000      1.1189085E-08
   30.66000      1.1265853E-08
   30.72000      1.1337851E-08
   30.78000      1.1402743E-08
   30.84000      1.1458916E-08
   30.90000      1.1508420E-08
   30.96000      1.1559957E-08
   31.02000      1.1630164E-08
   31.08000      1.1741777E-08
   31.14000      1.1918337E-08
   31.20000      1.2176648E-08
   31.26000      1.2519470E-08
   31.32000      1.2931191E-08
   31.38000      1.3378354E-08
   31.44000      1.3815019E-08
   31.50000      1.4191042E-08
   31.56000      1.4460183E-08
   31.62000      1.4585221E-08
   31.68000      1.4538761E-08
   31.74000      1.4300531E-08
   31.80000      1.3853527E-08
   31.86000      1.3181779E-08
   31.92000      1.2271376E-08
   31.98000      1.1114531E-08
   32.04000      9.7146859E-09
   32.10000      8.0899021E-09
   32.16000      6.2724959E-09
   32.22000      4.3046464E-09
   32.28000      2.2316125E-09
   32.34000      9.5430372E-11
   32.40000     -2.0682565E-09
   32.46000     -4.2290722E-09
   32.52000     -6.3574537E-09
   32.58000     -8.4196454E-09
   32.64000     -1.0375514E-08
   32.70000     -1.2181631E-08
   32.76000     -1.3799890E-08
   32.82000     -1.5209368E-08
   32.88000     -1.6417166E-08
   32.94000     -1.7463606E-08
   33.00000     -1.8418451E-08
   33.06000     -1.9367771E-08
   33.12000     -2.0394365E-08
   33.18000     -2.1557286E-08
   33.24000     -2.2876847E-08
   33.30000     -2.4330067E-08
   33.36000     -2.5858148E-08
   33.42000     -2.7383594E-08
   33.48000     -2.8831217E-08
   33.54000     -3.0146072E-08
   33.60000     -3.1302715E-08
   33.66000     -3.2303543E-08
   33.72000     -3.3168163E-08
   33.78000     -3.3918965E-08
   33.84000     -3.4568863E-08
   33.90000     -3.5115765E-08
   33.96000     -3.5544890E-08
   34.02000     -3.5836667E-08
   34.08000     -3.5975741E-08
   34.14000     -3.5956855E-08
   34.20000     -3.5785398E-08
   34.26000     -3.5473427E-08
   34.32000     -3.5034176E-08
   34.38000     -3.4478560E-08
   34.44000     -3.3815716E-08
   34.50000     -3.3057148E-08
   34.56000     -3.2221966E-08
   34.62000     -3.1339976E-08
   34.68000     -3.0450494E-08
   34.74000     -2.9597208E-08
   34.80000     -2.8821416E-08
   34.86000     -2.8156988E-08
   34.92000     -2.7629365E-08
   34.98000     -2.7258615E-08
   35.04000     -2.7064134E-08
   35.10000     -2.7067383E-08
   35.16000     -2.7289735E-08
   35.22000     -2.7744989E-08
   35.28000     -2.8429154E-08
   35.34000     -2.9312094E-08
   35.40000     -3.0335723E-08
   35.46000     -3.1421209E-08
   35.52000     -3.2484024E-08
   35.58000     -3.3452537E-08
   35.64000     -3.4283744E-08
   35.70000     -3.4970878E-08
   35.76000     -3.5540179E-08
   35.82000     -3.6038138E-08
   35.88000     -3.6513796E-08
   35.94000     -3.7002131E-08
   36.00000     -3.7513786E-08
   36.06000     -3.8033967E-08
   36.12000     -3.8529855E-08
   36.18000     -3.8963339E-08
   36.24000     -3.9304329E-08
   36.30000     -3.9540481E-08
   36.36000     -3.9680661E-08
   36.42000     -3.9751914E-08
   36.48000     -3.9791729E-08
   36.54000     -3.9838636E-08
   36.60000     -3.9924274E-08
   36.66000     -4.0069086E-08
   36.72000     -4.0282320E-08
   36.78000     -4.0565368E-08
   36.84000     -4.0916454E-08
   36.90000     -4.1334289E-08
   36.96000     -4.1819128E-08
   37.02000     -4.2370690E-08
   37.08000     -4.2984038E-08
   37.14000     -4.3645208E-08
   37.20000     -4.4328893E-08
   37.26000     -4.4999631E-08
   37.32000     -4.5616787E-08
   37.38000     -4.6142372E-08
   37.44000     -4.6549534E-08
   37.50000     -4.6829328E-08
   37.56000     -4.6993673E-08
   37.62000     -4.7073367E-08
   37.68000     -4.7111275E-08
   37.74000     -4.7152092E-08
   37.80000     -4.7230923E-08
   37.86000     -4.7363407E-08
   37.92000     -4.7539874E-08
   37.98000     -4.7725337E-08
   38.04000     -4.7865687E-08
   38.10000     -4.7899277E-08
   38.16000     -4.7771358E-08
   38.22000     -4.7448133E-08
   38.28000     -4.6926889E-08
   38.34000     -4.6239261E-08
   38.40000     -4.5446239E-08
   38.46000     -4.4625555E-08
   38.52000     -4.3854115E-08
   38.58000     -4.3189846E-08
   38.64000     -4.2657881E-08
   38.70000     -4.2245013E-08
   38.76000     -4.1904354E-08
   38.82000     -4.1568775E-08
   38.88000     -4.1169130E-08
   38.94000     -4.0651212E-08
   39.00000     -3.9985938E-08
   39.06000     -3.9169393E-08
   39.12000     -3.8213312E-08
   39.18000     -3.7130047E-08
   39.24000     -3.5918500E-08
   39.30000     -3.4557004E-08
   39.36000     -3.3006501E-08
   39.42000     -3.1223138E-08
   39.48000     -2.9175560E-08
   39.54000     -2.6860175E-08
   39.60000     -2.4308584E-08
   39.66000     -2.1584434E-08
   39.72000     -1.8771074E-08
   39.78000     -1.5954848E-08
   39.84000     -1.3210019E-08
   39.90000     -1.0590087E-08
   39.96000     -8.1272855E-09
   40.02000     -5.8385425E-09
   40.08000     -3.7339971E-09
   40.14000     -1.8237133E-09
   40.20000     -1.1979531E-10
   40.26000      1.3663939E-09
   40.32000      2.6298554E-09
   40.38000      3.6772165E-09
   40.44000      4.5288231E-09
   40.50000      5.2164895E-09
   40.56000      5.7777458E-09
   40.62000      6.2489178E-09
   40.68000      6.6597270E-09
   40.74000      7.0312174E-09
   40.80000      7.3772113E-09
   40.86000      7.7079063E-09
   40.92000      8.0333908E-09
   40.98000      8.3651353E-09
   41.04000      8.7147445E-09
   41.10000      9.0908339E-09
   41.16000      9.4960351E-09
   41.22000      9.9262696E-09
   41.28000      1.0373405E-08
   41.34000      1.0830684E-08
   41.40000      1.1298662E-08
   41.46000      1.1788656E-08
   41.52000      1.2321296E-08
   41.58000      1.2919608E-08
   41.64000      1.3598467E-08
   41.70000      1.4354089E-08
   41.76000      1.5157859E-08
   41.82000      1.5957612E-08
   41.88000      1.6686986E-08
   41.94000      1.7280474E-08
   42.00000      1.7689400E-08
   42.06000      1.7893372E-08
   42.12000      1.7902996E-08
   42.18000      1.7752543E-08
   42.24000      1.7484806E-08
   42.30000      1.7133363E-08
   42.36000      1.6708684E-08
   42.42000      1.6193495E-08
   42.48000      1.5549784E-08
   42.54000      1.4735799E-08
   42.60000      1.3727644E-08
   42.66000      1.2538237E-08
   42.72000      1.1226925E-08
   42.78000      9.8960591E-09
   42.84000      8.6752765E-09
   42.90000      7.6984783E-09
   42.96000      7.0811272E-09
   43.02000      6.9054726E-09
   43.08000      7.2186981E-09
   43.14000      8.0446796E-09
   43.20000      9.4055741E-09
   43.26000      1.1346331E-08
   43.32000      1.3954492E-08
   43.38000      1.7369477E-08
   43.44000      2.1779368E-08
   43.50000      2.7407587E-08
   43.56000      3.4495599E-08
   43.62000      4.3289383E-08
   43.68000      5.4036477E-08
   43.74000      6.6997302E-08
   43.80000      8.2469967E-08
   43.86000      1.0082373E-07
   43.92000      1.2253375E-07
   43.98000      1.4821018E-07
   44.04000      1.7861679E-07
   44.10000      2.1467912E-07
   44.16000      2.5748594E-07
   44.22000      3.0829034E-07
   44.28000      3.6851802E-07
   44.34000      4.3978679E-07
   44.40000      5.2393966E-07
   44.46000      6.2308845E-07
   44.52000      7.3966413E-07
   44.58000      8.7646879E-07
   44.64000      1.0367256E-06
   44.70000      1.2241280E-06
   44.76000      1.4428872E-06
   44.82000      1.6977854E-06
   44.88000      1.9942347E-06
   44.94000      2.3383438E-06
   45.00000      2.7369952E-06
   45.06000      3.1979255E-06
   45.12000      3.7298144E-06
   45.18000      4.3423752E-06
   45.24000      5.0464528E-06
   45.30000      5.8541236E-06
   45.36000      6.7788087E-06
   45.42000      7.8353796E-06
   45.48000      9.0402791E-06
   45.54000      1.0411627E-05
   45.60000      1.1969337E-05
   45.66000      1.3735217E-05
   45.72000      1.5733076E-05
   45.78000      1.7988825E-05
   45.84000      2.0530584E-05
   45.90000      2.3388784E-05
   45.96000      2.6596275E-05
   46.02000      3.0188414E-05
   46.08000      3.4203145E-05
   46.14000      3.8681046E-05
   46.20000      4.3665350E-05
   46.26000      4.9201954E-05
   46.32000      5.5339377E-05
   46.38000      6.2128725E-05
   46.44000      6.9623617E-05
   46.50000      7.7880090E-05
   46.56000      8.6956497E-05
   46.62000      9.6913354E-05
   46.68000      1.0781315E-04
   46.74000      1.1972011E-04
   46.80000      1.3269982E-04
   46.86000      1.4681900E-04
   46.92000      1.6214496E-04
   46.98000      1.7874521E-04
   47.04000      1.9668696E-04
   47.10000      2.1603661E-04
   47.16000      2.3685922E-04
   47.22000      2.5921789E-04
   47.28000      2.8317317E-04
   47.34000      3.0878239E-04
   47.40000      3.3609889E-04
   47.46000      3.6517147E-04
   47.52000      3.9604341E-04
   47.58000      4.2875184E-04
   47.64000      4.6332690E-04
   47.70000      4.9979100E-04
   47.76000      5.3815806E-04
   47.82000      5.7843310E-04
   47.88000      6.2061113E-04
   47.94000      6.6467706E-04
   48.00000      7.1060477E-04
   48.06000      7.5835688E-04
   48.12000      8.0788444E-04
   48.18000      8.5912610E-04
   48.24000      9.1200857E-04
   48.30000      9.6644612E-04
   48.36000      1.0223406E-03
   48.42000      1.0795818E-03
   48.48000      1.1380478E-03
   48.54000      1.1976050E-03
   48.60000      1.2581098E-03
   48.66000      1.3194080E-03
   48.72000      1.3813366E-03
   48.78000      1.4437244E-03
   48.84000      1.5063930E-03
   48.90000      1.5691582E-03
   48.96000      1.6318315E-03
   49.02000      1.6942214E-03
   49.08000      1.7561351E-03
   49.14000      1.8173804E-03
   49.20000      1.8777669E-03
   49.26000      1.9371081E-03
   49.32000      1.9952226E-03
   49.38000      2.0519365E-03
   49.44000      2.1070850E-03
   49.50000      2.1605133E-03
   49.56000      2.2120797E-03
   49.62000      2.2616559E-03
   49.68000      2.3091286E-03
   49.74000      2.3544012E-03
   49.80000      2.3973936E-03
   49.86000      2.4380451E-03
   49.92000      2.4763132E-03
   49.98000      2.5121758E-03
   50.04000      2.5456299E-03
   50.10000      2.5766930E-03
   50.16000      2.6054014E-03
   50.22000      2.6318119E-03
   50.28000      2.6559990E-03
   50.34000      2.6780551E-03
   50.40000      2.6980892E-03
   50.46000      2.7162253E-03
   50.52000      2.7326012E-03
   50.58000      2.7473669E-03
   50.64000      2.7606818E-03
   50.70000      2.7727140E-03
   50.76000      2.7836373E-03
   50.82000      2.7936297E-03
   50.88000      2.8028695E-03
   50.94000      2.8115355E-03
   51.00000      2.8198021E-03
   51.06000      2.8278392E-03
   51.12000      2.8358088E-03
   51.18000      2.8438631E-03
   51.24000      2.8521435E-03
   51.30000      2.8607768E-03
   51.36000      2.8698768E-03
   51.42000      2.8795397E-03
   51.48000      2.8898458E-03
   51.54000      2.9008561E-03
   51.60000      2.9126131E-03
   51.66000      2.9251410E-03
   51.72000      2.9384433E-03
   51.78000      2.9525054E-03
   51.84000      2.9672936E-03
   51.90000      2.9827578E-03
   51.96000      2.9988303E-03
   52.02000      3.0154288E-03
   52.08000      3.0324571E-03
   52.14000      3.0498067E-03
   52.20000      3.0673589E-03
   52.26000      3.0849853E-03
   52.32000      3.1025526E-03
   52.38000      3.1199229E-03
   52.44000      3.1369566E-03
   52.50000      3.1535155E-03
   52.56000      3.1694630E-03
   52.62000      3.1846685E-03
   52.68000      3.1990076E-03
   52.74000      3.2123649E-03
   52.80000      3.2246360E-03
   52.86000      3.2357280E-03
   52.92000      3.2455623E-03
   52.98000      3.2540748E-03
   53.04000      3.2612181E-03
   53.10000      3.2669613E-03
   53.16000      3.2712903E-03
   53.22000      3.2742082E-03
   53.28000      3.2757344E-03
   53.34000      3.2759050E-03
   53.40000      3.2747723E-03
   53.46000      3.2724028E-03
   53.52000      3.2688777E-03
   53.58000      3.2642900E-03
   53.64000      3.2587443E-03
   53.70000      3.2523533E-03
   53.76000      3.2452375E-03
   53.82000      3.2375217E-03
   53.88000      3.2293340E-03
   53.94000      3.2208031E-03
   54.00000      3.2120575E-03
   54.06000      3.2032216E-03
   54.12000      3.1944150E-03
   54.18000      3.1857498E-03
   54.24000      3.1773287E-03
   54.30000      3.1692428E-03
   54.36000      3.1615715E-03
   54.42000      3.1543798E-03
   54.48000      3.1477185E-03
   54.54000      3.1416230E-03
   54.60000      3.1361117E-03
   54.66000      3.1311859E-03
   54.72000      3.1268301E-03
   54.78000      3.1230114E-03
   54.84000      3.1196803E-03
   54.90000      3.1167718E-03
   54.96000      3.1142060E-03
   55.02000      3.1118901E-03
   55.08000      3.1097180E-03
   55.14000      3.1075731E-03
   55.20000      3.1053284E-03
   55.26000      3.1028495E-03
   55.32000      3.0999950E-03
   55.38000      3.0966206E-03
   55.44000      3.0925802E-03
   55.50000      3.0877283E-03
   55.56000      3.0819217E-03