  -2.400000      0.0000000E+00
  -2.340000      0.0000000E+00
  -2.280000      0.0000000E+00
  -2.220000      0.0000000E+00
  -2.160000      0.0000000E+00
  -2.100000      0.0000000E+00
  -2.040000      0.0000000E+00
  -1.980000      0.0000000E+00
  -1.920000      2.8888456E-27
  -1.860000     -1.2737436E-26
  -1.800000     -3.7711170E-25
  -1.740000     -2.7070395E-24
  -1.680000     -1.1147010E-23
  -1.620000     -3.0013867E-23
  -1.560000     -4.9784046E-23
  -1.500000     -1.7922301E-23
  -1.440000      1.8249251E-22
  -1.380000      6.7916749E-22
  -1.320000      1.4004742E-21
  -1.260000      1.7264861E-21
  -1.200000      2.7235457E-22
  -1.140000     -4.6470599E-21
  -1.080000     -1.3374094E-20
  -1.020000     -2.2363124E-20
 -0.9600000     -2.2481523E-20
 -0.9000000     -1.1792699E-21
 -0.8400000      4.9063950E-20
 -0.7800000      1.1753963E-19
 -0.7200000      1.6550077E-19
 -0.6600000      1.3309063E-19
 -0.6000000     -2.6536439E-20
 -0.5400000     -2.9153867E-19
 -0.4800000     -5.2615728E-19
 -0.4200000     -4.9917000E-19
 -0.3600000     -1.0733472E-20
 -0.3000000      8.8539996E-19
 -0.2400000      1.6764749E-18
 -0.1800000      1.4038249E-18
 -0.1200000     -9.1026222E-19
 -5.9999999E-02 -5.4054218E-18
  0.0000000E+00 -1.0425027E-17
  5.9999999E-02 -1.2151464E-17
  0.1200000     -5.6363392E-18
  0.1800000      1.2408747E-17
  0.2400000      3.9745330E-17
  0.3000000      6.5667414E-17
  0.3600000      7.1784772E-17
  0.4200000      3.8663067E-17
  0.4800000     -4.2166557E-17
  0.5400000     -1.5530675E-16
  0.6000000     -2.5563899E-16
  0.6600000     -2.7770407E-16
  0.7200000     -1.6350378E-16
  0.7800000      9.8052713E-17
  0.8400000      4.3804870E-16
  0.9000000      7.0477154E-16
  0.9600000      7.0941148E-16
   1.020000      3.1839323E-16
   1.080000     -4.3869120E-16
   1.140000     -1.3017636E-15
   1.200000     -1.8139062E-15
   1.260000     -1.4868241E-15
   1.320000     -6.7170818E-17
   1.380000      2.2004764E-15
   1.440000      4.4658025E-15
   1.500000      5.4545678E-15
   1.560000      3.9724058E-15
   1.620000     -4.0403458E-16
   1.680000     -6.7490510E-15
   1.740000     -1.2693070E-14
   1.800000     -1.5072485E-14
   1.860000     -1.1282470E-14
   1.920000     -8.8180836E-16
   1.980000      1.3329211E-14
   2.040000      2.5563270E-14
   2.100000      2.9023066E-14
   2.160000      1.9189675E-14
   2.220000     -2.8786999E-15
   2.280000     -2.9049191E-14
   2.340000     -4.5928156E-14
   2.400000     -4.0244016E-14
   2.460000     -6.1980200E-15
   2.520000      4.8473795E-14
   2.580000      1.0145351E-13
   2.640000      1.2215326E-13
   2.700000      8.4625402E-14
   2.760000     -1.7409065E-14
   2.820000     -1.6043463E-13
   2.880000     -2.9259792E-13
   2.940000     -3.4952829E-13
   3.000000     -2.8086501E-13
   3.060000     -7.7485212E-14
   3.120000      2.1355320E-13
   3.180000      4.9656676E-13
   3.240000      6.5898480E-13
   3.300000      6.1760411E-13
   3.360000      3.6056030E-13
   3.420000     -3.5653951E-14
   3.480000     -4.2693935E-13
   3.540000     -6.5722959E-13
   3.600000     -6.2878256E-13
   3.660000     -3.5606053E-13
   3.720000      2.5628503E-14
   3.780000      3.0894493E-13
   3.840000      3.0747914E-13
   3.900000     -4.4138524E-14
   3.960000     -6.3015429E-13
   4.020000     -1.1703085E-12
   4.080000     -1.3201824E-12
   4.140000     -8.2430081E-13
   4.200000      3.3896472E-13
   4.260000      1.8885436E-12
   4.320000      3.2928857E-12
   4.380000      3.9417484E-12
   4.440000      3.3833531E-12
   4.500000      1.5364541E-12
   4.560000     -1.2149038E-12
   4.620000     -4.0984330E-12
   4.680000     -6.1915208E-12
   4.740000     -6.7411680E-12
   4.800000     -5.4456543E-12
   4.860000     -2.5831271E-12
   4.920000      1.0731173E-12
   4.980000      4.5281708E-12
   5.040000      6.9223910E-12
   5.100000      7.8244546E-12
   5.160000      7.3329268E-12
   5.220000      5.9365798E-12
   5.280000      4.1912381E-12
   5.340000      2.3630145E-12
   5.400000      2.2120049E-13
   5.460000     -2.8834836E-12
   5.520000     -7.6371253E-12
   5.580000     -1.4203679E-11
   5.640000     -2.1725935E-11
   5.700000     -2.8147422E-11
   5.760000     -3.0530301E-11
   5.820000     -2.5870091E-11
   5.880000     -1.2205696E-11
   5.940000      1.0328099E-11
   6.000000      3.8893014E-11
   6.060000      6.8064741E-11
   6.120000      9.0736030E-11
   6.180000      9.9609480E-11
   6.240000      8.8886412E-11
   6.300000      5.5695493E-11
   6.360000      9.0534204E-13
   6.420000     -7.0807429E-11
   6.480000     -1.5149774E-10
   6.540000     -2.3076663E-10
   6.600000     -2.9647690E-10
   6.660000     -3.3512940E-10
   6.720000     -3.3191891E-10
   6.780000     -2.7075728E-10
   6.840000     -1.3470602E-10
   6.900000      9.2791684E-11
   6.960000      4.2575549E-10
   7.020000      8.7285956E-10
   7.080000      1.4346135E-09
   7.140000      2.1013622E-09
   7.200000      2.8528355E-09
   7.260000      3.6596002E-09
   7.320000      4.4862225E-09
   7.380000      5.2954392E-09
   7.440000      6.0523355E-09
   7.500000      6.7275767E-09
   7.560000      7.2990973E-09
   7.620000      7.7522060E-09
   7.680000      8.0785769E-09
   7.740000      8.2749088E-09
   7.800000      8.3419778E-09
   7.860000      8.2844593E-09
   7.920000      8.1113516E-09
   7.980000      7.8364204E-09
   8.040000      7.4778645E-09
   8.100000      7.0566384E-09
   8.160000      6.5933659E-09
   8.220000      6.1044232E-09
   8.280000      5.5982934E-09
   8.340000      5.0734452E-09
   8.400000      4.5186686E-09
   8.460000      3.9161412E-09
   8.520000      3.2466592E-09
   8.580000      2.4957689E-09
   8.640000      1.6592526E-09
   8.700000      7.4660822E-10
   8.760000     -2.1820439E-10
   8.820000     -1.1986647E-09
   8.880000     -2.1494342E-09
   8.940000     -3.0207665E-09
   9.000000     -3.7625165E-09
   9.060000     -4.3271755E-09
   9.120000     -4.6720450E-09
   9.180000     -4.7611994E-09
   9.240000     -4.5680646E-09
   9.300000     -4.0791357E-09
   9.360000     -3.2986256E-09
   9.420000     -2.2530426E-09
   9.480000     -9.9409780E-10
   9.540000      4.0165968E-10
   9.600000      1.8374472E-09
   9.660000      3.2049157E-09
   9.720000      4.3954378E-09
   9.780000      5.3116693E-09
   9.840000      5.8768870E-09
   9.900000      6.0402972E-09
   9.960000      5.7778333E-09
   10.02000      5.0894164E-09
   10.08000      3.9946468E-09
   10.14000      2.5290308E-09
   10.20000      7.4206530E-10
   10.26000     -1.3028614E-09
   10.32000     -3.5281467E-09
   10.38000     -5.8433121E-09
   10.44000     -8.1497662E-09
   10.50000     -1.0349475E-08
   10.56000     -1.2356248E-08
   10.62000     -1.4106860E-08
   10.68000     -1.5568659E-08
   10.74000     -1.6741023E-08
   10.80000     -1.7649860E-08
   10.86000     -1.8336655E-08
   10.92000     -1.8845427E-08
   10.98000     -1.9211800E-08
   11.04000     -1.9457444E-08
   11.10000     -1.9591269E-08
   11.16000     -1.9616088E-08
   11.22000     -1.9537387E-08
   11.28000     -1.9370098E-08
   11.34000     -1.9140092E-08
   11.40000     -1.8879284E-08
   11.46000     -1.8615935E-08
   11.52000     -1.8363789E-08
   11.58000     -1.8114386E-08
   11.64000     -1.7835882E-08
   11.70000     -1.7479435E-08
   11.76000     -1.6991480E-08
   11.82000     -1.6328176E-08
   11.88000     -1.5467513E-08
   11.94000     -1.4415461E-08
   12.00000     -1.3204543E-08
   12.06000     -1.1885784E-08
   12.12000     -1.0516930E-08
   12.18000     -9.1508836E-09
   12.24000     -7.8278193E-09
   12.30000     -6.5729924E-09
   12.36000     -5.4000879E-09
   12.42000     -4.3180468E-09
   12.48000     -3.3381435E-09
   12.54000     -2.4780971E-09
   12.60000     -1.7612257E-09
   12.66000     -1.2106064E-09
   12.72000     -8.4024421E-10
   12.78000     -6.4659400E-10
   12.84000     -6.0386068E-10
   12.90000     -6.6527667E-10
   12.96000     -7.7042156E-10
   13.02000     -8.5644936E-10
   13.08000     -8.6968299E-10
   13.14000     -7.7397455E-10
   13.20000     -5.5351845E-10
   13.26000     -2.0988658E-10
   13.32000      2.4492688E-10
   13.38000      7.9648899E-10
   13.44000      1.4340354E-09
   13.50000      2.1529443E-09
   13.56000      2.9534859E-09
   13.62000      3.8372283E-09
   13.68000      4.8031676E-09
   13.74000      5.8453931E-09
   13.80000      6.9530488E-09
   13.86000      8.1120879E-09
   13.92000      9.3073265E-09
   13.98000      1.0523120E-08
   14.04000      1.1741652E-08
   14.10000      1.2939064E-08
   14.16000      1.4081015E-08
   14.22000      1.5119973E-08
   14.28000      1.5996347E-08
   14.34000      1.6644352E-08
   14.40000      1.7001696E-08
   14.46000      1.7020605E-08
   14.52000      1.6676902E-08
   14.58000      1.5974361E-08
   14.64000      1.4943074E-08
   14.70000      1.3632542E-08
   14.76000      1.2101910E-08
   14.82000      1.0410488E-08
   14.88000      8.6112681E-09
   14.94000      6.7488388E-09
   15.00000      4.8613860E-09
   15.06000      2.9851079E-09
   15.12000      1.1586218E-09
   15.18000     -5.7481192E-10
   15.24000     -2.1684734E-09
   15.30000     -3.5766459E-09
   15.36000     -4.7609001E-09
   15.42000     -5.6959584E-09
   15.48000     -6.3728858E-09
   15.54000     -6.7982207E-09
   15.60000     -6.9890929E-09
   15.66000     -6.9658728E-09
   15.72000     -6.7448713E-09
   15.78000     -6.3336021E-09
   15.84000     -5.7301572E-09
   15.90000     -4.9266267E-09
   15.96000     -3.9149595E-09
   16.02000     -2.6928189E-09
   16.08000     -1.2671373E-09
   16.14000      3.4586337E-10
   16.20000      2.1239723E-09
   16.26000      4.0441495E-09
   16.32000      6.0875096E-09
   16.38000      8.2422966E-09
   16.44000      1.0503812E-08
   16.50000      1.2871333E-08
   16.56000      1.5343019E-08
   16.62000      1.7910432E-08
   16.68000      2.0554456E-08
   16.74000      2.3244095E-08
   16.80000      2.5938883E-08
   16.86000      2.8594572E-08
   16.92000      3.1170675E-08
   16.98000      3.3637637E-08
   17.04000      3.5981319E-08
   17.10000      3.8203027E-08
   17.16000      4.0314713E-08
   17.22000      4.2330580E-08
   17.28000      4.4257582E-08
   17.34000      4.6087937E-08
   17.40000      4.7796277E-08
   17.46000      4.9342773E-08
   17.52000      5.0681788E-08
   17.58000      5.1773895E-08
   17.64000      5.2597958E-08
   17.70000      5.3159692E-08
   17.76000      5.3493835E-08
   17.82000      5.3658724E-08
   17.88000      5.3724079E-08
   17.94000      5.3754793E-08
   18.00000      5.3794878E-08
   18.06000      5.3856073E-08
   18.12000      5.3914313E-08
   18.18000      5.3915358E-08
   18.24000      5.3788103E-08
   18.30000      5.3461921E-08
   18.36000      5.2883230E-08
   18.42000      5.2026749E-08
   18.48000      5.0898635E-08
   18.54000      4.9531273E-08
   18.60000      4.7971938E-08
   18.66000      4.6269221E-08
   18.72000      4.4461707E-08
   18.78000      4.2572086E-08
   18.84000      4.0608057E-08
   18.90000      3.8568970E-08
   18.96000      3.6455059E-08
   19.02000      3.4275676E-08
   19.08000      3.2053144E-08
   19.14000      2.9820985E-08
   19.20000      2.7617329E-08
   19.26000      2.5476316E-08
   19.32000      2.3421137E-08
   19.38000      2.1461579E-08
   19.44000      1.9597042E-08
   19.50000      1.7823599E-08
   19.56000      1.6141753E-08
   19.62000      1.4561153E-08
   19.68000      1.3099666E-08
   19.74000      1.1776666E-08
   19.80000      1.0603056E-08
   19.86000      9.5722870E-09
   19.92000      8.6566070E-09
   19.98000      7.8109528E-09
   20.04000      6.9838375E-09
   20.10000      6.1316596E-09
   20.16000      5.2312168E-09
   20.22000      4.2856190E-09
   20.28000      3.3211625E-09
   20.34000      2.3760847E-09
   20.40000      1.4851885E-09
   20.46000      6.6581318E-10
   20.52000     -8.9927170E-11
   20.58000     -8.1410578E-10
   20.64000     -1.5537698E-09
   20.70000     -2.3568849E-09
   20.76000     -3.2580678E-09
   20.82000     -4.2682897E-09
   20.88000     -5.3709663E-09
   20.94000     -6.5246279E-09
   21.00000     -7.6705531E-09
   21.06000     -8.7429353E-09
   21.12000     -9.6792681E-09
   21.18000     -1.0429358E-08
   21.24000     -1.0962038E-08
   21.30000     -1.1269072E-08
   21.36000     -1.1365753E-08
   21.42000     -1.1287828E-08
   21.48000     -1.1084772E-08
   21.54000     -1.0810369E-08
   21.60000     -1.0512620E-08
   21.66000     -1.0225703E-08
   21.72000     -9.9664721E-09
   21.78000     -9.7366728E-09
   21.84000     -9.5299999E-09
   21.90000     -9.3411909E-09
   21.96000     -9.1734069E-09
   22.02000     -9.0407308E-09
   22.08000     -8.9646557E-09
   22.14000     -8.9661292E-09
   22.20000     -9.0568681E-09
   22.26000     -9.2343493E-09
   22.32000     -9.4836086E-09
   22.38000     -9.7861736E-09
   22.44000     -1.0133139E-08
   22.50000     -1.0537084E-08
   22.56000     -1.1037212E-08
   22.62000     -1.1694134E-08
   22.68000     -1.2574560E-08
   22.74000     -1.3730285E-08
   22.80000     -1.5178655E-08
   22.86000     -1.6891821E-08
   22.92000     -1.8799392E-08
   22.98000     -2.0804302E-08
   23.04000     -2.2806857E-08
   23.10000     -2.4728827E-08
   23.16000     -2.6529410E-08
   23.22000     -2.8208101E-08
   23.28000     -2.9794590E-08
   23.34000     -3.1330590E-08
   23.40000     -3.2851226E-08
   23.46000     -3.4373098E-08
   23.52000     -3.5892707E-08
   23.58000     -3.7394283E-08
   23.64000     -3.8862137E-08
   23.70000     -4.0291120E-08
   23.76000     -4.1690079E-08
   23.82000     -4.3076820E-08
   23.88000     -4.4467239E-08
   23.94000     -4.5864038E-08
   24.00000     -4.7250904E-08
   24.06000     -4.8595734E-08
   24.12000     -4.9862560E-08
   24.18000     -5.1027655E-08
   24.24000     -5.2093213E-08
   24.30000     -5.3092126E-08
   24.36000     -5.4080765E-08
   24.42000     -5.5121046E-08
   24.48000     -5.6257914E-08
   24.54000     -5.7500266E-08
   24.60000     -5.8812855E-08
   24.66000     -6.0122787E-08
   24.72000     -6.1338788E-08
   24.78000     -6.2376806E-08
   24.84000     -6.3183052E-08
   24.90000     -6.3746810E-08
   24.96000     -6.4099147E-08
   25.02000     -6.4299130E-08
   25.08000     -6.4413534E-08
   25.14000     -6.4497698E-08
   25.20000     -6.4584093E-08
   25.26000     -6.4681331E-08
   25.32000     -6.4782071E-08
   25.38000     -6.4874904E-08
   25.44000     -6.4954349E-08
   25.50000     -6.5024771E-08
   25.56000     -6.5097005E-08
   25.62000     -6.5180060E-08
   25.68000     -6.5272324E-08
   25.74000     -6.5356581E-08
   25.80000     -6.5401458E-08
   25.86000     -6.5368809E-08
   25.92000     -6.5223809E-08
   25.98000     -6.4943642E-08
   26.04000     -6.4521011E-08
   26.10000     -6.3961465E-08
   26.16000     -6.3276154E-08
   26.22000     -6.2473859E-08
   26.28000     -6.1556470E-08
   26.34000     -6.0520236E-08
   26.40000     -5.9362577E-08
   26.46000     -5.8091004E-08
   26.52000     -5.6729725E-08
   26.58000     -5.5319987E-08
   26.64000     -5.3913062E-08
   26.70000     -5.2558082E-08
   26.76000     -5.1289451E-08
   26.82000     -5.0119233E-08
   26.88000     -4.9037784E-08
   26.94000     -4.8022521E-08
   27.00000     -4.7051078E-08
   27.06000     -4.6113122E-08
   27.12000     -4.5215561E-08
   27.18000     -4.4378723E-08
   27.24000     -4.3624993E-08
   27.30000     -4.2964565E-08
   27.36000     -4.2384237E-08
   27.42000     -4.1843833E-08
   27.48000     -4.1281748E-08
   27.54000     -4.0627679E-08
   27.60000     -3.9818040E-08
   27.66000     -3.8809006E-08
   27.72000     -3.7583572E-08
   27.78000     -3.6151135E-08
   27.84000     -3.4540751E-08
   27.90000     -3.2790737E-08
   27.96000     -3.0937969E-08
   28.02000     -2.9009746E-08
   28.08000     -2.7020169E-08
   28.14000     -2.4971525E-08
   28.20000     -2.2859815E-08
   28.26000     -2.0682336E-08
   28.32000     -1.8444560E-08
   28.38000     -1.6163620E-08
   28.44000     -1.3866865E-08
   28.50000     -1.1585675E-08
   28.56000     -9.3466284E-09
   28.62000     -7.1633135E-09
   28.68000     -5.0319269E-09
   28.74000     -2.9324410E-09
   28.80000     -8.3498214E-10
   28.86000      1.2908671E-09
   28.92000      3.4670899E-09
   28.98000      5.7014593E-09
   29.04000      7.9864426E-09
   29.10000      1.0302511E-08
   29.16000      1.2624162E-08
   29.22000      1.4926355E-08
   29.28000      1.7189258E-08
   29.34000      1.9400014E-08
   29.40000      2.1551227E-08
   29.46000      2.3636929E-08
   29.52000      2.5647442E-08
   29.58000      2.7564996E-08
   29.64000      2.9361825E-08
   29.70000      3.1001761E-08
   29.76000      3.2445374E-08
   29.82000      3.3657372E-08
   29.88000      3.4614231E-08
   29.94000      3.5309679E-08
   30.00000      3.5756361E-08
   30.06000      3.5983248E-08
   30.12000      3.6029572E-08
   30.18000      3.5937298E-08
   30.24000      3.5744154E-08
   30.30000      3.5478980E-08
   30.36000      3.5160085E-08
   30.42000      3.4796294E-08
   30.48000      3.4389707E-08
   30.54000      3.3938676E-08
   30.60000      3.3439921E-08
   30.66000      3.2889190E-08
   30.72000      3.2280575E-08
   30.78000      3.1605271E-08
   30.84000      3.0850945E-08
   30.90000      3.0002685E-08
   30.96000      2.9045889E-08
   31.02000      2.7970682E-08
   31.08000      2.6776339E-08
   31.14000      2.5474023E-08
   31.20000      2.4086242E-08
   31.26000      2.2642599E-08
   31.32000      2.1172710E-08
   31.38000      1.9698478E-08
   31.44000      1.8228340E-08
   31.50000      1.6755573E-08
   31.56000      1.5261319E-08
   31.62000      1.3721225E-08
   31.68000      1.2113294E-08
   31.74000      1.0424321E-08
   31.80000      8.6530063E-09
   31.86000      6.8094206E-09
   31.92000      4.9118123E-09
   31.98000      2.9825107E-09
   32.04000      1.0442794E-09
   32.10000     -8.8239965E-10
   32.16000     -2.7815885E-09
   32.22000     -4.6443622E-09
   32.28000     -6.4715442E-09
   32.34000     -8.2756859E-09
   32.40000     -1.0080565E-08
   32.46000     -1.1916763E-08
   32.52000     -1.3813371E-08
   32.58000     -1.5787858E-08
   32.64000     -1.7837696E-08
   32.70000     -1.9937428E-08
   32.76000     -2.2043201E-08
   32.82000     -2.4103999E-08
   32.88000     -2.6075892E-08
   32.94000     -2.7934243E-08
   33.00000     -2.9679256E-08
   33.06000     -3.1332842E-08
   33.12000     -3.2928078E-08
   33.18000     -3.4495354E-08
   33.24000     -3.6050459E-08
   33.30000     -3.7588734E-08
   33.36000     -3.9086959E-08
   33.42000     -4.0511473E-08
   33.48000     -4.1828901E-08
   33.54000     -4.3015337E-08
   33.60000     -4.4061157E-08
   33.66000     -4.4970832E-08
   33.72000     -4.5759375E-08
   33.78000     -4.6448054E-08
   33.84000     -4.7061583E-08
   33.90000     -4.7627307E-08
   33.96000     -4.8175288E-08
   34.02000     -4.8736908E-08
   34.08000     -4.9340425E-08
   34.14000     -5.0003390E-08
   34.20000     -5.0724228E-08
   34.26000     -5.1476682E-08
   34.32000     -5.2210499E-08
   34.38000     -5.2859949E-08
   34.44000     -5.3358661E-08
   34.50000     -5.3656329E-08
   34.56000     -5.3731675E-08
   34.62000     -5.3596917E-08
   34.68000     -5.3291878E-08
   34.74000     -5.2869702E-08
   34.80000     -5.2379388E-08
   34.86000     -5.1851508E-08
   34.92000     -5.1292222E-08
   34.98000     -5.0687337E-08
   35.04000     -5.0014130E-08
   35.10000     -4.9255693E-08
   35.16000     -4.8411561E-08
   35.22000     -4.7500404E-08
   35.28000     -4.6554028E-08
   35.34000     -4.5605749E-08
   35.40000     -4.4678639E-08
   35.46000     -4.3779011E-08
   35.52000     -4.2897998E-08
   35.58000     -4.2020339E-08
   35.64000     -4.1136197E-08
   35.70000     -4.0250558E-08
   35.76000     -3.9385920E-08
   35.82000     -3.8576932E-08
   35.88000     -3.7859408E-08
   35.94000     -3.7258339E-08
   36.00000     -3.6779948E-08
   36.06000     -3.6410906E-08
   36.12000     -3.6124643E-08
   36.18000     -3.5891812E-08
   36.24000     -3.5690316E-08
   36.30000     -3.5511022E-08
   36.36000     -3.5357264E-08
   36.42000     -3.5239339E-08
   36.48000     -3.5167073E-08
   36.54000     -3.5144410E-08
   36.60000     -3.5168398E-08
   36.66000     -3.5232659E-08
   36.72000     -3.5332945E-08
   36.78000     -3.5470986E-08
   36.84000     -3.5653741E-08
   36.90000     -3.5887268E-08
   36.96000     -3.6167553E-08
   37.02000     -3.6472759E-08
   37.08000     -3.6761570E-08
   37.14000     -3.6980243E-08
   37.20000     -3.7077285E-08
   37.26000     -3.7021007E-08
   37.32000     -3.6813187E-08
   37.38000     -3.6492857E-08
   37.44000     -3.6127478E-08
   37.50000     -3.5793704E-08
   37.56000     -3.5554052E-08
   37.62000     -3.5437846E-08
   37.68000     -3.5433263E-08
   37.74000     -3.5493247E-08
   37.80000     -3.5552876E-08
   37.86000     -3.5551324E-08
   37.92000     -3.5450299E-08
   37.98000     -3.5242497E-08
   38.04000     -3.4948012E-08
   38.10000     -3.4601442E-08
   38.16000     -3.4235825E-08
   38.22000     -3.3870069E-08
   38.28000     -3.3504193E-08
   38.34000     -3.3122799E-08
   38.40000     -3.2703589E-08
   38.46000     -3.2226019E-08
   38.52000     -3.1676020E-08
   38.58000     -3.1045573E-08
   38.64000     -3.0328877E-08
   38.70000     -2.9518908E-08
   38.76000     -2.8607614E-08
   38.82000     -2.7590698E-08
   38.88000     -2.6474872E-08
   38.94000     -2.5283411E-08
   39.00000     -2.4055804E-08
   39.06000     -2.2839748E-08
   39.12000     -2.1677243E-08
   39.18000     -2.0589836E-08
   39.24000     -1.9569054E-08
   39.30000     -1.8576655E-08
   39.36000     -1.7555486E-08
   39.42000     -1.6447498E-08
   39.48000     -1.5212384E-08
   39.54000     -1.3839832E-08
   39.60000     -1.2350736E-08
   39.66000     -1.0786979E-08
   39.72000     -9.1938368E-09
   39.78000     -7.6019386E-09
   39.84000     -6.0159375E-09
   39.90000     -4.4144004E-09
   39.96000     -2.7610656E-09
   40.02000     -1.0230499E-09
   40.08000      8.1126639E-10
   40.14000      2.7219984E-09
   40.20000      4.6595288E-09
   40.26000      6.5577908E-09
   40.32000      8.3537159E-09
   40.38000      1.0004751E-08
   40.44000      1.1497028E-08
   40.50000      1.2840795E-08
   40.56000      1.4055344E-08
   40.62000      1.5150652E-08
   40.68000      1.6114656E-08
   40.74000      1.6912768E-08
   40.80000      1.7500806E-08
   40.86000      1.7846215E-08
   40.92000      1.7948363E-08
   40.98000      1.7848619E-08
   41.04000      1.7625004E-08
   41.10000      1.7372694E-08
   41.16000      1.7177600E-08
   41.22000      1.7093152E-08
   41.28000      1.7129071E-08
   41.34000      1.7255946E-08
   41.40000      1.7422954E-08
   41.46000      1.7580954E-08
   41.52000      1.7701304E-08
   41.58000      1.7782948E-08
   41.64000      1.7845458E-08
   41.70000      1.7911802E-08
   41.76000      1.7988933E-08
   41.82000      1.8055266E-08
   41.88000      1.8061126E-08
   41.94000      1.7942625E-08
   42.00000      1.7643510E-08
   42.06000      1.7135829E-08
   42.12000      1.6430514E-08
   42.18000      1.5573056E-08
   42.24000      1.4625824E-08
   42.30000      1.3644187E-08
   42.36000      1.2656331E-08
   42.42000      1.1654977E-08
   42.48000      1.0604086E-08
   42.54000      9.4572439E-09
   42.60000      8.1796525E-09
   42.66000      6.7644947E-09
   42.72000      5.2373323E-09
   42.78000      3.6476948E-09
   42.84000      2.0526361E-09
   42.90000      5.0030774E-10
   42.96000     -9.7885466E-10
   43.02000     -2.3695375E-09
   43.08000     -3.6591596E-09
   43.14000     -4.8218336E-09
   43.20000     -5.8065042E-09
   43.26000     -6.5351564E-09
   43.32000     -6.9123782E-09
   43.38000     -6.8422561E-09
   43.44000     -6.2450898E-09
   43.50000     -5.0662030E-09
   43.56000     -3.2724599E-09
   43.62000     -8.3737423E-10
   43.68000      2.2793527E-09
   43.74000      6.1498140E-09
   43.80000      1.0886851E-08
   43.86000      1.6642028E-08
   43.92000      2.3596227E-08
   43.98000      3.1950368E-08
   44.04000      4.1924125E-08
   44.10000      5.3767145E-08
   44.16000      6.7781734E-08
   44.22000      8.4350951E-08
   44.28000      1.0396372E-07
   44.34000      1.2723036E-07
   44.40000      1.5488705E-07
   44.46000      1.8779332E-07
   44.52000      2.2693112E-07
   44.58000      2.7341386E-07
   44.64000      3.2851099E-07
   44.70000      3.9368717E-07
   44.76000      4.7065029E-07
   44.82000      5.6139925E-07
   44.88000      6.6826550E-07
   44.94000      7.9394448E-07
   45.00000      9.4152182E-07
   45.06000      1.1145009E-06
   45.12000      1.3168413E-06
   45.18000      1.5530129E-06
   45.24000      1.8280656E-06
   45.30000      2.1477128E-06
   45.36000      2.5184181E-06
   45.42000      2.9474816E-06
   45.48000      3.4431234E-06
   45.54000      4.0145642E-06
   45.60000      4.6721052E-06
   45.66000      5.4272223E-06
   45.72000      6.2926615E-06
   45.78000      7.2825483E-06
   45.84000      8.4125049E-06
   45.90000      9.6997637E-06
   45.96000      1.1163282E-05
   46.02000      1.2823849E-05
   46.08000      1.4704193E-05
   46.14000      1.6829084E-05
   46.20000      1.9225443E-05
   46.26000      2.1922442E-05
   46.32000      2.4951602E-05
   46.38000      2.8346874E-05
   46.44000      3.2144719E-05
   46.50000      3.6384146E-05
   46.56000      4.1106752E-05
   46.62000      4.6356730E-05
   46.68000      5.2180843E-05
   46.74000      5.8628426E-05
   46.80000      6.5751323E-05
   46.86000      7.3603827E-05
   46.92000      8.2242579E-05
   46.98000      9.1726411E-05
   47.04000      1.0211618E-04
   47.10000      1.1347448E-04
   47.16000      1.2586536E-04
   47.22000      1.3935400E-04
   47.28000      1.5400625E-04
   47.34000      1.6988839E-04
   47.40000      1.8706651E-04
   47.46000      2.0560616E-04
   47.52000      2.2557173E-04
   47.58000      2.4702586E-04
   47.64000      2.7002898E-04
   47.70000      2.9463845E-04
   47.76000      3.2090789E-04
   47.82000      3.4888653E-04
   47.88000      3.7861845E-04
   47.94000      4.1014189E-04
   48.00000      4.4348853E-04
   48.06000      4.7868263E-04
   48.12000      5.1574066E-04
   48.18000      5.5467011E-04
   48.24000      5.9546938E-04
   48.30000      6.3812657E-04
   48.36000      6.8261957E-04
   48.42000      7.2891515E-04
   48.48000      7.7696855E-04
   48.54000      8.2672329E-04
   48.60000      8.7811105E-04
   48.66000      9.3105144E-04
   48.72000      9.8545197E-04
   48.78000      1.0412085E-03
   48.84000      1.0982052E-03
   48.90000      1.1563151E-03
   48.96000      1.2154004E-03
   49.02000      1.2753136E-03
   49.08000      1.3358973E-03
   49.14000      1.3969867E-03
   49.20000      1.4584091E-03
   49.26000      1.5199865E-03
   49.32000      1.5815360E-03
   49.38000      1.6428714E-03
   49.44000      1.7038049E-03
   49.50000      1.7641484E-03
   49.56000      1.8237155E-03
   49.62000      1.8823231E-03
   49.68000      1.9397925E-03
   49.74000      1.9959530E-03
   49.80000      2.0506410E-03
   49.86000      2.1037038E-03
   49.92000      2.1549994E-03
   49.98000      2.2044003E-03
   50.04000      2.2517920E-03
   50.10000      2.2970762E-03
   50.16000      2.3401720E-03
   50.22000      2.3810156E-03
   50.28000      2.4195623E-03
   50.34000      2.4557870E-03
   50.40000      2.4896832E-03
   50.46000      2.5212648E-03
   50.52000      2.5505649E-03
   50.58000      2.5776355E-03
   50.64000      2.6025465E-03
   50.70000      2.6253862E-03
   50.76000      2.6462597E-03
   50.82000      2.6652876E-03
   50.88000      2.6826051E-03
   50.94000      2.6983593E-03
   51.00000      2.7127080E-03
   51.06000      2.7258173E-03
   51.12000      2.7378593E-03
   51.18000      2.7490109E-03
   51.24000      2.7594520E-03
   51.30000      2.7693615E-03
   51.36000      2.7789166E-03
   51.42000      2.7882901E-03
   51.48000      2.7976478E-03
   51.54000      2.8071466E-03
   51.60000      2.8169330E-03
   51.66000      2.8271403E-03
   51.72000      2.8378880E-03
   51.78000      2.8492804E-03
   51.84000      2.8614046E-03
   51.90000      2.8743297E-03
   51.96000      2.8881063E-03
   52.02000      2.9027653E-03
   52.08000      2.9183191E-03
   52.14000      2.9347604E-03
   52.20000      2.9520635E-03
   52.26000      2.9701837E-03
   52.32000      2.9890591E-03
   52.38000      3.0086120E-03
   52.44000      3.0287481E-03
   52.50000      3.0493604E-03
   52.56000      3.0703291E-03
   52.62000      3.0915258E-03
   52.68000      3.1128130E-03
   52.74000      3.1340476E-03
   52.80000      3.1550834E-03
   52.86000      3.1757718E-03
   52.92000      3.1959643E-03
   52.98000      3.2155155E-03
   53.04000      3.2342845E-03
   53.10000      3.2521375E-03
   53.16000      3.2689495E-03
   53.22000      3.2846064E-03
   53.28000      3.2990058E-03
   53.34000      3.3120594E-03
   53.40000      3.3236919E-03
   53.46000      3.3338440E-03
   53.52000      3.3424720E-03
   53.58000      3.3495491E-03
   53.64000      3.3550649E-03
   53.70000      3.3590263E-03
   53.76000      3.3614556E-03
   53.82000      3.3623916E-03
   53.88000      3.3618871E-03
   53.94000      3.3600079E-03
   54.00000      3.3568335E-03
   54.06000      3.3524528E-03
   54.12000      3.3469647E-03
   54.18000      3.3404762E-03
   54.24000      3.3330987E-03
   54.30000      3.3249489E-03
   54.36000      3.3161445E-03
   54.42000      3.3068031E-03
   54.48000      3.2970402E-03
   54.54000      3.2869682E-03
   54.60000      3.2766927E-03
   54.66000      3.2663115E-03
   54.72000      3.2559140E-03
   54.78000      3.2455781E-03
   54.84000      3.2353716E-03
   54.90000      3.2253482E-03
   54.96000      3.2155483E-03
   55.02000      3.2059976E-03
   55.08000      3.1967077E-03
   55.14000      3.1876743E-03
   55.20000      3.1788796E-03
   55.26000      3.1702896E-03
   55.32000      3.1618574E-03
   55.38000      3.1535230E-03
   55.44000      3.1452132E-03
   55.50000      3.1368441E-03
   55.56000      3.1283216E-03