  -2.400000      0.0000000E+00
  -2.340000      0.0000000E+00
  -2.280000      0.0000000E+00
  -2.220000      0.0000000E+00
  -2.160000      0.0000000E+00
  -2.100000      0.0000000E+00
  -2.040000      0.0000000E+00
  -1.980000      0.0000000E+00
  -1.920000     -1.7001553E-26
  -1.860000     -1.8229809E-25
  -1.800000     -9.5101186E-25
  -1.740000     -3.1227221E-24
  -1.680000     -6.8581279E-24
  -1.620000     -9.2489539E-24
  -1.560000     -2.5902279E-24
  -1.500000      2.1032559E-23
  -1.440000      5.5694047E-23
  -1.380000      7.1768628E-23
  -1.320000      5.0336107E-23
  -1.260000      1.0338470E-22
  -1.200000      6.4037174E-22
  -1.140000      2.3545399E-21
  -1.080000      5.6128878E-21
  -1.020000      8.9240558E-21
 -0.9600000      6.8719306E-21
 -0.9000000     -1.0707791E-20
 -0.8400000     -5.5154225E-20
 -0.7800000     -1.2807994E-19
 -0.7200000     -2.0388281E-19
 -0.6600000     -2.1404503E-19
 -0.6000000     -5.0382372E-20
 -0.5400000      3.9257017E-19
 -0.4800000      1.1274284E-18
 -0.4200000      1.9583846E-18
 -0.3600000      2.4054425E-18
 -0.3000000      1.7647776E-18
 -0.2400000     -6.1455327E-19
 -0.1800000     -4.8482673E-18
 -0.1200000     -9.9972784E-18
 -5.9999999E-02 -1.3838378E-17
  0.0000000E+00 -1.3296917E-17
  5.9999999E-02 -5.7264539E-18
  0.1200000      9.2274222E-18
  0.1800000      2.8012190E-17
  0.2400000      4.3009415E-17
  0.3000000      4.4829007E-17
  0.3600000      2.7037197E-17
  0.4200000     -8.3263570E-18
  0.4800000     -4.7584015E-17
  0.5400000     -6.8037842E-17
  0.6000000     -4.7992027E-17
  0.6600000      1.8089608E-17
  0.7200000      1.0615652E-16
  0.7800000      1.6047111E-16
  0.8400000      1.1059296E-16
  0.9000000     -9.2400038E-17
  0.9600000     -4.3190070E-16
   1.020000     -7.9597147E-16
   1.080000     -9.8651407E-16
   1.140000     -7.8192751E-16
   1.200000     -4.4536774E-17
   1.260000      1.1647579E-15
   1.320000      2.5229226E-15
   1.380000      3.4884554E-15
   1.440000      3.4748847E-15
   1.500000      2.1170631E-15
   1.560000     -4.7106488E-16
   1.620000     -3.5846591E-15
   1.680000     -6.0764683E-15
   1.740000     -6.7857478E-15
   1.800000     -5.1244316E-15
   1.860000     -1.5630472E-15
   1.920000      2.2886477E-15
   1.980000      4.2092476E-15
   2.040000      2.4469939E-15
   2.100000     -3.0332557E-15
   2.160000     -9.7789793E-15
   2.220000     -1.3193805E-14
   2.280000     -8.2722762E-15
   2.340000      7.6631350E-15
   2.400000      3.2325369E-14
   2.460000      5.7412442E-14
   2.520000      7.0343111E-14
   2.580000      5.8931978E-14
   2.640000      1.7650927E-14
   2.700000     -4.7186115E-14
   2.760000     -1.1631946E-13
   2.820000     -1.6240319E-13
   2.880000     -1.6026232E-13
   2.940000     -9.9096526E-14
   3.000000      8.7713404E-15
   3.060000      1.2775469E-13
   3.120000      2.0972808E-13
   3.180000      2.1313505E-13
   3.240000      1.2335734E-13
   3.300000     -3.4971839E-14
   3.360000     -2.0115745E-13
   3.420000     -2.9871884E-13
   3.480000     -2.6656956E-13
   3.540000     -8.8682107E-14
   3.600000      1.9156814E-13
   3.660000      4.8120622E-13
   3.720000      6.7044542E-13
   3.780000      6.7634407E-13
   3.840000      4.7847457E-13
   3.900000      1.2916435E-13
   3.960000     -2.6900468E-13
   4.020000     -6.1054991E-13
   4.080000     -8.3784341E-13
   4.140000     -9.6887244E-13
   4.200000     -1.0831675E-12
   4.260000     -1.2655217E-12
   4.320000     -1.5293208E-12
   4.380000     -1.7570475E-12
   4.440000     -1.6960227E-12
   4.500000     -1.0296383E-12
   4.560000      4.8680753E-13
   4.620000      2.8691903E-12
   4.680000      5.7898521E-12
   4.740000      8.5647080E-12
   4.800000      1.0272700E-11
   4.860000      9.9923828E-12
   4.920000      7.0945303E-12
   4.980000      1.5016681E-12
   5.040000     -6.1725386E-12
   5.100000     -1.4658287E-11
   5.160000     -2.2240931E-11
   5.220000     -2.7097930E-11
   5.280000     -2.7677166E-11
   5.340000     -2.3028943E-11
   5.400000     -1.3029164E-11
   5.460000      1.5288679E-12
   5.520000      1.8961418E-11
   5.580000      3.6813420E-11
   5.640000      5.2054843E-11
   5.700000      6.1366676E-11
   5.760000      6.1550369E-11
   5.820000      5.0087410E-11
   5.880000      2.5828529E-11
   5.940000     -1.0288105E-11
   6.000000     -5.4674491E-11
   6.060000     -1.0092020E-10
   6.120000     -1.4022195E-10
   6.180000     -1.6252005E-10
   6.240000     -1.5827015E-10
   6.300000     -1.2057934E-10
   6.360000     -4.7277748E-11
   6.420000      5.7561823E-11
   6.480000      1.8306884E-10
   6.540000      3.1219857E-10
   6.600000      4.2347567E-10
   6.660000      4.9352900E-10
   6.720000      4.9990456E-10
   6.780000      4.2360104E-10
   6.840000      2.5088592E-10
   6.900000     -2.5817948E-11
   6.960000     -4.0791631E-10
   7.020000     -8.9121505E-10
   7.080000     -1.4667046E-09
   7.140000     -2.1212319E-09
   7.200000     -2.8379077E-09
   7.260000     -3.5963150E-09
   7.320000     -4.3727386E-09
   7.380000     -5.1406905E-09
   7.440000     -5.8719114E-09
   7.500000     -6.5378529E-09
   7.560000     -7.1114408E-09
   7.620000     -7.5688193E-09
   7.680000     -7.8907707E-09
   7.740000     -8.0636591E-09
   7.800000     -8.0799021E-09
   7.860000     -7.9381604E-09
   7.920000     -7.6434503E-09
   7.980000     -7.2073139E-09
   8.040000     -6.6479320E-09
   8.100000     -5.9899055E-09
   8.160000     -5.2632827E-09
   8.220000     -4.5014810E-09
   8.280000     -3.7380281E-09
   8.340000     -3.0024387E-09
   8.400000     -2.3159337E-09
   8.460000     -1.6879855E-09
   8.520000     -1.1146543E-09
   8.580000     -5.7939165E-10
   8.640000     -5.6451874E-11
   8.700000      4.8358884E-10
   8.760000      1.0672631E-09
   8.820000      1.7119770E-09
   8.880000      2.4214950E-09
   8.940000      3.1841916E-09
   9.000000      3.9745385E-09
   9.060000      4.7575885E-09
   9.120000      5.4955720E-09
   9.180000      6.1552554E-09
   9.240000      6.7145369E-09
   9.300000      7.1669097E-09
   9.360000      7.5228774E-09
   9.420000      7.8080467E-09
   9.480000      8.0583487E-09
   9.540000      8.3134468E-09
   9.600000      8.6097831E-09
   9.660000      8.9747383E-09
   9.720000      9.4231014E-09
   9.780000      9.9564446E-09
   9.840000      1.0565314E-08
   9.900000      1.1233439E-08
   9.960000      1.1942755E-08
   10.02000      1.2677805E-08
   10.08000      1.3428386E-08
   10.14000      1.4189754E-08
   10.20000      1.4960499E-08
   10.26000      1.5738841E-08
   10.32000      1.6518792E-08
   10.38000      1.7287629E-08
   10.44000      1.8026004E-08
   10.50000      1.8711079E-08
   10.56000      1.9322140E-08
   10.62000      1.9847036E-08
   10.68000      2.0287231E-08
   10.74000      2.0659346E-08
   10.80000      2.0991910E-08
   10.86000      2.1317609E-08
   10.92000      2.1662922E-08
   10.98000      2.2038281E-08
   11.04000      2.2432058E-08
   11.10000      2.2810907E-08
   11.16000      2.3126898E-08
   11.22000      2.3329823E-08
   11.28000      2.3381030E-08
   11.34000      2.3264434E-08
   11.40000      2.2991063E-08
   11.46000      2.2595430E-08
   11.52000      2.2124686E-08
   11.58000      2.1623922E-08
   11.64000      2.1122403E-08
   11.70000      2.0625341E-08
   11.76000      2.0114141E-08
   11.82000      1.9555394E-08
   11.88000      1.8916007E-08
   11.94000      1.8179767E-08
   12.00000      1.7359909E-08
   12.06000      1.6503142E-08
   12.12000      1.5682978E-08
   12.18000      1.4983298E-08
   12.24000      1.4476149E-08
   12.30000      1.4199789E-08
   12.36000      1.4143457E-08
   12.42000      1.4243882E-08
   12.48000      1.4395535E-08
   12.54000      1.4472890E-08
   12.60000      1.4359316E-08
   12.66000      1.3975123E-08
   12.72000      1.3297091E-08
   12.78000      1.2363934E-08
   12.84000      1.1265906E-08
   12.90000      1.0121178E-08
   12.96000      9.0453964E-09
   13.02000      8.1227469E-09
   13.08000      7.3864608E-09
   13.14000      6.8140134E-09
   13.20000      6.3380798E-09
   13.26000      5.8698624E-09
   13.32000      5.3279554E-09
   13.38000      4.6644586E-09
   13.44000      3.8809316E-09
   13.50000      3.0297647E-09
   13.56000      2.2007198E-09
   13.62000      1.4965427E-09
   13.68000      1.0045570E-09
   13.74000      7.7216383E-10
   13.80000      7.9300139E-10
   13.86000      1.0075533E-09
   13.92000      1.3180773E-09
   13.98000      1.6139253E-09
   14.04000      1.8006029E-09
   14.10000      1.8249441E-09
   14.16000      1.6897647E-09
   14.22000      1.4540477E-09
   14.28000      1.2184656E-09
   14.34000      1.0998813E-09
   14.40000      1.2014116E-09
   14.46000      1.5858347E-09
   14.52000      2.2591939E-09
   14.58000      3.1686100E-09
   14.64000      4.2143542E-09
   14.70000      5.2723701E-09
   14.76000      6.2207901E-09
   14.82000      6.9633588E-09
   14.88000      7.4441266E-09
   14.94000      7.6507272E-09
   15.00000      7.6069746E-09
   15.06000      7.3583504E-09
   15.12000      6.9554518E-09
   15.18000      6.4403496E-09
   15.24000      5.8392846E-09
   15.30000      5.1628430E-09
   15.36000      4.4123252E-09
   15.42000      3.5892140E-09
   15.48000      2.7038305E-09
   15.54000      1.7797651E-09
   15.60000      8.5221324E-10
   15.66000     -3.9408914E-11
   15.72000     -8.6203061E-10
   15.78000     -1.5987727E-09
   15.84000     -2.2541435E-09
   15.90000     -2.8520823E-09
   15.96000     -3.4267695E-09
   16.02000     -4.0087689E-09
   16.08000     -4.6108859E-09
   16.14000     -5.2185256E-09
   16.20000     -5.7880380E-09
   16.26000     -6.2540289E-09
   16.32000     -6.5437034E-09
   16.38000     -6.5940577E-09
   16.44000     -6.3668146E-09
   16.50000     -5.8567649E-09
   16.56000     -5.0913096E-09
   16.62000     -4.1217421E-09
   16.68000     -3.0093097E-09
   16.74000     -1.8105113E-09
   16.80000     -5.6603289E-10
   16.86000      7.0373890E-10
   16.92000      1.9959931E-09
   16.98000      3.3173180E-09
   17.04000      4.6734661E-09
   17.10000      6.0608962E-09
   17.16000      7.4630240E-09
   17.22000      8.8523047E-09
   17.28000      1.0197203E-08
   17.34000      1.1471450E-08
   17.40000      1.2662249E-08
   17.46000      1.3774502E-08
   17.52000      1.4829324E-08
   17.58000      1.5856877E-08
   17.64000      1.6885199E-08
   17.70000      1.7928008E-08
   17.76000      1.8974863E-08
   17.82000      1.9986775E-08
   17.88000      2.0899112E-08
   17.94000      2.1631864E-08
   18.00000      2.2105244E-08
   18.06000      2.2256948E-08
   18.12000      2.2056511E-08
   18.18000      2.1512660E-08
   18.24000      2.0671331E-08
   18.30000      1.9604560E-08
   18.36000      1.8393223E-08
   18.42000      1.7108359E-08
   18.48000      1.5796187E-08
   18.54000      1.4470708E-08
   18.60000      1.3115351E-08
   18.66000      1.1692450E-08
   18.72000      1.0157298E-08
   18.78000      8.4726341E-09
   18.84000      6.6199450E-09
   18.90000      4.6053956E-09
   18.96000      2.4599640E-09
   19.02000      2.3487506E-10
   19.08000     -2.0057380E-09
   19.14000     -4.1929238E-09
   19.20000     -6.2601533E-09
   19.26000     -8.1488007E-09
   19.32000     -9.8115880E-09
   19.38000     -1.1214140E-08
   19.44000     -1.2335003E-08
   19.50000     -1.3164457E-08
   19.56000     -1.3702389E-08
   19.62000     -1.3955500E-08
   19.68000     -1.3934176E-08
   19.74000     -1.3649501E-08
   19.80000     -1.3111045E-08
   19.86000     -1.2326063E-08
   19.92000     -1.1300538E-08
   19.98000     -1.0042094E-08
   20.04000     -8.5641823E-09
   20.10000     -6.8904757E-09
   20.16000     -5.0580322E-09
   20.22000     -3.1178764E-09
   20.28000     -1.1321751E-09
   20.34000      8.3195950E-10
   20.40000      2.7109541E-09
   20.46000      4.4535806E-09
   20.52000      6.0276926E-09
   20.58000      7.4227819E-09
   20.64000      8.6472385E-09
   20.70000      9.7207042E-09
   20.76000      1.0663523E-08
   20.82000      1.1486391E-08
   20.88000      1.2183493E-08
   20.94000      1.2731513E-08
   21.00000      1.3095089E-08
   21.06000      1.3237228E-08
   21.12000      1.3131480E-08
   21.18000      1.2772141E-08
   21.24000      1.2179311E-08
   21.30000      1.1397328E-08
   21.36000      1.0487109E-08
   21.42000      9.5145873E-09
   21.48000      8.5383469E-09
   21.54000      7.5993221E-09
   21.60000      6.7145525E-09
   21.66000      5.8757768E-09
   21.72000      5.0525273E-09
   21.78000      4.1986907E-09
   21.84000      3.2611449E-09
   21.90000      2.1889930E-09
   21.96000      9.4196417E-10
   22.02000     -5.0329441E-10
   22.08000     -2.1499902E-09
   22.14000     -3.9814432E-09
   22.20000     -5.9645791E-09
   22.26000     -8.0557383E-09
   22.32000     -1.0207494E-08
   22.38000     -1.2375132E-08
   22.44000     -1.4521778E-08
   22.50000     -1.6621655E-08
   22.56000     -1.8661369E-08
   22.62000     -2.0639428E-08
   22.68000     -2.2564219E-08
   22.74000     -2.4450815E-08
   22.80000     -2.6316979E-08
   22.86000     -2.8179057E-08
   22.92000     -3.0048611E-08
   22.98000     -3.1930526E-08
   23.04000     -3.3823113E-08
   23.10000     -3.5720063E-08
   23.16000     -3.7613493E-08
   23.22000     -3.9496896E-08
   23.28000     -4.1366892E-08
   23.34000     -4.3223004E-08
   23.40000     -4.5065388E-08
   23.46000     -4.6891255E-08
   23.52000     -4.8691078E-08
   23.58000     -5.0445937E-08
   23.64000     -5.2127024E-08
   23.70000     -5.3697818E-08
   23.76000     -5.5118711E-08
   23.82000     -5.6353219E-08
   23.88000     -5.7374319E-08
   23.94000     -5.8169544E-08
   24.00000     -5.8743538E-08
   24.06000     -5.9117422E-08
   24.12000     -5.9325107E-08
   24.18000     -5.9407320E-08
   24.24000     -5.9404524E-08
   24.30000     -5.9350217E-08
   24.36000     -5.9265773E-08
   24.42000     -5.9157845E-08
   24.48000     -5.9018721E-08
   24.54000     -5.8829436E-08
   24.60000     -5.8564968E-08
   24.66000     -5.8200293E-08
   24.72000     -5.7715841E-08
   24.78000     -5.7101225E-08
   24.84000     -5.6356527E-08
   24.90000     -5.5491356E-08
   24.96000     -5.4522570E-08
   25.02000     -5.3471918E-08
   25.08000     -5.2364502E-08
   25.14000     -5.1228366E-08
   25.20000     -5.0094549E-08
   25.26000     -4.8996565E-08
   25.32000     -4.7968218E-08
   25.38000     -4.7039538E-08
   25.44000     -4.6231445E-08
   25.50000     -4.5550674E-08
   25.56000     -4.4986589E-08
   25.62000     -4.4511197E-08
   25.68000     -4.4082647E-08
   25.74000     -4.3651593E-08
   25.80000     -4.3169102E-08
   25.86000     -4.2594433E-08
   25.92000     -4.1901341E-08
   25.98000     -4.1081819E-08
   26.04000     -4.0146872E-08
   26.10000     -3.9124188E-08
   26.16000     -3.8053223E-08
   26.22000     -3.6978545E-08
   26.28000     -3.5942733E-08
   26.34000     -3.4980360E-08
   26.40000     -3.4114212E-08
   26.46000     -3.3354592E-08
   26.52000     -3.2701447E-08
   26.58000     -3.2148407E-08
   26.64000     -3.1687218E-08
   26.70000     -3.1311060E-08
   26.76000     -3.1015773E-08
   26.82000     -3.0798812E-08
   26.88000     -3.0656572E-08
   26.94000     -3.0581155E-08
   27.00000     -3.0557821E-08
   27.06000     -3.0564006E-08
   27.12000     -3.0570359E-08
   27.18000     -3.0543635E-08
   27.24000     -3.0450941E-08
   27.30000     -3.0264502E-08
   27.36000     -2.9966021E-08
   27.42000     -2.9549735E-08
   27.48000     -2.9023299E-08
   27.54000     -2.8406115E-08
   27.60000     -2.7725019E-08
   27.66000     -2.7008134E-08
   27.72000     -2.6278201E-08
   27.78000     -2.5547260E-08
   27.84000     -2.4814399E-08
   27.90000     -2.4067514E-08
   27.96000     -2.3288816E-08
   28.02000     -2.2462395E-08
   28.08000     -2.1581299E-08
   28.14000     -2.0651475E-08
   28.20000     -1.9691026E-08
   28.26000     -1.8724878E-08
   28.32000     -1.7776795E-08
   28.38000     -1.6861657E-08
   28.44000     -1.5980946E-08
   28.50000     -1.5123051E-08
   28.56000     -1.4268144E-08
   28.62000     -1.3395635E-08
   28.68000     -1.2491191E-08
   28.74000     -1.1550603E-08
   28.80000     -1.0578989E-08
   28.86000     -9.5856461E-09
   28.92000     -8.5763920E-09
   28.98000     -7.5461388E-09
   29.04000     -6.4743308E-09
   29.10000     -5.3249312E-09
   29.16000     -4.0512584E-09
   29.22000     -2.6045861E-09
   29.28000     -9.4440344E-10
   29.34000      9.5214003E-10
   29.40000      3.0838778E-09
   29.46000      5.4238871E-09
   29.52000      7.9228615E-09
   29.58000      1.0516967E-08
   29.64000      1.3138549E-08
   29.70000      1.5727325E-08
   29.76000      1.8239524E-08
   29.82000      2.0652713E-08
   29.88000      2.2965089E-08
   29.94000      2.5189312E-08
   30.00000      2.7342519E-08
   30.06000      2.9435315E-08
   30.12000      3.1462942E-08
   30.18000      3.3401296E-08
   30.24000      3.5208988E-08
   30.30000      3.6834770E-08
   30.36000      3.8227931E-08
   30.42000      3.9348329E-08
   30.48000      4.0173010E-08
   30.54000      4.0697522E-08
   30.60000      4.0932044E-08
   30.66000      4.0894054E-08
   30.72000      4.0600476E-08
   30.78000      4.0062126E-08
   30.84000      3.9282430E-08
   30.90000      3.8260779E-08
   30.96000      3.6999243E-08
   31.02000      3.5510116E-08
   31.08000      3.3821522E-08
   31.14000      3.1978661E-08
   31.20000      3.0039708E-08
   31.26000      2.8066919E-08
   31.32000      2.6115359E-08
   31.38000      2.4222443E-08
   31.44000      2.2401791E-08
   31.50000      2.0643725E-08
   31.56000      1.8922744E-08
   31.62000      1.7209985E-08
   31.68000      1.5486791E-08
   31.74000      1.3754746E-08
   31.80000      1.2038445E-08
   31.86000      1.0379610E-08
   31.92000      8.8240943E-09
   31.98000      7.4059505E-09
   32.04000      6.1338876E-09
   32.10000      4.9847455E-09
   32.16000      3.9062642E-09
   32.22000      2.8282536E-09
   32.28000      1.6785398E-09
   32.34000      3.9870057E-10
   32.40000     -1.0449607E-09
   32.46000     -2.6578000E-09
   32.52000     -4.4205644E-09
   32.58000     -6.2981997E-09
   32.64000     -8.2503036E-09
   32.70000     -1.0240017E-08
   32.76000     -1.2239386E-08
   32.82000     -1.4230856E-08
   32.88000     -1.6205906E-08
   32.94000     -1.8162405E-08
   33.00000     -2.0102034E-08
   33.06000     -2.2028503E-08
   33.12000     -2.3946457E-08
   33.18000     -2.5860619E-08
   33.24000     -2.7774790E-08
   33.30000     -2.9690652E-08
   33.36000     -3.1606714E-08
   33.42000     -3.3517956E-08
   33.48000     -3.5416452E-08
   33.54000     -3.7292850E-08
   33.60000     -3.9138264E-08
   33.66000     -4.0945853E-08
   33.72000     -4.2711672E-08
   33.78000     -4.4434664E-08
   33.84000     -4.6116050E-08
   33.90000     -4.7758586E-08
   33.96000     -4.9365887E-08
   34.02000     -5.0941868E-08
   34.08000     -5.2490158E-08
   34.14000     -5.4013256E-08
   34.20000     -5.5511489E-08
   34.26000     -5.6982003E-08
   34.32000     -5.8418099E-08
   34.38000     -5.9809075E-08
   34.44000     -6.1140440E-08
   34.50000     -6.2394086E-08
   34.56000     -6.3548285E-08
   34.62000     -6.4577556E-08
   34.68000     -6.5452959E-08
   34.74000     -6.6143542E-08
   34.80000     -6.6619698E-08
   34.86000     -6.6857964E-08
   34.92000     -6.6846702E-08
   34.98000     -6.6590800E-08
   35.04000     -6.6114040E-08
   35.10000     -6.5457989E-08
   35.16000     -6.4677423E-08
   35.22000     -6.3833248E-08
   35.28000     -6.2984462E-08
   35.34000     -6.2180973E-08
   35.40000     -6.1458572E-08
   35.46000     -6.0836882E-08
   35.52000     -6.0320353E-08
   35.58000     -5.9901886E-08
   35.64000     -5.9568045E-08
   35.70000     -5.9304806E-08
   35.76000     -5.9102334E-08
   35.82000     -5.8957596E-08
   35.88000     -5.8873905E-08
   35.94000     -5.8857289E-08
   36.00000     -5.8910597E-08
   36.06000     -5.9027286E-08
   36.12000     -5.9187197E-08
   36.18000     -5.9356456E-08
   36.24000     -5.9492457E-08
   36.30000     -5.9553035E-08
   36.36000     -5.9507325E-08
   36.42000     -5.9344831E-08
   36.48000     -5.9079326E-08
   36.54000     -5.8746021E-08
   36.60000     -5.8392477E-08
   36.66000     -5.8066217E-08
   36.72000     -5.7803128E-08
   36.78000     -5.7620504E-08
   36.84000     -5.7516846E-08
   36.90000     -5.7478019E-08
   36.96000     -5.7487060E-08
   37.02000     -5.7533761E-08
   37.08000     -5.7620401E-08
   37.14000     -5.7761735E-08
   37.20000     -5.7979470E-08
   37.26000     -5.8293438E-08
   37.32000     -5.8712622E-08
   37.38000     -5.9228995E-08
   37.44000     -5.9815939E-08
   37.50000     -6.0431653E-08
   37.56000     -6.1026327E-08
   37.62000     -6.1551354E-08
   37.68000     -6.1968024E-08
   37.74000     -6.2253740E-08
   37.80000     -6.2404176E-08
   37.86000     -6.2430750E-08
   37.92000     -6.2354133E-08
   37.98000     -6.2195646E-08
   38.04000     -6.1969260E-08
   38.10000     -6.1677092E-08
   38.16000     -6.1310139E-08
   38.22000     -6.0854333E-08
   38.28000     -6.0299634E-08
   38.34000     -5.9648592E-08
   38.40000     -5.8920676E-08
   38.46000     -5.8149947E-08
   38.52000     -5.7376369E-08
   38.58000     -5.6633592E-08
   38.64000     -5.5937463E-08
   38.70000     -5.5279532E-08
   38.76000     -5.4628021E-08
   38.82000     -5.3936009E-08
   38.88000     -5.3154224E-08
   38.94000     -5.2244321E-08
   39.00000     -5.1188575E-08
   39.06000     -4.9993368E-08
   39.12000     -4.8685749E-08
   39.18000     -4.7304599E-08
   39.24000     -4.5889234E-08
   39.30000     -4.4469012E-08
   39.36000     -4.3056890E-08
   39.42000     -4.1648857E-08
   39.48000     -4.0229292E-08
   39.54000     -3.8780410E-08
   39.60000     -3.7292772E-08
   39.66000     -3.5772938E-08
   39.72000     -3.4245510E-08
   39.78000     -3.2748051E-08
   39.84000     -3.1320358E-08
   39.90000     -2.9991341E-08
   39.96000     -2.8768188E-08
   40.02000     -2.7631883E-08
   40.08000     -2.6541045E-08
   40.14000     -2.5443196E-08
   40.20000     -2.4289719E-08
   40.26000     -2.3049552E-08
   40.32000     -2.1717090E-08
   40.38000     -2.0312056E-08
   40.44000     -1.8872075E-08
   40.50000     -1.7441293E-08
   40.56000     -1.6059342E-08
   40.62000     -1.4754379E-08
   40.68000     -1.3541711E-08
   40.74000     -1.2427208E-08
   40.80000     -1.1412845E-08
   40.86000     -1.0501362E-08
   40.92000     -9.6979642E-09
   40.98000     -9.0086640E-09
   41.04000     -8.4365839E-09
   41.10000     -7.9783371E-09
   41.16000     -7.6224476E-09
   41.22000     -7.3507245E-09
   41.28000     -7.1421478E-09
   41.34000     -6.9778685E-09
   41.40000     -6.8455459E-09
   41.46000     -6.7416823E-09
   41.52000     -6.6713670E-09
   41.58000     -6.6456591E-09
   41.64000     -6.6773516E-09
   41.70000     -6.7760566E-09
   41.76000     -6.9435924E-09
   41.82000     -7.1707111E-09
   41.88000     -7.4362525E-09
   41.94000     -7.7097013E-09
   42.00000     -7.9575404E-09
   42.06000     -8.1526226E-09
   42.12000     -8.2843581E-09
   42.18000     -8.3664249E-09
   42.24000     -8.4386471E-09
   42.30000     -8.5610914E-09
   42.36000     -8.8009440E-09
   42.42000     -9.2155155E-09
   42.48000     -9.8365014E-09
   42.54000     -1.0660687E-08
   42.60000     -1.1650294E-08
   42.66000     -1.2743037E-08
   42.72000     -1.3868704E-08
   42.78000     -1.4967112E-08
   42.84000     -1.6002069E-08
   42.90000     -1.6967569E-08
   42.96000     -1.7885039E-08
   43.02000     -1.8793186E-08
   43.08000     -1.9733942E-08
   43.14000     -2.0738824E-08
   43.20000     -2.1819588E-08
   43.26000     -2.2965729E-08
   43.32000     -2.4149255E-08
   43.38000     -2.5335300E-08
   43.44000     -2.6495270E-08
   43.50000     -2.7618608E-08
   43.56000     -2.8719398E-08
   43.62000     -2.9835707E-08
   43.68000     -3.1021660E-08
   43.74000     -3.2334892E-08
   43.80000     -3.3823589E-08
   43.86000     -3.5517999E-08
   43.92000     -3.7429935E-08
   43.98000     -3.9561424E-08
   44.04000     -4.1920512E-08
   44.10000     -4.4539622E-08
   44.16000     -4.7490865E-08
   44.22000     -5.0893391E-08
   44.28000     -5.4910590E-08
   44.34000     -5.9738390E-08
   44.40000     -6.5588821E-08
   44.46000     -7.2674744E-08
   44.52000     -8.1201144E-08
   44.58000     -9.1366054E-08
   44.64000     -1.0337145E-07
   44.70000     -1.1744147E-07
   44.76000     -1.3384395E-07
   44.82000     -1.5291100E-07
   44.88000     -1.7505556E-07
   44.94000     -2.0078248E-07
   45.00000     -2.3069431E-07
   45.06000     -2.6549299E-07
   45.12000     -3.0597974E-07
   45.18000     -3.5305558E-07
   45.24000     -4.0772520E-07
   45.30000     -4.7110566E-07
   45.36000     -5.4444212E-07
   45.42000     -6.2912875E-07
   45.48000     -7.2673492E-07
   45.54000     -8.3903080E-07
   45.60000     -9.6801159E-07
   45.66000     -1.1159157E-06
   45.72000     -1.2852370E-06
   45.78000     -1.4787332E-06
   45.84000     -1.6994348E-06
   45.90000     -1.9506567E-06
   45.96000     -2.2360175E-06
   46.02000     -2.5594677E-06
   46.08000     -2.9253220E-06
   46.14000     -3.3382962E-06
   46.20000     -3.8035375E-06
   46.26000     -4.3266509E-06
   46.32000     -4.9137134E-06
   46.38000     -5.5712835E-06
   46.44000     -6.3064058E-06
   46.50000     -7.1266086E-06
   46.56000     -8.0399022E-06
   46.62000     -9.0547819E-06
   46.68000     -1.0180220E-05
   46.74000     -1.1425661E-05
   46.80000     -1.2801016E-05
   46.86000     -1.4316645E-05
   46.92000     -1.5983336E-05
   46.98000     -1.7812277E-05
   47.04000     -1.9815026E-05
   47.10000     -2.2003449E-05
   47.16000     -2.4389681E-05
   47.22000     -2.6986057E-05
   47.28000     -2.9805036E-05
   47.34000     -3.2859138E-05
   47.40000     -3.6160847E-05
   47.46000     -3.9722512E-05
   47.52000     -4.3556254E-05
   47.58000     -4.7673861E-05
   47.64000     -5.2086645E-05
   47.70000     -5.6805318E-05
   47.76000     -6.1839841E-05
   47.82000     -6.7199326E-05
   47.88000     -7.2891824E-05
   47.94000     -7.8924284E-05
   48.00000     -8.5302345E-05
   48.06000     -9.2030270E-05
   48.12000     -9.9110766E-05
   48.18000     -1.0654489E-04
   48.24000     -1.1433190E-04
   48.30000     -1.2246918E-04
   48.36000     -1.3095207E-04
   48.42000     -1.3977384E-04
   48.48000     -1.4892558E-04
   48.54000     -1.5839617E-04
   48.60000     -1.6817219E-04
   48.66000     -1.7823798E-04
   48.72000     -1.8857564E-04
   48.78000     -1.9916501E-04
   48.84000     -2.0998377E-04
   48.90000     -2.2100753E-04
   48.96000     -2.3220986E-04
   49.02000     -2.4356248E-04
   49.08000     -2.5503532E-04
   49.14000     -2.6659691E-04
   49.20000     -2.7821434E-04
   49.26000     -2.8985363E-04
   49.32000     -3.0147991E-04
   49.38000     -3.1305777E-04
   49.44000     -3.2455151E-04
   49.50000     -3.3592543E-04
   49.56000     -3.4714423E-04
   49.62000     -3.5817327E-04
   49.68000     -3.6897889E-04
   49.74000     -3.7952873E-04
   49.80000     -3.8979208E-04
   49.86000     -3.9974012E-04
   49.92000     -4.0934628E-04
   49.98000     -4.1858645E-04
   50.04000     -4.2743940E-04
   50.10000     -4.3588679E-04
   50.16000     -4.4391357E-04
   50.22000     -4.5150818E-04
   50.28000     -4.5866260E-04
   50.34000     -4.6537246E-04
   50.40000     -4.7163718E-04
   50.46000     -4.7745975E-04
   50.52000     -4.8284698E-04
   50.58000     -4.8780927E-04
   50.64000     -4.9236044E-04
   50.70000     -4.9651787E-04
   50.76000     -5.0030195E-04
   50.82000     -5.0373632E-04
   50.88000     -5.0684705E-04
   50.94000     -5.0966267E-04
   51.00000     -5.1221345E-04
   51.06000     -5.1453151E-04
   51.12000     -5.1664998E-04
   51.18000     -5.1860278E-04
   51.24000     -5.2042434E-04
   51.30000     -5.2214897E-04
   51.36000     -5.2381039E-04
   51.42000     -5.2544131E-04
   51.48000     -5.2707311E-04
   51.54000     -5.2873534E-04
   51.60000     -5.3045526E-04
   51.66000     -5.3225766E-04
   51.72000     -5.3416443E-04
   51.78000     -5.3619430E-04
   51.84000     -5.3836248E-04
   51.90000     -5.4068048E-04
   51.96000     -5.4315611E-04
   52.02000     -5.4579315E-04
   52.08000     -5.4859172E-04
   52.14000     -5.5154786E-04
   52.20000     -5.5465405E-04
   52.26000     -5.5789878E-04
   52.32000     -5.6126708E-04
   52.38000     -5.6474068E-04
   52.44000     -5.6829822E-04
   52.50000     -5.7191541E-04
   52.56000     -5.7556556E-04
   52.62000     -5.7922007E-04
   52.68000     -5.8284868E-04
   52.74000     -5.8641977E-04
   52.80000     -5.8990141E-04
   52.86000     -5.9326115E-04
   52.92000     -5.9646671E-04
   52.98000     -5.9948652E-04
   53.04000     -6.0228980E-04
   53.10000     -6.0484750E-04
   53.16000     -6.0713274E-04
   53.22000     -6.0912070E-04
   53.28000     -6.1078923E-04
   53.34000     -6.1211939E-04
   53.40000     -6.1309518E-04
   53.46000     -6.1370403E-04
   53.52000     -6.1393710E-04
   53.58000     -6.1378884E-04
   53.64000     -6.1325758E-04
   53.70000     -6.1234529E-04
   53.76000     -6.1105762E-04
   53.82000     -6.0940377E-04
   53.88000     -6.0739618E-04
   53.94000     -6.0505065E-04
   54.00000     -6.0238573E-04
   54.06000     -5.9942243E-04
   54.12000     -5.9618440E-04
   54.18000     -5.9269654E-04
   54.24000     -5.8898574E-04
   54.30000     -5.8507966E-04
   54.36000     -5.8100646E-04
   54.42000     -5.7679490E-04
   54.48000     -5.7247328E-04
   54.54000     -5.6806928E-04
   54.60000     -5.6360953E-04
   54.66000     -5.5911974E-04
   54.72000     -5.5462337E-04
   54.78000     -5.5014220E-04
   54.84000     -5.4569566E-04
   54.90000     -5.4130034E-04
   54.96000     -5.3697010E-04
   55.02000     -5.3271593E-04
   55.08000     -5.2854558E-04
   55.14000     -5.2446401E-04
   55.20000     -5.2047294E-04
   55.26000     -5.1657110E-04
   55.32000     -5.1275408E-04
   55.38000     -5.0901464E-04
   55.44000     -5.0534302E-04
   55.50000     -5.0172687E-04
   55.56000     -4.9815199E-04