  -2.400000      0.0000000E+00
  -2.340000      0.0000000E+00
  -2.280000      0.0000000E+00
  -2.220000      0.0000000E+00
  -2.160000      0.0000000E+00
  -2.100000      0.0000000E+00
  -2.040000      0.0000000E+00
  -1.980000      0.0000000E+00
  -1.920000      0.0000000E+00
  -1.860000      1.7534010E-28
  -1.800000      1.8663376E-27
  -1.740000      7.7068521E-27
  -1.680000      2.9816855E-27
  -1.620000     -1.3835189E-25
  -1.560000     -8.9286127E-25
  -1.500000     -3.3554317E-24
  -1.440000     -8.8073543E-24
  -1.380000     -1.5994174E-23
  -1.320000     -1.4705162E-23
  -1.260000      2.2064290E-23
  -1.200000      1.3643609E-22
  -1.140000      3.5422894E-22
  -1.080000      6.0752200E-22
  -1.020000      6.3080186E-22
 -0.9600000     -7.8188971E-23
 -0.9000000     -2.0737004E-21
 -0.8400000     -5.4205994E-21
 -0.7800000     -8.8827566E-21
 -0.7200000     -9.3359603E-21
 -0.6600000     -2.2792108E-21
 -0.6000000      1.5760151E-20
 -0.5400000      4.3069075E-20
 -0.4800000      6.8716698E-20
 -0.4200000      7.2183419E-20
 -0.3600000      3.0214429E-20
 -0.3000000     -6.8480473E-20
 -0.2400000     -2.0573773E-19
 -0.1800000     -3.2443823E-19
 -0.1200000     -3.3904787E-19
 -5.9999999E-02 -1.7143994E-19
  0.0000000E+00  1.9707759E-19
  5.9999999E-02  6.8184834E-19
  0.1200000      1.0892393E-18
  0.1800000      1.1681576E-18
  0.2400000      7.1078746E-19
  0.3000000     -3.3438414E-19
  0.3600000     -1.7868323E-18
  0.4200000     -3.2305601E-18
  0.4800000     -4.0838486E-18
  0.5400000     -3.7148230E-18
  0.6000000     -1.5790399E-18
  0.6600000      2.6075696E-18
  0.7200000      8.6129883E-18
  0.7800000      1.5332507E-17
  0.8400000      2.0444101E-17
  0.9000000      2.0384333E-17
  0.9600000      1.1078996E-17
   1.020000     -1.0267144E-17
   1.080000     -4.2523532E-17
   1.140000     -7.8129816E-17
   1.200000     -1.0245671E-16
   1.260000     -9.6828604E-17
   1.320000     -4.5923787E-17
   1.380000      5.2021809E-17
   1.440000      1.7654844E-16
   1.500000      2.8391814E-16
   1.560000      3.1866846E-16
   1.620000      2.3787705E-16
   1.680000      4.0421517E-17
   1.740000     -2.1387841E-16
   1.800000     -4.1231010E-16
   1.860000     -4.3377738E-16
   1.920000     -2.2104700E-16
   1.980000      1.5021922E-16
   2.040000      4.5122133E-16
   2.100000      3.6792893E-16
   2.160000     -3.3738347E-16
   2.220000     -1.6201456E-15
   2.280000     -3.0045940E-15
   2.340000     -3.6112602E-15
   2.400000     -2.4368473E-15
   2.460000      1.1441789E-15
   2.520000      6.8239765E-15
   2.580000      1.3023441E-14
   2.640000      1.7045317E-14
   2.700000      1.5850805E-14
   2.760000      7.3307161E-15
   2.820000     -8.3478841E-15
   2.880000     -2.7921291E-14
   2.940000     -4.5288195E-14
   3.000000     -5.3075732E-14
   3.060000     -4.5214581E-14
   3.120000     -1.9693304E-14
   3.180000      1.9629587E-14
   3.240000      6.3135044E-14
   3.300000      9.7841060E-14
   3.360000      1.1154496E-13
   3.420000      9.7308453E-14
   3.480000      5.6476867E-14
   3.540000     -1.2524265E-15
   3.600000     -6.1140200E-14
   3.660000     -1.0906335E-13
   3.720000     -1.3721400E-13
   3.780000     -1.4707010E-13
   3.840000     -1.4761410E-13
   3.900000     -1.4867915E-13
   3.960000     -1.5176663E-13
   4.020000     -1.4271966E-13
   4.080000     -9.1198154E-14
   4.140000      3.9711693E-14
   4.200000      2.7414833E-13
   4.260000      5.9965547E-13
   4.320000      9.4843664E-13
   4.380000      1.1948835E-12
   4.440000      1.1780342E-12
   4.500000      7.5050431E-13
   4.560000     -1.5492220E-13
   4.620000     -1.4604107E-12
   4.680000     -2.9059754E-12
   4.740000     -4.0652191E-12
   4.800000     -4.4281614E-12
   4.860000     -3.5457596E-12
   4.920000     -1.2067395E-12
   4.980000      2.4035528E-12
   5.040000      6.6221768E-12
   5.100000      1.0357287E-11
   5.160000      1.2290537E-11
   5.220000      1.1214353E-11
   5.280000      6.4374946E-12
   5.340000     -1.8461125E-12
   5.400000     -1.2345521E-11
   5.460000     -2.2720957E-11
   5.520000     -2.9944516E-11
   5.580000     -3.0950235E-11
   5.640000     -2.3466616E-11
   5.700000     -6.8535759E-12
   5.760000      1.7271943E-11
   5.820000      4.4828277E-11
   5.880000      6.9624667E-11
   5.940000      8.4320100E-11
   6.000000      8.1892992E-11
   6.060000      5.7395921E-11
   6.120000      9.6634601E-12
   6.180000     -5.7410805E-11
   6.240000     -1.3439207E-10
   6.300000     -2.0688168E-10
   6.360000     -2.5725078E-10
   6.420000     -2.6741304E-10
   6.480000     -2.2229908E-10
   6.540000     -1.1350881E-10
   6.600000      5.7488771E-11
   6.660000      2.7723981E-10
   6.720000      5.1978677E-10
   6.780000      7.4803364E-10
   6.840000      9.1698582E-10
   6.900000      9.7853881E-10
   6.960000      8.8721547E-10
   7.020000      6.0607269E-10
   7.080000      1.1195041E-10
   7.140000     -6.0067018E-10
   7.200000     -1.5177226E-09
   7.260000     -2.6057672E-09
   7.320000     -3.8143124E-09
   7.380000     -5.0799409E-09
   7.440000     -6.3317755E-09
   7.500000     -7.4977144E-09
   7.560000     -8.5108516E-09
   7.620000     -9.3155093E-09
   7.680000     -9.8723287E-09
   7.740000     -1.0161919E-08
   7.800000     -1.0186616E-08
   7.860000     -9.9700461E-09
   7.920000     -9.5543715E-09
   7.980000     -8.9953858E-09
   8.040000     -8.3559311E-09
   8.100000     -7.6984259E-09
   8.160000     -7.0774875E-09
   8.220000     -6.5336772E-09
   8.280000     -6.0892700E-09
   8.340000     -5.7466454E-09
   8.400000     -5.4894298E-09
   8.460000     -5.2861013E-09
   8.520000     -5.0953148E-09
   8.580000     -4.8719819E-09
   8.640000     -4.5730717E-09
   8.700000     -4.1622759E-09
   8.760000     -3.6130166E-09
   8.820000     -2.9097260E-09
   8.880000     -2.0477200E-09
   8.940000     -1.0322603E-09
   9.000000      1.2256325E-10
   9.060000      1.3946970E-09
   9.120000      2.7546787E-09
   9.180000      4.1662322E-09
   9.240000      5.5875446E-09
   9.300000      6.9738872E-09
   9.360000      8.2819538E-09
   9.420000      9.4757189E-09
   9.480000      1.0532965E-08
   9.540000      1.1451053E-08
   9.600000      1.2250309E-08
   9.660000      1.2973642E-08
   9.720000      1.3681709E-08
   9.780000      1.4444003E-08
   9.840000      1.5327256E-08
   9.900000      1.6383391E-08
   9.960000      1.7639520E-08
   10.02000      1.9092139E-08
   10.08000      2.0706754E-08
   10.14000      2.2422952E-08
   10.20000      2.4163732E-08
   10.26000      2.5847029E-08
   10.32000      2.7397107E-08
   10.38000      2.8753742E-08
   10.44000      2.9877956E-08
   10.50000      3.0753945E-08
   10.56000      3.1387728E-08
   10.62000      3.1803591E-08
   10.68000      3.2039370E-08
   10.74000      3.2141475E-08
   10.80000      3.2160077E-08
   10.86000      3.2144428E-08
   10.92000      3.2138171E-08
   10.98000      3.2174611E-08
   11.04000      3.2272219E-08
   11.10000      3.2431071E-08
   11.16000      3.2631316E-08
   11.22000      3.2834581E-08
   11.28000      3.2988947E-08
   11.34000      3.3037274E-08
   11.40000      3.2927666E-08
   11.46000      3.2624136E-08
   11.52000      3.2114936E-08
   11.58000      3.1416334E-08
   11.64000      3.0570444E-08
   11.70000      2.9637118E-08
   11.76000      2.8681598E-08
   11.82000      2.7760750E-08
   11.88000      2.6911431E-08
   11.94000      2.6144097E-08
   12.00000      2.5443377E-08
   12.06000      2.4775492E-08
   12.12000      2.4100336E-08
   12.18000      2.3384676E-08
   12.24000      2.2612490E-08
   12.30000      2.1789310E-08
   12.36000      2.0939220E-08
   12.42000      2.0095472E-08
   12.48000      1.9287773E-08
   12.54000      1.8530452E-08
   12.60000      1.7815633E-08
   12.66000      1.7114049E-08
   12.72000      1.6383805E-08
   12.78000      1.5584693E-08
   12.84000      1.4693673E-08
   12.90000      1.3716327E-08
   12.96000      1.2690021E-08
   13.02000      1.1676768E-08
   13.08000      1.0747021E-08
   13.14000      9.9585877E-09
   13.20000      9.3368531E-09
   13.26000      8.8625205E-09
   13.32000      8.4712637E-09
   13.38000      8.0662845E-09
   13.44000      7.5409474E-09
   13.50000      6.8055228E-09
   13.56000      5.8106671E-09
   13.62000      4.5610791E-09
   13.68000      3.1155332E-09
   13.74000      1.5733900E-09
   13.80000      5.1487009E-11
   13.86000     -1.3420538E-09
   13.92000     -2.5299285E-09
   13.98000     -3.4778633E-09
   14.04000     -4.1941375E-09
   14.10000     -4.7172874E-09
   14.16000     -5.0962066E-09
   14.22000     -5.3689111E-09
   14.28000     -5.5465379E-09
   14.34000     -5.6075264E-09
   14.40000     -5.5039306E-09
   14.46000     -5.1781277E-09
   14.52000     -4.5849795E-09
   14.58000     -3.7126047E-09
   14.64000     -2.5950664E-09
   14.70000     -1.3124595E-09
   14.76000      2.2423832E-11
   14.82000      1.2875752E-09
   14.88000      2.3788644E-09
   14.94000      3.2328797E-09
   15.00000      3.8386974E-09
   15.06000      4.2349391E-09
   15.12000      4.4927835E-09
   15.18000      4.6897379E-09
   15.24000      4.8816466E-09
   15.30000      5.0808930E-09
   15.36000      5.2468860E-09
   15.42000      5.2914273E-09
   15.48000      5.0974340E-09
   15.54000      4.5459800E-09
   15.60000      3.5446146E-09
   15.66000      2.0498900E-09
   15.72000      7.8841822E-11
   15.78000     -2.2928002E-09
   15.84000     -4.9444777E-09
   15.90000     -7.7326829E-09
   15.96000     -1.0515161E-08
   16.02000     -1.3171650E-08
   16.08000     -1.5616793E-08
   16.14000     -1.7803270E-08
   16.20000     -1.9715879E-08
   16.26000     -2.1359707E-08
   16.32000     -2.2746788E-08
   16.38000     -2.3885674E-08
   16.44000     -2.4777126E-08
   16.50000     -2.5416927E-08
   16.56000     -2.5804438E-08
   16.62000     -2.5953424E-08
   16.68000     -2.5900741E-08
   16.74000     -2.5708701E-08
   16.80000     -2.5458787E-08
   16.86000     -2.5236920E-08
   16.92000     -2.5113378E-08
   16.98000     -2.5122587E-08
   17.04000     -2.5248729E-08
   17.10000     -2.5422008E-08
   17.16000     -2.5527696E-08
   17.22000     -2.5426710E-08
   17.28000     -2.4983006E-08
   17.34000     -2.4091211E-08
   17.40000     -2.2697657E-08
   17.46000     -2.0809821E-08
   17.52000     -1.8492294E-08
   17.58000     -1.5850906E-08
   17.64000     -1.3009584E-08
   17.70000     -1.0085888E-08
   17.76000     -7.1711468E-09
   17.82000     -4.3193005E-09
   17.88000     -1.5461084E-09
   17.94000      1.1623672E-09
   18.00000      3.8352557E-09
   18.06000      6.5007519E-09
   18.12000      9.1727346E-09
   18.18000      1.1843309E-08
   18.24000      1.4482619E-08
   18.30000      1.7045133E-08
   18.36000      1.9479954E-08
   18.42000      2.1741778E-08
   18.48000      2.3799297E-08
   18.54000      2.5638794E-08
   18.60000      2.7262391E-08
   18.66000      2.8681894E-08
   18.72000      2.9910542E-08
   18.78000      3.0955377E-08
   18.84000      3.1812728E-08
   18.90000      3.2468250E-08
   18.96000      3.2901752E-08
   19.02000      3.3095461E-08
   19.08000      3.3043587E-08
   19.14000      3.2760358E-08
   19.20000      3.2284117E-08
   19.26000      3.1676127E-08
   19.32000      3.1013954E-08
   19.38000      3.0380946E-08
   19.44000      2.9854171E-08
   19.50000      2.9493593E-08
   19.56000      2.9334645E-08
   19.62000      2.9385497E-08
   19.68000      2.9628962E-08
   19.74000      3.0028040E-08
   19.80000      3.0533357E-08
   19.86000      3.1090774E-08
   19.92000      3.1647552E-08
   19.98000      3.2156187E-08
   20.04000      3.2575592E-08
   20.10000      3.2870261E-08
   20.16000      3.3008497E-08
   20.22000      3.2961161E-08
   20.28000      3.2702097E-08
   20.34000      3.2210629E-08
   20.40000      3.1475476E-08
   20.46000      3.0498445E-08
   20.52000      2.9295942E-08
   20.58000      2.7896956E-08
   20.64000      2.6337219E-08
   20.70000      2.4651047E-08
   20.76000      2.2863293E-08
   20.82000      2.0984206E-08
   20.88000      1.9009139E-08
   20.94000      1.6923467E-08
   21.00000      1.4711347E-08
   21.06000      1.2365594E-08
   21.12000      9.8955804E-09
   21.18000      7.3305144E-09
   21.24000      4.7167537E-09
   21.30000      2.1094519E-09
   21.36000     -4.3958515E-10
   21.42000     -2.8948246E-09
   21.48000     -5.2472640E-09
   21.54000     -7.5191009E-09
   21.60000     -9.7612638E-09
   21.66000     -1.2044170E-08
   21.72000     -1.4444075E-08
   21.78000     -1.7028679E-08
   21.84000     -1.9845851E-08
   21.90000     -2.2918220E-08
   21.96000     -2.6244358E-08
   22.02000     -2.9805044E-08
   22.08000     -3.3571570E-08
   22.14000     -3.7512745E-08
   22.20000     -4.1598081E-08
   22.26000     -4.5796551E-08
   22.32000     -5.0072067E-08
   22.38000     -5.4378081E-08
   22.44000     -5.8654020E-08
   22.50000     -6.2825556E-08
   22.56000     -6.6809406E-08
   22.62000     -7.0521999E-08
   22.68000     -7.3889979E-08
   22.74000     -7.6860019E-08
   22.80000     -7.9405403E-08
   22.86000     -8.1527368E-08
   22.92000     -8.3250683E-08
   22.98000     -8.4614534E-08
   23.04000     -8.5661007E-08
   23.10000     -8.6424677E-08
   23.16000     -8.6926363E-08
   23.22000     -8.7172779E-08
   23.28000     -8.7162064E-08
   23.34000     -8.6892882E-08
   23.40000     -8.6373866E-08
   23.46000     -8.5629921E-08
   23.52000     -8.4703174E-08
   23.58000     -8.3648281E-08
   23.64000     -8.2523577E-08
   23.70000     -8.1380740E-08
   23.76000     -8.0255880E-08
   23.82000     -7.9164401E-08
   23.88000     -7.8100790E-08
   23.94000     -7.7043218E-08
   24.00000     -7.5961779E-08
   24.06000     -7.4828137E-08
   24.12000     -7.3624292E-08
   24.18000     -7.2347937E-08
   24.24000     -7.1013012E-08
   24.30000     -6.9645083E-08
   24.36000     -6.8273252E-08
   24.42000     -6.6921096E-08
   24.48000     -6.5600155E-08
   24.54000     -6.4308374E-08
   24.60000     -6.3034612E-08
   24.66000     -6.1767629E-08
   24.72000     -6.0506551E-08
   24.78000     -5.9268743E-08
   24.84000     -5.8091899E-08
   24.90000     -5.7029013E-08
   24.96000     -5.6137377E-08
   25.02000     -5.5464895E-08
   25.08000     -5.5037965E-08
   25.14000     -5.4854844E-08
   25.20000     -5.4886705E-08
   25.26000     -5.5086215E-08
   25.32000     -5.5401188E-08
   25.38000     -5.5789261E-08
   25.44000     -5.6229364E-08
   25.50000     -5.6726602E-08
   25.56000     -5.7309318E-08
   25.62000     -5.8019335E-08
   25.68000     -5.8898411E-08
   25.74000     -5.9974859E-08
   25.80000     -6.1253935E-08
   25.86000     -6.2714413E-08
   25.92000     -6.4311571E-08
   25.98000     -6.5985169E-08
   26.04000     -6.7669902E-08
   26.10000     -6.9305507E-08
   26.16000     -7.0844564E-08
   26.22000     -7.2256931E-08
   26.28000     -7.3530856E-08
   26.34000     -7.4671291E-08
   26.40000     -7.5696079E-08
   26.46000     -7.6630570E-08
   26.52000     -7.7500928E-08
   26.58000     -7.8326906E-08
   26.64000     -7.9114798E-08
   26.70000     -7.9852043E-08
   26.76000     -8.0504940E-08
   26.82000     -8.1020573E-08
   26.88000     -8.1333319E-08
   26.94000     -8.1374999E-08
   27.00000     -8.1086846E-08
   27.06000     -8.0430659E-08
   27.12000     -7.9396507E-08
   27.18000     -7.8005051E-08
   27.24000     -7.6303486E-08
   27.30000     -7.4355789E-08
   27.36000     -7.2229156E-08
   27.42000     -6.9979770E-08
   27.48000     -6.7641132E-08
   27.54000     -6.5218124E-08
   27.60000     -6.2688450E-08
   27.66000     -6.0011352E-08
   27.72000     -5.7141406E-08
   27.78000     -5.4043799E-08
   27.84000     -5.0706650E-08
   27.90000     -4.7146919E-08
   27.96000     -4.3408154E-08
   28.02000     -3.9550756E-08
   28.08000     -3.5637743E-08
   28.14000     -3.1720454E-08
   28.20000     -2.7828376E-08
   28.26000     -2.3966152E-08
   28.32000     -2.0118307E-08
   28.38000     -1.6259943E-08
   28.44000     -1.2369839E-08
   28.50000     -8.4418570E-09
   28.56000     -4.4912905E-09
   28.62000     -5.5457544E-10
   28.68000      3.3171221E-09
   28.74000      7.0681252E-09
   28.80000      1.0649051E-08
   28.86000      1.4025130E-08
   28.92000      1.7180001E-08
   28.98000      2.0114511E-08
   29.04000      2.2841421E-08
   29.10000      2.5377997E-08
   29.16000      2.7738670E-08
   29.22000      2.9929719E-08
   29.28000      3.1947060E-08
   29.34000      3.3777468E-08
   29.40000      3.5402508E-08
   29.46000      3.6803964E-08
   29.52000      3.7968992E-08
   29.58000      3.8893408E-08
   29.64000      3.9581963E-08
   29.70000      4.0045457E-08
   29.76000      4.0295685E-08
   29.82000      4.0340289E-08
   29.88000      4.0179948E-08
   29.94000      3.9809695E-08
   30.00000      3.9224705E-08
   30.06000      3.8428745E-08
   30.12000      3.7442113E-08
   30.18000      3.6305163E-08
   30.24000      3.5074891E-08
   30.30000      3.3814299E-08
   30.36000      3.2577301E-08
   30.42000      3.1393853E-08
   30.48000      3.0260598E-08
   30.54000      2.9140734E-08
   30.60000      2.7973773E-08
   30.66000      2.6692634E-08
   30.72000      2.5242942E-08
   30.78000      2.3598796E-08
   30.84000      2.1770447E-08
   30.90000      1.9801982E-08
   30.96000      1.7760172E-08
   31.02000      1.5718093E-08
   31.08000      1.3738339E-08
   31.14000      1.1860359E-08
   31.20000      1.0094945E-08
   31.26000      8.4267660E-09
   31.32000      6.8235613E-09
   31.38000      5.2489684E-09
   31.44000      3.6750978E-09
   31.50000      2.0912176E-09
   31.56000      5.0614113E-10
   31.62000     -1.0561414E-09
   31.68000     -2.5659379E-09
   31.74000     -3.9991117E-09
   31.80000     -5.3461515E-09
   31.86000     -6.6157875E-09
   31.92000     -7.8317157E-09
   31.98000     -9.0234709E-09
   32.04000     -1.0214626E-08
   32.10000     -1.1412577E-08
   32.16000     -1.2603688E-08
   32.22000     -1.3755730E-08
   32.28000     -1.4826981E-08
   32.34000     -1.5779014E-08
   32.40000     -1.6589047E-08
   32.46000     -1.7257937E-08
   32.52000     -1.7811505E-08
   32.58000     -1.8295108E-08
   32.64000     -1.8763393E-08
   32.70000     -1.9268453E-08
   32.76000     -1.9849653E-08
   32.82000     -2.0527535E-08
   32.88000     -2.1302867E-08
   32.94000     -2.2160236E-08
   33.00000     -2.3074620E-08
   33.06000     -2.4018664E-08
   33.12000     -2.4968601E-08
   33.18000     -2.5907266E-08
   33.24000     -2.6823809E-08
   33.30000     -2.7710730E-08
   33.36000     -2.8559773E-08
   33.42000     -2.9358642E-08
   33.48000     -3.0090121E-08
   33.54000     -3.0734427E-08
   33.60000     -3.1274205E-08
   33.66000     -3.1700676E-08
   33.72000     -3.2018548E-08
   33.78000     -3.2247840E-08
   33.84000     -3.2421475E-08
   33.90000     -3.2578985E-08
   33.96000     -3.2758081E-08
   34.02000     -3.2986552E-08
   34.08000     -3.3277100E-08
   34.14000     -3.3626680E-08
   34.20000     -3.4020559E-08
   34.26000     -3.4439783E-08
   34.32000     -3.4869455E-08
   34.38000     -3.5305099E-08
   34.44000     -3.5755001E-08
   34.50000     -3.6237793E-08
   34.56000     -3.6776481E-08
   34.62000     -3.7391167E-08
   34.68000     -3.8093461E-08
   34.74000     -3.8884700E-08
   34.80000     -3.9758575E-08
   34.86000     -4.0706905E-08
   34.92000     -4.1725745E-08
   34.98000     -4.2818769E-08
   35.04000     -4.3995808E-08
   35.10000     -4.5266411E-08
   35.16000     -4.6630607E-08
   35.22000     -4.8070575E-08
   35.28000     -4.9547175E-08
   35.34000     -5.1003934E-08
   35.40000     -5.2378351E-08
   35.46000     -5.3617772E-08
   35.52000     -5.4694873E-08
   35.58000     -5.5617569E-08
   35.64000     -5.6429595E-08
   35.70000     -5.7200960E-08
   35.76000     -5.8010659E-08
   35.82000     -5.8926538E-08
   35.88000     -5.9988068E-08
   35.94000     -6.1196829E-08
   36.00000     -6.2517046E-08
   36.06000     -6.3885672E-08
   36.12000     -6.5228832E-08
   36.18000     -6.6480141E-08
   36.24000     -6.7595941E-08
   36.30000     -6.8564077E-08
   36.36000     -6.9404003E-08
   36.42000     -7.0158720E-08
   36.48000     -7.0880589E-08
   36.54000     -7.1614785E-08
   36.60000     -7.2384800E-08
   36.66000     -7.3183855E-08
   36.72000     -7.3975038E-08
   36.78000     -7.4700189E-08
   36.84000     -7.5295468E-08
   36.90000     -7.5708940E-08
   36.96000     -7.5915068E-08
   37.02000     -7.5921534E-08
   37.08000     -7.5766366E-08
   37.14000     -7.5506158E-08
   37.20000     -7.5199303E-08
   37.26000     -7.4889350E-08
   37.32000     -7.4593714E-08
   37.38000     -7.4301049E-08
   37.44000     -7.3977660E-08
   37.50000     -7.3580836E-08
   37.56000     -7.3074645E-08
   37.62000     -7.2443434E-08
   37.68000     -7.1698864E-08
   37.74000     -7.0878329E-08
   37.80000     -7.0035263E-08
   37.86000     -6.9223937E-08
   37.92000     -6.8483075E-08
   37.98000     -6.7823258E-08
   38.04000     -6.7221727E-08
   38.10000     -6.6626441E-08
   38.16000     -6.5968464E-08
   38.22000     -6.5179329E-08
   38.28000     -6.4208507E-08
   38.34000     -6.3036097E-08
   38.40000     -6.1677071E-08
   38.46000     -6.0176099E-08
   38.52000     -5.8594466E-08
   38.58000     -5.6992892E-08
   38.64000     -5.5415239E-08
   38.70000     -5.3877578E-08
   38.76000     -5.2365564E-08
   38.82000     -5.0840580E-08
   38.88000     -4.9252616E-08
   38.94000     -4.7555936E-08
   39.00000     -4.5722860E-08
   39.06000     -4.3751577E-08
   39.12000     -4.1665821E-08
   39.18000     -3.9506808E-08
   39.24000     -3.7320099E-08
   39.30000     -3.5141795E-08
   39.36000     -3.2988506E-08
   39.42000     -3.0854217E-08
   39.48000     -2.8714991E-08
   39.54000     -2.6539750E-08
   39.60000     -2.4303439E-08
   39.66000     -2.1998098E-08
   39.72000     -1.9638087E-08
   39.78000     -1.7257554E-08
   39.84000     -1.4900791E-08
   39.90000     -1.2608375E-08
   39.96000     -1.0403436E-08
   40.02000     -8.2825045E-09
   40.08000     -6.2141621E-09
   40.14000     -4.1465320E-09
   40.20000     -2.0219879E-09
   40.26000      2.0475557E-10
   40.32000      2.5502975E-09
   40.38000      4.9929079E-09
   40.44000      7.4729218E-09
   40.50000      9.9037498E-09
   40.56000      1.2190995E-08
   40.62000      1.4254558E-08
   40.68000      1.6047469E-08
   40.74000      1.7565826E-08
   40.80000      1.8846755E-08
   40.86000      1.9954902E-08
   40.92000      2.0961560E-08
   40.98000      2.1922899E-08
   41.04000      2.2864024E-08
   41.10000      2.3773595E-08
   41.16000      2.4610038E-08
   41.22000      2.5316444E-08
   41.28000      2.5838302E-08
   41.34000      2.6137560E-08
   41.40000      2.6198229E-08
   41.46000      2.6022255E-08
   41.52000      2.5618366E-08
   41.58000      2.4989363E-08
   41.64000      2.4123853E-08
   41.70000      2.2996623E-08
   41.76000      2.1578156E-08
   41.82000      1.9850011E-08
   41.88000      1.7820195E-08
   41.94000      1.5532203E-08
   42.00000      1.3063539E-08
   42.06000      1.0513062E-08
   42.12000      7.9804714E-09
   42.18000      5.5439537E-09
   42.24000      3.2428391E-09
   42.30000      1.0705947E-09
   42.36000     -1.0196042E-09
   42.42000     -3.0982166E-09
   42.48000     -5.2362923E-09
   42.54000     -7.4825355E-09
   42.60000     -9.8469402E-09
   42.66000     -1.2295640E-08
   42.72000     -1.4758597E-08
   42.78000     -1.7148185E-08
   42.84000     -1.9383663E-08
   42.90000     -2.1414637E-08
   42.96000     -2.3236741E-08
   43.02000     -2.4894614E-08
   43.08000     -2.6471049E-08
   43.14000     -2.8065267E-08
   43.20000     -2.9766964E-08
   43.26000     -3.1634361E-08
   43.32000     -3.3683602E-08
   43.38000     -3.5893336E-08
   43.44000     -3.8223437E-08
   43.50000     -4.0642131E-08
   43.56000     -4.3152973E-08
   43.62000     -4.5813184E-08
   43.68000     -4.8737917E-08
   43.74000     -5.2089689E-08
   43.80000     -5.6057154E-08
   43.86000     -6.0830523E-08
   43.92000     -6.6581777E-08
   43.98000     -7.3455780E-08
   44.04000     -8.1575230E-08
   44.10000     -9.1058162E-08
   44.16000     -1.0204421E-07
   44.22000     -1.1472367E-07
   44.28000     -1.2936356E-07
   44.34000     -1.4632565E-07
   44.40000     -1.6607338E-07
   44.46000     -1.8916721E-07
   44.52000     -2.1625124E-07
   44.58000     -2.4803657E-07
   44.64000     -2.8528905E-07
   44.70000     -3.2882866E-07
   44.76000     -3.7954561E-07
   44.82000     -4.3843244E-07
   44.88000     -5.0662777E-07
   44.94000     -5.8546135E-07
   45.00000     -6.7649091E-07
   45.06000     -7.8152357E-07
   45.12000     -9.0261955E-07
   45.18000     -1.0420852E-06
   45.24000     -1.2024634E-06
   45.30000     -1.3865332E-06
   45.36000     -1.5973263E-06
   45.42000     -1.8381628E-06
   45.48000     -2.1127007E-06
   45.54000     -2.4249944E-06
   45.60000     -2.7795452E-06
   45.66000     -3.1813452E-06
   45.72000     -3.6358995E-06
   45.78000     -4.1492385E-06
   45.84000     -4.7279186E-06
   45.90000     -5.3790232E-06
   45.96000     -6.1101673E-06
   46.02000     -6.9295106E-06
   46.08000     -7.8457797E-06
   46.14000     -8.8682991E-06
   46.20000     -1.0007020E-05
   46.26000     -1.1272551E-05
   46.32000     -1.2676172E-05
   46.38000     -1.4229833E-05
   46.44000     -1.5946149E-05
   46.50000     -1.7838360E-05
   46.56000     -1.9920284E-05
   46.62000     -2.2206275E-05
   46.68000     -2.4711149E-05
   46.74000     -2.7450133E-05
   46.80000     -3.0438800E-05
   46.86000     -3.3693013E-05
   46.92000     -3.7228860E-05
   46.98000     -4.1062594E-05
   47.04000     -4.5210538E-05
   47.10000     -4.9688970E-05
   47.16000     -5.4514014E-05
   47.22000     -5.9701491E-05
   47.28000     -6.5266751E-05
   47.34000     -7.1224524E-05
   47.40000     -7.7588702E-05
   47.46000     -8.4372201E-05
   47.52000     -9.1586808E-05
   47.58000     -9.9242985E-05
   47.64000     -1.0734976E-04
   47.70000     -1.1591452E-04
   47.76000     -1.2494296E-04
   47.82000     -1.3443884E-04
   47.88000     -1.4440386E-04
   47.94000     -1.5483753E-04
   48.00000     -1.6573694E-04
   48.06000     -1.7709675E-04
   48.12000     -1.8890899E-04
   48.18000     -2.0116306E-04
   48.24000     -2.1384562E-04
   48.30000     -2.2694058E-04
   48.36000     -2.4042907E-04
   48.42000     -2.5428945E-04
   48.48000     -2.6849736E-04
   48.54000     -2.8302579E-04
   48.60000     -2.9784514E-04
   48.66000     -3.1292348E-04
   48.72000     -3.2822671E-04
   48.78000     -3.4371865E-04
   48.84000     -3.5936141E-04
   48.90000     -3.7511552E-04
   48.96000     -3.9094037E-04
   49.02000     -4.0679445E-04
   49.08000     -4.2263552E-04
   49.14000     -4.3842115E-04
   49.20000     -4.5410896E-04
   49.26000     -4.6965701E-04
   49.32000     -4.8502424E-04
   49.38000     -5.0017063E-04
   49.44000     -5.1505794E-04
   49.50000     -5.2964978E-04
   49.56000     -5.4391212E-04
   49.62000     -5.5781368E-04
   49.68000     -5.7132624E-04
   49.74000     -5.8442488E-04
   49.80000     -5.9708825E-04
   49.86000     -6.0929876E-04
   49.92000     -6.2104274E-04
   49.98000     -6.3231075E-04
   50.04000     -6.4309745E-04
   50.10000     -6.5340183E-04
   50.16000     -6.6322729E-04
   50.22000     -6.7258102E-04
   50.28000     -6.8147475E-04
   50.34000     -6.8992382E-04
   50.40000     -6.9794734E-04
   50.46000     -7.0556789E-04
   50.52000     -7.1281113E-04
   50.58000     -7.1970565E-04
   50.64000     -7.2628242E-04
   50.70000     -7.3257426E-04
   50.76000     -7.3861558E-04
   50.82000     -7.4444170E-04
   50.88000     -7.5008877E-04
   50.94000     -7.5559266E-04
   51.00000     -7.6098903E-04
   51.06000     -7.6631235E-04
   51.12000     -7.7159569E-04
   51.18000     -7.7687012E-04
   51.24000     -7.8216440E-04
   51.30000     -7.8750454E-04
   51.36000     -7.9291314E-04
   51.42000     -7.9840934E-04
   51.48000     -8.0400816E-04
   51.54000     -8.0972060E-04
   51.60000     -8.1555336E-04
   51.66000     -8.2150847E-04
   51.72000     -8.2758378E-04
   51.78000     -8.3377282E-04
   51.84000     -8.4006472E-04
   51.90000     -8.4644434E-04
   51.96000     -8.5289252E-04
   52.02000     -8.5938623E-04
   52.08000     -8.6589879E-04
   52.14000     -8.7240036E-04
   52.20000     -8.7885867E-04
   52.26000     -8.8523881E-04
   52.32000     -8.9150463E-04
   52.38000     -8.9761842E-04
   52.44000     -9.0354192E-04
   52.50000     -9.0923649E-04
   52.56000     -9.1466395E-04
   52.62000     -9.1978686E-04
   52.68000     -9.2456938E-04
   52.74000     -9.2897768E-04
   52.80000     -9.3298015E-04
   52.86000     -9.3654828E-04
   52.92000     -9.3965657E-04
   52.98000     -9.4228319E-04
   53.04000     -9.4441033E-04
   53.10000     -9.4602426E-04
   53.16000     -9.4711583E-04
   53.22000     -9.4768044E-04
   53.28000     -9.4771781E-04
   53.34000     -9.4723242E-04
   53.40000     -9.4623299E-04
   53.46000     -9.4473251E-04
   53.52000     -9.4274810E-04
   53.58000     -9.4030041E-04
   53.64000     -9.3741395E-04
   53.70000     -9.3411637E-04
   53.76000     -9.3043799E-04
   53.82000     -9.2641159E-04
   53.88000     -9.2207163E-04
   53.94000     -9.1745384E-04
   54.00000     -9.1259461E-04
   54.06000     -9.0753072E-04
   54.12000     -9.0229872E-04
   54.18000     -8.9693442E-04
   54.24000     -8.9147245E-04
   54.30000     -8.8594569E-04
   54.36000     -8.8038499E-04
   54.42000     -8.7481865E-04
   54.48000     -8.6927204E-04
   54.54000     -8.6376775E-04
   54.60000     -8.5832487E-04
   54.66000     -8.5295906E-04
   54.72000     -8.4768230E-04
   54.78000     -8.4250263E-04
   54.84000     -8.3742442E-04
   54.90000     -8.3244796E-04
   54.96000     -8.2757021E-04
   55.02000     -8.2278455E-04
   55.08000     -8.1808167E-04
   55.14000     -8.1344892E-04
   55.20000     -8.0887153E-04
   55.26000     -8.0433197E-04
   55.32000     -7.9981080E-04
   55.38000     -7.9528708E-04
   55.44000     -7.9073868E-04
   55.50000     -7.8614289E-04
   55.56000     -7.8147702E-04