  -2.400000      0.0000000E+00
  -2.340000      0.0000000E+00
  -2.280000      0.0000000E+00
  -2.220000      0.0000000E+00
  -2.160000      0.0000000E+00
  -2.100000      0.0000000E+00
  -2.040000      0.0000000E+00
  -1.980000      0.0000000E+00
  -1.920000     -5.8474647E-28
  -1.860000      1.0823955E-26
  -1.800000      1.7702143E-25
  -1.740000      1.1442509E-24
  -1.680000      4.4617989E-24
  -1.620000      1.1393058E-23
  -1.560000      1.6975219E-23
  -1.500000     -1.5504545E-24
  -1.440000     -9.1552060E-23
  -1.380000     -2.9932500E-22
  -1.320000     -5.8235282E-22
  -1.260000     -6.7775955E-22
  -1.200000     -4.9748109E-23
  -1.140000      1.8745213E-21
  -1.080000      5.0599304E-21
  -1.020000      8.0673552E-21
 -0.9600000      7.8816653E-21
 -0.9000000      1.2659140E-21
 -0.8400000     -1.2333265E-20
 -0.7800000     -2.8151186E-20
 -0.7200000     -3.7038967E-20
 -0.6600000     -3.2085496E-20
 -0.6000000     -1.7959484E-20
 -0.5400000     -1.3412586E-20
 -0.4800000     -3.6040906E-20
 -0.4200000     -6.9428073E-20
 -0.3600000     -3.5489276E-20
 -0.3000000      1.8596952E-19
 -0.2400000      6.5855323E-19
 -0.1800000      1.2361322E-18
 -0.1200000      1.4653857E-18
 -5.9999999E-02  7.0436538E-19
  0.0000000E+00 -1.4507070E-18
  5.9999999E-02 -4.5582739E-18
  0.1200000     -6.9559735E-18
  0.1800000     -6.1593717E-18
  0.2400000     -3.1435717E-19
  0.3000000      9.7314929E-18
  0.3600000      1.9036789E-17
  0.4200000      1.9527390E-17
  0.4800000      4.2284352E-18
  0.5400000     -2.6320470E-17
  0.6000000     -5.8991127E-17
  0.6600000     -6.9086747E-17
  0.7200000     -3.0600263E-17
  0.7800000      6.5968163E-17
  0.8400000      1.9616766E-16
  0.9000000      2.9647003E-16
  0.9600000      2.8136717E-16
   1.020000      8.3170522E-17
   1.080000     -2.9881549E-16
   1.140000     -7.6427666E-16
   1.200000     -1.1183482E-15
   1.260000     -1.1303300E-15
   1.320000     -6.3210914E-16
   1.380000      3.8055936E-16
   1.440000      1.6916954E-15
   1.500000      2.8904322E-15
   1.560000      3.4838412E-15
   1.620000      3.0650175E-15
   1.680000      1.4770925E-15
   1.740000     -1.0888028E-15
   1.800000     -4.1002345E-15
   1.860000     -6.7953095E-15
   1.920000     -8.3650323E-15
   1.980000     -8.1536510E-15
   2.040000     -5.8274016E-15
   2.100000     -1.4786150E-15
   2.160000      4.3487620E-15
   2.220000      1.0712053E-14
   2.280000      1.6391653E-14
   2.340000      2.0064317E-14
   2.400000      2.0503237E-14
   2.460000      1.6779374E-14
   2.520000      8.4499812E-15
   2.580000     -4.2592620E-15
   2.640000     -2.0261709E-14
   2.700000     -3.7416135E-14
   2.760000     -5.2414941E-14
   2.820000     -6.0930082E-14
   2.880000     -5.8235745E-14
   2.940000     -4.0438468E-14
   3.000000     -6.1906627E-15
   3.060000      4.1594183E-14
   3.120000      9.4798884E-14
   3.180000      1.4072325E-13
   3.240000      1.6466388E-13
   3.300000      1.5409557E-13
   3.360000      1.0326131E-13
   3.420000      1.6470811E-14
   3.480000     -9.1424040E-14
   3.540000     -1.9799073E-13
   3.600000     -2.7887206E-13
   3.660000     -3.1420043E-13
   3.720000     -2.9342872E-13
   3.780000     -2.1691965E-13
   3.840000     -9.4171659E-14
   3.900000      5.9797863E-14
   3.960000      2.2754202E-13
   4.020000      3.8990892E-13
   4.080000      5.2435031E-13
   4.140000      6.0291881E-13
   4.200000      5.9331245E-13
   4.260000      4.6566814E-13
   4.320000      2.0512014E-13
   4.380000     -1.7357055E-13
   4.440000     -6.1594642E-13
   4.500000     -1.0293399E-12
   4.560000     -1.2998580E-12
   4.620000     -1.3230040E-12
   4.680000     -1.0396552E-12
   4.740000     -4.6488247E-13
   4.800000      3.0266656E-13
   4.860000      1.0977352E-12
   4.920000      1.7296650E-12
   4.980000      2.0362345E-12
   5.040000      1.9324091E-12
   5.100000      1.4364137E-12
   5.160000      6.6263260E-13
   5.220000     -2.1722741E-13
   5.280000     -1.0308157E-12
   5.340000     -1.6578508E-12
   5.400000     -2.0574837E-12
   5.460000     -2.2584528E-12
   5.520000     -2.3157641E-12
   5.580000     -2.2533182E-12
   5.640000     -2.0207568E-12
   5.700000     -1.4900756E-12
   5.760000     -5.0275631E-13
   5.820000      1.0437608E-12
   5.880000      3.1018393E-12
   5.940000      5.4127553E-12
   6.000000      7.5131533E-12
   6.060000      8.8198997E-12
   6.120000      8.7736120E-12
   6.180000      6.9952585E-12
   6.240000      3.4012450E-12
   6.300000     -1.7633296E-12
   6.360000     -7.9803377E-12
   6.420000     -1.4571207E-11
   6.480000     -2.0807675E-11
   6.540000     -2.5962218E-11
   6.600000     -2.9270111E-11
   6.660000     -2.9825011E-11
   6.720000     -2.6476524E-11
   6.780000     -1.7817517E-11
   6.840000     -2.3252038E-12
   6.900000      2.1341423E-11
   6.960000      5.3962911E-11
   7.020000      9.5432912E-11
   7.080000      1.4462692E-10
   7.140000      1.9955712E-10
   7.200000      2.5780525E-10
   7.260000      3.1711481E-10
   7.320000      3.7594633E-10
   7.380000      4.3379070E-10
   7.440000      4.9110305E-10
   7.500000      5.4884464E-10
   7.560000      6.0775818E-10
   7.620000      6.6760086E-10
   7.680000      7.2658518E-10
   7.740000      7.8121604E-10
   7.800000      8.2659268E-10
   7.860000      8.5710655E-10
   7.920000      8.6736190E-10
   7.980000      8.5311380E-10
   8.040000      8.1205281E-10
   8.100000      7.4435436E-10
   8.160000      6.5299127E-10
   8.220000      5.4385541E-10
   8.280000      4.2571577E-10
   8.340000      3.0997779E-10
   8.400000      2.1013451E-10
   8.460000      1.4077135E-10
   8.520000      1.1602262E-10
   8.580000      1.4749271E-10
   8.640000      2.4181274E-10
   8.700000      3.9815704E-10
   8.760000      6.0614730E-10
   8.820000      8.4459278E-10
   8.880000      1.0814466E-09
   8.940000      1.2752126E-09
   9.000000      1.3778440E-09
   9.060000      1.3389539E-09
   9.120000      1.1109550E-09
   9.180000      6.5457312E-10
   9.240000     -5.5906845E-11
   9.300000     -1.0283071E-09
   9.360000     -2.2496709E-09
   9.420000     -3.6851679E-09
   9.480000     -5.2789071E-09
   9.540000     -6.9565589E-09
   9.600000     -8.6295247E-09
   9.660000     -1.0200330E-08
   9.720000     -1.1568902E-08
   9.780000     -1.2639418E-08
   9.840000     -1.3327372E-08
   9.900000     -1.3566497E-08
   9.960000     -1.3315010E-08
   10.02000     -1.2560565E-08
   10.08000     -1.1323237E-08
   10.14000     -9.6558450E-09
   10.20000     -7.6412086E-09
   10.26000     -5.3861671E-09
   10.32000     -3.0126901E-09
   10.38000     -6.4685474E-10
   10.44000      1.5931287E-09
   10.50000      3.6083829E-09
   10.56000      5.3288005E-09
   10.62000      6.7191168E-09
   10.68000      7.7807183E-09
   10.74000      8.5488994E-09
   10.80000      9.0860013E-09
   10.86000      9.4715151E-09
   10.92000      9.7907265E-09
   10.98000      1.0123628E-08
   11.04000      1.0535685E-08
   11.10000      1.1071569E-08
   11.16000      1.1752334E-08
   11.22000      1.2575845E-08
   11.28000      1.3519801E-08
   11.34000      1.4546401E-08
   11.40000      1.5607755E-08
   11.46000      1.6651446E-08
   11.52000      1.7625863E-08
   11.58000      1.8485277E-08
   11.64000      1.9194614E-08
   11.70000      1.9733770E-08
   11.76000      2.0100952E-08
   11.82000      2.0314372E-08
   11.88000      2.0411514E-08
   11.94000      2.0445425E-08
   12.00000      2.0478117E-08
   12.06000      2.0571767E-08
   12.12000      2.0779122E-08
   12.18000      2.1134912E-08
   12.24000      2.1650028E-08
   12.30000      2.2309864E-08
   12.36000      2.3077417E-08
   12.42000      2.3900713E-08
   12.48000      2.4723168E-08
   12.54000      2.5494701E-08
   12.60000      2.6181048E-08
   12.66000      2.6769007E-08
   12.72000      2.7266276E-08
   12.78000      2.7695906E-08
   12.84000      2.8086911E-08
   12.90000      2.8463841E-08
   12.96000      2.8838400E-08
   13.02000      2.9205717E-08
   13.08000      2.9546397E-08
   13.14000      2.9833654E-08
   13.20000      3.0043157E-08
   13.26000      3.0162408E-08
   13.32000      3.0196468E-08
   13.38000      3.0168220E-08
   13.44000      3.0112826E-08
   13.50000      3.0068001E-08
   13.56000      3.0063021E-08
   13.62000      3.0109714E-08
   13.68000      3.0198258E-08
   13.74000      3.0299127E-08
   13.80000      3.0370636E-08
   13.86000      3.0369794E-08
   13.92000      3.0263028E-08
   13.98000      3.0033345E-08
   14.04000      2.9681514E-08
   14.10000      2.9220905E-08
   14.16000      2.8667582E-08
   14.22000      2.8029008E-08
   14.28000      2.7295158E-08
   14.34000      2.6435192E-08
   14.40000      2.5401206E-08
   14.46000      2.4138410E-08
   14.52000      2.2599234E-08
   14.58000      2.0757680E-08
   14.64000      1.8619993E-08
   14.70000      1.6228631E-08
   14.76000      1.3658111E-08
   14.82000      1.1003396E-08
   14.88000      8.3634264E-09
   14.94000      5.8238103E-09
   15.00000      3.4429568E-09
   15.06000      1.2451135E-09
   15.12000     -7.7817303E-10
   15.18000     -2.6590048E-09
   15.24000     -4.4394741E-09
   15.30000     -6.1575731E-09
   15.36000     -7.8367695E-09
   15.42000     -9.4820534E-09
   15.48000     -1.1083172E-08
   15.54000     -1.2623628E-08
   15.60000     -1.4092322E-08
   15.66000     -1.5494004E-08
   15.72000     -1.6854990E-08
   15.78000     -1.8221845E-08
   15.84000     -1.9652678E-08
   15.90000     -2.1202780E-08
   15.96000     -2.2908225E-08
   16.02000     -2.4771969E-08
   16.08000     -2.6756823E-08
   16.14000     -2.8788012E-08
   16.20000     -3.0765435E-08
   16.26000     -3.2582889E-08
   16.32000     -3.4149302E-08
   16.38000     -3.5406188E-08
   16.44000     -3.6336697E-08
   16.50000     -3.6963929E-08
   16.56000     -3.7339461E-08
   16.62000     -3.7525570E-08
   16.68000     -3.7576346E-08
   16.74000     -3.7522639E-08
   16.80000     -3.7364551E-08
   16.86000     -3.7072795E-08
   16.92000     -3.6598045E-08
   16.98000     -3.5885414E-08
   17.04000     -3.4890135E-08
   17.10000     -3.3590531E-08
   17.16000     -3.1994944E-08
   17.22000     -3.0141145E-08
   17.28000     -2.8088595E-08
   17.34000     -2.5905985E-08
   17.40000     -2.3657929E-08
   17.46000     -2.1394856E-08
   17.52000     -1.9149123E-08
   17.58000     -1.6938129E-08
   17.64000     -1.4772722E-08
   17.70000     -1.2667116E-08
   17.76000     -1.0645978E-08
   17.82000     -8.7453209E-09
   17.88000     -7.0062134E-09
   17.94000     -5.4631299E-09
   18.00000     -4.1309480E-09
   18.06000     -2.9954699E-09
   18.12000     -2.0114430E-09
   18.18000     -1.1098181E-09
   18.24000     -2.1306001E-10
   18.30000      7.4531087E-10
   18.36000      1.8023406E-09
   18.42000      2.9538196E-09
   18.48000      4.1528199E-09
   18.54000      5.3195763E-09
   18.60000      6.3604757E-09
   18.66000      7.1911672E-09
   18.72000      7.7574756E-09
   18.78000      8.0482927E-09
   18.84000      8.0969267E-09
   18.90000      7.9707592E-09
   18.96000      7.7524813E-09
   19.02000      7.5185138E-09
   19.08000      7.3208035E-09
   19.14000      7.1768631E-09
   19.20000      7.0702928E-09
   19.26000      6.9609016E-09
   19.32000      6.8009189E-09
   19.38000      6.5523453E-09
   19.44000      6.2005121E-09
   19.50000      5.7602709E-09
   19.56000      5.2735598E-09
   19.62000      4.7996220E-09
   19.68000      4.4012776E-09
   19.74000      4.1316923E-09
   19.80000      4.0256913E-09
   19.86000      4.0979389E-09
   19.92000      4.3478310E-09
   19.98000      4.7685860E-09
   20.04000      5.3566671E-09
   20.10000      6.1178840E-09
   20.16000      7.0680564E-09
   20.22000      8.2283877E-09
   20.28000      9.6176285E-09
   20.34000      1.1243994E-08
   20.40000      1.3099363E-08
   20.46000      1.5156926E-08
   20.52000      1.7371903E-08
   20.58000      1.9684020E-08
   20.64000      2.2020307E-08
   20.70000      2.4297615E-08
   20.76000      2.6425175E-08
   20.82000      2.8308332E-08
   20.88000      2.9854434E-08
   20.94000      3.0981170E-08
   21.00000      3.1626353E-08
   21.06000      3.1757065E-08
   21.12000      3.1375560E-08
   21.18000      3.0519733E-08
   21.24000      2.9257295E-08
   21.30000      2.7674572E-08
   21.36000      2.5862628E-08
   21.42000      2.3904361E-08
   21.48000      2.1866096E-08
   21.54000      1.9795786E-08
   21.60000      1.7727670E-08
   21.66000      1.5690997E-08
   21.72000      1.3718831E-08
   21.78000      1.1852774E-08
   21.84000      1.0140877E-08
   21.90000      8.6285183E-09
   21.96000      7.3448203E-09
   22.02000      6.2893029E-09
   22.08000      5.4239209E-09
   22.14000      4.6742827E-09
   22.20000      3.9408992E-09
   22.26000      3.1178413E-09
   22.32000      2.1133628E-09
   22.38000      8.6601720E-10
   22.44000     -6.4895045E-10
   22.50000     -2.4249354E-09
   22.56000     -4.4389354E-09
   22.62000     -6.6705783E-09
   22.68000     -9.1180956E-09
   22.74000     -1.1805120E-08
   22.80000     -1.4775401E-08
   22.86000     -1.8076792E-08
   22.92000     -2.1739664E-08
   22.98000     -2.5756913E-08
   23.04000     -3.0072272E-08
   23.10000     -3.4581202E-08
   23.16000     -3.9144680E-08
   23.22000     -4.3612630E-08
   23.28000     -4.7850914E-08
   23.34000     -5.1764943E-08
   23.40000     -5.5313940E-08
   23.46000     -5.8512285E-08
   23.52000     -6.1417573E-08
   23.58000     -6.4108704E-08
   23.64000     -6.6659481E-08
   23.70000     -6.9114954E-08
   23.76000     -7.1476919E-08
   23.82000     -7.3702644E-08
   23.88000     -7.5717438E-08
   23.94000     -7.7437548E-08
   24.00000     -7.8796845E-08
   24.06000     -7.9769507E-08
   24.12000     -8.0381866E-08
   24.18000     -8.0709690E-08
   24.24000     -8.0861398E-08
   24.30000     -8.0951835E-08
   24.36000     -8.1074056E-08
   24.42000     -8.1276987E-08
   24.48000     -8.1555584E-08
   24.54000     -8.1856157E-08
   24.60000     -8.2095404E-08
   24.66000     -8.2187569E-08
   24.72000     -8.2071509E-08
   24.78000     -8.1729439E-08
   24.84000     -8.1191246E-08
   24.90000     -8.0523044E-08
   24.96000     -7.9803648E-08
   25.02000     -7.9097020E-08
   25.08000     -7.8430105E-08
   25.14000     -7.7784271E-08
   25.20000     -7.7103330E-08
   25.26000     -7.6315558E-08
   25.32000     -7.5361875E-08
   25.38000     -7.4219969E-08
   25.44000     -7.2915718E-08
   25.50000     -7.1517618E-08
   25.56000     -7.0116236E-08
   25.62000     -6.8795636E-08
   25.68000     -6.7606742E-08
   25.74000     -6.6551678E-08
   25.80000     -6.5584572E-08
   25.86000     -6.4628757E-08
   25.92000     -6.3605057E-08
   25.98000     -6.2462369E-08
   26.04000     -6.1200495E-08
   26.10000     -5.9877877E-08
   26.16000     -5.8600985E-08
   26.22000     -5.7498116E-08
   26.28000     -5.6685270E-08
   26.34000     -5.6234676E-08
   26.40000     -5.6155983E-08
   26.46000     -5.6396221E-08
   26.52000     -5.6858756E-08
   26.58000     -5.7435141E-08
   26.64000     -5.8039710E-08
   26.70000     -5.8635713E-08
   26.76000     -5.9244844E-08
   26.82000     -5.9937314E-08
   26.88000     -6.0805974E-08
   26.94000     -6.1932859E-08
   27.00000     -6.3358662E-08
   27.06000     -6.5064548E-08
   27.12000     -6.6971637E-08
   27.18000     -6.8958208E-08
   27.24000     -7.0889278E-08
   27.30000     -7.2649748E-08
   27.36000     -7.4171417E-08
   27.42000     -7.5445854E-08
   27.48000     -7.6519619E-08
   27.54000     -7.7473452E-08
   27.60000     -7.8391821E-08
   27.66000     -7.9331997E-08
   27.72000     -8.0301845E-08
   27.78000     -8.1252701E-08
   27.84000     -8.2089045E-08
   27.90000     -8.2691606E-08
   27.96000     -8.2946563E-08
   28.02000     -8.2772075E-08
   28.08000     -8.2134456E-08
   28.14000     -8.1049770E-08
   28.20000     -7.9571137E-08
   28.26000     -7.7766543E-08
   28.32000     -7.5694366E-08
   28.38000     -7.3384719E-08
   28.44000     -7.0832343E-08
   28.50000     -6.8003153E-08
   28.56000     -6.4852159E-08
   28.62000     -6.1346512E-08
   28.68000     -5.7485920E-08
   28.74000     -5.3313119E-08
   28.80000     -4.8910600E-08
   28.86000     -4.4384130E-08
   28.92000     -3.9838106E-08
   28.98000     -3.5350865E-08
   29.04000     -3.0957967E-08
   29.10000     -2.6649179E-08
   29.16000     -2.2380183E-08
   29.22000     -1.8095156E-08
   29.28000     -1.3752618E-08
   29.34000     -9.3458912E-09
   29.40000     -4.9112239E-09
   29.46000     -5.2087973E-10
   29.52000      3.7363979E-09
   29.58000      7.7808160E-09
   29.64000      1.1564082E-08
   29.70000      1.5081243E-08
   29.76000      1.8367649E-08
   29.82000      2.1481961E-08
   29.88000      2.4480990E-08
   29.94000      2.7394934E-08
   30.00000      3.0211613E-08
   30.06000      3.2875217E-08
   30.12000      3.5300207E-08
   30.18000      3.7395967E-08
   30.24000      3.9094175E-08
   30.30000      4.0370168E-08
   30.36000      4.1251475E-08
   30.42000      4.1811195E-08
   30.48000      4.2148493E-08
   30.54000      4.2362540E-08
   30.60000      4.2527834E-08
   30.66000      4.2677822E-08
   30.72000      4.2800874E-08
   30.78000      4.2848537E-08
   30.84000      4.2752536E-08
   30.90000      4.2444686E-08
   30.96000      4.1873893E-08
   31.02000      4.1015941E-08
   31.08000      3.9874710E-08
   31.14000      3.8476177E-08
   31.20000      3.6858754E-08
   31.26000      3.5063970E-08
   31.32000      3.3130565E-08
   31.38000      3.1093087E-08
   31.44000      2.8983772E-08
   31.50000      2.6835075E-08
   31.56000      2.4680011E-08
   31.62000      2.2548770E-08
   31.68000      2.0462148E-08
   31.74000      1.8424348E-08
   31.80000      1.6418769E-08
   31.86000      1.4409680E-08
   31.92000      1.2350724E-08
   31.98000      1.0198369E-08
   32.04000      7.9262081E-09
   32.10000      5.5351146E-09
   32.16000      3.0553600E-09
   32.22000      5.3937621E-10
   32.28000     -1.9528474E-09
   32.34000     -4.3710529E-09
   32.40000     -6.6888939E-09
   32.46000     -8.9101286E-09
   32.52000     -1.1064592E-08
   32.58000     -1.3195232E-08
   32.64000     -1.5340650E-08
   32.70000     -1.7519271E-08
   32.76000     -1.9720922E-08
   32.82000     -2.1909125E-08
   32.88000     -2.4033792E-08
   32.94000     -2.6050184E-08
   33.00000     -2.7937554E-08
   33.06000     -2.9710497E-08
   33.12000     -3.1418274E-08
   33.18000     -3.3131247E-08
   33.24000     -3.4918056E-08
   33.30000     -3.6820662E-08
   33.36000     -3.8835399E-08
   33.42000     -4.0906702E-08
   33.48000     -4.2936186E-08
   33.54000     -4.4804892E-08
   33.60000     -4.6402388E-08
   33.66000     -4.7654236E-08
   33.72000     -4.8540002E-08
   33.78000     -4.9096904E-08
   33.84000     -4.9408641E-08
   33.90000     -4.9583097E-08
   33.96000     -4.9725443E-08
   34.02000     -4.9913950E-08
   34.08000     -5.0184386E-08
   34.14000     -5.0526054E-08
   34.20000     -5.0889298E-08
   34.26000     -5.1201312E-08
   34.32000     -5.1385634E-08
   34.38000     -5.1380180E-08
   34.44000     -5.1149751E-08
   34.50000     -5.0690659E-08
   34.56000     -5.0027314E-08
   34.62000     -4.9202669E-08
   34.68000     -4.8265782E-08
   34.74000     -4.7260379E-08
   34.80000     -4.6217728E-08
   34.86000     -4.5155506E-08
   34.92000     -4.4082281E-08
   34.98000     -4.3005180E-08
   35.04000     -4.1937223E-08
   35.10000     -4.0900836E-08
   35.16000     -3.9925812E-08
   35.22000     -3.9042238E-08
   35.28000     -3.8271221E-08
   35.34000     -3.7617312E-08
   35.40000     -3.7066108E-08
   35.46000     -3.6588499E-08
   35.52000     -3.6150425E-08
   35.58000     -3.5724753E-08
   35.64000     -3.5301021E-08
   35.70000     -3.4889524E-08
   35.76000     -3.4518347E-08
   35.82000     -3.4224342E-08
   35.88000     -3.4041218E-08
   35.94000     -3.3988726E-08
   36.00000     -3.4066382E-08
   36.06000     -3.4253691E-08
   36.12000     -3.4516614E-08
   36.18000     -3.4818093E-08
   36.24000     -3.5129187E-08
   36.30000     -3.5437196E-08
   36.36000     -3.5748034E-08
   36.42000     -3.6082106E-08
   36.48000     -3.6464982E-08
   36.54000     -3.6915946E-08
   36.60000     -3.7438344E-08
   36.66000     -3.8014825E-08
   36.72000     -3.8609183E-08
   36.78000     -3.9174019E-08
   36.84000     -3.9661792E-08
   36.90000     -4.0035882E-08
   36.96000     -4.0278564E-08
   37.02000     -4.0393981E-08
   37.08000     -4.0405773E-08
   37.14000     -4.0350233E-08
   37.20000     -4.0267054E-08
   37.26000     -4.0189835E-08
   37.32000     -4.0138570E-08
   37.38000     -4.0115889E-08
   37.44000     -4.0107910E-08
   37.50000     -4.0089482E-08
   37.56000     -4.0032376E-08
   37.62000     -3.9914095E-08
   37.68000     -3.9724618E-08
   37.74000     -3.9469146E-08
   37.80000     -3.9166036E-08
   37.86000     -3.8840806E-08
   37.92000     -3.8518149E-08
   37.98000     -3.8214466E-08
   38.04000     -3.7933141E-08
   38.10000     -3.7663717E-08
   38.16000     -3.7385227E-08
   38.22000     -3.7072741E-08
   38.28000     -3.6705345E-08
   38.34000     -3.6273395E-08
   38.40000     -3.5782776E-08
   38.46000     -3.5254502E-08
   38.52000     -3.4719303E-08
   38.58000     -3.4208405E-08
   38.64000     -3.3743277E-08
   38.70000     -3.3327765E-08
   38.76000     -3.2945682E-08
   38.82000     -3.2564948E-08
   38.88000     -3.2147423E-08
   38.94000     -3.1661262E-08
   39.00000     -3.1091925E-08
   39.06000     -3.0448270E-08
   39.12000     -2.9761781E-08
   39.18000     -2.9079164E-08
   39.24000     -2.8450399E-08
   39.30000     -2.7915583E-08
   39.36000     -2.7494220E-08
   39.42000     -2.7180072E-08
   39.48000     -2.6943169E-08
   39.54000     -2.6738837E-08
   39.60000     -2.6521304E-08
   39.66000     -2.6258077E-08
   39.72000     -2.5940480E-08
   39.78000     -2.5586774E-08
   39.84000     -2.5236378E-08
   39.90000     -2.4936615E-08
   39.96000     -2.4725967E-08
   40.02000     -2.4619125E-08
   40.08000     -2.4598650E-08
   40.14000     -2.4616178E-08
   40.20000     -2.4603132E-08
   40.26000     -2.4488278E-08
   40.32000     -2.4217362E-08
   40.38000     -2.3769388E-08
   40.44000     -2.3164803E-08
   40.50000     -2.2462721E-08
   40.56000     -2.1747233E-08
   40.62000     -2.1105997E-08
   40.68000     -2.0606887E-08
   40.74000     -2.0279671E-08
   40.80000     -2.0108612E-08
   40.86000     -2.0038813E-08
   40.92000     -1.9994687E-08
   40.98000     -1.9904725E-08
   41.04000     -1.9724538E-08
   41.10000     -1.9450535E-08
   41.16000     -1.9119977E-08
   41.22000     -1.8797857E-08
   41.28000     -1.8555596E-08
   41.34000     -1.8449018E-08
   41.40000     -1.8502945E-08
   41.46000     -1.8706935E-08
   41.52000     -1.9022709E-08
   41.58000     -1.9399923E-08
   41.64000     -1.9794561E-08
   41.70000     -2.0183874E-08
   41.76000     -2.0573463E-08
   41.82000     -2.0994879E-08
   41.88000     -2.1495110E-08
   41.94000     -2.2121732E-08
   42.00000     -2.2908379E-08
   42.06000     -2.3864791E-08
   42.12000     -2.4973946E-08
   42.18000     -2.6196506E-08
   42.24000     -2.7480626E-08
   42.30000     -2.8773860E-08
   42.36000     -3.0033615E-08
   42.42000     -3.1233530E-08
   42.48000     -3.2364770E-08
   42.54000     -3.3432926E-08
   42.60000     -3.4452366E-08
   42.66000     -3.5440294E-08
   42.72000     -3.6412260E-08
   42.78000     -3.7379692E-08
   42.84000     -3.8349192E-08
   42.90000     -3.9322508E-08
   42.96000     -4.0296396E-08
   43.02000     -4.1262048E-08
   43.08000     -4.2204757E-08
   43.14000     -4.3104812E-08
   43.20000     -4.3940585E-08
   43.26000     -4.4693795E-08
   43.32000     -4.5356064E-08
   43.38000     -4.5934652E-08
   43.44000     -4.6455533E-08
   43.50000     -4.6962320E-08
   43.56000     -4.7511115E-08
   43.62000     -4.8162718E-08
   43.68000     -4.8974538E-08
   43.74000     -4.9994668E-08
   43.80000     -5.1259690E-08
   43.86000     -5.2796484E-08
   43.92000     -5.4627225E-08
   43.98000     -5.6775924E-08
   44.04000     -5.9274971E-08
   44.10000     -6.2170741E-08
   44.16000     -6.5527942E-08
   44.22000     -6.9432957E-08
   44.28000     -7.3996773E-08
   44.34000     -7.9357847E-08
   44.40000     -8.5685073E-08
   44.46000     -9.3181036E-08
   44.52000     -1.0208557E-07
   44.58000     -1.1267996E-07
   44.64000     -1.2529181E-07
   44.70000     -1.4030054E-07
   44.76000     -1.5814327E-07
   44.82000     -1.7932041E-07
   44.88000     -2.0440093E-07
   44.94000     -2.3402710E-07
   45.00000     -2.6891956E-07
   45.06000     -3.0988463E-07
   45.12000     -3.5782489E-07
   45.18000     -4.1375506E-07
   45.24000     -4.7882344E-07
   45.30000     -5.5433793E-07
   45.36000     -6.4179358E-07
   45.42000     -7.4290068E-07
   45.48000     -8.5960755E-07
   45.54000     -9.9411807E-07
   45.60000     -1.1489037E-06
   45.66000     -1.3267116E-06
   45.72000     -1.5305736E-06
   45.78000     -1.7638209E-06
   45.84000     -2.0301059E-06
   45.90000     -2.3334346E-06
   45.96000     -2.6782075E-06
   46.02000     -3.0692634E-06
   46.08000     -3.5119217E-06
   46.14000     -4.0120176E-06
   46.20000     -4.5759257E-06
   46.26000     -5.2105756E-06
   46.32000     -5.9234590E-06
   46.38000     -6.7226374E-06
   46.44000     -7.6167498E-06
   46.50000     -8.6150321E-06
   46.56000     -9.7273378E-06
   46.62000     -1.0964168E-05
   46.68000     -1.2336692E-05
   46.74000     -1.3856757E-05
   46.80000     -1.5536874E-05
   46.86000     -1.7390208E-05
   46.92000     -1.9430514E-05
   46.98000     -2.1672106E-05
   47.04000     -2.4129778E-05
   47.10000     -2.6818758E-05
   47.16000     -2.9754636E-05
   47.22000     -3.2953307E-05
   47.28000     -3.6430905E-05
   47.34000     -4.0203740E-05
   47.40000     -4.4288190E-05
   47.46000     -4.8700625E-05
   47.52000     -5.3457283E-05
   47.58000     -5.8574129E-05
   47.64000     -6.4066713E-05
   47.70000     -6.9950001E-05
   47.76000     -7.6238175E-05
   47.82000     -8.2944491E-05
   47.88000     -9.0081077E-05
   47.94000     -9.7658776E-05
   48.00000     -1.0568697E-04
   48.06000     -1.1417348E-04
   48.12000     -1.2312438E-04
   48.18000     -1.3254385E-04
   48.24000     -1.4243404E-04
   48.30000     -1.5279496E-04
   48.36000     -1.6362425E-04
   48.42000     -1.7491705E-04
   48.48000     -1.8666587E-04
   48.54000     -1.9886057E-04
   48.60000     -2.1148822E-04
   48.66000     -2.2453310E-04
   48.72000     -2.3797659E-04
   48.78000     -2.5179738E-04
   48.84000     -2.6597138E-04
   48.90000     -2.8047181E-04
   48.96000     -2.9526933E-04
   49.02000     -3.1033208E-04
   49.08000     -3.2562591E-04
   49.14000     -3.4111459E-04
   49.20000     -3.5675999E-04
   49.26000     -3.7252234E-04
   49.32000     -3.8836041E-04
   49.38000     -4.0423195E-04
   49.44000     -4.2009403E-04
   49.50000     -4.3590326E-04
   49.56000     -4.5161619E-04
   49.62000     -4.6718970E-04
   49.68000     -4.8258141E-04
   49.74000     -4.9775006E-04
   49.80000     -5.1265577E-04
   49.86000     -5.2726065E-04
   49.92000     -5.4152898E-04
   49.98000     -5.5542763E-04
   50.04000     -5.6892645E-04
   50.10000     -5.8199844E-04
   50.16000     -5.9462019E-04
   50.22000     -6.0677191E-04
   50.28000     -6.1843789E-04
   50.34000     -6.2960642E-04
   50.40000     -6.4027018E-04
   50.46000     -6.5042585E-04
   50.52000     -6.6007476E-04
   50.58000     -6.6922238E-04
   50.64000     -6.7787850E-04
   50.70000     -6.8605697E-04
   50.76000     -6.9377542E-04
   50.82000     -7.0105499E-04
   50.88000     -7.0792029E-04
   50.94000     -7.1439892E-04
   51.00000     -7.2052091E-04
   51.06000     -7.2631892E-04
   51.12000     -7.3182746E-04
   51.18000     -7.3708239E-04
   51.24000     -7.4212049E-04
   51.30000     -7.4697903E-04
   51.36000     -7.5169501E-04
   51.42000     -7.5630506E-04
   51.48000     -7.6084444E-04
   51.54000     -7.6534710E-04
   51.60000     -7.6984469E-04
   51.66000     -7.7436626E-04
   51.72000     -7.7893824E-04
   51.78000     -7.8358361E-04
   51.84000     -7.8832183E-04
   51.90000     -7.9316879E-04
   51.96000     -7.9813605E-04
   52.02000     -8.0323097E-04
   52.08000     -8.0845668E-04
   52.14000     -8.1381178E-04
   52.20000     -8.1929064E-04
   52.26000     -8.2488352E-04
   52.32000     -8.3057664E-04
   52.38000     -8.3635235E-04
   52.44000     -8.4218959E-04
   52.50000     -8.4806350E-04
   52.56000     -8.5394667E-04
   52.62000     -8.5980870E-04
   52.68000     -8.6561736E-04
   52.74000     -8.7133877E-04
   52.80000     -8.7693799E-04
   52.86000     -8.8237930E-04
   52.92000     -8.8762684E-04
   52.98000     -8.9264521E-04
   53.04000     -8.9739985E-04
   53.10000     -9.0185780E-04
   53.16000     -9.0598804E-04
   53.22000     -9.0976187E-04
   53.28000     -9.1315340E-04
   53.34000     -9.1613986E-04
   53.40000     -9.1870176E-04
   53.46000     -9.2082331E-04
   53.52000     -9.2249271E-04
   53.58000     -9.2370238E-04
   53.64000     -9.2444883E-04
   53.70000     -9.2473323E-04
   53.76000     -9.2456059E-04
   53.82000     -9.2394039E-04
   53.88000     -9.2288578E-04
   53.94000     -9.2141377E-04
   54.00000     -9.1954472E-04
   54.06000     -9.1730244E-04
   54.12000     -9.1471366E-04
   54.18000     -9.1180770E-04
   54.24000     -9.0861582E-04
   54.30000     -9.0517104E-04
   54.36000     -9.0150721E-04
   54.42000     -8.9765864E-04
   54.48000     -8.9365995E-04
   54.54000     -8.8954525E-04
   54.60000     -8.8534801E-04
   54.66000     -8.8110048E-04
   54.72000     -8.7683339E-04
   54.78000     -8.7257527E-04
   54.84000     -8.6835213E-04
   54.90000     -8.6418708E-04
   54.96000     -8.6010026E-04
   55.02000     -8.5610832E-04
   55.08000     -8.5222430E-04
   55.14000     -8.4845751E-04
   55.20000     -8.4481348E-04
   55.26000     -8.4129401E-04
   55.32000     -8.3789730E-04
   55.38000     -8.3461794E-04
   55.44000     -8.3144737E-04
   55.50000     -8.2837342E-04
   55.56000     -8.2538085E-04