  -2.400000      0.0000000E+00
  -2.340000      0.0000000E+00
  -2.280000      0.0000000E+00
  -2.220000      0.0000000E+00
  -2.160000      0.0000000E+00
  -2.100000      0.0000000E+00
  -2.040000      0.0000000E+00
  -1.980000      0.0000000E+00
  -1.920000     -2.3737959E-25
  -1.860000     -3.6666870E-24
  -1.800000     -2.5848956E-23
  -1.740000     -1.0927387E-22
  -1.680000     -2.9213627E-22
  -1.620000     -4.0834841E-22
  -1.560000      3.4246398E-22
  -1.500000      3.6322644E-21
  -1.440000      1.0746251E-20
  -1.380000      1.8317766E-20
  -1.320000      1.2109042E-20
  -1.260000     -3.3801211E-20
  -1.200000     -1.3913447E-19
  -1.140000     -2.7288293E-19
  -1.080000     -3.0149020E-19
  -1.020000      7.9535888E-21
 -0.9600000      8.4672663E-19
 -0.9000000      2.0639074E-18
 -0.8400000      2.8545143E-18
 -0.7800000      1.7881447E-18
 -0.7200000     -2.4351930E-18
 -0.6600000     -9.4748278E-18
 -0.6000000     -1.5830417E-17
 -0.5400000     -1.4840601E-17
 -0.4800000      2.7676424E-19
 -0.4200000      3.0312179E-17
 -0.3600000      6.3692530E-17
 -0.3000000      7.5327050E-17
 -0.2400000      3.6082108E-17
 -0.1800000     -6.6527205E-17
 -0.1200000     -2.0477506E-16
 -5.9999999E-02 -3.0112559E-16
  0.0000000E+00 -2.5025919E-16
  5.9999999E-02  2.2116480E-17
  0.1200000      4.8306691E-16
  0.1800000      9.4357395E-16
  0.2400000      1.0894673E-15
  0.3000000      6.1891723E-16
  0.3600000     -5.4611502E-16
  0.4200000     -2.0766944E-15
  0.4800000     -3.2212373E-15
  0.5400000     -3.0586245E-15
  0.6000000     -9.9574684E-16
  0.6600000      2.6881903E-15
  0.7200000      6.5780147E-15
  0.7800000      8.4467244E-15
  0.8400000      6.2456580E-15
  0.9000000     -5.4860291E-16
  0.9600000     -9.9101999E-15
   1.020000     -1.7350160E-14
   1.080000     -1.7558400E-14
   1.140000     -7.2738200E-15
   1.200000      1.1849366E-14
   1.260000      3.2133167E-14
   1.320000      4.1933101E-14
   1.380000      3.0914517E-14
   1.440000     -3.3268468E-15
   1.500000     -5.0712384E-14
   1.560000     -8.9666603E-14
   1.620000     -9.5106445E-14
   1.680000     -5.1300744E-14
   1.740000      3.6117302E-14
   1.800000      1.3612382E-13
   1.860000      2.0110782E-13
   1.920000      1.8750920E-13
   1.980000      8.0253871E-14
   2.040000     -9.1534500E-14
   2.100000     -2.5863757E-13
   2.160000     -3.3858487E-13
   2.220000     -2.7614515E-13
   2.280000     -7.8419618E-14
   2.340000      1.7615103E-13
   2.400000      3.6586413E-13
   2.460000      3.8366012E-13
   2.520000      1.9914956E-13
   2.580000     -1.0912759E-13
   2.640000     -3.7601167E-13
   2.700000     -4.2627084E-13
   2.760000     -1.7448030E-13
   2.820000      3.0272120E-13
   2.880000      7.6899636E-13
   2.940000      9.2146614E-13
   3.000000      5.4454461E-13
   3.060000     -3.4520035E-13
   3.120000     -1.4428616E-12
   3.180000     -2.2369673E-12
   3.240000     -2.2164410E-12
   3.300000     -1.1234602E-12
   3.360000      8.6414122E-13
   3.420000      3.1213255E-12
   3.480000      4.7671975E-12
   3.540000      4.9983858E-12
   3.600000      3.4299432E-12
   3.660000      2.9361336E-13
   3.720000     -3.6012276E-12
   3.780000     -7.1342342E-12
   3.840000     -9.2542831E-12
   3.900000     -9.3074480E-12
   3.960000     -7.1770033E-12
   4.020000     -3.1994156E-12
   4.080000      2.0601637E-12
   4.140000      8.0142403E-12
   4.200000      1.4097159E-11
   4.260000      1.9607756E-11
   4.320000      2.3456110E-11
   4.380000      2.4027376E-11
   4.440000      1.9377009E-11
   4.500000      7.8465056E-12
   4.560000     -1.1020736E-11
   4.620000     -3.5585174E-11
   4.680000     -6.1653176E-11
   4.740000     -8.2792787E-11
   4.800000     -9.1524115E-11
   4.860000     -8.1172812E-11
   4.920000     -4.7909836E-11
   4.980000      7.6100437E-12
   5.040000      7.9506297E-11
   5.100000      1.5706511E-10
   5.160000      2.2618192E-10
   5.220000      2.7150457E-10
   5.280000      2.7880936E-10
   5.340000      2.3718813E-10
   5.400000      1.4078444E-10
   5.460000     -1.0006124E-11
   5.520000     -2.0785010E-10
   5.580000     -4.3828877E-10
   5.640000     -6.8012196E-10
   5.700000     -9.0653635E-10
   5.760000     -1.0871611E-09
   5.820000     -1.1911068E-09
   5.880000     -1.1907771E-09
   5.940000     -1.0659280E-09
   6.000000     -8.0719970E-10
   6.060000     -4.1830278E-10
   6.120000      8.3754108E-11
   6.180000      6.7056460E-10
   6.240000      1.3059874E-09
   6.300000      1.9507496E-09
   6.360000      2.5669789E-09
   6.420000      3.1217946E-09
   6.480000      3.5895251E-09
   6.540000      3.9526586E-09
   6.600000      4.2020574E-09
   6.660000      4.3370654E-09
   6.720000      4.3658814E-09
   6.780000      4.3060671E-09
   6.840000      4.1845798E-09
   6.900000      4.0365262E-09
   6.960000      3.9020618E-09
   7.020000      3.8215040E-09
   7.080000      3.8294869E-09
   7.140000      3.9495323E-09
   7.200000      4.1904893E-09
   7.260000      4.5457815E-09
   7.320000      4.9955333E-09
   7.380000      5.5107088E-09
   7.440000      6.0578662E-09
   7.500000      6.6031554E-09
   7.560000      7.1147737E-09
   7.620000      7.5639344E-09
   7.680000      7.9251210E-09
   7.740000      8.1766176E-09
   7.800000      8.3019600E-09
   7.860000      8.2922167E-09
   7.920000      8.1482545E-09
   7.980000      7.8817379E-09
   8.040000      7.5138615E-09
   8.100000      7.0716055E-09
   8.160000      6.5822756E-09
   8.220000      6.0679404E-09
   8.280000      5.5415450E-09
   8.340000      5.0059961E-09
   8.400000      4.4564521E-09
   8.460000      3.8848929E-09
   8.520000      3.2852427E-09
   8.580000      2.6572118E-09
   8.640000      2.0076576E-09
   8.700000      1.3493441E-09
   8.760000      6.9804351E-10
   8.820000      6.9504180E-11
   8.880000     -5.2232152E-10
   8.940000     -1.0651633E-09
   9.000000     -1.5468336E-09
   9.060000     -1.9533517E-09
   9.120000     -2.2682174E-09
   9.180000     -2.4737690E-09
   9.240000     -2.5546099E-09
   9.300000     -2.5020501E-09
   9.360000     -2.3179116E-09
   9.420000     -2.0160920E-09
   9.480000     -1.6210283E-09
   9.540000     -1.1633059E-09
   9.600000     -6.7368905E-10
   9.660000     -1.7741029E-10
   9.720000      3.0960154E-10
   9.780000      7.8163265E-10
   9.840000      1.2413657E-09
   9.900000      1.6963744E-09
   9.960000      2.1553939E-09
   10.02000      2.6256184E-09
   10.08000      3.1116063E-09
   10.14000      3.6155741E-09
   10.20000      4.1383084E-09
   10.26000      4.6798569E-09
   10.32000      5.2395475E-09
   10.38000      5.8154792E-09
   10.44000      6.4040755E-09
   10.50000      7.0003878E-09
   10.56000      7.5994455E-09
   10.62000      8.1983647E-09
   10.68000      8.7983416E-09
   10.74000      9.4054844E-09
   10.80000      1.0029715E-08
   10.86000      1.0681632E-08
   10.92000      1.1368087E-08
   10.98000      1.2087791E-08
   11.04000      1.2828543E-08
   11.10000      1.3567210E-08
   11.16000      1.4272831E-08
   11.22000      1.4912207E-08
   11.28000      1.5456495E-08
   11.34000      1.5887059E-08
   11.40000      1.6199063E-08
   11.46000      1.6402138E-08
   11.52000      1.6518376E-08
   11.58000      1.6578614E-08
   11.64000      1.6618182E-08
   11.70000      1.6672823E-08
   11.76000      1.6774944E-08
   11.82000      1.6949912E-08
   11.88000      1.7212152E-08
   11.94000      1.7561504E-08
   12.00000      1.7981010E-08
   12.06000      1.8437689E-08
   12.12000      1.8887450E-08
   12.18000      1.9283831E-08
   12.24000      1.9588658E-08
   12.30000      1.9781362E-08
   12.36000      1.9863581E-08
   12.42000      1.9856934E-08
   12.48000      1.9794181E-08
   12.54000      1.9706471E-08
   12.60000      1.9610871E-08
   12.66000      1.9502483E-08
   12.72000      1.9353850E-08
   12.78000      1.9121837E-08
   12.84000      1.8759637E-08
   12.90000      1.8230017E-08
   12.96000      1.7515726E-08
   13.02000      1.6624295E-08
   13.08000      1.5586362E-08
   13.14000      1.4448742E-08
   13.20000      1.3264758E-08
   13.26000      1.2084728E-08
   13.32000      1.0948848E-08
   13.38000      9.8836335E-09
   13.44000      8.9017433E-09
   13.50000      8.0041467E-09
   13.56000      7.1832229E-09
   13.62000      6.4256160E-09
   13.68000      5.7143170E-09
   13.74000      5.0300897E-09
   13.80000      4.3528012E-09
   13.86000      3.6632106E-09
   13.92000      2.9454048E-09
   13.98000      2.1895261E-09
   14.04000      1.3940767E-09
   14.10000      5.6703470E-10
   14.16000     -2.7464797E-10
   14.22000     -1.1071074E-09
   14.28000     -1.9027315E-09
   14.34000     -2.6338338E-09
   14.40000     -3.2763345E-09
   14.46000     -3.8131289E-09
   14.52000     -4.2368509E-09
   14.58000     -4.5516524E-09
   14.64000     -4.7734590E-09
   14.70000     -4.9282427E-09
   14.76000     -5.0482218E-09
   14.82000     -5.1665232E-09
   14.88000     -5.3114566E-09
   14.94000     -5.5017990E-09
   15.00000     -5.7442464E-09
   15.06000     -6.0335639E-09
   15.12000     -6.3551617E-09
   15.18000     -6.6892403E-09
   15.24000     -7.0153567E-09
   15.30000     -7.3163382E-09
   15.36000     -7.5807511E-09
   15.42000     -7.8035027E-09
   15.48000     -7.9846068E-09
   15.54000     -8.1266105E-09
   15.60000     -8.2316332E-09
   15.66000     -8.2991827E-09
   15.72000     -8.3257490E-09
   15.78000     -8.3065448E-09
   15.84000     -8.2388070E-09
   15.90000     -8.1252782E-09
   15.96000     -7.9761904E-09
   16.02000     -7.8085423E-09
   16.08000     -7.6425453E-09
   16.14000     -7.4962809E-09
   16.20000     -7.3803514E-09
   16.26000     -7.2942168E-09
   16.32000     -7.2251214E-09
   16.38000     -7.1493687E-09
   16.44000     -7.0348789E-09
   16.50000     -6.8437824E-09
   16.56000     -6.5343260E-09
   16.62000     -6.0623049E-09
   16.68000     -5.3829843E-09
   16.74000     -4.4546766E-09
   16.80000     -3.2445391E-09
   16.86000     -1.7360327E-09
   16.92000      6.3745786E-11
   16.98000      2.1193800E-09
   17.04000      4.3674278E-09
   17.10000      6.7228294E-09
   17.16000      9.0906846E-09
   17.22000      1.1380766E-08
   17.28000      1.3520992E-08
   17.34000      1.5466203E-08
   17.40000      1.7200060E-08
   17.46000      1.8730136E-08
   17.52000      2.0078396E-08
   17.58000      2.1270504E-08
   17.64000      2.2327169E-08
   17.70000      2.3259354E-08
   17.76000      2.4067351E-08
   17.82000      2.4742375E-08
   17.88000      2.5268880E-08
   17.94000      2.5626374E-08
   18.00000      2.5790539E-08
   18.06000      2.5734302E-08
   18.12000      2.5429541E-08
   18.18000      2.4849824E-08
   18.24000      2.3973683E-08
   18.30000      2.2787674E-08
   18.36000      2.1288391E-08
   18.42000      1.9483252E-08
   18.48000      1.7390342E-08
   18.54000      1.5037861E-08
   18.60000      1.2463630E-08
   18.66000      9.7145918E-09
   18.72000      6.8458514E-09
   18.78000      3.9187702E-09
   18.84000      9.9779440E-10
   18.90000     -1.8537005E-09
   18.96000     -4.5778470E-09
   19.02000     -7.1260833E-09
   19.08000     -9.4615062E-09
   19.14000     -1.1559380E-08
   19.20000     -1.3405905E-08
   19.26000     -1.4995704E-08
   19.32000     -1.6328814E-08
   19.38000     -1.7407833E-08
   19.44000     -1.8235875E-08
   19.50000     -1.8815609E-08
   19.56000     -1.9149594E-08
   19.62000     -1.9241831E-08
   19.68000     -1.9100403E-08
   19.74000     -1.8740728E-08
   19.80000     -1.8188709E-08
   19.86000     -1.7482746E-08
   19.92000     -1.6673441E-08
   19.98000     -1.5820241E-08
   20.04000     -1.4985114E-08
   20.10000     -1.4224411E-08
   20.16000     -1.3581104E-08
   20.22000     -1.3079707E-08
   20.28000     -1.2725550E-08
   20.34000     -1.2508497E-08
   20.40000     -1.2409599E-08
   20.46000     -1.2408165E-08
   20.52000     -1.2486861E-08
   20.58000     -1.2633579E-08
   20.64000     -1.2840403E-08
   20.70000     -1.3101183E-08
   20.76000     -1.3409344E-08
   20.82000     -1.3756844E-08
   20.88000     -1.4134060E-08
   20.94000     -1.4529675E-08
   21.00000     -1.4929768E-08
   21.06000     -1.5316246E-08
   21.12000     -1.5665631E-08
   21.18000     -1.5949556E-08
   21.24000     -1.6137633E-08
   21.30000     -1.6202137E-08
   21.36000     -1.6122842E-08
   21.42000     -1.5890198E-08
   21.48000     -1.5505755E-08
   21.54000     -1.4980246E-08
   21.60000     -1.4330610E-08
   21.66000     -1.3577423E-08
   21.72000     -1.2743289E-08
   21.78000     -1.1851747E-08
   21.84000     -1.0925627E-08
   21.90000     -9.9843858E-09
   21.96000     -9.0411101E-09
   22.02000     -8.1008249E-09
   22.08000     -7.1617507E-09
   22.14000     -6.2197434E-09
   22.20000     -5.2742575E-09
   22.26000     -4.3327986E-09
   22.32000     -3.4110765E-09
   22.38000     -2.5280040E-09
   22.44000     -1.6974272E-09
   22.50000     -9.2055191E-10
   22.56000     -1.8316927E-10
   22.62000      5.4019006E-10
   22.68000      1.2763225E-09
   22.74000      2.0417028E-09
   22.80000      2.8342959E-09
   22.86000      3.6327226E-09
   22.92000      4.4035509E-09
   22.98000      5.1140026E-09
   23.04000      5.7450320E-09
   23.10000      6.2996053E-09
   23.16000      6.8030017E-09
   23.22000      7.2951418E-09
   23.28000      7.8179605E-09
   23.34000      8.4024219E-09
   23.40000      9.0594900E-09
   23.46000      9.7775077E-09
   23.52000      1.0525943E-08
   23.58000      1.1263398E-08
   23.64000      1.1946906E-08
   23.70000      1.2539850E-08
   23.76000      1.3017038E-08
   23.82000      1.3366720E-08
   23.88000      1.3590164E-08
   23.94000      1.3699661E-08
   24.00000      1.3715663E-08
   24.06000      1.3663528E-08
   24.12000      1.3570328E-08
   24.18000      1.3462230E-08
   24.24000      1.3362941E-08
   24.30000      1.3293391E-08
   24.36000      1.3272317E-08
   24.42000      1.3316901E-08
   24.48000      1.3442575E-08
   24.54000      1.3661465E-08
   24.60000      1.3979819E-08
   24.66000      1.4395384E-08
   24.72000      1.4895947E-08
   24.78000      1.5459728E-08
   24.84000      1.6057541E-08
   24.90000      1.6655834E-08
   24.96000      1.7219508E-08
   25.02000      1.7713960E-08
   25.08000      1.8106517E-08
   25.14000      1.8368121E-08
   25.20000      1.8476111E-08
   25.26000      1.8418122E-08
   25.32000      1.8196085E-08
   25.38000      1.7828423E-08
   25.44000      1.7348757E-08
   25.50000      1.6800533E-08
   25.56000      1.6228874E-08
   25.62000      1.5672365E-08
   25.68000      1.5157951E-08
   25.74000      1.4701019E-08
   25.80000      1.4310471E-08
   25.86000      1.3996420E-08
   25.92000      1.3776845E-08
   25.98000      1.3679961E-08
   26.04000      1.3741105E-08
   26.10000      1.3995377E-08
   26.16000      1.4469249E-08
   26.22000      1.5174603E-08
   26.28000      1.6107366E-08
   26.34000      1.7250699E-08
   26.40000      1.8580605E-08
   26.46000      2.0070999E-08
   26.52000      2.1695810E-08
   26.58000      2.3427351E-08
   26.64000      2.5232024E-08
   26.70000      2.7065832E-08
   26.76000      2.8872272E-08
   26.82000      3.0584591E-08
   26.88000      3.2132782E-08
   26.94000      3.3454075E-08
   27.00000      3.4504350E-08
   27.06000      3.5267121E-08
   27.12000      3.5757083E-08
   27.18000      3.6016427E-08
   27.24000      3.6104225E-08
   27.30000      3.6081449E-08
   27.36000      3.5996038E-08
   27.42000      3.5872684E-08
   27.48000      3.5710855E-08
   27.54000      3.5491741E-08
   27.60000      3.5191658E-08
   27.66000      3.4796830E-08
   27.72000      3.4313924E-08
   27.78000      3.3772029E-08
   27.84000      3.3215240E-08
   27.90000      3.2688568E-08
   27.96000      3.2222854E-08
   28.02000      3.1824726E-08
   28.08000      3.1475953E-08
   28.14000      3.1142552E-08
   28.20000      3.0790194E-08
   28.26000      3.0399608E-08
   28.32000      2.9975734E-08
   28.38000      2.9546824E-08
   28.44000      2.9153933E-08
   28.50000      2.8835309E-08
   28.56000      2.8612284E-08
   28.62000      2.8482631E-08
   28.68000      2.8424170E-08
   28.74000      2.8406971E-08
   28.80000      2.8409017E-08
   28.86000      2.8428675E-08
   28.92000      2.8488820E-08
   28.98000      2.8630851E-08
   29.04000      2.8900814E-08
   29.10000      2.9332806E-08
   29.16000      2.9935581E-08
   29.22000      3.0686714E-08
   29.28000      3.1535755E-08
   29.34000      3.2414562E-08
   29.40000      3.3250831E-08
   29.46000      3.3980488E-08
   29.52000      3.4555658E-08
   29.58000      3.4947220E-08
   29.64000      3.5142911E-08
   29.70000      3.5143362E-08
   29.76000      3.4958362E-08
   29.82000      3.4604557E-08
   29.88000      3.4104563E-08
   29.94000      3.3486316E-08
   30.00000      3.2781497E-08
   30.06000      3.2022452E-08
   30.12000      3.1238425E-08
   30.18000      3.0452313E-08
   30.24000      2.9679393E-08
   30.30000      2.8928316E-08
   30.36000      2.8203582E-08
   30.42000      2.7507911E-08
   30.48000      2.6843082E-08
   30.54000      2.6208950E-08
   30.60000      2.5601622E-08
   30.66000      2.5012556E-08
   30.72000      2.4430001E-08
   30.78000      2.3842738E-08
   30.84000      2.3244528E-08
   30.90000      2.2636758E-08
   30.96000      2.2027258E-08
   31.02000      2.1425116E-08
   31.08000      2.0833420E-08
   31.14000      2.0243414E-08
   31.20000      1.9633266E-08
   31.26000      1.8972800E-08
   31.32000      1.8232841E-08
   31.38000      1.7395486E-08
   31.44000      1.6461016E-08
   31.50000      1.5448364E-08
   31.56000      1.4388845E-08
   31.62000      1.3315621E-08
   31.68000      1.2253291E-08
   31.74000      1.1211732E-08
   31.80000      1.0186549E-08
   31.86000      9.1656434E-09
   31.92000      8.1389944E-09
   31.98000      7.1076571E-09
   32.04000      6.0884968E-09
   32.10000      5.1130900E-09
   32.16000      4.2214969E-09
   32.22000      3.4534047E-09
   32.28000      2.8398068E-09
   32.34000      2.3978843E-09
   32.40000      2.1303850E-09
   32.46000      2.0291997E-09
   32.52000      2.0814979E-09
   32.58000      2.2761124E-09
   32.64000      2.6078946E-09
   32.70000      3.0785066E-09
   32.76000      3.6933134E-09
   32.82000      4.4554214E-09
   32.88000      5.3589999E-09
   32.94000      6.3844441E-09
   33.00000      7.4973547E-09
   33.06000      8.6518961E-09
   33.12000      9.7972990E-09
   33.18000      1.0885006E-08
   33.24000      1.1873779E-08
   33.30000      1.2731351E-08
   33.36000      1.3433117E-08
   33.42000      1.3960040E-08
   33.48000      1.4298331E-08
   33.54000      1.4442113E-08
   33.60000      1.4398028E-08
   33.66000      1.4188730E-08
   33.72000      1.3851876E-08
   33.78000      1.3433001E-08
   33.84000      1.2973918E-08
   33.90000      1.2501116E-08
   33.96000      1.2019576E-08
   34.02000      1.1515479E-08
   34.08000      1.0967272E-08
   34.14000      1.0360272E-08
   34.20000      9.6979775E-09
   34.26000      9.0043537E-09
   34.32000      8.3156841E-09
   34.38000      7.6657232E-09
   34.44000      7.0714510E-09
   34.50000      6.5267436E-09
   34.56000      6.0075380E-09
   34.62000      5.4863842E-09
   34.68000      4.9494688E-09
   34.74000      4.4077080E-09
   34.80000      3.8962038E-09
   34.86000      3.4619463E-09
   34.92000      3.1453793E-09
   34.98000      2.9644782E-09
   35.04000      2.9088116E-09
   35.10000      2.9463005E-09
   35.16000      3.0394542E-09
   35.22000      3.1636154E-09
   35.28000      3.3191689E-09
   35.34000      3.5328160E-09
   35.40000      3.8481121E-09
   35.46000      4.3099964E-09
   35.52000      4.9499360E-09
   35.58000      5.7770668E-09
   35.64000      6.7773294E-09
   35.70000      7.9190299E-09
   35.76000      9.1610977E-09
   35.82000      1.0460298E-08
   35.88000      1.1775256E-08
   35.94000      1.3067202E-08
   36.00000      1.4298781E-08
   36.06000      1.5432551E-08
   36.12000      1.6430285E-08
   36.18000      1.7253331E-08
   36.24000      1.7863876E-08
   36.30000      1.8226759E-08
   36.36000      1.8311809E-08
   36.42000      1.8096555E-08
   36.48000      1.7569008E-08
   36.54000      1.6729782E-08
   36.60000      1.5592704E-08
   36.66000      1.4183197E-08
   36.72000      1.2534528E-08
   36.78000      1.0682752E-08
   36.84000      8.6617051E-09
   36.90000      6.4994103E-09
   36.96000      4.2166617E-09
   37.02000      1.8278067E-09
   37.08000     -6.5680800E-10
   37.14000     -3.2274947E-09
   37.20000     -5.8715841E-09
   37.26000     -8.5699954E-09
   37.32000     -1.1294574E-08
   37.38000     -1.4007012E-08
   37.44000     -1.6660261E-08
   37.50000     -1.9202929E-08
   37.56000     -2.1586080E-08
   37.62000     -2.3770633E-08
   37.68000     -2.5732767E-08
   37.74000     -2.7465177E-08
   37.80000     -2.8973680E-08
   37.86000     -3.0270929E-08
   37.92000     -3.1370526E-08
   37.98000     -3.2284778E-08
   38.04000     -3.3027412E-08
   38.10000     -3.3619504E-08
   38.16000     -3.4094679E-08
   38.22000     -3.4499227E-08
   38.28000     -3.4885066E-08
   38.34000     -3.5297216E-08
   38.40000     -3.5760753E-08
   38.46000     -3.6273402E-08
   38.52000     -3.6807794E-08
   38.58000     -3.7323304E-08
   38.64000     -3.7782726E-08
   38.70000     -3.8166636E-08
   38.76000     -3.8479158E-08
   38.82000     -3.8742666E-08
   38.88000     -3.8984073E-08
   38.94000     -3.9219152E-08
   39.00000     -3.9442078E-08
   39.06000     -3.9624990E-08
   39.12000     -3.9727642E-08
   39.18000     -3.9712880E-08
   39.24000     -3.9561364E-08
   39.30000     -3.9279520E-08
   39.36000     -3.8898026E-08
   39.42000     -3.8461984E-08
   39.48000     -3.8017273E-08
   39.54000     -3.7598511E-08
   39.60000     -3.7222883E-08
   39.66000     -3.6891372E-08
   39.72000     -3.6595917E-08
   39.78000     -3.6328924E-08
   39.84000     -3.6090974E-08
   39.90000     -3.5893706E-08
   39.96000     -3.5756923E-08
   40.02000     -3.5701380E-08
   40.08000     -3.5740321E-08
   40.14000     -3.5873267E-08
   40.20000     -3.6084476E-08
   40.26000     -3.6346499E-08
   40.32000     -3.6627206E-08
   40.38000     -3.6897269E-08
   40.44000     -3.7135269E-08
   40.50000     -3.7328910E-08
   40.56000     -3.7472581E-08
   40.62000     -3.7563087E-08
   40.68000     -3.7595637E-08
   40.74000     -3.7561765E-08
   40.80000     -3.7449425E-08
   40.86000     -3.7244856E-08
   40.92000     -3.6935315E-08
   40.98000     -3.6512102E-08
   41.04000     -3.5973564E-08
   41.10000     -3.5327655E-08
   41.16000     -3.4593299E-08
   41.22000     -3.3799278E-08
   41.28000     -3.2979969E-08
   41.34000     -3.2168284E-08
   41.40000     -3.1387845E-08
   41.46000     -3.0647428E-08
   41.52000     -2.9940470E-08
   41.58000     -2.9250582E-08
   41.64000     -2.8561518E-08
   41.70000     -2.7867891E-08
   41.76000     -2.7182558E-08
   41.82000     -2.6537688E-08
   41.88000     -2.5979196E-08
   41.94000     -2.5556574E-08
   42.00000     -2.5311536E-08
   42.06000     -2.5268799E-08
   42.12000     -2.5431063E-08
   42.18000     -2.5778728E-08
   42.24000     -2.6273739E-08
   42.30000     -2.6866447E-08
   42.36000     -2.7504134E-08
   42.42000     -2.8139617E-08
   42.48000     -2.8738079E-08
   42.54000     -2.9280146E-08
   42.60000     -2.9759958E-08
   42.66000     -3.0178445E-08
   42.72000     -3.0534192E-08
   42.78000     -3.0815748E-08
   42.84000     -3.0999473E-08
   42.90000     -3.1054906E-08
   42.96000     -3.0956521E-08
   43.02000     -3.0697247E-08
   43.08000     -3.0297485E-08
   43.14000     -2.9804585E-08
   43.20000     -2.9281436E-08
   43.26000     -2.8787793E-08
   43.32000     -2.8361661E-08
   43.38000     -2.8008547E-08
   43.44000     -2.7703448E-08
   43.50000     -2.7404887E-08
   43.56000     -2.7074964E-08
   43.62000     -2.6696684E-08
   43.68000     -2.6281317E-08
   43.74000     -2.5863290E-08
   43.80000     -2.5486075E-08
   43.86000     -2.5186383E-08
   43.92000     -2.4984100E-08
   43.98000     -2.4881661E-08
   44.04000     -2.4871349E-08
   44.10000     -2.4944926E-08
   44.16000     -2.5099469E-08
   44.22000     -2.5336206E-08
   44.28000     -2.5653740E-08
   44.34000     -2.6040569E-08
   44.40000     -2.6472245E-08
   44.46000     -2.6915664E-08
   44.52000     -2.7338690E-08
   44.58000     -2.7720100E-08
   44.64000     -2.8054652E-08
   44.70000     -2.8350753E-08
   44.76000     -2.8622310E-08
   44.82000     -2.8879318E-08
   44.88000     -2.9121978E-08
   44.94000     -2.9340821E-08
   45.00000     -2.9521797E-08
   45.06000     -2.9652886E-08
   45.12000     -2.9728605E-08
   45.18000     -2.9750783E-08
   45.24000     -2.9726616E-08
   45.30000     -2.9666479E-08
   45.36000     -2.9583502E-08
   45.42000     -2.9494801E-08
   45.48000     -2.9422267E-08
   45.54000     -2.9390241E-08
   45.60000     -2.9419150E-08
   45.66000     -2.9516901E-08
   45.72000     -2.9672297E-08
   45.78000     -2.9854665E-08
   45.84000     -3.0021553E-08
   45.90000     -3.0132217E-08
   45.96000     -3.0161441E-08
   46.02000     -3.0107540E-08
   46.08000     -2.9990904E-08
   46.14000     -2.9844021E-08
   46.20000     -2.9697977E-08
   46.26000     -2.9572110E-08
   46.32000     -2.9471643E-08
   46.38000     -2.9393743E-08
   46.44000     -2.9338112E-08
   46.50000     -2.9315842E-08
   46.56000     -2.9351355E-08
   46.62000     -2.9476078E-08
   46.68000     -2.9716816E-08
   46.74000     -3.0084522E-08
   46.80000     -3.0568813E-08
   46.86000     -3.1140441E-08
   46.92000     -3.1759800E-08
   46.98000     -3.2386616E-08
   47.04000     -3.2985795E-08
   47.10000     -3.3526895E-08
   47.16000     -3.3978417E-08
   47.22000     -3.4300854E-08
   47.28000     -3.4442671E-08
   47.34000     -3.4341049E-08
   47.40000     -3.3925726E-08
   47.46000     -3.3121818E-08
   47.52000     -3.1847694E-08
   47.58000     -3.0006969E-08
   47.64000     -2.7477270E-08
   47.70000     -2.4100896E-08
   47.76000     -1.9681504E-08
   47.82000     -1.3987183E-08
   47.88000     -6.7558670E-09
   47.94000      2.3035160E-09
   48.00000      1.3519453E-08
   48.06000      2.7276718E-08
   48.12000      4.4041514E-08
   48.18000      6.4385880E-08
   48.24000      8.9005475E-08
   48.30000      1.1872906E-07
   48.36000      1.5452301E-07
   48.42000      1.9749746E-07
   48.48000      2.4892009E-07
   48.54000      3.1024121E-07
   48.60000      3.8312950E-07
   48.66000      4.6951686E-07
   48.72000      5.7164766E-07
   48.78000      6.9213104E-07
   48.84000      8.3399237E-07
   48.90000      1.0007245E-06
   48.96000      1.1963368E-06
   49.02000      1.4254040E-06
   49.08000      1.6931190E-06
   49.14000      2.0053542E-06
   49.20000      2.3687369E-06
   49.26000      2.7907408E-06
   49.32000      3.2797925E-06
   49.38000      3.8453873E-06
   49.44000      4.4982053E-06
   49.50000      5.2502251E-06
   49.56000      6.1148376E-06
   49.62000      7.1069517E-06
   49.68000      8.2431097E-06
   49.74000      9.5416090E-06
   49.80000      1.1022635E-05
   49.86000      1.2708402E-05
   49.92000      1.4623313E-05
   49.98000      1.6794111E-05
   50.04000      1.9250025E-05
   50.10000      2.2022919E-05
   50.16000      2.5147418E-05
   50.22000      2.8661019E-05
   50.28000      3.2604195E-05
   50.34000      3.7020483E-05
   50.40000      4.1956562E-05
   50.46000      4.7462316E-05
   50.52000      5.3590898E-05
   50.58000      6.0398761E-05
   50.64000      6.7945672E-05
   50.70000      7.6294658E-05
   50.76000      8.5511980E-05
   50.82000      9.5666968E-05
   50.88000      1.0683193E-04
   50.94000      1.1908189E-04
   51.00000      1.3249442E-04
   51.06000      1.4714926E-04
   51.12000      1.6312803E-04
   51.18000      1.8051379E-04
   51.24000      1.9939062E-04
   51.30000      2.1984318E-04
   51.36000      2.4195614E-04
   51.42000      2.6581355E-04
   51.48000      2.9149829E-04
   51.54000      3.1909125E-04
   51.60000      3.4867067E-04
   51.66000      3.8031125E-04
   51.72000      4.1408333E-04
   51.78000      4.5005218E-04
   51.84000      4.8827683E-04
   51.90000      5.2880961E-04
   51.96000      5.7169487E-04
   52.02000      6.1696843E-04
   52.08000      6.6465657E-04
   52.14000      7.1477517E-04
   52.20000      7.6732901E-04
   52.26000      8.2231086E-04
   52.32000      8.7970105E-04
   52.38000      9.3946658E-04
   52.44000      1.0015608E-03
   52.50000      1.0659230E-03
   52.56000      1.1324780E-03
   52.62000      1.2011360E-03
   52.68000      1.2717923E-03
   52.74000      1.3443280E-03
   52.80000      1.4186096E-03
   52.86000      1.4944897E-03
   52.92000      1.5718075E-03
   52.98000      1.6503891E-03
   53.04000      1.7300488E-03
   53.10000      1.8105900E-03
   53.16000      1.8918065E-03
   53.22000      1.9734828E-03
   53.28000      2.0553970E-03
   53.34000      2.1373210E-03
   53.40000      2.2190234E-03
   53.46000      2.3002694E-03
   53.52000      2.3808251E-03
   53.58000      2.4604576E-03
   53.64000      2.5389367E-03
   53.70000      2.6160369E-03
   53.76000      2.6915416E-03
   53.82000      2.7652413E-03
   53.88000      2.8369387E-03
   53.94000      2.9064482E-03
   54.00000      2.9735991E-03
   54.06000      3.0382366E-03
   54.12000      3.1002227E-03
   54.18000      3.1594383E-03
   54.24000      3.2157826E-03
   54.30000      3.2691767E-03
   54.36000      3.3195615E-03
   54.42000      3.3669006E-03
   54.48000      3.4111785E-03
   54.54000      3.4524021E-03
   54.60000      3.4905991E-03
   54.66000      3.5258189E-03
   54.72000      3.5581309E-03
   54.78000      3.5876241E-03
   54.84000      3.6144049E-03
   54.90000      3.6385981E-03
   54.96000      3.6603420E-03
   55.02000      3.6797889E-03
   55.08000      3.6971031E-03
   55.14000      3.7124590E-03
   55.20000      3.7260377E-03
   55.26000      3.7380254E-03
   55.32000      3.7486115E-03
   55.38000      3.7579865E-03
   55.44000      3.7663376E-03
   55.50000      3.7738497E-03
   55.56000      3.7807000E-03