  -2.400000      0.0000000E+00
  -2.340000      0.0000000E+00
  -2.280000      0.0000000E+00
  -2.220000      0.0000000E+00
  -2.160000      0.0000000E+00
  -2.100000      0.0000000E+00
  -2.040000      0.0000000E+00
  -1.980000      0.0000000E+00
  -1.920000      4.9911241E-27
  -1.860000     -1.6926918E-25
  -1.800000     -2.4040836E-24
  -1.740000     -1.4602808E-23
  -1.680000     -5.3036128E-23
  -1.620000     -1.1873571E-22
  -1.560000     -1.0897880E-22
  -1.500000      3.2295435E-22
  -1.440000      1.7609407E-21
  -1.380000      4.4386273E-21
  -1.320000      6.7449579E-21
  -1.260000      3.4794545E-21
  -1.200000     -1.3677208E-20
  -1.140000     -4.9935889E-20
  -1.080000     -9.4444923E-20
  -1.020000     -1.0761973E-19
 -0.9600000     -2.5566899E-20
 -0.9000000      2.0079617E-19
 -0.8400000      5.3477614E-19
 -0.7800000      7.9482849E-19
 -0.7200000      6.8517159E-19
 -0.6600000     -2.6731707E-20
 -0.6000000     -1.2353873E-18
 -0.5400000     -2.3291568E-18
 -0.4800000     -2.4048868E-18
 -0.4200000     -9.7328170E-19
 -0.3600000      1.1790398E-18
 -0.3000000      1.7847708E-18
 -0.2400000     -1.6028313E-18
 -0.1800000     -8.7906403E-18
 -0.1200000     -1.4187466E-17
 -5.9999999E-02 -7.0586697E-18
  0.0000000E+00  2.2629600E-17
  5.9999999E-02  7.3349394E-17
  0.1200000      1.2182858E-16
  0.1800000      1.2316796E-16
  0.2400000      2.9318404E-17
  0.3000000     -1.7545151E-16
  0.3600000     -4.3802636E-16
  0.4200000     -6.2586968E-16
  0.4800000     -5.6627377E-16
  0.5400000     -1.3646400E-16
  0.6000000      6.3007245E-16
  0.6600000      1.4841870E-15
  0.7200000      2.0091382E-15
  0.7800000      1.7910791E-15
  0.8400000      6.5260516E-16
  0.9000000     -1.1724883E-15
  0.9600000     -3.0483094E-15
   1.020000     -4.1760219E-15
   1.080000     -3.9753408E-15
   1.140000     -2.4064183E-15
   1.200000     -2.0412917E-17
   1.260000      2.3405138E-15
   1.320000      4.0496463E-15
   1.380000      5.0818792E-15
   1.440000      5.9545112E-15
   1.500000      7.1401608E-15
   1.560000      8.2552517E-15
   1.620000      7.6255640E-15
   1.680000      2.7951823E-15
   1.740000     -7.9173067E-15
   1.800000     -2.3432394E-14
   1.860000     -3.8690940E-14
   1.920000     -4.5406841E-14
   1.980000     -3.5225098E-14
   2.040000     -4.4020467E-15
   2.100000      4.2108708E-14
   2.160000      8.9671339E-14
   2.220000      1.1767281E-13
   2.280000      1.0744848E-13
   2.340000      5.1609274E-14
   2.400000     -3.9489882E-14
   2.460000     -1.3796992E-13
   2.520000     -2.0670184E-13
   2.580000     -2.1337386E-13
   2.640000     -1.4492015E-13
   2.700000     -1.5819509E-14
   2.760000      1.3433067E-13
   2.820000      2.5420684E-13
   2.880000      3.0033970E-13
   2.940000      2.5475875E-13
   3.000000      1.3272223E-13
   3.060000     -2.3499530E-14
   3.120000     -1.6258247E-13
   3.180000     -2.4592933E-13
   3.240000     -2.6301422E-13
   3.300000     -2.3255752E-13
   3.360000     -1.8841204E-13
   3.420000     -1.5684748E-13
   3.480000     -1.3710157E-13
   3.540000     -9.6719135E-14
   3.600000      1.3144932E-14
   3.660000      2.2713957E-13
   3.720000      5.3339955E-13
   3.780000      8.5642767E-13
   3.840000      1.0676926E-12
   3.900000      1.0254295E-12
   3.960000      6.3191612E-13
   4.020000     -1.1311647E-13
   4.080000     -1.0857026E-12
   4.140000     -2.0522488E-12
   4.200000     -2.7256483E-12
   4.260000     -2.8474386E-12
   4.320000     -2.2701680E-12
   4.380000     -1.0130509E-12
   4.440000      7.2749185E-13
   4.500000      2.6160742E-12
   4.560000      4.2536469E-12
   4.620000      5.2675121E-12
   4.680000      5.3912022E-12
   4.740000      4.5151647E-12
   4.800000      2.7004540E-12
   4.860000      1.6002126E-13
   4.920000     -2.7791025E-12
   4.980000     -5.7174365E-12
   5.040000     -8.2186714E-12
   5.100000     -9.8398312E-12
   5.160000     -1.0166875E-11
   5.220000     -8.8708459E-12
   5.280000     -5.7932474E-12
   5.340000     -1.0521282E-12
   5.400000      4.8621762E-12
   5.460000      1.1049790E-11
   5.520000      1.6271082E-11
   5.580000      1.9148860E-11
   5.640000      1.8484774E-11
   5.700000      1.3621537E-11
   5.760000      4.7466757E-12
   5.820000     -6.9695178E-12
   5.880000     -1.9471844E-11
   5.940000     -3.0155590E-11
   6.000000     -3.6365827E-11
   6.060000     -3.5933926E-11
   6.120000     -2.7615079E-11
   6.180000     -1.1328577E-11
   6.240000      1.1829015E-11
   6.300000      3.9758131E-11
   6.360000      6.9636533E-11
   6.420000      9.8224699E-11
   6.480000      1.2215050E-10
   6.540000      1.3817385E-10
   6.600000      1.4346085E-10
   6.660000      1.3588891E-10
   6.720000      1.1436584E-10
   6.780000      7.9095917E-11
   6.840000      3.1698314E-11
   6.900000     -2.4900745E-11
   6.960000     -8.6821550E-11
   7.020000     -1.4977013E-10
   7.080000     -2.0963900E-10
   7.140000     -2.6302738E-10
   7.200000     -3.0757441E-10
   7.260000     -3.4207073E-10
   7.320000     -3.6638645E-10
   7.380000     -3.8129588E-10
   7.440000     -3.8827613E-10
   7.500000     -3.8931910E-10
   7.560000     -3.8675221E-10
   7.620000     -3.8303780E-10
   7.680000     -3.8052725E-10
   7.740000     -3.8117681E-10
   7.800000     -3.8626771E-10
   7.860000     -3.9619225E-10
   7.920000     -4.1036502E-10
   7.980000     -4.2729381E-10
   8.040000     -4.4481394E-10
   8.100000     -4.6045537E-10
   8.160000     -4.7188581E-10
   8.220000     -4.7735094E-10
   8.280000     -4.7602244E-10
   8.340000     -4.6817422E-10
   8.400000     -4.5514112E-10
   8.460000     -4.3907192E-10
   8.520000     -4.2254683E-10
   8.580000     -4.0816719E-10
   8.640000     -3.9821688E-10
   8.700000     -3.9444473E-10
   8.760000     -3.9794840E-10
   8.820000     -4.0909490E-10
   8.880000     -4.2742079E-10
   8.940000     -4.5151557E-10
   9.000000     -4.7897286E-10
   9.060000     -5.0654220E-10
   9.120000     -5.3058907E-10
   9.180000     -5.4787042E-10
   9.240000     -5.5649046E-10
   9.300000     -5.5678739E-10
   9.360000     -5.5185989E-10
   9.420000     -5.4750765E-10
   9.480000     -5.5150357E-10
   9.540000     -5.7229194E-10
   9.600000     -6.1736155E-10
   9.660000     -6.9163569E-10
   9.720000     -7.9623647E-10
   9.780000     -9.2792707E-10
   9.840000     -1.0794097E-09
   9.900000     -1.2404917E-09
   9.960000     -1.3999403E-09
   10.02000     -1.5476664E-09
   10.08000     -1.6767671E-09
   10.14000     -1.7849420E-09
   10.20000     -1.8749302E-09
   10.26000     -1.9538346E-09
   10.32000     -2.0314896E-09
   10.38000     -2.1182607E-09
   10.44000     -2.2228042E-09
   10.50000     -2.3502926E-09
   10.56000     -2.5014673E-09
   10.62000     -2.6726317E-09
   10.68000     -2.8564842E-09
   10.74000     -3.0434892E-09
   10.80000     -3.2234302E-09
   10.86000     -3.3868053E-09
   10.92000     -3.5258338E-09
   10.98000     -3.6349945E-09
   11.04000     -3.7111210E-09
   11.10000     -3.7532009E-09
   11.16000     -3.7620418E-09
   11.22000     -3.7399661E-09
   11.28000     -3.6906518E-09
   11.34000     -3.6191377E-09
   11.40000     -3.5319312E-09
   11.46000     -3.4370666E-09
   11.52000     -3.3439083E-09
   11.58000     -3.2625387E-09
   11.64000     -3.2026946E-09
   11.70000     -3.1724099E-09
   11.76000     -3.1767333E-09
   11.82000     -3.2169796E-09
   11.88000     -3.2908956E-09
   11.94000     -3.3938550E-09
   12.00000     -3.5208190E-09
   12.06000     -3.6684558E-09
   12.12000     -3.8366843E-09
   12.18000     -4.0290353E-09
   12.24000     -4.2516026E-09
   12.30000     -4.5108335E-09
   12.36000     -4.8108095E-09
   12.42000     -5.1508136E-09
   12.48000     -5.5238871E-09
   12.54000     -5.9167333E-09
   12.60000     -6.3109131E-09
   12.66000     -6.6849193E-09
   12.72000     -7.0165629E-09
   12.78000     -7.2851138E-09
   12.84000     -7.4728863E-09
   12.90000     -7.5662312E-09
   12.96000     -7.5561513E-09
   13.02000     -7.4388238E-09
   13.08000     -7.2162272E-09
   13.14000     -6.8968045E-09
   13.20000     -6.4958519E-09
   13.26000     -6.0351946E-09
   13.32000     -5.5418372E-09
   13.38000     -5.0455462E-09
   13.44000     -4.5757207E-09
   13.50000     -4.1581338E-09
   13.56000     -3.8121768E-09
   13.62000     -3.5490568E-09
   13.68000     -3.3710952E-09
   13.74000     -3.2720568E-09
   13.80000     -3.2382910E-09
   13.86000     -3.2504768E-09
   13.92000     -3.2857883E-09
   13.98000     -3.3202672E-09
   14.04000     -3.3311154E-09
   14.10000     -3.2985690E-09
   14.16000     -3.2070484E-09
   14.22000     -3.0454947E-09
   14.28000     -2.8070695E-09
   14.34000     -2.4886206E-09
   14.40000     -2.0903490E-09
   14.46000     -1.6159299E-09
   14.52000     -1.0730188E-09
   14.58000     -4.7376647E-10
   14.64000      1.6515825E-10
   14.70000      8.2345319E-10
   14.76000      1.4790895E-09
   14.82000      2.1110000E-09
   14.88000      2.7019795E-09
   14.94000      3.2410707E-09
   15.00000      3.7247347E-09
   15.06000      4.1563424E-09
   15.12000      4.5439301E-09
   15.18000      4.8966360E-09
   15.24000      5.2206657E-09
   15.30000      5.5158704E-09
   15.36000      5.7739706E-09
   15.42000      5.9790564E-09
   15.48000      6.1104135E-09
   15.54000      6.1470562E-09
   15.60000      6.0728755E-09
   15.66000      5.8811405E-09
   15.72000      5.5772569E-09
   15.78000      5.1791718E-09
   15.84000      4.7153637E-09
   15.90000      4.2209032E-09
   15.96000      3.7324064E-09
   16.02000      3.2828107E-09
   16.08000      2.8967686E-09
   16.14000      2.5872013E-09
   16.20000      2.3532509E-09
   16.26000      2.1796407E-09
   16.32000      2.0373441E-09
   16.38000      1.8854318E-09
   16.44000      1.6739660E-09
   16.50000      1.3477686E-09
   16.56000      8.5078611E-10
   16.62000      1.3065608E-10
   16.68000     -8.5697949E-10
   16.74000     -2.1448132E-09
   16.80000     -3.7511234E-09
   16.86000     -5.6780358E-09
   16.92000     -7.9108036E-09
   16.98000     -1.0418112E-08
   17.04000     -1.3153475E-08
   17.10000     -1.6057788E-08
   17.16000     -1.9062979E-08
   17.22000     -2.2096476E-08
   17.28000     -2.5085992E-08
   17.34000     -2.7963953E-08
   17.40000     -3.0671035E-08
   17.46000     -3.3158532E-08
   17.52000     -3.5389515E-08
   17.58000     -3.7339102E-08
   17.64000     -3.8994159E-08
   17.70000     -4.0352720E-08
   17.76000     -4.1423206E-08
   17.82000     -4.2223345E-08
   17.88000     -4.2778659E-08
   17.94000     -4.3120401E-08
   18.00000     -4.3282991E-08
   18.06000     -4.3301114E-08
   18.12000     -4.3206978E-08
   18.18000     -4.3028010E-08
   18.24000     -4.2785299E-08
   18.30000     -4.2492879E-08
   18.36000     -4.2157652E-08
   18.42000     -4.1779622E-08
   18.48000     -4.1352248E-08
   18.54000     -4.0862837E-08
   18.60000     -4.0293141E-08
   18.66000     -3.9620570E-08
   18.72000     -3.8820268E-08
   18.78000     -3.7868105E-08
   18.84000     -3.6744311E-08
   18.90000     -3.5437161E-08
   18.96000     -3.3945856E-08
   19.02000     -3.2281985E-08
   19.08000     -3.0469113E-08
   19.14000     -2.8540505E-08
   19.20000     -2.6535417E-08
   19.26000     -2.4494712E-08
   19.32000     -2.2456772E-08
   19.38000     -2.0454509E-08
   19.44000     -1.8514001E-08
   19.50000     -1.6654745E-08
   19.56000     -1.4891082E-08
   19.62000     -1.3233989E-08
   19.68000     -1.1692455E-08
   19.74000     -1.0273856E-08
   19.80000     -8.9832328E-09
   19.86000     -7.8217459E-09
   19.92000     -6.7849828E-09
   19.98000     -5.8618417E-09
   20.04000     -5.0346096E-09
   20.10000     -4.2805466E-09
   20.16000     -3.5748378E-09
   20.22000     -2.8943297E-09
   20.28000     -2.2211388E-09
   20.34000     -1.5451330E-09
   20.40000     -8.6452806E-10
   20.46000     -1.8438136E-10
   20.52000      4.8657128E-10
   20.58000      1.1397369E-09
   20.64000      1.7699296E-09
   20.70000      2.3770943E-09
   20.76000      2.9660625E-09
   20.82000      3.5446224E-09
   20.88000      4.1207153E-09
   20.94000      4.6997966E-09
   21.00000      5.2832356E-09
   21.06000      5.8682028E-09
   21.12000      6.4489352E-09
   21.18000      7.0188211E-09
   21.24000      7.5724564E-09
   21.30000      8.1068716E-09
   21.36000      8.6214120E-09
   21.42000      9.1162402E-09
   21.48000      9.5899724E-09
   21.54000      1.0037335E-08
   21.60000      1.0447828E-08
   21.66000      1.0806091E-08
   21.72000      1.1094138E-08
   21.78000      1.1294976E-08
   21.84000      1.1396599E-08
   21.90000      1.1395187E-08
   21.96000      1.1296525E-08
   22.02000      1.1115199E-08
   22.08000      1.0871779E-08
   22.14000      1.0588802E-08
   22.20000      1.0286651E-08
   22.26000      9.9804121E-09
   22.32000      9.6783186E-09
   22.38000      9.3818482E-09
   22.44000      9.0870351E-09
   22.50000      8.7862313E-09
   22.56000      8.4696774E-09
   22.62000      8.1265297E-09
   22.68000      7.7453608E-09
   22.74000      7.3144095E-09
   22.80000      6.8218453E-09
   22.86000      6.2562129E-09
   22.92000      5.6070322E-09
   22.98000      4.8655351E-09
   23.04000      4.0255546E-09
   23.10000      3.0846794E-09
   23.16000      2.0456867E-09
   23.22000      9.1800595E-10
   23.28000     -2.8138691E-10
   23.34000     -1.5284283E-09
   23.40000     -2.7943841E-09
   23.46000     -4.0502268E-09
   23.52000     -5.2721485E-09
   23.58000     -6.4466650E-09
   23.64000     -7.5735507E-09
   23.70000     -8.6652880E-09
   23.76000     -9.7427693E-09
   23.82000     -1.0828289E-08
   23.88000     -1.1937927E-08
   23.94000     -1.3075808E-08
   24.00000     -1.4232260E-08
   24.06000     -1.5386609E-08
   24.12000     -1.6513798E-08
   24.18000     -1.7592583E-08
   24.24000     -1.8612511E-08
   24.30000     -1.9577167E-08
   24.36000     -2.0502528E-08
   24.42000     -2.1410882E-08
   24.48000     -2.2322475E-08
   24.54000     -2.3247761E-08
   24.60000     -2.4183080E-08
   24.66000     -2.5111428E-08
   24.72000     -2.6008214E-08
   24.78000     -2.6850252E-08
   24.84000     -2.7624889E-08
   24.90000     -2.8336000E-08
   24.96000     -2.9004397E-08
   25.02000     -2.9661862E-08
   25.08000     -3.0340221E-08
   25.14000     -3.1058679E-08
   25.20000     -3.1813581E-08
   25.26000     -3.2574260E-08
   25.32000     -3.3286994E-08
   25.38000     -3.3886376E-08
   25.44000     -3.4310958E-08
   25.50000     -3.4518461E-08
   25.56000     -3.4495773E-08
   25.62000     -3.4260683E-08
   25.68000     -3.3854903E-08
   25.74000     -3.3330888E-08
   25.80000     -3.2736704E-08
   25.86000     -3.2103806E-08
   25.92000     -3.1441147E-08
   25.98000     -3.0736953E-08
   26.04000     -2.9966735E-08
   26.10000     -2.9104395E-08
   26.16000     -2.8132561E-08
   26.22000     -2.7048925E-08
   26.28000     -2.5867012E-08
   26.34000     -2.4611710E-08
   26.40000     -2.3311571E-08
   26.46000     -2.1990701E-08
   26.52000     -2.0662991E-08
   26.58000     -1.9330573E-08
   26.64000     -1.7986874E-08
   26.70000     -1.6623240E-08
   26.76000     -1.5236875E-08
   26.82000     -1.3837382E-08
   26.88000     -1.2449481E-08
   26.94000     -1.1110588E-08
   27.00000     -9.8635207E-09
   27.06000     -8.7462508E-09
   27.12000     -7.7817734E-09
   27.18000     -6.9714323E-09
   27.24000     -6.2942496E-09
   27.30000     -5.7130318E-09
   27.36000     -5.1859028E-09
   27.42000     -4.6799991E-09
   27.48000     -4.1831432E-09
   27.54000     -3.7097001E-09
   27.60000     -3.2985019E-09
   27.66000     -3.0032015E-09
   27.72000     -2.8778393E-09
   27.78000     -2.9619995E-09
   27.84000     -3.2701368E-09
   27.90000     -3.7883874E-09
   27.96000     -4.4798867E-09
   28.02000     -5.2969740E-09
   28.08000     -6.1965388E-09
   28.14000     -7.1537087E-09
   28.20000     -8.1694829E-09
   28.26000     -9.2696348E-09
   28.32000     -1.0494836E-08
   28.38000     -1.1884812E-08
   28.44000     -1.3461469E-08
   28.50000     -1.5216729E-08
   28.56000     -1.7109619E-08
   28.62000     -1.9074374E-08
   28.68000     -2.1037545E-08
   28.74000     -2.2938691E-08
   28.80000     -2.4747658E-08
   28.86000     -2.6472131E-08
   28.92000     -2.8152467E-08
   28.98000     -2.9845182E-08
   29.04000     -3.1600663E-08
   29.10000     -3.3442895E-08
   29.16000     -3.5358379E-08
   29.22000     -3.7298307E-08
   29.28000     -3.9193328E-08
   29.34000     -4.0975802E-08
   29.40000     -4.2601780E-08
   29.46000     -4.4064837E-08
   29.52000     -4.5396668E-08
   29.58000     -4.6653792E-08
   29.64000     -4.7894634E-08
   29.70000     -4.9154711E-08
   29.76000     -5.0428550E-08
   29.82000     -5.1665015E-08
   29.88000     -5.2778180E-08
   29.94000     -5.3670711E-08
   30.00000     -5.4262106E-08
   30.06000     -5.4512459E-08
   30.12000     -5.4433592E-08
   30.18000     -5.4083497E-08
   30.24000     -5.3545591E-08
   30.30000     -5.2899455E-08
   30.36000     -5.2192597E-08
   30.42000     -5.1422727E-08
   30.48000     -5.0536826E-08
   30.54000     -4.9447859E-08
   30.60000     -4.8064365E-08
   30.66000     -4.6323755E-08
   30.72000     -4.4218684E-08
   30.78000     -4.1807859E-08
   30.84000     -3.9207418E-08
   30.90000     -3.6565236E-08
   30.96000     -3.4025959E-08
   31.02000     -3.1697496E-08
   31.08000     -2.9629144E-08
   31.14000     -2.7807646E-08
   31.20000     -2.6171723E-08
   31.26000     -2.4639901E-08
   31.32000     -2.3142631E-08
   31.38000     -2.1648834E-08
   31.44000     -2.0179145E-08
   31.50000     -1.8802524E-08
   31.56000     -1.7618053E-08
   31.62000     -1.6728078E-08
   31.68000     -1.6211244E-08
   31.74000     -1.6103646E-08
   31.80000     -1.6393539E-08
   31.86000     -1.7030413E-08
   31.92000     -1.7944702E-08
   31.98000     -1.9070828E-08
   32.04000     -2.0365555E-08
   32.10000     -2.1815568E-08
   32.16000     -2.3432326E-08
   32.22000     -2.5236906E-08
   32.28000     -2.7241123E-08
   32.34000     -2.9432350E-08
   32.40000     -3.1767776E-08
   32.46000     -3.4180307E-08
   32.52000     -3.6594027E-08
   32.58000     -3.8943892E-08
   32.64000     -4.1193076E-08
   32.70000     -4.3342293E-08
   32.76000     -4.5428305E-08
   32.82000     -4.7512316E-08
   32.88000     -4.9662024E-08
   32.94000     -5.1932915E-08
   33.00000     -5.4354285E-08
   33.06000     -5.6923632E-08
   33.12000     -5.9610322E-08
   33.18000     -6.2366468E-08
   33.24000     -6.5140881E-08
   33.30000     -6.7891314E-08
   33.36000     -7.0591327E-08
   33.42000     -7.3230034E-08
   33.48000     -7.5805858E-08
   33.54000     -7.8316987E-08
   33.60000     -8.0752592E-08
   33.66000     -8.3088025E-08
   33.72000     -8.5285521E-08
   33.78000     -8.7300116E-08
   33.84000     -8.9088026E-08
   33.90000     -9.0614478E-08
   33.96000     -9.1857892E-08
   34.02000     -9.2809174E-08
   34.08000     -9.3466696E-08
   34.14000     -9.3829335E-08
   34.20000     -9.3890478E-08
   34.26000     -9.3635300E-08
   34.32000     -9.3042217E-08
   34.38000     -9.2087689E-08
   34.44000     -9.0752444E-08
   34.50000     -8.9026983E-08
   34.56000     -8.6915037E-08
   34.62000     -8.4434348E-08
   34.68000     -8.1615227E-08
   34.74000     -7.8497727E-08
   34.80000     -7.5128014E-08
   34.86000     -7.1554602E-08
   34.92000     -6.7824899E-08
   34.98000     -6.3982583E-08
   35.04000     -6.0066228E-08
   35.10000     -5.6109606E-08
   35.16000     -5.2143196E-08
   35.22000     -4.8196274E-08
   35.28000     -4.4298428E-08
   35.34000     -4.0479712E-08
   35.40000     -3.6769219E-08
   35.46000     -3.3192752E-08
   35.52000     -2.9770655E-08
   35.58000     -2.6516856E-08
   35.64000     -2.3439485E-08
   35.70000     -2.0542684E-08
   35.76000     -1.7828638E-08
   35.82000     -1.5298841E-08
   35.88000     -1.2954130E-08
   35.94000     -1.0793682E-08
   36.00000     -8.8138572E-09
   36.06000     -7.0078525E-09
   36.12000     -5.3667875E-09
   36.18000     -3.8821719E-09
   36.24000     -2.5489622E-09
   36.30000     -1.3680239E-09
   36.36000     -3.4686862E-10
   36.42000      5.0192711E-10
   36.48000      1.1643968E-09
   36.54000      1.6299385E-09
   36.60000      1.8956314E-09
   36.66000      1.9685786E-09
   36.72000      1.8652382E-09
   36.78000      1.6075747E-09
   36.84000      1.2168865E-09
   36.90000      7.0702577E-10
   36.96000      7.9177477E-11
   37.02000     -6.7980710E-10
   37.08000     -1.5943445E-09
   37.14000     -2.6924929E-09
   37.20000     -3.9954839E-09
   37.26000     -5.5073870E-09
   37.32000     -7.2083313E-09
   37.38000     -9.0540464E-09
   37.44000     -1.0982679E-08
   37.50000     -1.2927443E-08
   37.56000     -1.4831472E-08
   37.62000     -1.6660135E-08
   37.68000     -1.8406681E-08
   37.74000     -2.0089198E-08
   37.80000     -2.1739913E-08
   37.86000     -2.3390507E-08
   37.92000     -2.5058528E-08
   37.98000     -2.6739352E-08
   38.04000     -2.8406117E-08
   38.10000     -3.0017031E-08
   38.16000     -3.1527147E-08
   38.22000     -3.2900374E-08
   38.28000     -3.4117971E-08
   38.34000     -3.5181319E-08
   38.40000     -3.6108844E-08
   38.46000     -3.6928697E-08
   38.52000     -3.7669821E-08
   38.58000     -3.8354159E-08
   38.64000     -3.8991995E-08
   38.70000     -3.9581497E-08
   38.76000     -4.0112255E-08
   38.82000     -4.0571557E-08
   38.88000     -4.0951317E-08
   38.94000     -4.1253482E-08
   39.00000     -4.1492008E-08
   39.06000     -4.1690644E-08
   39.12000     -4.1877222E-08
   39.18000     -4.2076280E-08
   39.24000     -4.2302624E-08
   39.30000     -4.2558046E-08
   39.36000     -4.2832216E-08
   39.42000     -4.3107281E-08
   39.48000     -4.3364345E-08
   39.54000     -4.3589516E-08
   39.60000     -4.3777664E-08
   39.66000     -4.3933039E-08
   39.72000     -4.4067196E-08
   39.78000     -4.4195385E-08
   39.84000     -4.4332857E-08
   39.90000     -4.4492182E-08
   39.96000     -4.4682018E-08
   40.02000     -4.4907289E-08
   40.08000     -4.5170236E-08
   40.14000     -4.5471598E-08
   40.20000     -4.5811277E-08
   40.26000     -4.6187957E-08
   40.32000     -4.6597624E-08
   40.38000     -4.7031417E-08
   40.44000     -4.7473847E-08
   40.50000     -4.7902471E-08
   40.56000     -4.8289870E-08
   40.62000     -4.8607987E-08
   40.68000     -4.8833936E-08
   40.74000     -4.8955656E-08
   40.80000     -4.8975796E-08
   40.86000     -4.8912565E-08
   40.92000     -4.8797229E-08
   40.98000     -4.8668898E-08
   41.04000     -4.8567607E-08
   41.10000     -4.8527220E-08
   41.16000     -4.8569436E-08
   41.22000     -4.8699995E-08
   41.28000     -4.8907879E-08
   41.34000     -4.9167678E-08
   41.40000     -4.9444701E-08
   41.46000     -4.9701619E-08
   41.52000     -4.9905104E-08
   41.58000     -5.0030984E-08
   41.64000     -5.0066902E-08
   41.70000     -5.0012304E-08
   41.76000     -4.9876228E-08
   41.82000     -4.9673694E-08
   41.88000     -4.9421434E-08
   41.94000     -4.9133714E-08
   42.00000     -4.8818833E-08
   42.06000     -4.8477091E-08
   42.12000     -4.8100951E-08
   42.18000     -4.7677780E-08
   42.24000     -4.7194789E-08
   42.30000     -4.6644853E-08
   42.36000     -4.6031289E-08
   42.42000     -4.5369767E-08
   42.48000     -4.4686512E-08
   42.54000     -4.4013113E-08
   42.60000     -4.3379696E-08
   42.66000     -4.2808541E-08
   42.72000     -4.2310127E-08
   42.78000     -4.1882632E-08
   42.84000     -4.1514760E-08
   42.90000     -4.1190777E-08
   42.96000     -4.0896090E-08
   43.02000     -4.0621561E-08
   43.08000     -4.0365279E-08
   43.14000     -4.0131358E-08
   43.20000     -3.9926288E-08
   43.26000     -3.9754372E-08
   43.32000     -3.9614143E-08
   43.38000     -3.9497273E-08
   43.44000     -3.9390581E-08
   43.50000     -3.9280344E-08
   43.56000     -3.9157175E-08
   43.62000     -3.9019309E-08
   43.68000     -3.8872805E-08
   43.74000     -3.8728327E-08
   43.80000     -3.8595491E-08
   43.86000     -3.8476880E-08
   43.92000     -3.8364060E-08
   43.98000     -3.8237541E-08
   44.04000     -3.8071391E-08
   44.10000     -3.7841794E-08
   44.16000     -3.7537117E-08
   44.22000     -3.7166270E-08
   44.28000     -3.6761865E-08
   44.34000     -3.6376065E-08
   44.40000     -3.6069352E-08
   44.46000     -3.5894949E-08
   44.52000     -3.5883769E-08
   44.58000     -3.6035090E-08
   44.64000     -3.6316546E-08
   44.70000     -3.6673988E-08
   44.76000     -3.7048324E-08
   44.82000     -3.7393832E-08
   44.88000     -3.7692171E-08
   44.94000     -3.7957445E-08
   45.00000     -3.8230969E-08
   45.06000     -3.8567528E-08
   45.12000     -3.9017689E-08
   45.18000     -3.9611564E-08
   45.24000     -4.0349168E-08
   45.30000     -4.1200163E-08
   45.36000     -4.2113193E-08
   45.42000     -4.3031719E-08
   45.48000     -4.3911534E-08
   45.54000     -4.4734087E-08
   45.60000     -4.5511200E-08
   45.66000     -4.6279389E-08
   45.72000     -4.7085535E-08
   45.78000     -4.7968680E-08
   45.84000     -4.8944191E-08
   45.90000     -4.9995684E-08
   45.96000     -5.1077372E-08
   46.02000     -5.2125905E-08
   46.08000     -5.3077596E-08
   46.14000     -5.3885341E-08
   46.20000     -5.4530080E-08
   46.26000     -5.5023694E-08
   46.32000     -5.5403035E-08
   46.38000     -5.5717379E-08
   46.44000     -5.6013285E-08
   46.50000     -5.6321174E-08
   46.56000     -5.6647423E-08
   46.62000     -5.6974013E-08
   46.68000     -5.7265780E-08
   46.74000     -5.7482954E-08
   46.80000     -5.7595095E-08
   46.86000     -5.7591837E-08
   46.92000     -5.7486979E-08
   46.98000     -5.7314740E-08
   47.04000     -5.7119696E-08
   47.10000     -5.6944238E-08
   47.16000     -5.6817893E-08
   47.22000     -5.6751766E-08
   47.28000     -5.6739090E-08
   47.34000     -5.6760687E-08
   47.40000     -5.6792679E-08
   47.46000     -5.6814127E-08
   47.52000     -5.6812929E-08
   47.58000     -5.6789791E-08
   47.64000     -5.6760623E-08
   47.70000     -5.6757834E-08
   47.76000     -5.6830803E-08
   47.82000     -5.7045359E-08
   47.88000     -5.7482293E-08
   47.94000     -5.8235010E-08
   48.00000     -5.9406783E-08
   48.06000     -6.1108338E-08
   48.12000     -6.3456355E-08
   48.18000     -6.6574032E-08
   48.24000     -7.0594169E-08
   48.30000     -7.5665625E-08
   48.36000     -8.1962845E-08
   48.42000     -8.9697515E-08
   48.48000     -9.9130517E-08
   48.54000     -1.1058203E-07
   48.60000     -1.2443827E-07
   48.66000     -1.4115462E-07
   48.72000     -1.6125617E-07
   48.78000     -1.8533810E-07
   48.84000     -2.1406785E-07
   48.90000     -2.4819141E-07
   48.96000     -2.8854484E-07
   49.02000     -3.3607083E-07
   49.08000     -3.9183948E-07
   49.14000     -4.5707171E-07
   49.20000     -5.3316154E-07
   49.26000     -6.2169636E-07
   49.32000     -7.2447250E-07
   49.38000     -8.4350927E-07
   49.44000     -9.8106250E-07
   49.50000     -1.1396428E-06
   49.56000     -1.3220413E-06
   49.62000     -1.5313612E-06
   49.68000     -1.7710543E-06
   49.74000     -2.0449543E-06
   49.80000     -2.3573075E-06
   49.86000     -2.7127974E-06
   49.92000     -3.1165644E-06
   49.98000     -3.5742278E-06
   50.04000     -4.0919081E-06
   50.10000     -4.6762543E-06
   50.16000     -5.3344743E-06
   50.22000     -6.0743646E-06
   50.28000     -6.9043390E-06
   50.34000     -7.8334524E-06
   50.40000     -8.8714196E-06
   50.46000     -1.0028630E-05
   50.52000     -1.1316144E-05
   50.58000     -1.2745692E-05
   50.64000     -1.4329658E-05
   50.70000     -1.6081061E-05
   50.76000     -1.8013539E-05
   50.82000     -2.0141320E-05
   50.88000     -2.2479209E-05
   50.94000     -2.5042540E-05
   51.00000     -2.7847134E-05
   51.06000     -3.0909232E-05
   51.12000     -3.4245426E-05
   51.18000     -3.7872553E-05
   51.24000     -4.1807591E-05
   51.30000     -4.6067544E-05
   51.36000     -5.0669325E-05
   51.42000     -5.5629636E-05
   51.48000     -6.0964801E-05
   51.54000     -6.6690671E-05
   51.60000     -7.2822426E-05
   51.66000     -7.9374469E-05
   51.72000     -8.6360174E-05
   51.78000     -9.3791736E-05
   51.84000     -1.0167997E-04
   51.90000     -1.1003410E-04
   51.96000     -1.1886154E-04
   52.02000     -1.2816783E-04
   52.08000     -1.3795630E-04
   52.14000     -1.4822805E-04
   52.20000     -1.5898171E-04
   52.26000     -1.7021337E-04
   52.32000     -1.8191636E-04
   52.38000     -1.9408112E-04
   52.44000     -2.0669519E-04
   52.50000     -2.1974299E-04
   52.56000     -2.3320591E-04
   52.62000     -2.4706215E-04
   52.68000     -2.6128680E-04
   52.74000     -2.7585178E-04
   52.80000     -2.9072605E-04
   52.86000     -3.0587550E-04
   52.92000     -3.2126324E-04
   52.98000     -3.3684983E-04
   53.04000     -3.5259334E-04
   53.10000     -3.6844966E-04
   53.16000     -3.8437269E-04
   53.22000     -4.0031457E-04
   53.28000     -4.1622616E-04
   53.34000     -4.3205728E-04
   53.40000     -4.4775711E-04
   53.46000     -4.6327448E-04
   53.52000     -4.7855842E-04
   53.58000     -4.9355853E-04
   53.64000     -5.0822523E-04
   53.70000     -5.2251073E-04
   53.76000     -5.3636875E-04
   53.82000     -5.4975547E-04
   53.88000     -5.6262972E-04
   53.94000     -5.7495339E-04
   54.00000     -5.8669178E-04
   54.06000     -5.9781404E-04
   54.12000     -6.0829334E-04
   54.18000     -6.1810727E-04
   54.24000     -6.2723790E-04
   54.30000     -6.3567236E-04
   54.36000     -6.4340257E-04
   54.42000     -6.5042567E-04
   54.48000     -6.5674388E-04
   54.54000     -6.6236430E-04
   54.60000     -6.6729920E-04
   54.66000     -6.7156588E-04
   54.72000     -6.7518622E-04
   54.78000     -6.7818689E-04
   54.84000     -6.8059890E-04
   54.90000     -6.8245723E-04
   54.96000     -6.8380055E-04
   55.02000     -6.8467041E-04
   55.08000     -6.8511139E-04
   55.14000     -6.8517006E-04
   55.20000     -6.8489515E-04
   55.26000     -6.8433647E-04
   55.32000     -6.8354479E-04
   55.38000     -6.8257097E-04
   55.44000     -6.8146538E-04
   55.50000     -6.8027765E-04
   55.56000     -6.7905575E-04