  -2.400000      0.0000000E+00
  -2.340000      0.0000000E+00
  -2.280000      0.0000000E+00
  -2.220000      0.0000000E+00
  -2.160000      0.0000000E+00
  -2.100000      0.0000000E+00
  -2.040000      0.0000000E+00
  -1.980000      0.0000000E+00
  -1.920000     -2.4539598E-26
  -1.860000     -3.6994253E-25
  -1.800000     -2.5366550E-24
  -1.740000     -1.0345470E-23
  -1.680000     -2.6130847E-23
  -1.620000     -3.1055046E-23
  -1.560000      5.2067231E-23
  -1.500000      3.6737949E-22
  -1.440000      9.8967576E-22
  -1.380000      1.5440827E-21
  -1.320000      7.5274148E-22
  -1.260000     -3.4042481E-21
  -1.200000     -1.1937263E-20
  -1.140000     -2.1348540E-20
  -1.080000     -2.0631915E-20
  -1.020000      6.2360007E-21
 -0.9600000      6.7618920E-20
 -0.9000000      1.4352287E-19
 -0.8400000      1.7161658E-19
 -0.7800000      6.4133387E-20
 -0.7200000     -2.2831079E-19
 -0.6600000     -6.2420972E-19
 -0.6000000     -8.5644626E-19
 -0.5400000     -5.4629774E-19
 -0.4800000      5.4745129E-19
 -0.4200000      2.1844415E-18
 -0.3600000      3.4366195E-18
 -0.3000000      2.9113627E-18
 -0.2400000     -4.5920177E-19
 -0.1800000     -6.3028433E-18
 -0.1200000     -1.2033561E-17
 -5.9999999E-02 -1.3249838E-17
  0.0000000E+00 -5.7518314E-18
  5.9999999E-02  1.1312729E-17
  0.1200000      3.2751985E-17
  0.1800000      4.7194740E-17
  0.2400000      4.0976658E-17
  0.3000000      5.5783824E-18
  0.3600000     -5.4344972E-17
  0.4200000     -1.1700548E-16
  0.4800000     -1.4782247E-16
  0.5400000     -1.1317835E-16
  0.6000000      2.3874855E-19
  0.6600000      1.6898383E-16
  0.7200000      3.2948383E-16
  0.7800000      3.9479862E-16
  0.8400000      2.9056007E-16
  0.9000000     -1.3035462E-18
  0.9600000     -4.1086069E-16
   1.020000     -7.8162083E-16
   1.080000     -9.1713911E-16
   1.140000     -6.6583968E-16
   1.200000     -1.4322937E-17
   1.260000      8.5657747E-16
   1.320000      1.5964311E-15
   1.380000      1.8070321E-15
   1.440000      1.2311846E-15
   1.500000     -6.9734284E-17
   1.560000     -1.6497546E-15
   1.620000     -2.7973900E-15
   1.680000     -2.8346152E-15
   1.740000     -1.4868862E-15
   1.800000      8.6050580E-16
   1.860000      3.1974293E-15
   1.920000      4.2792236E-15
   1.980000      3.2496478E-15
   2.040000      2.0436982E-16
   2.100000     -3.6410063E-15
   2.160000     -6.3699546E-15
   2.220000     -6.2661803E-15
   2.280000     -2.7855331E-15
   2.340000      2.9429082E-15
   2.400000      8.4594070E-15
   2.460000      1.1102304E-14
   2.520000      9.3867234E-15
   2.580000      3.8614326E-15
   2.640000     -3.1221719E-15
   2.700000     -8.6971708E-15
   2.760000     -1.1118177E-14
   2.820000     -1.0721098E-14
   2.880000     -9.4888832E-15
   2.940000     -9.3561320E-15
   3.000000     -1.0299872E-14
   3.060000     -9.6273595E-15
   3.120000     -3.3213511E-15
   3.180000      1.0976771E-14
   3.240000      3.1055362E-14
   3.300000      4.9422228E-14
   3.360000      5.5993269E-14
   3.420000      4.3408619E-14
   3.480000      1.2261381E-14
   3.540000     -2.7126308E-14
   3.600000     -5.8395298E-14
   3.660000     -6.7396643E-14
   3.720000     -5.1045959E-14
   3.780000     -2.1534278E-14
   3.840000     -2.2013370E-15
   3.900000     -1.5456816E-14
   3.960000     -6.7850192E-14
   4.020000     -1.4017678E-13
   4.080000     -1.8944903E-13
   4.140000     -1.6456798E-13
   4.200000     -3.0660272E-14
   4.260000      2.0833557E-13
   4.320000      5.0009329E-13
   4.380000      7.5388594E-13
   4.440000      8.6820140E-13
   4.500000      7.6573036E-13
   4.560000      4.2158947E-13
   4.620000     -1.2653616E-13
   4.680000     -7.8920323E-13
   4.740000     -1.4499666E-12
   4.800000     -1.9910339E-12
   4.860000     -2.3080841E-12
   4.920000     -2.3108074E-12
   4.980000     -1.9165758E-12
   5.040000     -1.0516400E-12
   5.100000      3.2751983E-13
   5.160000      2.1910518E-12
   5.220000      4.3846368E-12
   5.280000      6.5959131E-12
   5.340000      8.3644957E-12
   5.400000      9.1484927E-12
   5.460000      8.4377479E-12
   5.520000      5.8817773E-12
   5.580000      1.3893621E-12
   5.640000     -4.8360088E-12
   5.700000     -1.2336738E-11
   5.760000     -2.0498712E-11
   5.820000     -2.8663478E-11
   5.880000     -3.6208724E-11
   5.940000     -4.2570281E-11
   6.000000     -4.7213396E-11
   6.060000     -4.9593694E-11
   6.120000     -4.9161376E-11
   6.180000     -4.5446237E-11
   6.240000     -3.8221069E-11
   6.300000     -2.7696264E-11
   6.360000     -1.4670673E-11
   6.420000     -5.6994318E-13
   6.480000      1.2657479E-11
   6.540000      2.2764348E-11
   6.600000      2.7485774E-11
   6.660000      2.4806324E-11
   6.720000      1.3166867E-11
   6.780000     -8.3959419E-12
   6.840000     -4.0155473E-11
   6.900000     -8.1625248E-11
   6.960000     -1.3151950E-10
   7.020000     -1.8778232E-10
   7.080000     -2.4773456E-10
   7.140000     -3.0835881E-10
   7.200000     -3.6668735E-10
   7.260000     -4.2020232E-10
   7.320000     -4.6713827E-10
   7.380000     -5.0660298E-10
   7.440000     -5.3849980E-10
   7.500000     -5.6330485E-10
   7.560000     -5.8178917E-10
   7.620000     -5.9477506E-10
   7.680000     -6.0297078E-10
   7.740000     -6.0688504E-10
   7.800000     -6.0678890E-10
   7.860000     -6.0270072E-10
   7.920000     -5.9438665E-10
   7.980000     -5.8139488E-10
   8.040000     -5.6314681E-10
   8.100000     -5.3909155E-10
   8.160000     -5.0890286E-10
   8.220000     -4.7267301E-10
   8.280000     -4.3104570E-10
   8.340000     -3.8524256E-10
   8.400000     -3.3696435E-10
   8.460000     -2.8818839E-10
   8.520000     -2.4092051E-10
   8.580000     -1.9697891E-10
   8.640000     -1.5787656E-10
   8.700000     -1.2482668E-10
   8.760000     -9.8839728E-11
   8.820000     -8.0836261E-11
   8.880000     -7.1694269E-11
   8.940000     -7.2188873E-11
   9.000000     -8.2843760E-11
   9.060000     -1.0376420E-10
   9.120000     -1.3453000E-10
   9.180000     -1.7419279E-10
   9.240000     -2.2137009E-10
   9.300000     -2.7439409E-10
   9.360000     -3.3147418E-10
   9.420000     -3.9085912E-10
   9.480000     -4.5100718E-10
   9.540000     -5.1076809E-10
   9.600000     -5.6955513E-10
   9.660000     -6.2745897E-10
   9.720000     -6.8526074E-10
   9.780000     -7.4433709E-10
   9.840000     -8.0649321E-10
   9.900000     -8.7377539E-10
   9.960000     -9.4828678E-10
   10.02000     -1.0319852E-09
   10.08000     -1.1264170E-09
   10.14000     -1.2323759E-09
   10.20000     -1.3495481E-09
   10.26000     -1.4762792E-09
   10.32000     -1.6096057E-09
   10.38000     -1.7456112E-09
   10.44000     -1.8800403E-09
   10.50000     -2.0089790E-09
   10.56000     -2.1293776E-09
   10.62000     -2.2392745E-09
   10.68000     -2.3377031E-09
   10.74000     -2.4244142E-09
   10.80000     -2.4995968E-09
   10.86000     -2.5637399E-09
   10.92000     -2.6176545E-09
   10.98000     -2.6625513E-09
   11.04000     -2.7000047E-09
   11.10000     -2.7316831E-09
   11.16000     -2.7588518E-09
   11.22000     -2.7818197E-09
   11.28000     -2.7995939E-09
   11.34000     -2.8099860E-09
   11.40000     -2.8102272E-09
   11.46000     -2.7979343E-09
   11.52000     -2.7720768E-09
   11.58000     -2.7335689E-09
   11.64000     -2.6852682E-09
   11.70000     -2.6314417E-09
   11.76000     -2.5769780E-09
   11.82000     -2.5267173E-09
   11.88000     -2.4851341E-09
   11.94000     -2.4563587E-09
   12.00000     -2.4443134E-09
   12.06000     -2.4526883E-09
   12.12000     -2.4846267E-09
   12.18000     -2.5422058E-09
   12.24000     -2.6259721E-09
   12.30000     -2.7347606E-09
   12.36000     -2.8658544E-09
   12.42000     -3.0153191E-09
   12.48000     -3.1782532E-09
   12.54000     -3.3487764E-09
   12.60000     -3.5198220E-09
   12.66000     -3.6830068E-09
   12.72000     -3.8288901E-09
   12.78000     -3.9477572E-09
   12.84000     -4.0307344E-09
   12.90000     -4.0707815E-09
   12.96000     -4.0630828E-09
   13.02000     -4.0046237E-09
   13.08000     -3.8931565E-09
   13.14000     -3.7261016E-09
   13.20000     -3.4999827E-09
   13.26000     -3.2106799E-09
   13.32000     -2.8542866E-09
   13.38000     -2.4279623E-09
   13.44000     -1.9301396E-09
   13.50000     -1.3598599E-09
   13.56000     -7.1565304E-10
   13.62000      5.1367309E-12
   13.68000      8.0566942E-10
   13.74000      1.6872004E-09
   13.80000      2.6454148E-09
   13.86000      3.6666570E-09
   13.92000      4.7253823E-09
   13.98000      5.7837211E-09
   14.04000      6.7932877E-09
   14.10000      7.6986728E-09
   14.16000      8.4418135E-09
   14.22000      8.9665848E-09
   14.28000      9.2233652E-09
   14.34000      9.1735703E-09
   14.40000      8.7940899E-09
   14.46000      8.0812637E-09
   14.52000      7.0537056E-09
   14.58000      5.7532206E-09
   14.64000      4.2432955E-09
   14.70000      2.6050677E-09
   14.76000      9.3109298E-10
   14.82000     -6.8246159E-10
   14.88000     -2.1444611E-09
   14.94000     -3.3774181E-09
   15.00000     -4.3251385E-09
   15.06000     -4.9583706E-09
   15.12000     -5.2775437E-09
   15.18000     -5.3120250E-09
   15.24000     -5.1159255E-09
   15.30000     -4.7611732E-09
   15.36000     -4.3290722E-09
   15.42000     -3.9017425E-09
   15.48000     -3.5546137E-09
   15.54000     -3.3505991E-09
   15.60000     -3.3360199E-09
   15.66000     -3.5379299E-09
   15.72000     -3.9624588E-09
   15.78000     -4.5940736E-09
   15.84000     -5.3961413E-09
   15.90000     -6.3134817E-09
   15.96000     -7.2775306E-09
   16.02000     -8.2141067E-09
   16.08000     -9.0528491E-09
   16.14000     -9.7365636E-09
   16.20000     -1.0228399E-08
   16.26000     -1.0515271E-08
   16.32000     -1.0607100E-08
   16.38000     -1.0532675E-08
   16.44000     -1.0333912E-08
   16.50000     -1.0060324E-08
   16.56000     -9.7649604E-09
   16.62000     -9.5019645E-09
   16.68000     -9.3250598E-09
   16.74000     -9.2857713E-09
   16.80000     -9.4304280E-09
   16.86000     -9.7956425E-09
   16.92000     -1.0402887E-08
   16.98000     -1.1253501E-08
   17.04000     -1.2325884E-08
   17.10000     -1.3576289E-08
   17.16000     -1.4943796E-08
   17.22000     -1.6358713E-08
   17.28000     -1.7752468E-08
   17.34000     -1.9066462E-08
   17.40000     -2.0257717E-08
   17.46000     -2.1300407E-08
   17.52000     -2.2183917E-08
   17.58000     -2.2909237E-08
   17.64000     -2.3485660E-08
   17.70000     -2.3929056E-08
   17.76000     -2.4261640E-08
   17.82000     -2.4512069E-08
   17.88000     -2.4714474E-08
   17.94000     -2.4905372E-08
   18.00000     -2.5118499E-08
   18.06000     -2.5378595E-08
   18.12000     -2.5695837E-08
   18.18000     -2.6062770E-08
   18.24000     -2.6455064E-08
   18.30000     -2.6836535E-08
   18.36000     -2.7167440E-08
   18.42000     -2.7413817E-08
   18.48000     -2.7554877E-08
   18.54000     -2.7585839E-08
   18.60000     -2.7515201E-08
   18.66000     -2.7357745E-08
   18.72000     -2.7126529E-08
   18.78000     -2.6827568E-08
   18.84000     -2.6459604E-08
   18.90000     -2.6018782E-08
   18.96000     -2.5505472E-08
   19.02000     -2.4929490E-08
   19.08000     -2.4310745E-08
   19.14000     -2.3674712E-08
   19.20000     -2.3044558E-08
   19.26000     -2.2433227E-08
   19.32000     -2.1838570E-08
   19.38000     -2.1243290E-08
   19.44000     -2.0619732E-08
   19.50000     -1.9938025E-08
   19.56000     -1.9175330E-08
   19.62000     -1.8323714E-08
   19.68000     -1.7394411E-08
   19.74000     -1.6417086E-08
   19.80000     -1.5434063E-08
   19.86000     -1.4491216E-08
   19.92000     -1.3628596E-08
   19.98000     -1.2874169E-08
   20.04000     -1.2242785E-08
   20.10000     -1.1740109E-08
   20.16000     -1.1368819E-08
   20.22000     -1.1133207E-08
   20.28000     -1.1039224E-08
   20.34000     -1.1089386E-08
   20.40000     -1.1274881E-08
   20.46000     -1.1568854E-08
   20.52000     -1.1924775E-08
   20.58000     -1.2281665E-08
   20.64000     -1.2575213E-08
   20.70000     -1.2751320E-08
   20.76000     -1.2777579E-08
   20.82000     -1.2648817E-08
   20.88000     -1.2384889E-08
   20.94000     -1.2021618E-08
   21.00000     -1.1598235E-08
   21.06000     -1.1145981E-08
   21.12000     -1.0682092E-08
   21.18000     -1.0211221E-08
   21.24000     -9.7332196E-09
   21.30000     -9.2533403E-09
   21.36000     -8.7897423E-09
   21.42000     -8.3742933E-09
   21.48000     -8.0457037E-09
   21.54000     -7.8376159E-09
   21.60000     -7.7666682E-09
   21.66000     -7.8257534E-09
   21.72000     -7.9854336E-09
   21.78000     -8.2031475E-09
   21.84000     -8.4367144E-09
   21.90000     -8.6571506E-09
   21.96000     -8.8563672E-09
   22.02000     -9.0474437E-09
   22.08000     -9.2579757E-09
   22.14000     -9.5193711E-09
   22.20000     -9.8561870E-09
   22.26000     -1.0279330E-08
   22.32000     -1.0785260E-08
   22.38000     -1.1360862E-08
   22.44000     -1.1991267E-08
   22.50000     -1.2666603E-08
   22.56000     -1.3384151E-08
   22.62000     -1.4144534E-08
   22.68000     -1.4943653E-08
   22.74000     -1.5764520E-08
   22.80000     -1.6573754E-08
   22.86000     -1.7325796E-08
   22.92000     -1.7974449E-08
   22.98000     -1.8487778E-08
   23.04000     -1.8860375E-08
   23.10000     -1.9117477E-08
   23.16000     -1.9308450E-08
   23.22000     -1.9491358E-08
   23.28000     -1.9714141E-08
   23.34000     -1.9999476E-08
   23.40000     -2.0339231E-08
   23.46000     -2.0700655E-08
   23.52000     -2.1041719E-08
   23.58000     -2.1329170E-08
   23.64000     -2.1551639E-08
   23.70000     -2.1722023E-08
   23.76000     -2.1867967E-08
   23.82000     -2.2014440E-08
   23.88000     -2.2166031E-08
   23.94000     -2.2297064E-08
   24.00000     -2.2354449E-08
   24.06000     -2.2273076E-08
   24.12000     -2.1998241E-08
   24.18000     -2.1506693E-08
   24.24000     -2.0818256E-08
   24.30000     -1.9993529E-08
   24.36000     -1.9118170E-08
   24.42000     -1.8279000E-08
   24.48000     -1.7539849E-08
   24.54000     -1.6924995E-08
   24.60000     -1.6415315E-08
   24.66000     -1.5958053E-08
   24.72000     -1.5486588E-08
   24.78000     -1.4943465E-08
   24.84000     -1.4298958E-08
   24.90000     -1.3559246E-08
   24.96000     -1.2762081E-08
   25.02000     -1.1962167E-08
   25.08000     -1.1212021E-08
   25.14000     -1.0545184E-08
   25.20000     -9.9672883E-09
   25.26000     -9.4571524E-09
   25.32000     -8.9763930E-09
   25.38000     -8.4833554E-09
   25.44000     -7.9463458E-09
   25.50000     -7.3521882E-09
   25.56000     -6.7082984E-09
   25.62000     -6.0387566E-09
   25.68000     -5.3765055E-09
   25.74000     -4.7544964E-09
   25.80000     -4.1982968E-09
   25.86000     -3.7218160E-09
   25.92000     -3.3266883E-09
   25.98000     -3.0048743E-09
   26.04000     -2.7434071E-09
   26.10000     -2.5299538E-09
   26.16000     -2.3579394E-09
   26.22000     -2.2301336E-09
   26.28000     -2.1598223E-09
   26.34000     -2.1689239E-09
   26.40000     -2.2829192E-09
   26.46000     -2.5233240E-09
   26.52000     -2.8995712E-09
   26.58000     -3.4030834E-09
   26.64000     -4.0063979E-09
   26.70000     -4.6690185E-09
   26.76000     -5.3492997E-09
   26.82000     -6.0190302E-09
   26.88000     -6.6755157E-09
   26.94000     -7.3460851E-09
   27.00000     -8.0821394E-09
   27.06000     -8.9436192E-09
   27.12000     -9.9785709E-09
   27.18000     -1.1204797E-08
   27.24000     -1.2600387E-08
   27.30000     -1.4107163E-08
   27.36000     -1.5646657E-08
   27.42000     -1.7143819E-08
   27.48000     -1.8550743E-08
   27.54000     -1.9862492E-08
   27.60000     -2.1119520E-08
   27.66000     -2.2395650E-08
   27.72000     -2.3775328E-08
   27.78000     -2.5327475E-08
   27.84000     -2.7084294E-08
   27.90000     -2.9031725E-08
   27.96000     -3.1114180E-08
   28.02000     -3.3251464E-08
   28.08000     -3.5361705E-08
   28.14000     -3.7382353E-08
   28.20000     -3.9282305E-08
   28.26000     -4.1061615E-08
   28.32000     -4.2739849E-08
   28.38000     -4.4338254E-08
   28.44000     -4.5862947E-08
   28.50000     -4.7295639E-08
   28.56000     -4.8595137E-08
   28.62000     -4.9708667E-08
   28.68000     -5.0588174E-08
   28.74000     -5.1205191E-08
   28.80000     -5.1558825E-08
   28.86000     -5.1674402E-08
   28.92000     -5.1594011E-08
   28.98000     -5.1362882E-08
   29.04000     -5.1016482E-08
   29.10000     -5.0572154E-08
   29.16000     -5.0027126E-08
   29.22000     -4.9362530E-08
   29.28000     -4.8551605E-08
   29.34000     -4.7569614E-08
   29.40000     -4.6402938E-08
   29.46000     -4.5054986E-08
   29.52000     -4.3547196E-08
   29.58000     -4.1914276E-08
   29.64000     -4.0194433E-08
   29.70000     -3.8417085E-08
   29.76000     -3.6591945E-08
   29.82000     -3.4703476E-08
   29.88000     -3.2713338E-08
   29.94000     -3.0570728E-08
   30.00000     -2.8227682E-08
   30.06000     -2.5654389E-08
   30.12000     -2.2849409E-08
   30.18000     -1.9841384E-08
   30.24000     -1.6681618E-08
   30.30000     -1.3429829E-08
   30.36000     -1.0137550E-08
   30.42000     -6.8343171E-09
   30.48000     -3.5211876E-09
   30.54000     -1.7409968E-10
   30.60000      3.2431833E-09
   30.66000      6.7598283E-09
   30.72000      1.0378166E-08
   30.78000      1.4060139E-08
   30.84000      1.7725405E-08
   30.90000      2.1263082E-08
   30.96000      2.4554152E-08
   31.02000      2.7497398E-08
   31.08000      3.0029625E-08
   31.14000      3.2132750E-08
   31.20000      3.3825046E-08
   31.26000      3.5140111E-08
   31.32000      3.6101941E-08
   31.38000      3.6706041E-08
   31.44000      3.6913985E-08
   31.50000      3.6663319E-08
   31.56000      3.5888856E-08
   31.62000      3.4547035E-08
   31.68000      3.2634581E-08
   31.74000      3.0195007E-08
   31.80000      2.7311339E-08
   31.86000      2.4088186E-08
   31.92000      2.0629662E-08
   31.98000      1.7020371E-08
   32.04000      1.3315084E-08
   32.10000      9.5393213E-09
   32.16000      5.6993228E-09
   32.22000      1.7968578E-09
   32.28000     -2.1567705E-09
   32.34000     -6.1323049E-09
   32.40000     -1.0081967E-08
   32.46000     -1.3945994E-08
   32.52000     -1.7663162E-08
   32.58000     -2.1181418E-08
   32.64000     -2.4465535E-08
   32.70000     -2.7500615E-08
   32.76000     -3.0291979E-08
   32.82000     -3.2863007E-08
   32.88000     -3.5252135E-08
   32.94000     -3.7509349E-08
   33.00000     -3.9691660E-08
   33.06000     -4.1856854E-08
   33.12000     -4.4055650E-08
   33.18000     -4.6323652E-08
   33.24000     -4.8675481E-08
   33.30000     -5.1103434E-08
   33.36000     -5.3581847E-08
   33.42000     -5.6076331E-08
   33.48000     -5.8554946E-08
   33.54000     -6.0997337E-08
   33.60000     -6.3398367E-08
   33.66000     -6.5764532E-08
   33.72000     -6.8104598E-08
   33.78000     -7.0418054E-08
   33.84000     -7.2686191E-08
   33.90000     -7.4869391E-08
   33.96000     -7.6912002E-08
   34.02000     -7.8752578E-08
   34.08000     -8.0335425E-08
   34.14000     -8.1618964E-08
   34.20000     -8.2578225E-08
   34.26000     -8.3201606E-08
   34.32000     -8.3484714E-08
   34.38000     -8.3425185E-08
   34.44000     -8.3021419E-08
   34.50000     -8.2275989E-08
   34.56000     -8.1201968E-08
   34.62000     -7.9828673E-08
   34.68000     -7.8203705E-08
   34.74000     -7.6389547E-08
   34.80000     -7.4455507E-08
   34.86000     -7.2467422E-08
   34.92000     -7.0478698E-08
   34.98000     -6.8525154E-08
   35.04000     -6.6624821E-08
   35.10000     -6.4781766E-08
   35.16000     -6.2991909E-08
   35.22000     -6.1248556E-08
   35.28000     -5.9546366E-08
   35.34000     -5.7883454E-08
   35.40000     -5.6262603E-08
   35.46000     -5.4692286E-08
   35.52000     -5.3187733E-08
   35.58000     -5.1771316E-08
   35.64000     -5.0470806E-08
   35.70000     -4.9314668E-08
   35.76000     -4.8324697E-08
   35.82000     -4.7507928E-08
   35.88000     -4.6850570E-08
   35.94000     -4.6316622E-08
   36.00000     -4.5852424E-08
   36.06000     -4.5396273E-08
   36.12000     -4.4890648E-08
   36.18000     -4.4293408E-08
   36.24000     -4.3585011E-08
   36.30000     -4.2769720E-08
   36.36000     -4.1870923E-08
   36.42000     -4.0922171E-08
   36.48000     -3.9956799E-08
   36.54000     -3.8999147E-08
   36.60000     -3.8060016E-08
   36.66000     -3.7137482E-08
   36.72000     -3.6222563E-08
   36.78000     -3.5307572E-08
   36.84000     -3.4394095E-08
   36.90000     -3.3497592E-08
   36.96000     -3.2646948E-08
   37.02000     -3.1879132E-08
   37.08000     -3.1230982E-08
   37.14000     -3.0731055E-08
   37.20000     -3.0394116E-08
   37.26000     -3.0219685E-08
   37.32000     -3.0194197E-08
   37.38000     -3.0295389E-08
   37.44000     -3.0497080E-08
   37.50000     -3.0773279E-08
   37.56000     -3.1101322E-08
   37.62000     -3.1464420E-08
   37.68000     -3.1853840E-08
   37.74000     -3.2270307E-08
   37.80000     -3.2723786E-08
   37.86000     -3.3230858E-08
   37.92000     -3.3809613E-08
   37.98000     -3.4473384E-08
   38.04000     -3.5225366E-08
   38.10000     -3.6056420E-08
   38.16000     -3.6947213E-08
   38.22000     -3.7874152E-08
   38.28000     -3.8817024E-08
   38.34000     -3.9765354E-08
   38.40000     -4.0720860E-08
   38.46000     -4.1694783E-08
   38.52000     -4.2700815E-08
   38.58000     -4.3746105E-08
   38.64000     -4.4823686E-08
   38.70000     -4.5909285E-08
   38.76000     -4.6964139E-08
   38.82000     -4.7943225E-08
   38.88000     -4.8806402E-08
   38.94000     -4.9528889E-08
   39.00000     -5.0107531E-08
   39.06000     -5.0560907E-08
   39.12000     -5.0923244E-08
   39.18000     -5.1234199E-08
   39.24000     -5.1527767E-08
   39.30000     -5.1823637E-08
   39.36000     -5.2123362E-08
   39.42000     -5.2412219E-08
   39.48000     -5.2666035E-08
   39.54000     -5.2860916E-08
   39.60000     -5.2983083E-08
   39.66000     -5.3035823E-08
   39.72000     -5.3041354E-08
   39.78000     -5.3036548E-08
   39.84000     -5.3063570E-08
   39.90000     -5.3158008E-08
   39.96000     -5.3338340E-08
   40.02000     -5.3600068E-08
   40.08000     -5.3916569E-08
   40.14000     -5.4246275E-08
   40.20000     -5.4543566E-08
   40.26000     -5.4769856E-08
   40.32000     -5.4901296E-08
   40.38000     -5.4931000E-08
   40.44000     -5.4865836E-08
   40.50000     -5.4719447E-08
   40.56000     -5.4504270E-08
   40.62000     -5.4225502E-08
   40.68000     -5.3878864E-08
   40.74000     -5.3452805E-08
   40.80000     -5.2934077E-08
   40.86000     -5.2314515E-08
   40.92000     -5.1596356E-08
   40.98000     -5.0794061E-08
   41.04000     -4.9931728E-08
   41.10000     -4.9036856E-08
   41.16000     -4.8132478E-08
   41.22000     -4.7230554E-08
   41.28000     -4.6328932E-08
   41.34000     -4.5413536E-08
   41.40000     -4.4465352E-08
   41.46000     -4.3470386E-08
   41.52000     -4.2429104E-08
   41.58000     -4.1361709E-08
   41.64000     -4.0306578E-08
   41.70000     -3.9311495E-08
   41.76000     -3.8420314E-08
   41.82000     -3.7659820E-08
   41.88000     -3.7031917E-08
   41.94000     -3.6514297E-08
   42.00000     -3.6069252E-08
   42.06000     -3.5656729E-08
   42.12000     -3.5246313E-08
   42.18000     -3.4823721E-08
   42.24000     -3.4390343E-08
   42.30000     -3.3957406E-08
   42.36000     -3.3538313E-08
   42.42000     -3.3142257E-08
   42.48000     -3.2770775E-08
   42.54000     -3.2417468E-08
   42.60000     -3.2070318E-08
   42.66000     -3.1716279E-08
   42.72000     -3.1347870E-08
   42.78000     -3.0970458E-08
   42.84000     -3.0607701E-08
   42.90000     -3.0301521E-08
   42.96000     -3.0104101E-08
   43.02000     -3.0062736E-08
   43.08000     -3.0202198E-08
   43.14000     -3.0511945E-08
   43.20000     -3.0944420E-08
   43.26000     -3.1426556E-08
   43.32000     -3.1880813E-08
   43.38000     -3.2247922E-08
   43.44000     -3.2502886E-08
   43.50000     -3.2658985E-08
   43.56000     -3.2759537E-08
   43.62000     -3.2861646E-08
   43.68000     -3.3018111E-08
   43.74000     -3.3263017E-08
   43.80000     -3.3604309E-08
   43.86000     -3.4024144E-08
   43.92000     -3.4486025E-08
   43.98000     -3.4946499E-08
   44.04000     -3.5368338E-08
   44.10000     -3.5731624E-08
   44.16000     -3.6039204E-08
   44.22000     -3.6314475E-08
   44.28000     -3.6592112E-08
   44.34000     -3.6905110E-08
   44.40000     -3.7273313E-08
   44.46000     -3.7698030E-08
   44.52000     -3.8164654E-08
   44.58000     -3.8651699E-08
   44.64000     -3.9141781E-08
   44.70000     -3.9629771E-08
   44.76000     -4.0124760E-08
   44.82000     -4.0645777E-08
   44.88000     -4.1213553E-08
   44.94000     -4.1842014E-08
   45.00000     -4.2532623E-08
   45.06000     -4.3273150E-08
   45.12000     -4.4040746E-08
   45.18000     -4.4807852E-08
   45.24000     -4.5549022E-08
   45.30000     -4.6246683E-08
   45.36000     -4.6894275E-08
   45.42000     -4.7496030E-08
   45.48000     -4.8063519E-08
   45.54000     -4.8610381E-08
   45.60000     -4.9147090E-08
   45.66000     -4.9677670E-08
   45.72000     -5.0199269E-08
   45.78000     -5.0704177E-08
   45.84000     -5.1182635E-08
   45.90000     -5.1624756E-08
   45.96000     -5.2020532E-08
   46.02000     -5.2358182E-08
   46.08000     -5.2622173E-08
   46.14000     -5.2792448E-08
   46.20000     -5.2845905E-08
   46.26000     -5.2760317E-08
   46.32000     -5.2520146E-08
   46.38000     -5.2122918E-08
   46.44000     -5.1584514E-08
   46.50000     -5.0941217E-08
   46.56000     -5.0246602E-08
   46.62000     -4.9562551E-08
   46.68000     -4.8945957E-08
   46.74000     -4.8435201E-08
   46.80000     -4.8041969E-08
   46.86000     -4.7752618E-08
   46.92000     -4.7539832E-08
   46.98000     -4.7380460E-08
   47.04000     -4.7272515E-08
   47.10000     -4.7244523E-08
   47.16000     -4.7354369E-08
   47.22000     -4.7679720E-08
   47.28000     -4.8305875E-08
   47.34000     -4.9317002E-08
   47.40000     -5.0794011E-08
   47.46000     -5.2818546E-08
   47.52000     -5.5480207E-08
   47.58000     -5.8884293E-08
   47.64000     -6.3158602E-08
   47.70000     -6.8459514E-08
   47.76000     -7.4977294E-08
   47.82000     -8.2939984E-08
   47.88000     -9.2615110E-08
   47.94000     -1.0430925E-07
   48.00000     -1.1836784E-07
   48.06000     -1.3517892E-07
   48.12000     -1.5518341E-07
   48.18000     -1.7889153E-07
   48.24000     -2.0690150E-07
   48.30000     -2.3991592E-07
   48.36000     -2.7875157E-07
   48.42000     -3.2434400E-07
   48.48000     -3.7775035E-07
   48.54000     -4.4015533E-07
   48.60000     -5.1288367E-07
   48.66000     -5.9741916E-07
   48.72000     -6.9542824E-07
   48.78000     -8.0878488E-07
   48.84000     -9.3959591E-07
   48.90000     -1.0902253E-06
   48.96000     -1.2633174E-06
   49.02000     -1.4618196E-06
   49.08000     -1.6890017E-06
   49.14000     -1.9484739E-06
   49.20000     -2.2442052E-06
   49.26000     -2.5805468E-06
   49.32000     -2.9622586E-06
   49.38000     -3.3945441E-06
   49.44000     -3.8830881E-06
   49.50000     -4.4340891E-06
   49.56000     -5.0542922E-06
   49.62000     -5.7510056E-06
   49.68000     -6.5321151E-06
   49.74000     -7.4060918E-06
   49.80000     -8.3819914E-06
   49.86000     -9.4694587E-06
   49.92000     -1.0678734E-05
   49.98000     -1.2020651E-05
   50.04000     -1.3506642E-05
   50.10000     -1.5148733E-05
   50.16000     -1.6959539E-05
   50.22000     -1.8952234E-05
   50.28000     -2.1140522E-05
   50.34000     -2.3538571E-05
   50.40000     -2.6160946E-05
   50.46000     -2.9022558E-05
   50.52000     -3.2138574E-05
   50.58000     -3.5524346E-05
   50.64000     -3.9195314E-05
   50.70000     -4.3166918E-05
   50.76000     -4.7454476E-05
   50.82000     -5.2073068E-05
   50.88000     -5.7037378E-05
   50.94000     -6.2361585E-05
   51.00000     -6.8059162E-05
   51.06000     -7.4142736E-05
   51.12000     -8.0623919E-05
   51.18000     -8.7513123E-05
   51.24000     -9.4819421E-05
   51.30000     -1.0255040E-04
   51.36000     -1.1071194E-04
   51.42000     -1.1930813E-04
   51.48000     -1.2834102E-04
   51.54000     -1.3781052E-04
   51.60000     -1.4771419E-04
   51.66000     -1.5804709E-04
   51.72000     -1.6880168E-04
   51.78000     -1.7996768E-04
   51.84000     -1.9153203E-04
   51.90000     -2.0347892E-04
   51.96000     -2.1578955E-04
   52.02000     -2.2844225E-04
   52.08000     -2.4141243E-04
   52.14000     -2.5467263E-04
   52.20000     -2.6819273E-04
   52.26000     -2.8193995E-04
   52.32000     -2.9587900E-04
   52.38000     -3.0997203E-04
   52.44000     -3.2417919E-04
   52.50000     -3.3845857E-04
   52.56000     -3.5276671E-04
   52.62000     -3.6705879E-04
   52.68000     -3.8128888E-04
   52.74000     -3.9541037E-04
   52.80000     -4.0937625E-04
   52.86000     -4.2313957E-04
   52.92000     -4.3665362E-04
   52.98000     -4.4987263E-04
   53.04000     -4.6275210E-04
   53.10000     -4.7524905E-04
   53.16000     -4.8732272E-04
   53.22000     -4.9893471E-04
   53.28000     -5.1004958E-04
   53.34000     -5.2063493E-04
   53.40000     -5.3066213E-04
   53.46000     -5.4010627E-04
   53.52000     -5.4894667E-04
   53.58000     -5.5716705E-04
   53.64000     -5.6475546E-04
   53.70000     -5.7170488E-04
   53.76000     -5.7801302E-04
   53.82000     -5.8368285E-04
   53.88000     -5.8872212E-04
   53.94000     -5.9314375E-04
   54.00000     -5.9696496E-04
   54.06000     -6.0020777E-04
   54.12000     -6.0289836E-04
   54.18000     -6.0506730E-04
   54.24000     -6.0674897E-04
   54.30000     -6.0798164E-04
   54.36000     -6.0880661E-04
   54.42000     -6.0926779E-04
   54.48000     -6.0941110E-04
   54.54000     -6.0928374E-04
   54.60000     -6.0893421E-04
   54.66000     -6.0841191E-04
   54.72000     -6.0776656E-04
   54.78000     -6.0704735E-04
   54.84000     -6.0630240E-04
   54.90000     -6.0557784E-04
   54.96000     -6.0491764E-04
   55.02000     -6.0436298E-04
   55.08000     -6.0395192E-04
   55.14000     -6.0371892E-04
   55.20000     -6.0369464E-04
   55.26000     -6.0390547E-04
   55.32000     -6.0437323E-04
   55.38000     -6.0511468E-04
   55.44000     -6.0614111E-04
   55.50000     -6.0745887E-04
   55.56000     -6.0906884E-04