  -2.400000      0.0000000E+00
  -2.340000      0.0000000E+00
  -2.280000      0.0000000E+00
  -2.220000      0.0000000E+00
  -2.160000      0.0000000E+00
  -2.100000      0.0000000E+00
  -2.040000      0.0000000E+00
  -1.980000      0.0000000E+00
  -1.920000     -1.4257173E-25
  -1.860000     -1.8071932E-24
  -1.800000     -1.1163239E-23
  -1.740000     -4.3341075E-23
  -1.680000     -1.1132500E-22
  -1.620000     -1.6449980E-22
  -1.560000      3.9976290E-23
  -1.500000      1.0228779E-21
  -1.440000      3.2815123E-21
  -1.380000      6.1607972E-21
  -1.320000      6.0118166E-21
  -1.260000     -4.6936086E-21
  -1.200000     -3.3804180E-20
  -1.140000     -7.8354167E-20
  -1.080000     -1.0836284E-19
  -1.020000     -5.9272473E-20
 -0.9600000      1.4345669E-19
 -0.9000000      5.1021782E-19
 -0.8400000      8.8189282E-19
 -0.7800000      8.7178540E-19
 -0.7200000     -2.0873287E-20
 -0.6600000     -2.0372774E-18
 -0.6000000     -4.6057115E-18
 -0.5400000     -5.9583114E-18
 -0.4800000     -3.4701960E-18
 -0.4200000      4.8530017E-18
 -0.3600000      1.7957792E-17
 -0.3000000      2.9652400E-17
 -0.2400000      2.8942242E-17
 -0.1800000      4.6348770E-18
 -0.1200000     -4.5959634E-17
 -5.9999999E-02 -1.0786236E-16
  0.0000000E+00 -1.4555683E-16
  5.9999999E-02 -1.1325541E-16
  0.1200000      2.0004622E-17
  0.1800000      2.3857353E-16
  0.2400000      4.5991629E-16
  0.3000000      5.4705528E-16
  0.3600000      3.6459173E-16
  0.4200000     -1.3451025E-16
  0.4800000     -8.3168778E-16
  0.5400000     -1.4297287E-15
  0.6000000     -1.5436493E-15
  0.6600000     -8.8758830E-16
  0.7200000      5.1387991E-16
  0.7800000      2.2071085E-15
  0.8400000      3.3918901E-15
  0.9000000      3.2357387E-15
  0.9600000      1.3260151E-15
   1.020000     -1.9466960E-15
   1.080000     -5.3116157E-15
   1.140000     -6.9917670E-15
   1.200000     -5.4731983E-15
   1.260000     -3.8724231E-16
   1.320000      6.9145387E-15
   1.380000      1.3471082E-14
   1.440000      1.5647047E-14
   1.500000      1.0672049E-14
   1.560000     -1.7690439E-15
   1.620000     -1.8599971E-14
   1.680000     -3.3655346E-14
   1.740000     -3.9420947E-14
   1.800000     -2.9872663E-14
   1.860000     -3.5532257E-15
   1.920000      3.4295016E-14
   1.980000      7.1693912E-14
   2.040000      9.2681972E-14
   2.100000      8.2674278E-14
   2.160000      3.5126460E-14
   2.220000     -4.2838129E-14
   2.280000     -1.2865382E-13
   2.340000     -1.8863287E-13
   2.400000     -1.8877142E-13
   2.460000     -1.0959034E-13
   2.520000      4.0304447E-14
   2.580000      2.1870186E-13
   2.640000      3.5773085E-13
   2.700000      3.8612267E-13
   2.760000      2.5994644E-13
   2.820000     -1.0130392E-14
   2.880000     -3.4908426E-13
   2.940000     -6.3485962E-13
   3.000000     -7.4158979E-13
   3.060000     -5.9418789E-13
   3.120000     -2.1024653E-13
   3.180000      2.9427735E-13
   3.240000      7.4590030E-13
   3.300000      9.8907568E-13
   3.360000      9.6295270E-13
   3.420000      7.3754067E-13
   3.480000      4.7998872E-13
   3.540000      3.5417033E-13
   3.600000      3.9634130E-13
   3.660000      4.3607135E-13
   3.720000      1.2651502E-13
   3.780000     -8.9458730E-13
   3.840000     -2.7589552E-12
   3.900000     -5.1446876E-12
   3.960000     -7.2064043E-12
   4.020000     -7.7499526E-12
   4.080000     -5.6473285E-12
   4.140000     -3.6980439E-13
   4.200000      7.5692039E-12
   4.260000      1.6477071E-11
   4.320000      2.3776068E-11
   4.380000      2.6692308E-11
   4.440000      2.3134267E-11
   4.500000      1.2455399E-11
   4.560000     -4.1830372E-12
   4.620000     -2.3988552E-11
   4.680000     -4.3183200E-11
   4.740000     -5.7865848E-11
   4.800000     -6.4770390E-11
   4.860000     -6.1682874E-11
   4.920000     -4.7479555E-11
   4.980000     -2.1965003E-11
   5.040000      1.4191786E-11
   5.100000      5.9180286E-11
   5.160000      1.0941032E-10
   5.220000      1.5878653E-10
   5.280000      1.9838481E-10
   5.340000      2.1702640E-10
   5.400000      2.0299362E-10
   5.460000      1.4669463E-10
   5.520000      4.3634003E-11
   5.580000     -1.0321490E-10
   5.640000     -2.8247191E-10
   5.700000     -4.7527471E-10
   5.760000     -6.5789008E-10
   5.820000     -8.0527257E-10
   5.880000     -8.9454272E-10
   5.940000     -9.0747265E-10
   6.000000     -8.3153839E-10
   6.060000     -6.5971945E-10
   6.120000     -3.8972200E-10
   6.180000     -2.3444028E-11
   6.240000      4.3278017E-10
   6.300000      9.6719188E-10
   6.360000      1.5615083E-09
   6.420000      2.1906648E-09
   6.480000      2.8242113E-09
   6.540000      3.4296050E-09
   6.600000      3.9768508E-09
   6.660000      4.4432920E-09
   6.720000      4.8171218E-09
   6.780000      5.0985323E-09
   6.840000      5.2981894E-09
   6.900000      5.4336544E-09
   6.960000      5.5250404E-09
   7.020000      5.5913456E-09
   7.080000      5.6484670E-09
   7.140000      5.7090768E-09
   7.200000      5.7836669E-09
   7.260000      5.8815885E-09
   7.320000      6.0109744E-09
   7.380000      6.1770780E-09
   7.440000      6.3794787E-09
   7.500000      6.6093562E-09
   7.560000      6.8483255E-09
   7.620000      7.0698944E-09
   7.680000      7.2436648E-09
   7.740000      7.3412849E-09
   7.800000      7.3423432E-09
   7.860000      7.2382620E-09
   7.920000      7.0328752E-09
   7.980000      6.7395662E-09
   8.040000      6.3760948E-09
   8.100000      5.9590901E-09
   8.160000      5.5002314E-09
   8.220000      5.0053499E-09
   8.280000      4.4764490E-09
   8.340000      3.9153587E-09
   8.400000      3.3271230E-09
   8.460000      2.7213858E-09
   8.520000      2.1110671E-09
   8.580000      1.5089362E-09
   8.640000      9.2379582E-10
   8.700000      3.5830275E-10
   8.760000     -1.9018212E-10
   8.820000     -7.2565154E-10
   8.880000     -1.2478284E-09
   8.940000     -1.7472103E-09
   9.000000     -2.2030930E-09
   9.060000     -2.5858313E-09
   9.120000     -2.8629341E-09
   9.180000     -3.0070202E-09
   9.240000     -3.0028366E-09
   9.300000     -2.8508353E-09
   9.360000     -2.5661091E-09
   9.420000     -2.1732611E-09
   9.480000     -1.6993172E-09
   9.540000     -1.1674105E-09
   9.600000     -5.9349120E-10
   9.660000      1.3104839E-11
   9.720000      6.4608668E-10
   9.780000      1.2977668E-09
   9.840000      1.9561568E-09
   9.900000      2.6051938E-09
   9.960000      3.2281491E-09
   10.02000      3.8126924E-09
   10.08000      4.3551909E-09
   10.14000      4.8620570E-09
   10.20000      5.3472098E-09
   10.26000      5.8264580E-09
   10.32000      6.3110623E-09
   10.38000      6.8032113E-09
   10.44000      7.2954314E-09
   10.50000      7.7743536E-09
   10.56000      8.2274259E-09
   10.62000      8.6498835E-09
   10.68000      9.0491135E-09
   10.74000      9.4444905E-09
   10.80000      9.8624255E-09
   10.86000      1.0328184E-08
   10.92000      1.0857168E-08
   10.98000      1.1448601E-08
   11.04000      1.2083651E-08
   11.10000      1.2728571E-08
   11.16000      1.3341686E-08
   11.22000      1.3881934E-08
   11.28000      1.4316286E-08
   11.34000      1.4624095E-08
   11.40000      1.4797719E-08
   11.46000      1.4840261E-08
   11.52000      1.4762224E-08
   11.58000      1.4578964E-08
   11.64000      1.4310053E-08
   11.70000      1.3980326E-08
   11.76000      1.3621259E-08
   11.82000      1.3270866E-08
   11.88000      1.2970817E-08
   11.94000      1.2760699E-08
   12.00000      1.2670817E-08
   12.06000      1.2715891E-08
   12.12000      1.2892095E-08
   12.18000      1.3178894E-08
   12.24000      1.3545513E-08
   12.30000      1.3960067E-08
   12.36000      1.4398298E-08
   12.42000      1.4848724E-08
   12.48000      1.5312146E-08
   12.54000      1.5795447E-08
   12.60000      1.6301746E-08
   12.66000      1.6820522E-08
   12.72000      1.7321621E-08
   12.78000      1.7755852E-08
   12.84000      1.8062684E-08
   12.90000      1.8182964E-08
   12.96000      1.8072660E-08
   13.02000      1.7713166E-08
   13.08000      1.7114772E-08
   13.14000      1.6312271E-08
   13.20000      1.5354406E-08
   13.26000      1.4290955E-08
   13.32000      1.3161882E-08
   13.38000      1.1991954E-08
   13.44000      1.0791954E-08
   13.50000      9.5650012E-09
   13.56000      8.3146414E-09
   13.62000      7.0510056E-09
   13.68000      5.7925771E-09
   13.74000      4.5632849E-09
   13.80000      3.3867544E-09
   13.86000      2.2806255E-09
   13.92000      1.2535112E-09
   13.98000      3.0567421E-10
   14.04000     -5.6727745E-10
   14.10000     -1.3695959E-09
   14.16000     -2.1015836E-09
   14.22000     -2.7580720E-09
   14.28000     -3.3293119E-09
   14.34000     -3.8034238E-09
   14.40000     -4.1692125E-09
   14.46000     -4.4183475E-09
   14.52000     -4.5464481E-09
   14.58000     -4.5531459E-09
   14.64000     -4.4415294E-09
   14.70000     -4.2174855E-09
   14.76000     -3.8893582E-09
   14.82000     -3.4680643E-09
   14.88000     -2.9674658E-09
   14.94000     -2.4044617E-09
   15.00000     -1.7981987E-09
   15.06000     -1.1681210E-09
   15.12000     -5.3122107E-10
   15.18000      1.0048222E-10
   15.24000      7.2098155E-10
   15.30000      1.3290284E-09
   15.36000      1.9247994E-09
   15.42000      2.5057594E-09
   15.48000      3.0635106E-09
   15.54000      3.5830185E-09
   15.60000      4.0444985E-09
   15.66000      4.4270032E-09
   15.72000      4.7120996E-09
   15.78000      4.8862137E-09
   15.84000      4.9411661E-09
   15.90000      4.8734319E-09
   15.96000      4.6832427E-09
   16.02000      4.3745221E-09
   16.08000      3.9559711E-09
   16.14000      3.4428689E-09
   16.20000      2.8587037E-09
   16.26000      2.2357558E-09
   16.32000      1.6141288E-09
   16.38000      1.0392294E-09
   16.44000      5.5814442E-10
   16.50000      2.1563433E-10
   16.56000      5.0497127E-11
   16.62000      9.2840756E-11
   16.68000      3.6232731E-10
   16.74000      8.6691992E-10
   16.80000      1.6013587E-09
   16.86000      2.5448328E-09
   16.92000      3.6581971E-09
   16.98000      4.8822346E-09
   17.04000      6.1392362E-09
   17.10000      7.3398145E-09
   17.16000      8.3952028E-09
   17.22000      9.2328092E-09
   17.28000      9.8106874E-09
   17.34000      1.0126022E-08
   17.40000      1.0214311E-08
   17.46000      1.0139185E-08
   17.52000      9.9762563E-09
   17.58000      9.7965431E-09
   17.64000      9.6546300E-09
   17.70000      9.5841912E-09
   17.76000      9.5999635E-09
   17.82000      9.7025747E-09
   17.88000      9.8821040E-09
   17.94000      1.0118015E-08
   18.00000      1.0376077E-08
   18.06000      1.0605503E-08
   18.12000      1.0740166E-08
   18.18000      1.0706227E-08
   18.24000      1.0435389E-08
   18.30000      9.8800035E-09
   18.36000      9.0248315E-09
   18.42000      7.8911073E-09
   18.48000      6.5313399E-09
   18.54000      5.0166800E-09
   18.60000      3.4212158E-09
   18.66000      1.8083294E-09
   18.72000      2.2294772E-10
   18.78000     -1.3089937E-09
   18.84000     -2.7752933E-09
   18.90000     -4.1696837E-09
   18.96000     -5.4851661E-09
   19.02000     -6.7111090E-09
   19.08000     -7.8348572E-09
   19.14000     -8.8465528E-09
   19.20000     -9.7445678E-09
   19.26000     -1.0538736E-08
   19.32000     -1.1249623E-08
   19.38000     -1.1903798E-08
   19.44000     -1.2526868E-08
   19.50000     -1.3136991E-08
   19.56000     -1.3741352E-08
   19.62000     -1.4336800E-08
   19.68000     -1.4914017E-08
   19.74000     -1.5463153E-08
   19.80000     -1.5978410E-08
   19.86000     -1.6459724E-08
   19.92000     -1.6911084E-08
   19.98000     -1.7336520E-08
   20.04000     -1.7735678E-08
   20.10000     -1.8101003E-08
   20.16000     -1.8417753E-08
   20.22000     -1.8666963E-08
   20.28000     -1.8830379E-08
   20.34000     -1.8895603E-08
   20.40000     -1.8859611E-08
   20.46000     -1.8729402E-08
   20.52000     -1.8519490E-08
   20.58000     -1.8247112E-08
   20.64000     -1.7926949E-08
   20.70000     -1.7567269E-08
   20.76000     -1.7168894E-08
   20.82000     -1.6727231E-08
   20.88000     -1.6236356E-08
   20.94000     -1.5693379E-08
   21.00000     -1.5101300E-08
   21.06000     -1.4469154E-08
   21.12000     -1.3809448E-08
   21.18000     -1.3133778E-08
   21.24000     -1.2448304E-08
   21.30000     -1.1750719E-08
   21.36000     -1.1029936E-08
   21.42000     -1.0268837E-08
   21.48000     -9.4493515E-09
   21.54000     -8.5582865E-09
   21.60000     -7.5918276E-09
   21.66000     -6.5569314E-09
   21.72000     -5.4689009E-09
   21.78000     -4.3458854E-09
   21.84000     -3.2024130E-09
   21.90000     -2.0446185E-09
   21.96000     -8.6927782E-10
   22.02000      3.3278197E-10
   22.08000      1.5701780E-09
   22.14000      2.8440421E-09
   22.20000      4.1436423E-09
   22.26000      5.4466072E-09
   22.32000      6.7240467E-09
   22.38000      7.9489793E-09
   22.44000      9.1051460E-09
   22.50000      1.0193017E-08
   22.56000      1.1230633E-08
   22.62000      1.2248611E-08
   22.68000      1.3280657E-08
   22.74000      1.4352532E-08
   22.80000      1.5473118E-08
   22.86000      1.6630658E-08
   22.92000      1.7795482E-08
   22.98000      1.8928306E-08
   23.04000      1.9991152E-08
   23.10000      2.0957071E-08
   23.16000      2.1815369E-08
   23.22000      2.2570980E-08
   23.28000      2.3238849E-08
   23.34000      2.3836218E-08
   23.40000      2.4376257E-08
   23.46000      2.4865665E-08
   23.52000      2.5306850E-08
   23.58000      2.5703018E-08
   23.64000      2.6062969E-08
   23.70000      2.6402361E-08
   23.76000      2.6739785E-08
   23.82000      2.7088642E-08
   23.88000      2.7448262E-08
   23.94000      2.7798858E-08
   24.00000      2.8103843E-08
   24.06000      2.8320006E-08
   24.12000      2.8412373E-08
   24.18000      2.8367783E-08
   24.24000      2.8201162E-08
   24.30000      2.7951163E-08
   24.36000      2.7666420E-08
   24.42000      2.7388060E-08
   24.48000      2.7135910E-08
   24.54000      2.6904372E-08
   24.60000      2.6669609E-08
   24.66000      2.6404400E-08
   24.72000      2.6093726E-08
   24.78000      2.5743795E-08
   24.84000      2.5380476E-08
   24.90000      2.5038014E-08
   24.96000      2.4743303E-08
   25.02000      2.4502899E-08
   25.08000      2.4298673E-08
   25.14000      2.4094081E-08
   25.20000      2.3848482E-08
   25.26000      2.3533577E-08
   25.32000      2.3145233E-08
   25.38000      2.2705935E-08
   25.44000      2.2256964E-08
   25.50000      2.1843455E-08
   25.56000      2.1498067E-08
   25.62000      2.1229292E-08
   25.68000      2.1018183E-08
   25.74000      2.0823883E-08
   25.80000      2.0595136E-08
   25.86000      2.0283268E-08
   25.92000      1.9852642E-08
   25.98000      1.9286427E-08
   26.04000      1.8587802E-08
   26.10000      1.7778063E-08
   26.16000      1.6893148E-08
   26.22000      1.5979252E-08
   26.28000      1.5087457E-08
   26.34000      1.4267251E-08
   26.40000      1.3559750E-08
   26.46000      1.2992388E-08
   26.52000      1.2577149E-08
   26.58000      1.2313414E-08
   26.64000      1.2194549E-08
   26.70000      1.2215568E-08
   26.76000      1.2378421E-08
   26.82000      1.2692387E-08
   26.88000      1.3169076E-08
   26.94000      1.3813948E-08
   27.00000      1.4617750E-08
   27.06000      1.5551482E-08
   27.12000      1.6567332E-08
   27.18000      1.7606069E-08
   27.24000      1.8609185E-08
   27.30000      1.9532475E-08
   27.36000      2.0356742E-08
   27.42000      2.1091813E-08
   27.48000      2.1771639E-08
   27.54000      2.2441025E-08
   27.60000      2.3137620E-08
   27.66000      2.3875037E-08
   27.72000      2.4633302E-08
   27.78000      2.5360769E-08
   27.84000      2.5987653E-08
   27.90000      2.6446871E-08
   27.96000      2.6694812E-08
   28.02000      2.6724376E-08
   28.08000      2.6565450E-08
   28.14000      2.6272879E-08
   28.20000      2.5907042E-08
   28.26000      2.5515085E-08
   28.32000      2.5120462E-08
   28.38000      2.4724567E-08
   28.44000      2.4318672E-08
   28.50000      2.3899483E-08
   28.56000      2.3479778E-08
   28.62000      2.3087937E-08
   28.68000      2.2755744E-08
   28.74000      2.2500034E-08
   28.80000      2.2307511E-08
   28.86000      2.2131236E-08
   28.92000      2.1902119E-08
   28.98000      2.1551564E-08
   29.04000      2.1035977E-08
   29.10000      2.0352758E-08
   29.16000      1.9541238E-08
   29.22000      1.8668917E-08
   29.28000      1.7809613E-08
   29.34000      1.7022890E-08
   29.40000      1.6342250E-08
   29.46000      1.5774596E-08
   29.52000      1.5308187E-08
   29.58000      1.4923337E-08
   29.64000      1.4600618E-08
   29.70000      1.4324320E-08
   29.76000      1.4082285E-08
   29.82000      1.3865148E-08
   29.88000      1.3667456E-08
   29.94000      1.3491097E-08
   30.00000      1.3349133E-08
   30.06000      1.3267059E-08
   30.12000      1.3279336E-08
   30.18000      1.3421056E-08
   30.24000      1.3717021E-08
   30.30000      1.4171931E-08
   30.36000      1.4765321E-08
   30.42000      1.5453340E-08
   30.48000      1.6176966E-08
   30.54000      1.6873990E-08
   30.60000      1.7490692E-08
   30.66000      1.7989315E-08
   30.72000      1.8349123E-08
   30.78000      1.8561288E-08
   30.84000      1.8620234E-08
   30.90000      1.8515374E-08
   30.96000      1.8226842E-08
   31.02000      1.7727039E-08
   31.08000      1.6987226E-08
   31.14000      1.5986220E-08
   31.20000      1.4717357E-08
   31.26000      1.3190519E-08
   31.32000      1.1428270E-08
   31.38000      9.4576809E-09
   31.44000      7.3014643E-09
   31.50000      4.9725521E-09
   31.56000      2.4749136E-09
   31.62000     -1.8920006E-10
   31.68000     -3.0083473E-09
   31.74000     -5.9519656E-09
   31.80000     -8.9659649E-09
   31.86000     -1.1976214E-08
   31.92000     -1.4898926E-08
   31.98000     -1.7653893E-08
   32.04000     -2.0175348E-08
   32.10000     -2.2416499E-08
   32.16000     -2.4347003E-08
   32.22000     -2.5946180E-08
   32.28000     -2.7196663E-08
   32.34000     -2.8082624E-08
   32.40000     -2.8593687E-08
   32.46000     -2.8731982E-08
   32.52000     -2.8517503E-08
   32.58000     -2.7987298E-08
   32.64000     -2.7187122E-08
   32.70000     -2.6158281E-08
   32.76000     -2.4925459E-08
   32.82000     -2.3491504E-08
   32.88000     -2.1842249E-08
   32.94000     -1.9959861E-08
   33.00000     -1.7838989E-08
   33.06000     -1.5498591E-08
   33.12000     -1.2983985E-08
   33.18000     -1.0358206E-08
   33.24000     -7.6865323E-09
   33.30000     -5.0213020E-09
   33.36000     -2.3939486E-09
   33.42000      1.8208325E-10
   33.48000      2.6989713E-09
   33.54000      5.1386566E-09
   33.60000      7.4613755E-09
   33.66000      9.6048449E-09
   33.72000      1.1495769E-08
   33.78000      1.3069779E-08
   33.84000      1.4291816E-08
   33.90000      1.5168292E-08
   33.96000      1.5745510E-08
   34.02000      1.6094594E-08
   34.08000      1.6289025E-08
   34.14000      1.6384091E-08
   34.20000      1.6406661E-08
   34.26000      1.6358980E-08
   34.32000      1.6233695E-08
   34.38000      1.6032294E-08
   34.44000      1.5777676E-08
   34.50000      1.5514585E-08
   34.56000      1.5297712E-08
   34.62000      1.5173176E-08
   34.68000      1.5162449E-08
   34.74000      1.5256425E-08
   34.80000      1.5422483E-08
   34.86000      1.5621058E-08
   34.92000      1.5823810E-08
   34.98000      1.6024963E-08
   35.04000      1.6241046E-08
   35.10000      1.6500094E-08
   35.16000      1.6826396E-08
   35.22000      1.7228771E-08
   35.28000      1.7697944E-08
   35.34000      1.8213710E-08
   35.40000      1.8757307E-08
   35.46000      1.9322004E-08
   35.52000      1.9916081E-08
   35.58000      2.0556628E-08
   35.64000      2.1257534E-08
   35.70000      2.2017886E-08
   35.76000      2.2816630E-08
   35.82000      2.3615828E-08
   35.88000      2.4370525E-08
   35.94000      2.5040189E-08
   36.00000      2.5596535E-08
   36.06000      2.6025065E-08
   36.12000      2.6321134E-08
   36.18000      2.6483900E-08
   36.24000      2.6511765E-08
   36.30000      2.6401285E-08
   36.36000      2.6149012E-08
   36.42000      2.5754275E-08
   36.48000      2.5220860E-08
   36.54000      2.4556957E-08
   36.60000      2.3774241E-08
   36.66000      2.2887438E-08
   36.72000      2.1915188E-08
   36.78000      2.0881554E-08
   36.84000      1.9816529E-08
   36.90000      1.8753964E-08
   36.96000      1.7726501E-08
   37.02000      1.6758614E-08
   37.08000      1.5860035E-08
   37.14000      1.5021916E-08
   37.20000      1.4217377E-08
   37.26000      1.3406786E-08
   37.32000      1.2547006E-08
   37.38000      1.1602921E-08
   37.44000      1.0558885E-08
   37.50000      9.4272865E-09
   37.56000      8.2513711E-09
   37.62000      7.1002315E-09
   37.68000      6.0556724E-09
   37.74000      5.1933369E-09
   37.80000      4.5630735E-09
   37.86000      4.1748165E-09
   37.92000      3.9952606E-09
   37.98000      3.9572199E-09
   38.04000      3.9788977E-09
   38.10000      3.9861821E-09
   38.16000      3.9295562E-09
   38.22000      3.7891659E-09
   38.28000      3.5665586E-09
   38.34000      3.2675125E-09
   38.40000      2.8845772E-09
   38.46000      2.3882771E-09
   38.52000      1.7319798E-09
   38.58000      8.6882090E-10
   38.64000     -2.2711678E-10
   38.70000     -1.5458298E-09
   38.76000     -3.0406619E-09
   38.82000     -4.6432516E-09
   38.88000     -6.2879741E-09
   38.94000     -7.9348101E-09
   39.00000     -9.5799848E-09
   39.06000     -1.1249434E-08
   39.12000     -1.2978242E-08
   39.18000     -1.4785830E-08
   39.24000     -1.6658483E-08
   39.30000     -1.8547084E-08
   39.36000     -2.0380673E-08
   39.42000     -2.2089393E-08
   39.48000     -2.3626706E-08
   39.54000     -2.4982020E-08
   39.60000     -2.6179874E-08
   39.66000     -2.7267786E-08
   39.72000     -2.8299111E-08
   39.78000     -2.9317924E-08
   39.84000     -3.0350769E-08
   39.90000     -3.1406170E-08
   39.96000     -3.2479658E-08
   40.02000     -3.3560507E-08
   40.08000     -3.4637065E-08
   40.14000     -3.5699166E-08
   40.20000     -3.6738264E-08
   40.26000     -3.7746826E-08
   40.32000     -3.8718625E-08
   40.38000     -3.9650452E-08
   40.44000     -4.0544599E-08
   40.50000     -4.1410463E-08
   40.56000     -4.2263611E-08
   40.62000     -4.3121581E-08
   40.68000     -4.3997058E-08
   40.74000     -4.4890477E-08
   40.80000     -4.5784706E-08
   40.86000     -4.6644164E-08
   40.92000     -4.7419402E-08
   40.98000     -4.8056510E-08
   41.04000     -4.8509168E-08
   41.10000     -4.8750231E-08
   41.16000     -4.8779654E-08
   41.22000     -4.8626443E-08
   41.28000     -4.8343896E-08
   41.34000     -4.7999297E-08
   41.40000     -4.7661072E-08
   41.46000     -4.7387125E-08
   41.52000     -4.7217725E-08
   41.58000     -4.7174382E-08
   41.64000     -4.7263818E-08
   41.70000     -4.7484061E-08
   41.76000     -4.7829328E-08
   41.82000     -4.8291717E-08
   41.88000     -4.8860052E-08
   41.94000     -4.9518235E-08
   42.00000     -5.0245745E-08
   42.06000     -5.1021363E-08
   42.12000     -5.1828472E-08
   42.18000     -5.2658617E-08
   42.24000     -5.3510067E-08
   42.30000     -5.4380653E-08
   42.36000     -5.5257544E-08
   42.42000     -5.6109116E-08
   42.48000     -5.6883867E-08
   42.54000     -5.7518573E-08
   42.60000     -5.7953628E-08
   42.66000     -5.8149904E-08
   42.72000     -5.8100532E-08
   42.78000     -5.7832651E-08
   42.84000     -5.7398555E-08
   42.90000     -5.6859736E-08
   42.96000     -5.6270096E-08
   43.02000     -5.5664685E-08
   43.08000     -5.5057612E-08
   43.14000     -5.4448954E-08
   43.20000     -5.3836551E-08
   43.26000     -5.3226938E-08
   43.32000     -5.2640164E-08
   43.38000     -5.2106216E-08
   43.44000     -5.1654560E-08
   43.50000     -5.1301630E-08
   43.56000     -5.1041884E-08
   43.62000     -5.0846669E-08
   43.68000     -5.0671680E-08
   43.74000     -5.0470131E-08
   43.80000     -5.0206491E-08
   43.86000     -4.9865669E-08
   43.92000     -4.9454627E-08
   43.98000     -4.8996636E-08
   44.04000     -4.8520839E-08
   44.10000     -4.8051163E-08
   44.16000     -4.7597950E-08
   44.22000     -4.7154302E-08
   44.28000     -4.6697433E-08
   44.34000     -4.6194089E-08
   44.40000     -4.5608466E-08
   44.46000     -4.4910756E-08
   44.52000     -4.4084334E-08
   44.58000     -4.3129852E-08
   44.64000     -4.2065263E-08
   44.70000     -4.0921886E-08
   44.76000     -3.9738023E-08
   44.82000     -3.8552265E-08
   44.88000     -3.7398614E-08
   44.94000     -3.6304169E-08
   45.00000     -3.5288867E-08
   45.06000     -3.4365950E-08
   45.12000     -3.3541902E-08
   45.18000     -3.2815851E-08
   45.24000     -3.2179216E-08
   45.30000     -3.1616775E-08
   45.36000     -3.1109359E-08
   45.42000     -3.0637185E-08
   45.48000     -3.0182161E-08
   45.54000     -2.9727911E-08
   45.60000     -2.9257647E-08
   45.66000     -2.8751542E-08
   45.72000     -2.8185866E-08
   45.78000     -2.7535487E-08
   45.84000     -2.6779713E-08
   45.90000     -2.5909950E-08
   45.96000     -2.4936501E-08
   46.02000     -2.3891772E-08
   46.08000     -2.2827871E-08
   46.14000     -2.1807688E-08
   46.20000     -2.0890424E-08
   46.26000     -2.0114502E-08
   46.32000     -1.9482750E-08
   46.38000     -1.8955390E-08
   46.44000     -1.8454898E-08
   46.50000     -1.7882806E-08
   46.56000     -1.7143686E-08
   46.62000     -1.6167599E-08
   46.68000     -1.4922030E-08
   46.74000     -1.3407996E-08
   46.80000     -1.1641294E-08
   46.86000     -9.6257420E-09
   46.92000     -7.3281177E-09
   46.98000     -4.6629092E-09
   47.04000     -1.4903122E-09
   47.10000      2.3746671E-09
   47.16000      7.1480608E-09
   47.22000      1.3064945E-08
   47.28000      2.0375341E-08
   47.34000      2.9350611E-08
   47.40000      4.0299440E-08
   47.46000      5.3589552E-08
   47.52000      6.9669660E-08
   47.58000      8.9086591E-08
   47.64000      1.1249544E-07
   47.70000      1.4066438E-07
   47.76000      1.7447992E-07
   47.82000      2.1495882E-07
   47.88000      2.6327180E-07
   47.94000      3.2077796E-07
   48.00000      3.8906538E-07
   48.06000      4.6999133E-07
   48.12000      5.6571713E-07
   48.18000      6.7873907E-07
   48.24000      8.1191956E-07
   48.30000      9.6852511E-07
   48.36000      1.1522765E-06
   48.42000      1.3674098E-06
   48.48000      1.6187478E-06
   48.54000      1.9117765E-06
   48.60000      2.2527247E-06
   48.66000      2.6486496E-06
   48.72000      3.1075199E-06
   48.78000      3.6383074E-06
   48.84000      4.2510778E-06
   48.90000      4.9570881E-06
   48.96000      5.7688885E-06
   49.02000      6.7004307E-06
   49.08000      7.7671930E-06
   49.14000      8.9863070E-06
   49.20000      1.0376700E-05
   49.26000      1.1959227E-05
   49.32000      1.3756811E-05
   49.38000      1.5794571E-05
   49.44000      1.8099938E-05
   49.50000      2.0702777E-05
   49.56000      2.3635510E-05
   49.62000      2.6933218E-05
   49.68000      3.0633768E-05
   49.74000      3.4777928E-05
   49.80000      3.9409424E-05
   49.86000      4.4575037E-05
   49.92000      5.0324612E-05
   49.98000      5.6711095E-05
   50.04000      6.3790518E-05
   50.10000      7.1621915E-05
   50.16000      8.0267317E-05
   50.22000      8.9791582E-05
   50.28000      1.0026230E-04
   50.34000      1.1174958E-04
   50.40000      1.2432587E-04
   50.46000      1.3806569E-04
   50.52000      1.5304526E-04
   50.58000      1.6934221E-04
   50.64000      1.8703517E-04
   50.70000      2.0620323E-04
   50.76000      2.2692542E-04
   50.82000      2.4928022E-04
   50.88000      2.7334478E-04
   50.94000      2.9919454E-04
   51.00000      3.2690217E-04
   51.06000      3.5653706E-04
   51.12000      3.8816463E-04
   51.18000      4.2184527E-04
   51.24000      4.5763367E-04
   51.30000      4.9557810E-04
   51.36000      5.3571939E-04
   51.42000      5.7809014E-04
   51.48000      6.2271423E-04
   51.54000      6.6960556E-04
   51.60000      7.1876770E-04
   51.66000      7.7019277E-04
   51.72000      8.2386134E-04
   51.78000      8.7974156E-04
   51.84000      9.3778881E-04
   51.90000      9.9794520E-04
   51.96000      1.0601394E-03
   52.02000      1.1242867E-03
   52.08000      1.1902878E-03
   52.14000      1.2580305E-03
   52.20000      1.3273894E-03
   52.26000      1.3982254E-03
   52.32000      1.4703877E-03
   52.38000      1.5437133E-03
   52.44000      1.6180280E-03
   52.50000      1.6931479E-03
   52.56000      1.7688801E-03
   52.62000      1.8450236E-03
   52.68000      1.9213713E-03
   52.74000      1.9977116E-03
   52.80000      2.0738286E-03
   52.86000      2.1495051E-03
   52.92000      2.2245238E-03
   52.98000      2.2986685E-03
   53.04000      2.3717273E-03
   53.10000      2.4434933E-03
   53.16000      2.5137672E-03
   53.22000      2.5823584E-03
   53.28000      2.6490877E-03
   53.34000      2.7137864E-03
   53.40000      2.7763012E-03
   53.46000      2.8364928E-03
   53.52000      2.8942390E-03
   53.58000      2.9494355E-03
   53.64000      3.0019970E-03
   53.70000      3.0518577E-03
   53.76000      3.0989719E-03
   53.82000      3.1433140E-03
   53.88000      3.1848787E-03
   53.94000      3.2236818E-03
   54.00000      3.2597585E-03
   54.06000      3.2931645E-03
   54.12000      3.3239753E-03
   54.18000      3.3522833E-03
   54.24000      3.3781980E-03
   54.30000      3.4018443E-03
   54.36000      3.4233613E-03
   54.42000      3.4428996E-03
   54.48000      3.4606210E-03
   54.54000      3.4766954E-03
   54.60000      3.4912999E-03
   54.66000      3.5046150E-03
   54.72000      3.5168226E-03
   54.78000      3.5281042E-03
   54.84000      3.5386388E-03
   54.90000      3.5486005E-03
   54.96000      3.5581570E-03
   55.02000      3.5674674E-03
   55.08000      3.5766794E-03
   55.14000      3.5859284E-03
   55.20000      3.5953342E-03
   55.26000      3.6050014E-03
   55.32000      3.6150177E-03
   55.38000      3.6254525E-03
   55.44000      3.6363564E-03
   55.50000      3.6477603E-03
   55.56000      3.6596749E-03