  -2.400000      0.0000000E+00
  -2.340000      0.0000000E+00
  -2.280000      0.0000000E+00
  -2.220000      0.0000000E+00
  -2.160000      0.0000000E+00
  -2.100000      2.6699573E-21
  -2.040000      3.9616778E-20
  -1.980000      2.1643363E-19
  -1.920000      6.1374273E-19
  -1.860000      7.6228297E-19
  -1.800000     -1.1626249E-18
  -1.740000     -8.1400594E-18
  -1.680000     -2.1100118E-17
  -1.620000     -3.2608813E-17
  -1.560000     -2.2438556E-17
  -1.500000      3.5537102E-17
  -1.440000      1.4943973E-16
  -1.380000      2.7874179E-16
  -1.320000      3.2664259E-16
  -1.260000      1.8652102E-16
  -1.200000     -1.6197096E-16
  -1.140000     -5.7344681E-16
  -1.080000     -7.7751891E-16
  -1.020000     -5.9218657E-16
 -0.9600000     -2.0900788E-16
 -0.9000000     -2.8269629E-16
 -0.8400000     -1.5482684E-15
 -0.7800000     -3.9654648E-15
 -0.7200000     -5.8813716E-15
 -0.6600000     -4.0759729E-15
 -0.6000000      4.6242065E-15
 -0.5400000      2.0407634E-14
 -0.4800000      3.7776067E-14
 -0.4200000      4.5450385E-14
 -0.3600000      3.0604622E-14
 -0.3000000     -1.3198557E-14
 -0.2400000     -7.8050136E-14
 -0.1800000     -1.3917547E-13
 -0.1200000     -1.6198157E-13
 -5.9999999E-02 -1.1807291E-13
  0.0000000E+00 -3.5649474E-15
  5.9999999E-02  1.5071073E-13
  0.1200000      2.8568033E-13
  0.1800000      3.3792324E-13
  0.2400000      2.7136239E-13
  0.3000000      1.0019876E-13
  0.3600000     -1.1176312E-13
  0.4200000     -2.7913246E-13
  0.4800000     -3.3846813E-13
  0.5400000     -2.8425187E-13
  0.6000000     -1.7491271E-13
  0.6600000     -1.0080729E-13
  0.7200000     -1.2756402E-13
  0.7800000     -2.4520699E-13
  0.8400000     -3.5520369E-13
  0.9000000     -3.1074118E-13
  0.9600000      2.7877550E-15
   1.020000      5.8532758E-13
   1.080000      1.2834870E-12
   1.140000      1.8248771E-12
   1.200000      1.9203272E-12
   1.260000      1.3931564E-12
   1.320000      2.7630147E-13
   1.380000     -1.1719702E-12
   1.440000     -2.5477413E-12
   1.500000     -3.4460794E-12
   1.560000     -3.6083328E-12
   1.620000     -3.0069619E-12
   1.680000     -1.8314517E-12
   1.740000     -3.8589740E-13
   1.800000      1.0486023E-12
   1.860000      2.3168858E-12
   1.920000      3.4063796E-12
   1.980000      4.3709394E-12
   2.040000      5.2052351E-12
   2.100000      5.7423831E-12
   2.160000      5.6401589E-12
   2.220000      4.4790486E-12
   2.280000      1.9384540E-12
   2.340000     -2.0257593E-12
   2.400000     -7.0852595E-12
   2.460000     -1.2571772E-11
   2.520000     -1.7623654E-11
   2.580000     -2.1376017E-11
   2.640000     -2.3103089E-11
   2.700000     -2.2248465E-11
   2.760000     -1.8341363E-11
   2.820000     -1.0863074E-11
   2.880000      8.3837782E-13
   2.940000      1.7505237E-11
   3.000000      3.9782011E-11
   3.060000      6.7944171E-11
   3.120000      1.0165756E-10
   3.180000      1.3988113E-10
   3.240000      1.8096938E-10
   3.300000      2.2294702E-10
   3.360000      2.6385757E-10
   3.420000      3.0206396E-10
   3.480000      3.3641301E-10
   3.540000      3.6624861E-10
   3.600000      3.9133050E-10
   3.660000      4.1175247E-10
   3.720000      4.2793433E-10
   3.780000      4.4070089E-10
   3.840000      4.5138807E-10
   3.900000      4.6186990E-10
   3.960000      4.7440735E-10
   4.020000      4.9127907E-10
   4.080000      5.1424653E-10
   4.140000      5.4398780E-10
   4.200000      5.7967819E-10
   4.260000      6.1887290E-10
   4.320000      6.5776912E-10
   4.380000      6.9180783E-10
   4.440000      7.1646766E-10
   4.500000      7.2803880E-10
   4.560000      7.2417550E-10
   4.620000      7.0410899E-10
   4.680000      6.6851935E-10
   4.740000      6.1917754E-10
   4.800000      5.5852190E-10
   4.860000      4.8930365E-10
   4.920000      4.1435483E-10
   4.980000      3.3643929E-10
   5.040000      2.5810146E-10
   5.100000      1.8145273E-10
   5.160000      1.0791051E-10
   5.220000      3.7978676E-11
   5.280000     -2.8815320E-11
   5.340000     -9.3752651E-11
   5.400000     -1.5854186E-10
   5.460000     -2.2482112E-10
   5.520000     -2.9367705E-10
   5.580000     -3.6529466E-10
   5.640000     -4.3879539E-10
   5.700000     -5.1227378E-10
   5.760000     -5.8301852E-10
   5.820000     -6.4789951E-10
   5.880000     -7.0389788E-10
   5.940000     -7.4873413E-10
   6.000000     -7.8151025E-10
   6.060000     -8.0325735E-10
   6.120000     -8.1727913E-10
   6.180000     -8.2923035E-10
   6.240000     -8.4693808E-10
   6.300000     -8.8003566E-10
   6.360000     -9.3951547E-10
   6.420000     -1.0373014E-09
   6.480000     -1.1858980E-09
   6.540000     -1.3981205E-09
   6.600000     -1.6868409E-09
   6.660000     -2.0646638E-09
   6.720000     -2.5434452E-09
   6.780000     -3.1336300E-09
   6.840000     -3.8434687E-09
   6.900000     -4.6782604E-09
   6.960000     -5.6398068E-09
   7.020000     -6.7261881E-09
   7.080000     -7.9318845E-09
   7.140000     -9.2481107E-09
   7.200000     -1.0663152E-08
   7.260000     -1.2162528E-08
   7.320000     -1.3728878E-08
   7.380000     -1.5341643E-08
   7.440000     -1.6976658E-08
   7.500000     -1.8605890E-08
   7.560000     -2.0197403E-08
   7.620000     -2.1715739E-08
   7.680000     -2.3122670E-08
   7.740000     -2.4378412E-08
   7.800000     -2.5443223E-08
   7.860000     -2.6279340E-08
   7.920000     -2.6853080E-08
   7.980000     -2.7136942E-08
   8.040000     -2.7111499E-08
   8.100000     -2.6766916E-08
   8.160000     -2.6104006E-08
   8.220000     -2.5134684E-08
   8.280000     -2.3881810E-08
   8.340000     -2.2378352E-08
   8.400000     -2.0665908E-08
   8.460000     -1.8792733E-08
   8.520000     -1.6811422E-08
   8.580000     -1.4776568E-08
   8.640000     -1.2742451E-08
   8.700000     -1.0760876E-08
   8.760000     -8.8790992E-09
   8.820000     -7.1378494E-09
   8.880000     -5.5695737E-09
   8.940000     -4.1971671E-09
   9.000000     -3.0334950E-09
   9.060000     -2.0818878E-09
   9.120000     -1.3375230E-09
   9.180000     -7.8934004E-10
   9.240000     -4.2197537E-10
   9.300000     -2.1725068E-10
   9.360000     -1.5498244E-10
   9.420000     -2.1317273E-10
   9.480000     -3.6787701E-10
   9.540000     -5.9312572E-10
   9.600000     -8.6120266E-10
   9.660000     -1.1434149E-09
   9.720000     -1.4113101E-09
   9.780000     -1.6381658E-09
   9.840000     -1.8005309E-09
   9.900000     -1.8795978E-09
   9.960000     -1.8622478E-09
   10.02000     -1.7416638E-09
   10.08000     -1.5174547E-09
   10.14000     -1.1952739E-09
   10.20000     -7.8593304E-10
   10.26000     -3.0404249E-10
   10.32000      2.3374783E-10
   10.38000      8.1075580E-10
   10.44000      1.4122963E-09
   10.50000      2.0274438E-09
   10.56000      2.6502465E-09
   10.62000      3.2801764E-09
   10.68000      3.9217420E-09
   10.74000      4.5833430E-09
   10.80000      5.2755729E-09
   10.86000      6.0092487E-09
   10.92000      6.7934578E-09
   10.98000      7.6338331E-09
   11.04000      8.5312211E-09
   11.10000      9.4808161E-09
   11.16000      1.0471804E-08
   11.22000      1.1487570E-08
   11.28000      1.2506516E-08
   11.34000      1.3503493E-08
   11.40000      1.4451816E-08
   11.46000      1.5325613E-08
   11.52000      1.6102202E-08
   11.58000      1.6764107E-08
   11.64000      1.7300437E-08
   11.70000      1.7707519E-08
   11.76000      1.7988931E-08
   11.82000      1.8155079E-08
   11.88000      1.8222517E-08
   11.94000      1.8212987E-08
   12.00000      1.8152070E-08
   12.06000      1.8067395E-08
   12.12000      1.7986457E-08
   12.18000      1.7934376E-08
   12.24000      1.7931852E-08
   12.30000      1.7993603E-08
   12.36000      1.8127182E-08
   12.42000      1.8332059E-08
   12.48000      1.8598850E-08
   12.54000      1.8908842E-08
   12.60000      1.9234260E-08
   12.66000      1.9539737E-08
   12.72000      1.9785114E-08
   12.78000      1.9929251E-08
   12.84000      1.9934046E-08
   12.90000      1.9767848E-08
   12.96000      1.9407734E-08
   13.02000      1.8840691E-08
   13.08000      1.8064053E-08
   13.14000      1.7085576E-08
   13.20000      1.5923154E-08
   13.26000      1.4603795E-08
   13.32000      1.3161296E-08
   13.38000      1.1632515E-08
   13.44000      1.0052613E-08
   13.50000      8.4503604E-09
   13.56000      6.8446773E-09
   13.62000      5.2433018E-09
   13.68000      3.6437884E-09
   13.74000      2.0363897E-09
   13.80000      4.0799095E-10
   13.86000     -1.2537608E-09
   13.92000     -2.9568303E-09
   13.98000     -4.7021809E-09
   14.04000     -6.4825731E-09
   14.10000     -8.2830596E-09
   14.16000     -1.0083217E-08
   14.22000     -1.1860746E-08
   14.28000     -1.3595598E-08
   14.34000     -1.5273587E-08
   14.40000     -1.6888556E-08
   14.46000     -1.8442735E-08
   14.52000     -1.9945507E-08
   14.58000     -2.1411241E-08
   14.64000     -2.2856865E-08
   14.70000     -2.4299547E-08
   14.76000     -2.5754495E-08
   14.82000     -2.7232787E-08
   14.88000     -2.8739313E-08
   14.94000     -3.0271167E-08
   15.00000     -3.1817052E-08
   15.06000     -3.3358056E-08
   15.12000     -3.4869611E-08
   15.18000     -3.6324217E-08
   15.24000     -3.7694026E-08
   15.30000     -3.8952891E-08
   15.36000     -4.0077648E-08
   15.42000     -4.1048914E-08
   15.48000     -4.1851770E-08
   15.54000     -4.2476568E-08
   15.60000     -4.2919869E-08
   15.66000     -4.3185313E-08
   15.72000     -4.3284238E-08
   15.78000     -4.3235648E-08
   15.84000     -4.3065302E-08
   15.90000     -4.2803599E-08
   15.96000     -4.2482025E-08
   16.02000     -4.2128466E-08
   16.08000     -4.1762323E-08
   16.14000     -4.1390837E-08
   16.20000     -4.1007951E-08
   16.26000     -4.0596522E-08
   16.32000     -4.0133212E-08
   16.38000     -3.9594546E-08
   16.44000     -3.8962046E-08
   16.50000     -3.8224965E-08
   16.56000     -3.7380282E-08
   16.62000     -3.6430801E-08
   16.68000     -3.5382786E-08
   16.74000     -3.4244291E-08
   16.80000     -3.3024673E-08
   16.86000     -3.1734942E-08
   16.92000     -3.0388279E-08
   16.98000     -2.9000304E-08
   17.04000     -2.7588881E-08
   17.10000     -2.6173547E-08
   17.16000     -2.4774687E-08
   17.22000     -2.3412351E-08
   17.28000     -2.2104713E-08
   17.34000     -2.0866329E-08
   17.40000     -1.9706686E-08
   17.46000     -1.8629587E-08
   17.52000     -1.7633663E-08
   17.58000     -1.6713722E-08
   17.64000     -1.5862231E-08
   17.70000     -1.5070180E-08
   17.76000     -1.4326993E-08
   17.82000     -1.3619855E-08
   17.88000     -1.2933237E-08
   17.94000     -1.2249430E-08
   18.00000     -1.1550382E-08
   18.06000     -1.0820525E-08
   18.12000     -1.0049806E-08
   18.18000     -9.2361070E-09
   18.24000     -8.3864924E-09
   18.30000     -7.5171176E-09
   18.36000     -6.6519368E-09
   18.42000     -5.8204601E-09
   18.48000     -5.0548392E-09
   18.54000     -4.3865844E-09
   18.60000     -3.8432466E-09
   18.66000     -3.4454242E-09
   18.72000     -3.2044469E-09
   18.78000     -3.1210010E-09
   18.84000     -3.1848766E-09
   18.90000     -3.3759633E-09
   18.96000     -3.6665078E-09
   19.02000     -4.0244816E-09
   19.08000     -4.4175970E-09
   19.14000     -4.8172071E-09
   19.20000     -5.2012048E-09
   19.26000     -5.5552727E-09
   19.32000     -5.8723986E-09
   19.38000     -6.1512515E-09
   19.44000     -6.3944010E-09
   19.50000     -6.6072863E-09
   19.56000     -6.7982668E-09
   19.62000     -6.9793575E-09
   19.68000     -7.1667388E-09
   19.74000     -7.3801525E-09
   19.80000     -7.6407334E-09
   19.86000     -7.9675164E-09
   19.92000     -8.3733784E-09
   19.98000     -8.8613845E-09
   20.04000     -9.4223651E-09
   20.10000     -1.0034333E-08
   20.16000     -1.0663999E-08
   20.22000     -1.1270392E-08
   20.28000     -1.1810222E-08
   20.34000     -1.2244218E-08
   20.40000     -1.2543198E-08
   20.46000     -1.2692529E-08
   20.52000     -1.2693774E-08
   20.58000     -1.2563110E-08
   20.64000     -1.2326939E-08
   20.70000     -1.2015985E-08
   20.76000     -1.1659479E-08
   20.82000     -1.1280902E-08
   20.88000     -1.0896033E-08
   20.94000     -1.0513316E-08
   21.00000     -1.0135826E-08
   21.06000     -9.7637907E-09
   21.12000     -9.3966523E-09
   21.18000     -9.0340162E-09
   21.24000     -8.6753396E-09
   21.30000     -8.3188256E-09
   21.36000     -7.9603337E-09
   21.42000     -7.5931856E-09
   21.48000     -7.2094153E-09
   21.54000     -6.8023707E-09
   21.60000     -6.3699117E-09
   21.66000     -5.9170571E-09
   21.72000     -5.4570028E-09
   21.78000     -5.0099920E-09
   21.84000     -4.6002233E-09
   21.90000     -4.2516319E-09
   21.96000     -3.9836063E-09
   22.02000     -3.8075787E-09
   22.08000     -3.7250460E-09
   22.14000     -3.7272203E-09
   22.20000     -3.7962180E-09
   22.26000     -3.9075396E-09
   22.32000     -4.0334287E-09
   22.38000     -4.1465085E-09
   22.44000     -4.2229611E-09
   22.50000     -4.2446162E-09
   22.56000     -4.1996659E-09
   22.62000     -4.0822692E-09
   22.68000     -3.8917150E-09
   22.74000     -3.6318542E-09
   22.80000     -3.3110814E-09
   22.86000     -2.9424860E-09
   22.92000     -2.5433358E-09
   22.98000     -2.1331221E-09
   23.04000     -1.7300351E-09
   23.10000     -1.3466585E-09
   23.16000     -9.8631703E-10
   23.22000     -6.4151034E-10
   23.28000     -2.9515992E-10
   23.34000      7.5661109E-11
   23.40000      4.9472676E-10
   23.46000      9.8187780E-10
   23.52000      1.5495977E-09
   23.58000      2.2013595E-09
   23.64000      2.9315279E-09
   23.70000      3.7263597E-09
   23.76000      4.5657944E-09
   23.82000      5.4260103E-09
   23.88000      6.2827916E-09
   23.94000      7.1155082E-09
   24.00000      7.9110025E-09
   24.06000      8.6663343E-09
   24.12000      9.3893497E-09
   24.18000      1.0096583E-08
   24.24000      1.0808839E-08
   24.30000      1.1545546E-08
   24.36000      1.2319298E-08
   24.42000      1.3131856E-08
   24.48000      1.3972302E-08
   24.54000      1.4817435E-08
   24.60000      1.5634100E-08
   24.66000      1.6382948E-08
   24.72000      1.7023206E-08
   24.78000      1.7517927E-08
   24.84000      1.7839049E-08
   24.90000      1.7971356E-08
   24.96000      1.7914331E-08
   25.02000      1.7681211E-08
   25.08000      1.7295269E-08
   25.14000      1.6784188E-08
   25.20000      1.6174077E-08
   25.26000      1.5484730E-08
   25.32000      1.4727201E-08
   25.38000      1.3903852E-08
   25.44000      1.3010147E-08
   25.50000      1.2037122E-08
   25.56000      1.0973644E-08
   25.62000      9.8080912E-09
   25.68000      8.5296294E-09
   25.74000      7.1293349E-09
   25.80000      5.6011915E-09
   25.86000      3.9425920E-09
   25.92000      2.1538817E-09
   25.98000      2.3683222E-10
   26.04000     -1.8073987E-09
   26.10000     -3.9797374E-09
   26.16000     -6.2829972E-09
   26.22000     -8.7196090E-09
   26.28000     -1.1287907E-08
   26.34000     -1.3978476E-08
   26.40000     -1.6772223E-08
   26.46000     -1.9641162E-08
   26.52000     -2.2551811E-08
   26.58000     -2.5469943E-08
   26.64000     -2.8365168E-08
   26.70000     -3.1214011E-08
   26.76000     -3.4001015E-08
   26.82000     -3.6718109E-08
   26.88000     -3.9362831E-08
   26.94000     -4.1935969E-08
   27.00000     -4.4438806E-08
   27.06000     -4.6870266E-08
   27.12000     -4.9224358E-08
   27.18000     -5.1488747E-08
   27.24000     -5.3645326E-08
   27.30000     -5.5673230E-08
   27.36000     -5.7553670E-08
   27.42000     -5.9275212E-08
   27.48000     -6.0837394E-08
   27.54000     -6.2251175E-08
   27.60000     -6.3535893E-08
   27.66000     -6.4713504E-08
   27.72000     -6.5802134E-08
   27.78000     -6.6811047E-08
   27.84000     -6.7738284E-08
   27.90000     -6.8571467E-08
   27.96000     -6.9291055E-08
   28.02000     -6.9874922E-08
   28.08000     -7.0303194E-08
   28.14000     -7.0562344E-08
   28.20000     -7.0647999E-08
   28.26000     -7.0565960E-08
   28.32000     -7.0331268E-08
   28.38000     -6.9965225E-08
   28.44000     -6.9491030E-08
   28.50000     -6.8929118E-08
   28.56000     -6.8293467E-08
   28.62000     -6.7590250E-08
   28.68000     -6.6819197E-08
   28.74000     -6.5977197E-08
   28.80000     -6.5062785E-08
   28.86000     -6.4079707E-08
   28.92000     -6.3038414E-08
   28.98000     -6.1954964E-08
   29.04000     -6.0848066E-08
   29.10000     -5.9735655E-08
   29.16000     -5.8632317E-08
   29.22000     -5.7548291E-08
   29.28000     -5.6489856E-08
   29.34000     -5.5460273E-08
   29.40000     -5.4460443E-08
   29.46000     -5.3488900E-08
   29.52000     -5.2541623E-08
   29.58000     -5.1612439E-08
   29.64000     -5.0694766E-08
   29.70000     -4.9784656E-08
   29.76000     -4.8884274E-08
   29.82000     -4.8004420E-08
   29.88000     -4.7164910E-08
   29.94000     -4.6392351E-08
   30.00000     -4.5715677E-08
   30.06000     -4.5160455E-08
   30.12000     -4.4743231E-08
   30.18000     -4.4466944E-08
   30.24000     -4.4318458E-08
   30.30000     -4.4268987E-08
   30.36000     -4.4278021E-08
   30.42000     -4.4300652E-08
   30.48000     -4.4297046E-08
   30.54000     -4.4241897E-08
   30.60000     -4.4130715E-08
   30.66000     -4.3980680E-08
   30.72000     -4.3825374E-08
   30.78000     -4.3704780E-08
   30.84000     -4.3654008E-08
   30.90000     -4.3694296E-08
   30.96000     -4.3829022E-08
   31.02000     -4.4045319E-08
   31.08000     -4.4319929E-08
   31.14000     -4.4626859E-08
   31.20000     -4.4944432E-08
   31.26000     -4.5260041E-08
   31.32000     -4.5571994E-08
   31.38000     -4.5888470E-08
   31.44000     -4.6224088E-08
   31.50000     -4.6594682E-08
   31.56000     -4.7011522E-08
   31.62000     -4.7476469E-08
   31.68000     -4.7979697E-08
   31.74000     -4.8501047E-08
   31.80000     -4.9014897E-08
   31.86000     -4.9496954E-08
   31.92000     -4.9930478E-08
   31.98000     -5.0309417E-08
   32.04000     -5.0637158E-08
   32.10000     -5.0921365E-08
   32.16000     -5.1166936E-08
   32.22000     -5.1370108E-08
   32.28000     -5.1516153E-08
   32.34000     -5.1581818E-08
   32.40000     -5.1541882E-08
   32.46000     -5.1377476E-08
   32.52000     -5.1083290E-08
   32.58000     -5.0670955E-08
   32.64000     -5.0167287E-08
   32.70000     -4.9607852E-08
   32.76000     -4.9027758E-08
   32.82000     -4.8452790E-08
   32.88000     -4.7893696E-08
   32.94000     -4.7345420E-08
   33.00000     -4.6791421E-08
   33.06000     -4.6211404E-08
   33.12000     -4.5589626E-08
   33.18000     -4.4920803E-08
   33.24000     -4.4211401E-08
   33.30000     -4.3475804E-08
   33.36000     -4.2728779E-08
   33.42000     -4.1977056E-08
   33.48000     -4.1213511E-08
   33.54000     -4.0416666E-08
   33.60000     -3.9556493E-08
   33.66000     -3.8605030E-08
   33.72000     -3.7548357E-08
   33.78000     -3.6395392E-08
   33.84000     -3.5179735E-08
   33.90000     -3.3952922E-08
   33.96000     -3.2770448E-08
   34.02000     -3.1674674E-08
   34.08000     -3.0680052E-08
   34.14000     -2.9765484E-08
   34.20000     -2.8876594E-08
   34.26000     -2.7937476E-08
   34.32000     -2.6868658E-08
   34.38000     -2.5606310E-08
   34.44000     -2.4117524E-08
   34.50000     -2.2407773E-08
   34.56000     -2.0518844E-08
   34.62000     -1.8518101E-08
   34.68000     -1.6482067E-08
   34.74000     -1.4478664E-08
   34.80000     -1.2552709E-08
   34.86000     -1.0718307E-08
   34.92000     -8.9598453E-09
   34.98000     -7.2408932E-09
   35.04000     -5.5180540E-09
   35.10000     -3.7554608E-09
   35.16000     -1.9355917E-09
   35.22000     -6.3474455E-11
   35.28000      1.8363675E-09
   35.34000      3.7284349E-09
   35.40000      5.5767471E-09
   35.46000      7.3534294E-09
   35.52000      9.0425365E-09
   35.58000      1.0638222E-08
   35.64000      1.2138612E-08
   35.70000      1.3538300E-08
   35.76000      1.4822821E-08
   35.82000      1.5967593E-08
   35.88000      1.6942030E-08
   35.94000      1.7717493E-08
   36.00000      1.8276266E-08
   36.06000      1.8618222E-08
   36.12000      1.8762631E-08
   36.18000      1.8744093E-08
   36.24000      1.8603618E-08
   36.30000      1.8377467E-08
   36.36000      1.8087160E-08
   36.42000      1.7733724E-08
   36.48000      1.7297873E-08
   36.54000      1.6745954E-08
   36.60000      1.6039541E-08
   36.66000      1.5145424E-08
   36.72000      1.4042622E-08
   36.78000      1.2724176E-08
   36.84000      1.1193407E-08
   36.90000      9.4562997E-09
   36.96000      7.5131785E-09
   37.02000      5.3531028E-09
   37.08000      2.9533773E-09
   37.14000      2.8475292E-10
   37.20000     -2.6792450E-09
   37.26000     -5.9519367E-09
   37.32000     -9.5255546E-09
   37.38000     -1.3368442E-08
   37.44000     -1.7428347E-08
   37.50000     -2.1640782E-08
   37.56000     -2.5939840E-08
   37.62000     -3.0268271E-08
   37.68000     -3.4584023E-08
   37.74000     -3.8861842E-08
   37.80000     -4.3090012E-08
   37.86000     -4.7263775E-08
   37.92000     -5.1377597E-08
   37.98000     -5.5418436E-08
   38.04000     -5.9361525E-08
   38.10000     -6.3169409E-08
   38.16000     -6.6793881E-08
   38.22000     -7.0180249E-08
   38.28000     -7.3272581E-08
   38.34000     -7.6019070E-08
   38.40000     -7.8376445E-08
   38.46000     -8.0313100E-08
   38.52000     -8.1810782E-08
   38.58000     -8.2865142E-08
   38.64000     -8.3485375E-08
   38.70000     -8.3693237E-08
   38.76000     -8.3521165E-08
   38.82000     -8.3009553E-08
   38.88000     -8.2203016E-08
   38.94000     -8.1146020E-08
   39.00000     -7.9878589E-08
   39.06000     -7.8433203E-08
   39.12000     -7.6833700E-08
   39.18000     -7.5096445E-08
   39.24000     -7.3233572E-08
   39.30000     -7.1257205E-08
   39.36000     -6.9183159E-08
   39.42000     -6.7032985E-08
   39.48000     -6.4833436E-08
   39.54000     -6.2613424E-08
   39.60000     -6.0399366E-08
   39.66000     -5.8210379E-08
   39.72000     -5.6055022E-08
   39.78000     -5.3930556E-08
   39.84000     -5.1825033E-08
   39.90000     -4.9721365E-08
   39.96000     -4.7601944E-08
   40.02000     -4.5452516E-08
   40.08000     -4.3264375E-08
   40.14000     -4.1034916E-08
   40.20000     -3.8767002E-08
   40.26000     -3.6467746E-08
   40.32000     -3.4147146E-08
   40.38000     -3.1816779E-08
   40.44000     -2.9488785E-08
   40.50000     -2.7175604E-08
   40.56000     -2.4890934E-08
   40.62000     -2.2652044E-08
   40.68000     -2.0482723E-08
   40.74000     -1.8415312E-08
   40.80000     -1.6490166E-08
   40.86000     -1.4751521E-08
   40.92000     -1.3240499E-08
   40.98000     -1.1987383E-08
   41.04000     -1.1006043E-08
   41.10000     -1.0292634E-08
   41.16000     -9.8289430E-09
   41.22000     -9.5888550E-09
   41.28000     -9.5453911E-09
   41.34000     -9.6760209E-09
   41.40000     -9.9652517E-09
   41.46000     -1.0404841E-08
   41.52000     -1.0992734E-08
   41.58000     -1.1731624E-08
   41.64000     -1.2627299E-08
   41.70000     -1.3686467E-08
   41.76000     -1.4913820E-08
   41.82000     -1.6308869E-08
   41.88000     -1.7863714E-08
   41.94000     -1.9562979E-08
   42.00000     -2.1386294E-08
   42.06000     -2.3312515E-08
   42.12000     -2.5323843E-08
   42.18000     -2.7408154E-08
   42.24000     -2.9558645E-08
   42.30000     -3.1771453E-08
   42.36000     -3.4042703E-08
   42.42000     -3.6366522E-08
   42.48000     -3.8734651E-08
   42.54000     -4.1137195E-08
   42.60000     -4.3563393E-08
   42.66000     -4.6001592E-08
   42.72000     -4.8438405E-08
   42.78000     -5.0857889E-08
   42.84000     -5.3241692E-08
   42.90000     -5.5570560E-08
   42.96000     -5.7826622E-08
   43.02000     -5.9995237E-08
   43.08000     -6.2065524E-08
   43.14000     -6.4029273E-08
   43.20000     -6.5879263E-08
   43.26000     -6.7608205E-08
   43.32000     -6.9209044E-08
   43.38000     -7.0676535E-08
   43.44000     -7.2008966E-08
   43.50000     -7.3208795E-08
   43.56000     -7.4281587E-08
   43.62000     -7.5233821E-08
   43.68000     -7.6070663E-08
   43.74000     -7.6794976E-08
   43.80000     -7.7407989E-08
   43.86000     -7.7910912E-08
   43.92000     -7.8306464E-08
   43.98000     -7.8598930E-08
   44.04000     -7.8792645E-08
   44.10000     -7.8889556E-08
   44.16000     -7.8887240E-08
   44.22000     -7.8778456E-08
   44.28000     -7.8552787E-08
   44.34000     -7.8199868E-08
   44.40000     -7.7712897E-08
   44.46000     -7.7091151E-08
   44.52000     -7.6340640E-08
   44.58000     -7.5472791E-08
   44.64000     -7.4501799E-08
   44.70000     -7.3441882E-08
   44.76000     -7.2305255E-08
   44.82000     -7.1101354E-08
   44.88000     -6.9837384E-08
   44.94000     -6.8519419E-08
   45.00000     -6.7153664E-08
   45.06000     -6.5747450E-08
   45.12000     -6.4309567E-08
   45.18000     -6.2850106E-08
   45.24000     -6.1379446E-08
   45.30000     -5.9906284E-08
   45.36000     -5.8434761E-08
   45.42000     -5.6961156E-08
   45.48000     -5.5471329E-08
   45.54000     -5.3940237E-08
   45.60000     -5.2334663E-08
   45.66000     -5.0619029E-08
   45.72000     -4.8763031E-08
   45.78000     -4.6748635E-08
   45.84000     -4.4574211E-08
   45.90000     -4.2254332E-08
   45.96000     -3.9815571E-08
   46.02000     -3.7290022E-08
   46.08000     -3.4708943E-08
   46.14000     -3.2098658E-08
   46.20000     -2.9479578E-08
   46.26000     -2.6867891E-08
   46.32000     -2.4278584E-08
   46.38000     -2.1728130E-08
   46.44000     -1.9235728E-08
   46.50000     -1.6822741E-08
   46.56000     -1.4510786E-08
   46.62000     -1.2319274E-08
   46.68000     -1.0263289E-08
   46.74000     -8.3523322E-09
   46.80000     -6.5901418E-09
   46.86000     -4.9754982E-09
   46.92000     -3.5038030E-09
   46.98000     -2.1691846E-09
   47.04000     -9.6680797E-10
   47.10000      1.0506154E-10
   47.16000      1.0438475E-09
   47.22000      1.8428699E-09
   47.28000      2.4932112E-09
   47.34000      2.9868445E-09
   47.40000      3.3199601E-09
   47.46000      3.4951142E-09
   47.52000      3.5211152E-09
   47.58000      3.4105059E-09
   47.64000      3.1756231E-09
   47.70000      2.8249987E-09
   47.76000      2.3618099E-09
   47.82000      1.7852096E-09
   47.88000      1.0940368E-09
   47.94000      2.9131736E-10
   48.00000     -6.1240013E-10
   48.06000     -1.5983609E-09
   48.12000     -2.6420528E-09
   48.18000     -3.7182293E-09
   48.24000     -4.8072231E-09
   48.30000     -5.9009859E-09
   48.36000     -7.0073609E-09
   48.42000     -8.1513738E-09
   48.48000     -9.3728953E-09
   48.54000     -1.0720862E-08
   48.60000     -1.2245316E-08
   48.66000     -1.3989490E-08
   48.72000     -1.5984579E-08
   48.78000     -1.8249233E-08
   48.84000     -2.0794456E-08
   48.90000     -2.3632747E-08
   48.96000     -2.6789012E-08
   49.02000     -3.0310325E-08
   49.08000     -3.4272322E-08
   49.14000     -3.8781270E-08
   49.20000     -4.3972232E-08
   49.26000     -5.0004711E-08
   49.32000     -5.7057765E-08
   49.38000     -6.5326617E-08
   49.44000     -7.5022676E-08
   49.50000     -8.6378179E-08
   49.56000     -9.9655601E-08
   49.62000     -1.1516079E-07
   49.68000     -1.3325773E-07
   49.74000     -1.5438249E-07
   49.80000     -1.7905526E-07
   49.86000     -2.0789008E-07
   49.92000     -2.4160343E-07
   49.98000     -2.8102326E-07
   50.04000     -3.2709909E-07
   50.10000     -3.8091383E-07
   50.16000     -4.4369759E-07
   50.22000     -5.1684361E-07
   50.28000     -6.0192752E-07
   50.34000     -7.0072980E-07
   50.40000     -8.1526105E-07
   50.46000     -9.4778704E-07
   50.52000     -1.1008513E-06
   50.58000     -1.2772954E-06
   50.64000     -1.4802778E-06
   50.70000     -1.7132976E-06
   50.76000     -1.9802235E-06
   50.82000     -2.2853319E-06
   50.88000     -2.6333507E-06
   50.94000     -3.0295027E-06
   51.00000     -3.4795444E-06
   51.06000     -3.9898014E-06
   51.12000     -4.5671964E-06
   51.18000     -5.2192786E-06
   51.24000     -5.9542476E-06
   51.30000     -6.7809760E-06
   51.36000     -7.7090326E-06
   51.42000     -8.7486969E-06
   51.48000     -9.9109675E-06
   51.54000     -1.1207587E-05
   51.60000     -1.2651049E-05
   51.66000     -1.4254622E-05
   51.72000     -1.6032353E-05
   51.78000     -1.7999066E-05
   51.84000     -2.0170337E-05
   51.90000     -2.2562459E-05
   51.96000     -2.5192379E-05
   52.02000     -2.8077660E-05
   52.08000     -3.1236410E-05
   52.14000     -3.4687222E-05
   52.20000     -3.8449081E-05
   52.26000     -4.2541269E-05
   52.32000     -4.6983256E-05
   52.38000     -5.1794566E-05
   52.44000     -5.6994668E-05
   52.50000     -6.2602798E-05
   52.56000     -6.8637826E-05
   52.62000     -7.5118071E-05
   52.68000     -8.2061073E-05
   52.74000     -8.9483430E-05
   52.80000     -9.7400567E-05
   52.86000     -1.0582656E-04
   52.92000     -1.1477389E-04
   52.98000     -1.2425332E-04
   53.04000     -1.3427359E-04
   53.10000     -1.4484121E-04
   53.16000     -1.5596030E-04
   53.22000     -1.6763227E-04
   53.28000     -1.7985579E-04
   53.34000     -1.9262642E-04
   53.40000     -2.0593657E-04
   53.46000     -2.1977529E-04
   53.52000     -2.3412818E-04
   53.58000     -2.4897719E-04
   53.64000     -2.6430070E-04
   53.70000     -2.8007329E-04
   53.76000     -2.9626599E-04
   53.82000     -3.1284612E-04
   53.88000     -3.2977739E-04
   53.94000     -3.4702010E-04
   54.00000     -3.6453104E-04
   54.06000     -3.8226382E-04
   54.12000     -4.0016900E-04
   54.18000     -4.1819434E-04
   54.24000     -4.3628510E-04
   54.30000     -4.5438437E-04
   54.36000     -4.7243343E-04
   54.42000     -4.9037213E-04
   54.48000     -5.0813955E-04
   54.54000     -5.2567379E-04
   54.60000     -5.4291310E-04
   54.66000     -5.5979588E-04
   54.72000     -5.7626143E-04
   54.78000     -5.9225055E-04
   54.84000     -6.0770562E-04
   54.90000     -6.2257168E-04
   54.96000     -6.3679623E-04
   55.02000     -6.5033004E-04
   55.08000     -6.6312769E-04
   55.14000     -6.7514775E-04
   55.20000     -6.8635331E-04
   55.26000     -6.9671241E-04
   55.32000     -7.0619810E-04
   55.38000     -7.1478909E-04
   55.44000     -7.2246953E-04
   55.50000     -7.2922942E-04
   55.56000     -7.3506479E-04