  -2.400000      0.0000000E+00
  -2.340000      0.0000000E+00
  -2.280000      0.0000000E+00
  -2.220000      0.0000000E+00
  -2.160000      0.0000000E+00
  -2.100000      0.0000000E+00
  -2.040000      0.0000000E+00
  -1.980000      0.0000000E+00
  -1.920000      4.0777253E-25
  -1.860000      3.7908644E-24
  -1.800000      1.5006618E-23
  -1.740000      2.3692074E-23
  -1.680000     -4.9676061E-23
  -1.620000     -3.9454604E-22
  -1.560000     -1.1192580E-21
  -1.500000     -1.5332153E-21
  -1.440000      8.7671825E-22
  -1.380000      1.0117682E-20
  -1.320000      2.6976948E-20
  -1.260000      3.8580680E-20
  -1.200000      8.8028666E-21
  -1.140000     -1.1182308E-19
  -1.080000     -3.3441392E-19
  -1.020000     -5.4053968E-19
 -0.9600000     -4.1436284E-19
 -0.9000000      4.7394321E-19
 -0.8400000      2.3153453E-18
 -0.7800000      4.4901973E-18
 -0.7200000      5.1463670E-18
 -0.6600000      1.5704982E-18
 -0.6000000     -8.1221849E-18
 -0.5400000     -2.2240215E-17
 -0.4800000     -3.3271236E-17
 -0.4200000     -2.8709192E-17
 -0.3600000      2.9744571E-18
 -0.3000000      6.1931449E-17
 -0.2400000      1.2721626E-16
 -0.1800000      1.5623249E-16
 -0.1200000      1.0062292E-16
 -5.9999999E-02 -6.2067603E-17
  0.0000000E+00 -2.9433275E-16
  5.9999999E-02 -4.8609807E-16
  0.1200000     -4.8626086E-16
  0.1800000     -1.8238581E-16
  0.2400000      3.9973496E-16
  0.3000000      1.0349450E-15
  0.3600000      1.3394940E-15
  0.4200000      9.4120078E-16
  0.4800000     -2.6679052E-16
  0.5400000     -1.9140080E-15
  0.6000000     -3.1437907E-15
  0.6600000     -2.9170269E-15
  0.7200000     -5.9006999E-16
  0.7800000      3.4658119E-15
  0.8400000      7.5752232E-15
  0.9000000      9.1427406E-15
  0.9600000      5.7977809E-15
   1.020000     -3.0401685E-15
   1.080000     -1.4931417E-14
   1.140000     -2.4419115E-14
   1.200000     -2.4826029E-14
   1.260000     -1.1581898E-14
   1.320000      1.4205409E-14
   1.380000      4.3915070E-14
   1.440000      6.3105452E-14
   1.500000      5.7202093E-14
   1.560000      1.9525077E-14
   1.620000     -4.1991536E-14
   1.680000     -1.0367256E-13
   1.740000     -1.3325814E-13
   1.800000     -1.0432640E-13
   1.860000     -1.2532339E-14
   1.920000      1.1465163E-13
   1.980000      2.2215351E-13
   2.040000      2.4765023E-13
   2.100000      1.5208680E-13
   2.160000     -5.2888812E-14
   2.220000     -2.9600511E-13
   2.280000     -4.6581239E-13
   2.340000     -4.5597348E-13
   2.400000     -2.1966933E-13
   2.460000      1.9244505E-13
   2.520000      6.3374490E-13
   2.580000      9.1043254E-13
   2.640000      8.6297750E-13
   2.700000      4.4615033E-13
   2.760000     -2.3188772E-13
   2.820000     -9.3702465E-13
   2.880000     -1.3992182E-12
   2.940000     -1.4288867E-12
   3.000000     -1.0050568E-12
   3.060000     -2.8809507E-13
   3.120000      4.5670764E-13
   3.180000      9.9277672E-13
   3.240000      1.2358982E-12
   3.300000      1.2964372E-12
   3.360000      1.4029843E-12
   3.420000      1.7311342E-12
   3.480000      2.2203951E-12
   3.540000      2.4879836E-12
   3.600000      1.9206813E-12
   3.660000     -5.0550049E-14
   3.720000     -3.5837854E-12
   3.780000     -8.1276591E-12
   3.840000     -1.2357709E-11
   3.900000     -1.4442975E-11
   3.960000     -1.2611432E-11
   4.020000     -5.8495916E-12
   4.080000      5.5103118E-12
   4.140000      1.9552861E-11
   4.200000      3.3025013E-11
   4.260000      4.2036243E-11
   4.320000      4.3027869E-11
   4.380000      3.3735854E-11
   4.440000      1.3881181E-11
   4.500000     -1.4576224E-11
   4.560000     -4.7638442E-11
   4.620000     -7.9817250E-11
   4.680000     -1.0486453E-10
   4.740000     -1.1655024E-10
   4.800000     -1.0943735E-10
   4.860000     -7.9684148E-11
   4.920000     -2.5926013E-11
   4.980000      4.9781061E-11
   5.040000      1.4110922E-10
   5.100000      2.3699573E-10
   5.160000      3.2192712E-10
   5.220000      3.7725137E-10
   5.280000      3.8356904E-10
   5.340000      3.2393033E-10
   5.400000      1.8724963E-10
   5.460000     -2.8831383E-11
   5.520000     -3.1636527E-10
   5.580000     -6.5726724E-10
   5.640000     -1.0252657E-09
   5.700000     -1.3892141E-09
   5.760000     -1.7170230E-09
   5.820000     -1.9793800E-09
   5.880000     -2.1526159E-09
   5.940000     -2.2204252E-09
   6.000000     -2.1745645E-09
   6.060000     -2.0149129E-09
   6.120000     -1.7493201E-09
   6.180000     -1.3934708E-09
   6.240000     -9.7066089E-10
   6.300000     -5.1109933E-10
   6.360000     -5.0268616E-11
   6.420000      3.7392928E-10
   6.480000      7.2510570E-10
   6.540000      9.7279673E-10
   6.600000      1.0964516E-09
   6.660000      1.0880939E-09
   6.720000      9.5307939E-10
   6.780000      7.0889933E-10
   6.840000      3.8250131E-10
   6.900000      6.8840463E-12
   6.960000     -3.8229842E-10
   7.020000     -7.4970424E-10
   7.080000     -1.0628241E-09
   7.140000     -1.2943135E-09
   7.200000     -1.4243916E-09
   7.260000     -1.4432628E-09
   7.320000     -1.3531082E-09
   7.380000     -1.1688772E-09
   7.440000     -9.1714669E-10
   7.500000     -6.3273431E-10
   7.560000     -3.5345962E-10
   7.620000     -1.1414722E-10
   7.680000      5.8627929E-11
   7.740000      1.4966225E-10
   7.800000      1.5533760E-10
   7.860000      8.1072267E-11
   7.920000     -6.2965133E-11
   7.980000     -2.6634342E-10
   8.040000     -5.2157545E-10
   8.100000     -8.2514384E-10
   8.160000     -1.1763243E-09
   8.220000     -1.5746109E-09
   8.280000     -2.0170101E-09
   8.340000     -2.4963995E-09
   8.400000     -3.0016101E-09
   8.460000     -3.5191265E-09
   8.520000     -4.0356145E-09
   8.580000     -4.5401771E-09
   8.640000     -5.0254019E-09
   8.700000     -5.4867959E-09
   8.760000     -5.9208847E-09
   8.820000     -6.3227961E-09
   8.880000     -6.6843193E-09
   8.940000     -6.9932131E-09
   9.000000     -7.2340351E-09
   9.060000     -7.3901871E-09
   9.120000     -7.4464745E-09
   9.180000     -7.3913782E-09
   9.240000     -7.2184432E-09
   9.300000     -6.9265740E-09
   9.360000     -6.5194170E-09
   9.420000     -6.0042193E-09
   9.480000     -5.3905511E-09
   9.540000     -4.6890616E-09
   9.600000     -3.9102361E-09
   9.660000     -3.0629657E-09
   9.720000     -2.1528637E-09
   9.780000     -1.1805223E-09
   9.840000     -1.4026028E-10
   9.900000      9.7992836E-10
   9.960000      2.1966151E-09
   10.02000      3.5272476E-09
   10.08000      4.9851021E-09
   10.14000      6.5741066E-09
   10.20000      8.2851086E-09
   10.26000      1.0094972E-08
   10.32000      1.1969186E-08
   10.38000      1.3867623E-08
   10.44000      1.5752089E-08
   10.50000      1.7593640E-08
   10.56000      1.9377618E-08
   10.62000      2.1104997E-08
   10.68000      2.2789632E-08
   10.74000      2.4452264E-08
   10.80000      2.6113030E-08
   10.86000      2.7784607E-08
   10.92000      2.9467941E-08
   10.98000      3.1151657E-08
   11.04000      3.2815173E-08
   11.10000      3.4434372E-08
   11.16000      3.5988066E-08
   11.22000      3.7463217E-08
   11.28000      3.8857380E-08
   11.34000      4.0177810E-08
   11.40000      4.1437875E-08
   11.46000      4.2652104E-08
   11.52000      4.3831733E-08
   11.58000      4.4982109E-08
   11.64000      4.6102393E-08
   11.70000      4.7187044E-08
   11.76000      4.8227747E-08
   11.82000      4.9214417E-08
   11.88000      5.0134563E-08
   11.94000      5.0971277E-08
   12.00000      5.1701257E-08
   12.06000      5.2294517E-08
   12.12000      5.2717112E-08
   12.18000      5.2937057E-08
   12.24000      5.2932151E-08
   12.30000      5.2697295E-08
   12.36000      5.2248545E-08
   12.42000      5.1621925E-08
   12.48000      5.0866536E-08
   12.54000      5.0033513E-08
   12.60000      4.9163845E-08
   12.66000      4.8278817E-08
   12.72000      4.7376219E-08
   12.78000      4.6433719E-08
   12.84000      4.5418602E-08
   12.90000      4.4300947E-08
   12.96000      4.3066070E-08
   13.02000      4.1722206E-08
   13.08000      4.0300872E-08
   13.14000      3.8849528E-08
   13.20000      3.7418793E-08
   13.26000      3.6047989E-08
   13.32000      3.4753416E-08
   13.38000      3.3522870E-08
   13.44000      3.2317985E-08
   13.50000      3.1083768E-08
   13.56000      2.9762674E-08
   13.62000      2.8309438E-08
   13.68000      2.6702811E-08
   13.74000      2.4951271E-08
   13.80000      2.3091339E-08
   13.86000      2.1179034E-08
   13.92000      1.9276664E-08
   13.98000      1.7438333E-08
   14.04000      1.5697914E-08
   14.10000      1.4062518E-08
   14.16000      1.2513179E-08
   14.22000      1.1012348E-08
   14.28000      9.5159738E-09
   14.34000      7.9865741E-09
   14.40000      6.4035697E-09
   14.46000      4.7680389E-09
   14.52000      3.1009100E-09
   14.58000      1.4356132E-09
   14.64000     -1.9217999E-10
   14.70000     -1.7544135E-09
   14.76000     -3.2372331E-09
   14.82000     -4.6426685E-09
   14.88000     -5.9854131E-09
   14.94000     -7.2861925E-09
   15.00000     -8.5641094E-09
   15.06000     -9.8305000E-09
   15.12000     -1.1086228E-08
   15.18000     -1.2323182E-08
   15.24000     -1.3529369E-08
   15.30000     -1.4695756E-08
   15.36000     -1.5822325E-08
   15.42000     -1.6920897E-08
   15.48000     -1.8013200E-08
   15.54000     -1.9124318E-08
   15.60000     -2.0273292E-08
   15.66000     -2.1463922E-08
   15.72000     -2.2679050E-08
   15.78000     -2.3880640E-08
   15.84000     -2.5016110E-08
   15.90000     -2.6029330E-08
   15.96000     -2.6873167E-08
   16.02000     -2.7520072E-08
   16.08000     -2.7968067E-08
   16.14000     -2.8241095E-08
   16.20000     -2.8384509E-08
   16.26000     -2.8457734E-08
   16.32000     -2.8526447E-08
   16.38000     -2.8656137E-08
   16.44000     -2.8907916E-08
   16.50000     -2.9336407E-08
   16.56000     -2.9988957E-08
   16.62000     -3.0905088E-08
   16.68000     -3.2115405E-08
   16.74000     -3.3639569E-08
   16.80000     -3.5483534E-08
   16.86000     -3.7636735E-08
   16.92000     -4.0070184E-08
   16.98000     -4.2736623E-08
   17.04000     -4.5573657E-08
   17.10000     -4.8510113E-08
   17.16000     -5.1475162E-08
   17.22000     -5.4408641E-08
   17.28000     -5.7270295E-08
   17.34000     -6.0045345E-08
   17.40000     -6.2744299E-08
   17.46000     -6.5396229E-08
   17.52000     -6.8036321E-08
   17.58000     -7.0690504E-08
   17.64000     -7.3360937E-08
   17.70000     -7.6016072E-08
   17.76000     -7.8587981E-08
   17.82000     -8.0977550E-08
   17.88000     -8.3066084E-08
   17.94000     -8.4730587E-08
   18.00000     -8.5859384E-08
   18.06000     -8.6365368E-08
   18.12000     -8.6195278E-08
   18.18000     -8.5334335E-08
   18.24000     -8.3806277E-08
   18.30000     -8.1669434E-08
   18.36000     -7.9009524E-08
   18.42000     -7.5930330E-08
   18.48000     -7.2543834E-08
   18.54000     -6.8961029E-08
   18.60000     -6.5284809E-08
   18.66000     -6.1605220E-08
   18.72000     -5.7996751E-08
   18.78000     -5.4516878E-08
   18.84000     -5.1205024E-08
   18.90000     -4.8081823E-08
   18.96000     -4.5149005E-08
   19.02000     -4.2390777E-08
   19.08000     -3.9777198E-08
   19.14000     -3.7269658E-08
   19.20000     -3.4827767E-08
   19.26000     -3.2416555E-08
   19.32000     -3.0012743E-08
   19.38000     -2.7609126E-08
   19.44000     -2.5216304E-08
   19.50000     -2.2861515E-08
   19.56000     -2.0584684E-08
   19.62000     -1.8432207E-08
   19.68000     -1.6449494E-08
   19.74000     -1.4673577E-08
   19.80000     -1.3127153E-08
   19.86000     -1.1815035E-08
   19.92000     -1.0723411E-08
   19.98000     -9.8216368E-09
   20.04000     -9.0659427E-09
   20.10000     -8.4043510E-09
   20.16000     -7.7823472E-09
   20.22000     -7.1488881E-09
   20.28000     -6.4622521E-09
   20.34000     -5.6949134E-09
   20.40000     -4.8363504E-09
   20.46000     -3.8928762E-09
   20.52000     -2.8842648E-09
   20.58000     -1.8379592E-09
   20.64000     -7.8250439E-10
   20.70000      2.5789243E-10
   20.76000      1.2663259E-09
   20.82000      2.2334599E-09
   20.88000      3.1560172E-09
   20.94000      4.0350048E-09
   21.00000      4.8749489E-09
   21.06000      5.6844982E-09
   21.12000      6.4776677E-09
   21.18000      7.2743167E-09
   21.24000      8.0985476E-09
   21.30000      8.9745233E-09
   21.36000      9.9203827E-09
   21.42000      1.0941908E-08
   21.48000      1.2028007E-08
   21.54000      1.3149643E-08
   21.60000      1.4262847E-08
   21.66000      1.5315221E-08
   21.72000      1.6254329E-08
   21.78000      1.7035946E-08
   21.84000      1.7630370E-08
   21.90000      1.8025789E-08
   21.96000      1.8228548E-08
   22.02000      1.8260993E-08
   22.08000      1.8157811E-08
   22.14000      1.7961641E-08
   22.20000      1.7718451E-08
   22.26000      1.7472770E-08
   22.32000      1.7262831E-08
   22.38000      1.7115893E-08
   22.44000      1.7044254E-08
   22.50000      1.7042783E-08
   22.56000      1.7088727E-08
   22.62000      1.7144350E-08
   22.68000      1.7162471E-08
   22.74000      1.7094374E-08
   22.80000      1.6899001E-08
   22.86000      1.6551693E-08
   22.92000      1.6050500E-08
   22.98000      1.5418150E-08
   23.04000      1.4698588E-08
   23.10000      1.3948333E-08
   23.16000      1.3224539E-08
   23.22000      1.2572846E-08
   23.28000      1.2018398E-08
   23.34000      1.1562489E-08
   23.40000      1.1185418E-08
   23.46000      1.0854139E-08
   23.52000      1.0531853E-08
   23.58000      1.0186488E-08
   23.64000      9.7958903E-09
   23.70000      9.3490238E-09
   23.76000      8.8439442E-09
   23.82000      8.2840534E-09
   23.88000      7.6743119E-09
   23.94000      7.0186514E-09
   24.00000      6.3193322E-09
   24.06000      5.5783902E-09
   24.12000      4.8008015E-09
   24.18000      3.9983044E-09
   24.24000      3.1922391E-09
   24.30000      2.4134863E-09
   24.36000      1.6981102E-09
   24.42000      1.0787155E-09
   24.48000      5.7349941E-10
   24.54000      1.7667465E-10
   24.60000     -1.4557544E-10
   24.66000     -4.5076223E-10
   24.72000     -8.0733076E-10
   24.78000     -1.2767650E-09
   24.84000     -1.8962412E-09
   24.90000     -2.6678511E-09
   24.96000     -3.5583976E-09
   25.02000     -4.5101043E-09
   25.08000     -5.4587073E-09
   25.14000     -6.3528240E-09
   25.20000     -7.1681932E-09
   25.26000     -7.9123197E-09
   25.32000     -8.6184979E-09
   25.38000     -9.3317016E-09
   25.44000     -1.0091340E-08
   25.50000     -1.0916575E-08
   25.56000     -1.1798798E-08
   25.62000     -1.2703484E-08
   25.68000     -1.3580793E-08
   25.74000     -1.4381721E-08
   25.80000     -1.5075065E-08
   25.86000     -1.5660088E-08
   25.92000     -1.6170876E-08
   25.98000     -1.6670501E-08
   26.04000     -1.7236081E-08
   26.10000     -1.7938516E-08
   26.16000     -1.8822794E-08
   26.22000     -1.9894909E-08
   26.28000     -2.1119876E-08
   26.34000     -2.2431903E-08
   26.40000     -2.3753898E-08
   26.46000     -2.5020146E-08
   26.52000     -2.6194941E-08
   26.58000     -2.7281168E-08
   26.64000     -2.8316450E-08
   26.70000     -2.9358731E-08
   26.76000     -3.0466666E-08
   26.82000     -3.1681584E-08
   26.88000     -3.3016676E-08
   26.94000     -3.4456114E-08
   27.00000     -3.5963261E-08
   27.06000     -3.7494249E-08
   27.12000     -3.9011983E-08
   27.18000     -4.0495951E-08
   27.24000     -4.1944940E-08
   27.30000     -4.3372172E-08
   27.36000     -4.4794621E-08
   27.42000     -4.6220148E-08
   27.48000     -4.7637041E-08
   27.54000     -4.9010211E-08
   27.60000     -5.0286570E-08
   27.66000     -5.1409337E-08
   27.72000     -5.2337619E-08
   27.78000     -5.3065115E-08
   27.84000     -5.3631052E-08
   27.90000     -5.4118139E-08
   27.96000     -5.4636480E-08
   28.02000     -5.5297118E-08
   28.08000     -5.6182994E-08
   28.14000     -5.7326400E-08
   28.20000     -5.8700341E-08
   28.26000     -6.0226618E-08
   28.32000     -6.1797977E-08
   28.38000     -6.3307091E-08
   28.44000     -6.4673323E-08
   28.50000     -6.5859282E-08
   28.56000     -6.6872801E-08
   28.62000     -6.7754975E-08
   28.68000     -6.8558663E-08
   28.74000     -6.9324905E-08
   28.80000     -7.0064388E-08
   28.86000     -7.0749742E-08
   28.92000     -7.1320962E-08
   28.98000     -7.1702274E-08
   29.04000     -7.1825369E-08
   29.10000     -7.1651435E-08
   29.16000     -7.1184722E-08
   29.22000     -7.0472460E-08
   29.28000     -6.9590669E-08
   29.34000     -6.8620267E-08
   29.40000     -6.7621741E-08
   29.46000     -6.6617247E-08
   29.52000     -6.5586775E-08
   29.58000     -6.4479359E-08
   29.64000     -6.3235220E-08
   29.70000     -6.1810354E-08
   29.76000     -6.0194992E-08
   29.82000     -5.8419655E-08
   29.88000     -5.6547304E-08
   29.94000     -5.4655018E-08
   30.00000     -5.2811394E-08
   30.06000     -5.1057054E-08
   30.12000     -4.9394057E-08
   30.18000     -4.7787317E-08
   30.24000     -4.6177679E-08
   30.30000     -4.4502926E-08
   30.36000     -4.2720519E-08
   30.42000     -4.0824876E-08
   30.48000     -3.8853049E-08
   30.54000     -3.6876244E-08
   30.60000     -3.4979244E-08
   30.66000     -3.3234606E-08
   30.72000     -3.1680841E-08
   30.78000     -3.0312741E-08
   30.84000     -2.9087460E-08
   30.90000     -2.7943958E-08
   30.96000     -2.6827955E-08
   31.02000     -2.5712778E-08
   31.08000     -2.4608278E-08
   31.14000     -2.3555303E-08
   31.20000     -2.2608834E-08
   31.26000     -2.1817089E-08
   31.32000     -2.1204649E-08
   31.38000     -2.0765382E-08
   31.44000     -2.0466848E-08
   31.50000     -2.0263728E-08
   31.56000     -2.0115314E-08
   31.62000     -2.0001325E-08
   31.68000     -1.9931539E-08
   31.74000     -1.9946672E-08
   31.80000     -2.0110486E-08
   31.86000     -2.0495332E-08
   31.92000     -2.1165178E-08
   31.98000     -2.2161091E-08
   32.04000     -2.3493593E-08
   32.10000     -2.5144399E-08
   32.16000     -2.7076830E-08
   32.22000     -2.9250964E-08
   32.28000     -3.1637686E-08
   32.34000     -3.4226009E-08
   32.40000     -3.7021014E-08
   32.46000     -4.0033498E-08
   32.52000     -4.3266301E-08
   32.58000     -4.6703320E-08
   32.64000     -5.0306081E-08
   32.70000     -5.4019033E-08
   32.76000     -5.7780980E-08
   32.82000     -6.1537605E-08
   32.88000     -6.5250020E-08
   32.94000     -6.8896561E-08
   33.00000     -7.2467927E-08
   33.06000     -7.5958312E-08
   33.12000     -7.9356020E-08
   33.18000     -8.2636475E-08
   33.24000     -8.5759169E-08
   33.30000     -8.8668735E-08
   33.36000     -9.1299718E-08
   33.42000     -9.3584319E-08
   33.48000     -9.5461843E-08
   33.54000     -9.6888272E-08
   33.60000     -9.7843376E-08
   33.66000     -9.8332954E-08
   33.72000     -9.8384689E-08
   33.78000     -9.8038292E-08
   33.84000     -9.7333036E-08
   33.90000     -9.6297093E-08
   33.96000     -9.4942813E-08
   34.02000     -9.3269648E-08
   34.08000     -9.1272959E-08
   34.14000     -8.8954444E-08
   34.20000     -8.6329273E-08
   34.26000     -8.3426507E-08
   34.32000     -8.0282831E-08
   34.38000     -7.6932743E-08
   34.44000     -7.3399811E-08
   34.50000     -6.9693002E-08
   34.56000     -6.5809587E-08
   34.62000     -6.1743371E-08
   34.68000     -5.7495082E-08
   34.74000     -5.3081315E-08
   34.80000     -4.8539412E-08
   34.86000     -4.3927276E-08
   34.92000     -3.9318280E-08
   34.98000     -3.4792528E-08
   35.04000     -3.0426023E-08
   35.10000     -2.6279809E-08
   35.16000     -2.2391546E-08
   35.22000     -1.8771791E-08
   35.28000     -1.5406419E-08
   35.34000     -1.2264789E-08
   35.40000     -9.3112495E-09
   35.46000     -6.5162209E-09
   35.52000     -3.8633492E-09
   35.58000     -1.3509683E-09
   35.64000      1.0113965E-09
   35.70000      3.2088185E-09
   35.76000      5.2260480E-09
   35.82000      7.0500992E-09
   35.88000      8.6705114E-09
   35.94000      1.0078812E-08
   36.00000      1.1268752E-08
   36.06000      1.2237768E-08
   36.12000      1.2988749E-08
   36.18000      1.3530765E-08
   36.24000      1.3878062E-08
   36.30000      1.4047979E-08
   36.36000      1.4059324E-08
   36.42000      1.3932405E-08
   36.48000      1.3690411E-08
   36.54000      1.3360411E-08
   36.60000      1.2971758E-08
   36.66000      1.2550979E-08
   36.72000      1.2114405E-08
   36.78000      1.1661569E-08
   36.84000      1.1172633E-08
   36.90000      1.0611287E-08
   36.96000      9.9320570E-09
   37.02000      9.0889776E-09
   37.08000      8.0425506E-09
   37.14000      6.7635622E-09
   37.20000      5.2345772E-09
   37.26000      3.4511842E-09
   37.32000      1.4244671E-09
   37.38000     -8.1574109E-10
   37.44000     -3.2191922E-09
   37.50000     -5.7179426E-09
   37.56000     -8.2347142E-09
   37.62000     -1.0695397E-08
   37.68000     -1.3041813E-08
   37.74000     -1.5240245E-08
   37.80000     -1.7282805E-08
   37.86000     -1.9181616E-08
   37.92000     -2.0958556E-08
   37.98000     -2.2634623E-08
   38.04000     -2.4222480E-08
   38.10000     -2.5723862E-08
   38.16000     -2.7131524E-08
   38.22000     -2.8434016E-08
   38.28000     -2.9621299E-08
   38.34000     -3.0689648E-08
   38.40000     -3.1644952E-08
   38.46000     -3.2503834E-08
   38.52000     -3.3292196E-08
   38.58000     -3.4040919E-08
   38.64000     -3.4779156E-08
   38.70000     -3.5526543E-08
   38.76000     -3.6286917E-08
   38.82000     -3.7046156E-08
   38.88000     -3.7776207E-08
   38.94000     -3.8444931E-08
   39.00000     -3.9029040E-08
   39.06000     -3.9525453E-08
   39.12000     -3.9956319E-08
   39.18000     -4.0365105E-08
   39.24000     -4.0804576E-08
   39.30000     -4.1320924E-08
   39.36000     -4.1939956E-08
   39.42000     -4.2660570E-08
   39.48000     -4.3457732E-08
   39.54000     -4.4293422E-08
   39.60000     -4.5131280E-08
   39.66000     -4.5949584E-08
   39.72000     -4.6748482E-08
   39.78000     -4.7549676E-08
   39.84000     -4.8389310E-08
   39.90000     -4.9306379E-08
   39.96000     -5.0330026E-08
   40.02000     -5.1468721E-08
   40.08000     -5.2704216E-08
   40.14000     -5.3992053E-08
   40.20000     -5.5269137E-08
   40.26000     -5.6466973E-08
   40.32000     -5.7527188E-08
   40.38000     -5.8414791E-08
   40.44000     -5.9124847E-08
   40.50000     -5.9680175E-08
   40.56000     -6.0120669E-08
   40.62000     -6.0488006E-08
   40.68000     -6.0810784E-08
   40.74000     -6.1095228E-08
   40.80000     -6.1324343E-08
   40.86000     -6.1465357E-08
   40.92000     -6.1482766E-08
   40.98000     -6.1352395E-08
   41.04000     -6.1071773E-08
   41.10000     -6.0663488E-08
   41.16000     -6.0170329E-08
   41.22000     -5.9643661E-08
   41.28000     -5.9128588E-08
   41.34000     -5.8650606E-08
   41.40000     -5.8207998E-08
   41.46000     -5.7772258E-08
   41.52000     -5.7296297E-08
   41.58000     -5.6727558E-08
   41.64000     -5.6021804E-08
   41.70000     -5.5153571E-08
   41.76000     -5.4120800E-08
   41.82000     -5.2943371E-08
   41.88000     -5.1657146E-08
   41.94000     -5.0305982E-08
   42.00000     -4.8934101E-08
   42.06000     -4.7580606E-08
   42.12000     -4.6276817E-08
   42.18000     -4.5046544E-08
   42.24000     -4.3908503E-08
   42.30000     -4.2879659E-08
   42.36000     -4.1977636E-08
   42.42000     -4.1220527E-08
   42.48000     -4.0623178E-08
   42.54000     -4.0190525E-08
   42.60000     -3.9910436E-08
   42.66000     -3.9749398E-08
   42.72000     -3.9654104E-08
   42.78000     -3.9559968E-08
   42.84000     -3.9404831E-08
   42.90000     -3.9143792E-08
   42.96000     -3.8760174E-08
   43.02000     -3.8268855E-08
   43.08000     -3.7710770E-08
   43.14000     -3.7140428E-08
   43.20000     -3.6610270E-08
   43.26000     -3.6156493E-08
   43.32000     -3.5789988E-08
   43.38000     -3.5494526E-08
   43.44000     -3.5232340E-08
   43.50000     -3.4955651E-08
   43.56000     -3.4621323E-08
   43.62000     -3.4204984E-08
   43.68000     -3.3710585E-08
   43.74000     -3.3172132E-08
   43.80000     -3.2646120E-08
   43.86000     -3.2196130E-08
   43.92000     -3.1873761E-08
   43.98000     -3.1702189E-08
   44.04000     -3.1668336E-08
   44.10000     -3.1727101E-08
   44.16000     -3.1817088E-08
   44.22000     -3.1882831E-08
   44.28000     -3.1895908E-08
   44.34000     -3.1867348E-08
   44.40000     -3.1846618E-08
   44.46000     -3.1907366E-08
   44.52000     -3.2124522E-08
   44.58000     -3.2550606E-08
   44.64000     -3.3198738E-08
   44.70000     -3.4037473E-08
   44.76000     -3.4998191E-08
   44.82000     -3.5992031E-08
   44.88000     -3.6931109E-08
   44.94000     -3.7748368E-08
   45.00000     -3.8411855E-08
   45.06000     -3.8930853E-08
   45.12000     -3.9353072E-08
   45.18000     -3.9753196E-08
   45.24000     -4.0214779E-08
   45.30000     -4.0808786E-08
   45.36000     -4.1574094E-08
   45.42000     -4.2505640E-08
   45.48000     -4.3554763E-08
   45.54000     -4.4642672E-08
   45.60000     -4.5683446E-08
   45.66000     -4.6608950E-08
   45.72000     -4.7387140E-08
   45.78000     -4.8027410E-08
   45.84000     -4.8571529E-08
   45.90000     -4.9074195E-08
   45.96000     -4.9580745E-08
   46.02000     -5.0109929E-08
   46.08000     -5.0647436E-08
   46.14000     -5.1151329E-08
   46.20000     -5.1566847E-08
   46.26000     -5.1845120E-08
   46.32000     -5.1959685E-08
   46.38000     -5.1916015E-08
   46.44000     -5.1751428E-08
   46.50000     -5.1525781E-08
   46.56000     -5.1305872E-08
   46.62000     -5.1148007E-08
   46.68000     -5.1083539E-08
   46.74000     -5.1111162E-08
   46.80000     -5.1197798E-08
   46.86000     -5.1287884E-08
   46.92000     -5.1318771E-08
   46.98000     -5.1238505E-08
   47.04000     -5.1021221E-08
   47.10000     -5.0675492E-08
   47.16000     -5.0242349E-08
   47.22000     -4.9782777E-08
   47.28000     -4.9358203E-08
   47.34000     -4.9011092E-08
   47.40000     -4.8753396E-08
   47.46000     -4.8568385E-08
   47.52000     -4.8425804E-08
   47.58000     -4.8304653E-08
   47.64000     -4.8214442E-08
   47.70000     -4.8206505E-08
   47.76000     -4.8371657E-08
   47.82000     -4.8826237E-08
   47.88000     -4.9693277E-08
   47.94000     -5.1086335E-08
   48.00000     -5.3101619E-08
   48.06000     -5.5820230E-08
   48.12000     -5.9319312E-08
   48.18000     -6.3688951E-08
   48.24000     -6.9051083E-08
   48.30000     -7.5576679E-08
   48.36000     -8.3497831E-08
   48.42000     -9.3112249E-08
   48.48000     -1.0478000E-07
   48.54000     -1.1891497E-07
   48.60000     -1.3597607E-07
   48.66000     -1.5646391E-07
   48.72000     -1.8092717E-07
   48.78000     -2.0997899E-07
   48.84000     -2.4432146E-07
   48.90000     -2.8477302E-07
   48.96000     -3.3229483E-07
   49.02000     -3.8801159E-07
   49.08000     -4.5322602E-07
   49.14000     -5.2942681E-07
   49.20000     -6.1829223E-07
   49.26000     -7.2169473E-07
   49.32000     -8.4171143E-07
   49.38000     -9.8064675E-07
   49.44000     -1.1410688E-06
   49.50000     -1.3258536E-06
   49.56000     -1.5382346E-06
   49.62000     -1.7818420E-06
   49.68000     -2.0607345E-06
   49.74000     -2.3794187E-06
   49.80000     -2.7428655E-06
   49.86000     -3.1565294E-06
   49.92000     -3.6263775E-06
   49.98000     -4.1589233E-06
   50.04000     -4.7612671E-06
   50.10000     -5.4411357E-06
   50.16000     -6.2069212E-06
   50.22000     -7.0677206E-06
   50.28000     -8.0333657E-06
   50.34000     -9.1144539E-06
   50.40000     -1.0322366E-05
   50.46000     -1.1669268E-05
   50.52000     -1.3168116E-05
   50.58000     -1.4832640E-05
   50.64000     -1.6677341E-05
   50.70000     -1.8717479E-05
   50.76000     -2.0969075E-05
   50.82000     -2.3448885E-05
   50.88000     -2.6174381E-05
   50.94000     -2.9163695E-05
   51.00000     -3.2435564E-05
   51.06000     -3.6009245E-05
   51.12000     -3.9904418E-05
   51.18000     -4.4141092E-05
   51.24000     -4.8739483E-05
   51.30000     -5.3719876E-05
   51.36000     -5.9102498E-05
   51.42000     -6.4907406E-05
   51.48000     -7.1154296E-05
   51.54000     -7.7862373E-05
   51.60000     -8.5050153E-05
   51.66000     -9.2735288E-05
   51.72000     -1.0093435E-04
   51.78000     -1.0966259E-04
   51.84000     -1.1893376E-04
   51.90000     -1.2875993E-04
   51.96000     -1.3915118E-04
   52.02000     -1.5011542E-04
   52.08000     -1.6165830E-04
   52.14000     -1.7378284E-04
   52.20000     -1.8648931E-04
   52.26000     -1.9977511E-04
   52.32000     -2.1363448E-04
   52.38000     -2.2805856E-04
   52.44000     -2.4303510E-04
   52.50000     -2.5854848E-04
   52.56000     -2.7457959E-04
   52.62000     -2.9110585E-04
   52.68000     -3.0810118E-04
   52.74000     -3.2553606E-04
   52.80000     -3.4337744E-04
   52.86000     -3.6158905E-04
   52.92000     -3.8013121E-04
   52.98000     -3.9896142E-04
   53.04000     -4.1803421E-04
   53.10000     -4.3730167E-04
   53.16000     -4.5671375E-04
   53.22000     -4.7621841E-04
   53.28000     -4.9576221E-04
   53.34000     -5.1529054E-04
   53.40000     -5.3474802E-04
   53.46000     -5.5407913E-04
   53.52000     -5.7322840E-04
   53.58000     -5.9214100E-04
   53.64000     -6.1076315E-04
   53.70000     -6.2904274E-04
   53.76000     -6.4692955E-04
   53.82000     -6.6437630E-04
   53.88000     -6.8133860E-04
   53.94000     -6.9777563E-04
   54.00000     -7.1365049E-04
   54.06000     -7.2893052E-04
   54.12000     -7.4358762E-04
   54.18000     -7.5759867E-04
   54.24000     -7.7094609E-04
   54.30000     -7.8361749E-04
   54.36000     -7.9560635E-04
   54.42000     -8.0691167E-04
   54.48000     -8.1753836E-04
   54.54000     -8.2749687E-04
   54.60000     -8.3680335E-04
   54.66000     -8.4547995E-04
   54.72000     -8.5355400E-04
   54.78000     -8.6105790E-04
   54.84000     -8.6802914E-04
   54.90000     -8.7450922E-04
   54.96000     -8.8054384E-04
   55.02000     -8.8618224E-04
   55.08000     -8.9147681E-04
   55.14000     -8.9648232E-04
   55.20000     -9.0125547E-04
   55.26000     -9.0585416E-04
   55.32000     -9.1033708E-04
   55.38000     -9.1476308E-04
   55.44000     -9.1919018E-04
   55.50000     -9.2367543E-04
   55.56000     -9.2827389E-04