  -2.400000      0.0000000E+00
  -2.340000      0.0000000E+00
  -2.280000      0.0000000E+00
  -2.220000      0.0000000E+00
  -2.160000      0.0000000E+00
  -2.100000      0.0000000E+00
  -2.040000      0.0000000E+00
  -1.980000      0.0000000E+00
  -1.920000      1.4484650E-25
  -1.860000      1.2720020E-24
  -1.800000      4.6103358E-24
  -1.740000      5.3997371E-24
  -1.680000     -2.3477387E-23
  -1.620000     -1.3728454E-22
  -1.560000     -3.4602289E-22
  -1.500000     -3.8856842E-22
  -1.440000      5.4718629E-22
  -1.380000      3.6616042E-21
  -1.320000      9.1145553E-21
  -1.260000      1.2995441E-20
  -1.200000      4.3742151E-21
  -1.140000     -3.2791440E-20
  -1.080000     -1.0664984E-19
  -1.020000     -1.9174194E-19
 -0.9600000     -2.0265748E-19
 -0.9000000      2.2353043E-21
 -0.8400000      5.4782859E-19
 -0.7800000      1.3849862E-18
 -0.7200000      2.1040662E-18
 -0.6600000      1.8714213E-18
 -0.6000000     -3.0369031E-19
 -0.5400000     -4.8515016E-18
 -0.4800000     -1.0647949E-17
 -0.4200000     -1.4351938E-17
 -0.3600000     -1.0982376E-17
 -0.3000000      3.5867523E-18
 -0.2400000      2.8574216E-17
 -0.1800000      5.4679752E-17
 -0.1200000      6.4221085E-17
 -5.9999999E-02  3.7921089E-17
  0.0000000E+00 -3.1885698E-17
  5.9999999E-02 -1.2716703E-16
  0.1200000     -1.9947606E-16
  0.1800000     -1.8471024E-16
  0.2400000     -3.9263769E-17
  0.3000000      2.1557370E-16
  0.3600000      4.6867773E-16
  0.4200000      5.4382803E-16
  0.4800000      2.8571856E-16
  0.5400000     -3.1912954E-16
  0.6000000     -1.0528489E-15
  0.6600000     -1.4881025E-15
  0.7200000     -1.1652350E-15
  0.7800000      1.1678888E-16
  0.8400000      2.0357044E-15
  0.9000000      3.6970324E-15
  0.9600000      3.9343660E-15
   1.020000      1.9219421E-15
   1.080000     -2.1570196E-15
   1.140000     -6.7870802E-15
   1.200000     -9.4879693E-15
   1.260000     -7.9212565E-15
   1.320000     -1.3444023E-15
   1.380000      8.3397737E-15
   1.440000      1.6717981E-14
   1.500000      1.8530170E-14
   1.560000      1.0417304E-14
   1.620000     -6.4773732E-15
   1.680000     -2.5601755E-14
   1.740000     -3.6852269E-14
   1.800000     -3.1029175E-14
   1.860000     -5.2170610E-15
   1.920000      3.3586869E-14
   1.980000      6.9081154E-14
   2.040000      8.1387527E-14
   2.100000      5.6281660E-14
   2.160000     -5.9549131E-15
   2.220000     -8.6707985E-14
   2.280000     -1.5338003E-13
   2.340000     -1.7159794E-13
   2.400000     -1.2091513E-13
   2.460000     -7.0217494E-15
   2.520000      1.3607557E-13
   2.580000      2.5657712E-13
   2.640000      3.0491213E-13
   2.700000      2.5489008E-13
   2.760000      1.1599172E-13
   2.820000     -6.9855424E-14
   2.880000     -2.4639877E-13
   2.940000     -3.6757763E-13
   3.000000     -4.1564262E-13
   3.060000     -4.0231929E-13
   3.120000     -3.5103729E-13
   3.180000     -2.6944495E-13
   3.240000     -1.2940830E-13
   3.300000      1.2868012E-13
   3.360000      5.6071310E-13
   3.420000      1.1628582E-12
   3.480000      1.8202473E-12
   3.540000      2.2918742E-12
   3.600000      2.2547081E-12
   3.660000      1.4082792E-12
   3.720000     -3.8631075E-13
   3.780000     -2.9805700E-12
   3.840000     -5.8793612E-12
   3.900000     -8.2872025E-12
   3.960000     -9.2682251E-12
   4.020000     -7.9907851E-12
   4.080000     -3.9973511E-12
   4.140000      2.5731155E-12
   4.200000      1.0875485E-11
   4.260000      1.9401567E-11
   4.320000      2.6182018E-11
   4.380000      2.9120057E-11
   4.440000      2.6405267E-11
   4.500000      1.6942453E-11
   4.560000      7.2706381E-13
   4.620000     -2.0897948E-11
   4.680000     -4.5161763E-11
   4.740000     -6.8008293E-11
   4.800000     -8.4491025E-11
   4.860000     -8.9422393E-11
   4.920000     -7.8241004E-11
   4.980000     -4.8011060E-11
   5.040000      1.5845102E-12
   5.100000      6.7439755E-11
   5.160000      1.4261234E-10
   5.220000      2.1648286E-10
   5.280000      2.7559890E-10
   5.340000      3.0519914E-10
   5.400000      2.9126793E-10
   5.460000      2.2282860E-10
   5.520000      9.4085476E-11
   5.580000     -9.3993771E-11
   5.640000     -3.3298930E-10
   5.700000     -6.0740274E-10
   5.760000     -8.9605384E-10
   5.820000     -1.1742578E-09
   5.880000     -1.4164063E-09
   5.940000     -1.5985396E-09
   6.000000     -1.7005686E-09
   6.060000     -1.7079409E-09
   6.120000     -1.6126998E-09
   6.180000     -1.4139873E-09
   6.240000     -1.1180815E-09
   6.300000     -7.3802331E-10
   6.360000     -2.9283240E-10
   6.420000      1.9371942E-10
   6.480000      6.9477468E-10
   6.540000      1.1824011E-09
   6.600000      1.6297370E-09
   6.660000      2.0129898E-09
   6.720000      2.3130240E-09
   6.780000      2.5163889E-09
   6.840000      2.6157996E-09
   6.900000      2.6102365E-09
   6.960000      2.5048610E-09
   7.020000      2.3108786E-09
   7.080000      2.0453057E-09
   7.140000      1.7304272E-09
   7.200000      1.3926436E-09
   7.260000      1.0604964E-09
   7.320000      7.6187257E-10
   7.380000      5.2070181E-10
   7.440000      3.5370704E-10
   7.500000      2.6787364E-10
   7.560000      2.5919530E-10
   7.620000      3.1297656E-10
   7.680000      4.0561132E-10
   7.740000      5.0744769E-10
   7.800000      5.8618049E-10
   7.860000      6.1022881E-10
   7.920000      5.5171179E-10
   7.980000      3.8885017E-10
   8.040000      1.0778670E-10
   8.100000     -2.9611372E-10
   8.160000     -8.1747403E-10
   8.220000     -1.4407241E-09
   8.280000     -2.1407296E-09
   8.340000     -2.8844411E-09
   8.400000     -3.6336740E-09
   8.460000     -4.3489092E-09
   8.520000     -4.9937219E-09
   8.580000     -5.5391935E-09
   8.640000     -5.9674963E-09
   8.700000     -6.2738574E-09
   8.760000     -6.4663452E-09
   8.820000     -6.5633232E-09
   8.880000     -6.5889516E-09
   8.940000     -6.5676105E-09
   9.000000     -6.5184151E-09
   9.060000     -6.4510188E-09
   9.120000     -6.3635595E-09
   9.180000     -6.2430510E-09
   9.240000     -6.0679208E-09
   9.300000     -5.8119252E-09
   9.360000     -5.4485296E-09
   9.420000     -4.9549738E-09
   9.480000     -4.3155808E-09
   9.540000     -3.5241094E-09
   9.600000     -2.5850988E-09
   9.660000     -1.5140158E-09
   9.720000     -3.3588451E-10
   9.780000      9.1791119E-10
   9.840000      2.2146256E-09
   9.900000      3.5262784E-09
   9.960000      4.8355382E-09
   10.02000      6.1395999E-09
   10.08000      7.4505095E-09
   10.14000      8.7912984E-09
   10.20000      1.0188608E-08
   10.26000      1.1663793E-08
   10.32000      1.3225148E-08
   10.38000      1.4863764E-08
   10.44000      1.6554388E-08
   10.50000      1.8261087E-08
   10.56000      1.9945949E-08
   10.62000      2.1578140E-08
   10.68000      2.3140533E-08
   10.74000      2.4632010E-08
   10.80000      2.6064932E-08
   10.86000      2.7458800E-08
   10.92000      2.8832217E-08
   10.98000      3.0195697E-08
   11.04000      3.1547451E-08
   11.10000      3.2873221E-08
   11.16000      3.4150069E-08
   11.22000      3.5352752E-08
   11.28000      3.6460676E-08
   11.34000      3.7463526E-08
   11.40000      3.8364036E-08
   11.46000      3.9177497E-08
   11.52000      3.9928445E-08
   11.58000      4.0645745E-08
   11.64000      4.1357566E-08
   11.70000      4.2087301E-08
   11.76000      4.2851024E-08
   11.82000      4.3656208E-08
   11.88000      4.4501153E-08
   11.94000      4.5374396E-08
   12.00000      4.6254033E-08
   12.06000      4.7107481E-08
   12.12000      4.7892762E-08
   12.18000      4.8562296E-08
   12.24000      4.9069591E-08
   12.30000      4.9377856E-08
   12.36000      4.9468479E-08
   12.42000      4.9346681E-08
   12.48000      4.9041940E-08
   12.54000      4.8602253E-08
   12.60000      4.8083098E-08
   12.66000      4.7533849E-08
   12.72000      4.6985512E-08
   12.78000      4.6443429E-08
   12.84000      4.5887358E-08
   12.90000      4.5279066E-08
   12.96000      4.4575430E-08
   13.02000      4.3743150E-08
   13.08000      4.2770765E-08
   13.14000      4.1674294E-08
   13.20000      4.0494751E-08
   13.26000      3.9288036E-08
   13.32000      3.8109985E-08
   13.38000      3.7000671E-08
   13.44000      3.5972295E-08
   13.50000      3.5004007E-08
   13.56000      3.4045353E-08
   13.62000      3.3027661E-08
   13.68000      3.1880706E-08
   13.74000      3.0550602E-08
   13.80000      2.9014362E-08
   13.86000      2.7287175E-08
   13.92000      2.5420343E-08
   13.98000      2.3490054E-08
   14.04000      2.1579677E-08
   14.10000      1.9760041E-08
   14.16000      1.8072761E-08
   14.22000      1.6520918E-08
   14.28000      1.5069515E-08
   14.34000      1.3655643E-08
   14.40000      1.2205778E-08
   14.46000      1.0655894E-08
   14.52000      8.9692245E-09
   14.58000      7.1470621E-09
   14.64000      5.2296549E-09
   14.70000      3.2868122E-09
   14.76000      1.4006353E-09
   14.82000     -3.5494602E-10
   14.88000     -1.9322064E-09
   14.94000     -3.3203418E-09
   15.00000     -4.5462238E-09
   15.06000     -5.6655804E-09
   15.12000     -6.7477264E-09
   15.18000     -7.8585787E-09
   15.24000     -9.0466594E-09
   15.30000     -1.0335411E-08
   15.36000     -1.1722869E-08
   15.42000     -1.3187512E-08
   15.48000     -1.4697419E-08
   15.54000     -1.6219257E-08
   15.60000     -1.7724055E-08
   15.66000     -1.9188171E-08
   15.72000     -2.0589805E-08
   15.78000     -2.1903189E-08
   15.84000     -2.3093731E-08
   15.90000     -2.4117270E-08
   15.96000     -2.4925143E-08
   16.02000     -2.5474671E-08
   16.08000     -2.5742413E-08
   16.14000     -2.5736302E-08
   16.20000     -2.5502882E-08
   16.26000     -2.5127127E-08
   16.32000     -2.4724523E-08
   16.38000     -2.4427116E-08
   16.44000     -2.4366630E-08
   16.50000     -2.4658155E-08
   16.56000     -2.5387370E-08
   16.62000     -2.6603045E-08
   16.68000     -2.8315201E-08
   16.74000     -3.0498075E-08
   16.80000     -3.3096292E-08
   16.86000     -3.6032471E-08
   16.92000     -3.9215003E-08
   16.98000     -4.2545235E-08
   17.04000     -4.5924221E-08
   17.10000     -4.9259310E-08
   17.16000     -5.2470796E-08
   17.22000     -5.5498262E-08
   17.28000     -5.8305680E-08
   17.34000     -6.0883814E-08
   17.40000     -6.3248720E-08
   17.46000     -6.5435586E-08
   17.52000     -6.7488315E-08
   17.58000     -6.9446259E-08
   17.64000     -7.1330561E-08
   17.70000     -7.3132917E-08
   17.76000     -7.4809549E-08
   17.82000     -7.6282262E-08
   17.88000     -7.7447005E-08
   17.94000     -7.8188805E-08
   18.00000     -7.8400447E-08
   18.06000     -7.8001413E-08
   18.12000     -7.6953249E-08
   18.18000     -7.5268566E-08
   18.24000     -7.3011840E-08
   18.30000     -7.0292032E-08
   18.36000     -6.7248450E-08
   18.42000     -6.4032577E-08
   18.48000     -6.0789155E-08
   18.54000     -5.7639816E-08
   18.60000     -5.4671684E-08
   18.66000     -5.1932407E-08
   18.72000     -4.9431431E-08
   18.78000     -4.7146443E-08
   18.84000     -4.5032920E-08
   18.90000     -4.3034770E-08
   18.96000     -4.1094303E-08
   19.02000     -3.9160380E-08
   19.08000     -3.7194248E-08
   19.14000     -3.5173002E-08
   19.20000     -3.3090874E-08
   19.26000     -3.0958521E-08
   19.32000     -2.8800649E-08
   19.38000     -2.6652193E-08
   19.44000     -2.4553461E-08
   19.50000     -2.2544709E-08
   19.56000     -2.0660762E-08
   19.62000     -1.8926297E-08
   19.68000     -1.7352448E-08
   19.74000     -1.5935228E-08
   19.80000     -1.4656083E-08
   19.86000     -1.3484533E-08
   19.92000     -1.2382435E-08
   19.98000     -1.1309031E-08
   20.04000     -1.0225776E-08
   20.10000     -9.1000762E-09
   20.16000     -7.9075404E-09
   20.22000     -6.6329129E-09
   20.28000     -5.2702700E-09
   20.34000     -3.8230810E-09
   20.40000     -2.3042841E-09
   20.46000     -7.3595402E-10
   20.52000      8.5226176E-10
   20.58000      2.4265949E-09
   20.64000      3.9544279E-09
   20.70000      5.4103779E-09
   20.76000      6.7815136E-09
   20.82000      8.0700078E-09
   20.88000      9.2922461E-09
   20.94000      1.0474493E-08
   21.00000      1.1646268E-08
   21.06000      1.2833161E-08
   21.12000      1.4050882E-08
   21.18000      1.5301920E-08
   21.24000      1.6575541E-08
   21.30000      1.7851047E-08
   21.36000      1.9103402E-08
   21.42000      2.0309614E-08
   21.48000      2.1453859E-08
   21.54000      2.2529600E-08
   21.60000      2.3537915E-08
   21.66000      2.4482613E-08
   21.72000      2.5363974E-08
   21.78000      2.6173579E-08
   21.84000      2.6892353E-08
   21.90000      2.7492764E-08
   21.96000      2.7944854E-08
   22.02000      2.8224573E-08
   22.08000      2.8322301E-08
   22.14000      2.8249291E-08
   22.20000      2.8039995E-08
   22.26000      2.7748836E-08
   22.32000      2.7441091E-08
   22.38000      2.7179098E-08
   22.44000      2.7006811E-08
   22.50000      2.6936943E-08
   22.56000      2.6944981E-08
   22.62000      2.6972705E-08
   22.68000      2.6941105E-08
   22.74000      2.6769468E-08
   22.80000      2.6395348E-08
   22.86000      2.5789786E-08
   22.92000      2.4963510E-08
   22.98000      2.3962627E-08
   23.04000      2.2855243E-08
   23.10000      2.1713078E-08
   23.16000      2.0593456E-08
   23.22000      1.9526988E-08
   23.28000      1.8514518E-08
   23.34000      1.7533971E-08
   23.40000      1.6554331E-08
   23.46000      1.5551324E-08
   23.52000      1.4518665E-08
   23.58000      1.3470371E-08
   23.64000      1.2433206E-08
   23.70000      1.1432408E-08
   23.76000      1.0476660E-08
   23.82000      9.5486685E-09
   23.88000      8.6056593E-09
   23.94000      7.5903772E-09
   24.00000      6.4494232E-09
   24.06000      5.1531650E-09
   24.12000      3.7107246E-09
   24.18000      2.1748296E-09
   24.24000      6.3403055E-10
   24.30000     -8.0659146E-10
   24.36000     -2.0515414E-09
   24.42000     -3.0406206E-09
   24.48000     -3.7664369E-09
   24.54000     -4.2778576E-09
   24.60000     -4.6676578E-09
   24.66000     -5.0476192E-09
   24.72000     -5.5184848E-09
   24.78000     -6.1438854E-09
   24.84000     -6.9359505E-09
   24.90000     -7.8564497E-09
   24.96000     -8.8324175E-09
   25.02000     -9.7809263E-09
   25.08000     -1.0635306E-08
   25.14000     -1.1365037E-08
   25.20000     -1.1983598E-08
   25.26000     -1.2542124E-08
   25.32000     -1.3110875E-08
   25.38000     -1.3754277E-08
   25.44000     -1.4507602E-08
   25.50000     -1.5363238E-08
   25.56000     -1.6271761E-08
   25.62000     -1.7158195E-08
   25.68000     -1.7948537E-08
   25.74000     -1.8597609E-08
   25.80000     -1.9108422E-08
   25.86000     -1.9535765E-08
   25.92000     -1.9971994E-08
   25.98000     -2.0519167E-08
   26.04000     -2.1256534E-08
   26.10000     -2.2214209E-08
   26.16000     -2.3362073E-08
   26.22000     -2.4617984E-08
   26.28000     -2.5872898E-08
   26.34000     -2.7024786E-08
   26.40000     -2.8009973E-08
   26.46000     -2.8821439E-08
   26.52000     -2.9508012E-08
   26.58000     -3.0155004E-08
   26.64000     -3.0853425E-08
   26.70000     -3.1668574E-08
   26.76000     -3.2618839E-08
   26.82000     -3.3671448E-08
   26.88000     -3.4755953E-08
   26.94000     -3.5790151E-08
   27.00000     -3.6709338E-08
   27.06000     -3.7489144E-08
   27.12000     -3.8154827E-08
   27.18000     -3.8774228E-08
   27.24000     -3.9436944E-08
   27.30000     -4.0226521E-08
   27.36000     -4.1194646E-08
   27.42000     -4.2346006E-08
   27.48000     -4.3639179E-08
   27.54000     -4.5003731E-08
   27.60000     -4.6368054E-08
   27.66000     -4.7688474E-08
   27.72000     -4.8969323E-08
   27.78000     -5.0266532E-08
   27.84000     -5.1673208E-08
   27.90000     -5.3291913E-08
   27.96000     -5.5203039E-08
   28.02000     -5.7439713E-08
   28.08000     -5.9977076E-08
   28.14000     -6.2738422E-08
   28.20000     -6.5615204E-08
   28.26000     -6.8493740E-08
   28.32000     -7.1279977E-08
   28.38000     -7.3915082E-08
   28.44000     -7.6377788E-08
   28.50000     -7.8673757E-08
   28.56000     -8.0815951E-08
   28.62000     -8.2802615E-08
   28.68000     -8.4600153E-08
   28.74000     -8.6136914E-08
   28.80000     -8.7310610E-08
   28.86000     -8.8007987E-08
   28.92000     -8.8131550E-08
   28.98000     -8.7625345E-08
   29.04000     -8.6492108E-08
   29.10000     -8.4795978E-08
   29.16000     -8.2649500E-08
   29.22000     -8.0188208E-08
   29.28000     -7.7540044E-08
   29.34000     -7.4798656E-08
   29.40000     -7.2008596E-08
   29.46000     -6.9166930E-08
   29.52000     -6.6240638E-08
   29.58000     -6.3194157E-08
   29.64000     -6.0018003E-08
   29.70000     -5.6748846E-08
   29.76000     -5.3474256E-08
   29.82000     -5.0320285E-08
   29.88000     -4.7425594E-08
   29.94000     -4.4910365E-08
   30.00000     -4.2849518E-08
   30.06000     -4.1258456E-08
   30.12000     -4.0095294E-08
   30.18000     -3.9278387E-08
   30.24000     -3.8713523E-08
   30.30000     -3.8322238E-08
   30.36000     -3.8062655E-08
   30.42000     -3.7936662E-08
   30.48000     -3.7981508E-08
   30.54000     -3.8248864E-08
   30.60000     -3.8778527E-08
   30.66000     -3.9575696E-08
   30.72000     -4.0599630E-08
   30.78000     -4.1767418E-08
   30.84000     -4.2971305E-08
   30.90000     -4.4103139E-08
   30.96000     -4.5077314E-08
   31.02000     -4.5844391E-08
   31.08000     -4.6391584E-08
   31.14000     -4.6731259E-08
   31.20000     -4.6883020E-08
   31.26000     -4.6856719E-08
   31.32000     -4.6643034E-08
   31.38000     -4.6214840E-08
   31.44000     -4.5538581E-08
   31.50000     -4.4591125E-08
   31.56000     -4.3375803E-08
   31.62000     -4.1931507E-08
   31.68000     -4.0331393E-08
   31.74000     -3.8671143E-08
   31.80000     -3.7050508E-08
   31.86000     -3.5554162E-08
   31.92000     -3.4238109E-08
   31.98000     -3.3125851E-08
   32.04000     -3.2214928E-08
   32.10000     -3.1490853E-08
   32.16000     -3.0942829E-08
   32.22000     -3.0575496E-08
   32.28000     -3.0412686E-08
   32.34000     -3.0492377E-08
   32.40000     -3.0855201E-08
   32.46000     -3.1530870E-08
   32.52000     -3.2527382E-08
   32.58000     -3.3826471E-08
   32.64000     -3.5386361E-08
   32.70000     -3.7150400E-08
   32.76000     -3.9058211E-08
   32.82000     -4.1055266E-08
   32.88000     -4.3097696E-08
   32.94000     -4.5151019E-08
   33.00000     -4.7183889E-08
   33.06000     -4.9160136E-08
   33.12000     -5.1032849E-08
   33.18000     -5.2743676E-08
   33.24000     -5.4228320E-08
   33.30000     -5.5426753E-08
   33.36000     -5.6294841E-08
   33.42000     -5.6813541E-08
   33.48000     -5.6992768E-08
   33.54000     -5.6868810E-08
   33.60000     -5.6496301E-08
   33.66000     -5.5937132E-08
   33.72000     -5.5249256E-08
   33.78000     -5.4477997E-08
   33.84000     -5.3651522E-08
   33.90000     -5.2780955E-08
   33.96000     -5.1864490E-08
   34.02000     -5.0893853E-08
   34.08000     -4.9860940E-08
   34.14000     -4.8762516E-08
   34.20000     -4.7601581E-08
   34.26000     -4.6385409E-08
   34.32000     -4.5121439E-08
   34.38000     -4.3813390E-08
   34.44000     -4.2459824E-08
   34.50000     -4.1056314E-08
   34.56000     -3.9600629E-08
   34.62000     -3.8098779E-08
   34.68000     -3.6568935E-08
   34.74000     -3.5040941E-08
   34.80000     -3.3550819E-08
   34.86000     -3.2131805E-08
   34.92000     -3.0804895E-08
   34.98000     -2.9572266E-08
   35.04000     -2.8415835E-08
   35.10000     -2.7301470E-08
   35.16000     -2.6187521E-08
   35.22000     -2.5035167E-08
   35.28000     -2.3817757E-08
   35.34000     -2.2526782E-08
   35.40000     -2.1173056E-08
   35.46000     -1.9782663E-08
   35.52000     -1.8388599E-08
   35.58000     -1.7020110E-08
   35.64000     -1.5692784E-08
   35.70000     -1.4402748E-08
   35.76000     -1.3127478E-08
   35.82000     -1.1833692E-08
   35.88000     -1.0490194E-08
   35.94000     -9.0812522E-09
   36.00000     -7.6154736E-09
   36.06000     -6.1264918E-09
   36.12000     -4.6648583E-09
   36.18000     -3.2839342E-09
   36.24000     -2.0249231E-09
   36.30000     -9.0639851E-10
   36.36000      7.8201702E-11
   36.42000      9.5471764E-10
   36.48000      1.7565686E-09
   36.54000      2.5113891E-09
   36.60000      3.2301957E-09
   36.66000      3.9019712E-09
   36.72000      4.4946575E-09
   36.78000      4.9617723E-09
   36.84000      5.2526037E-09
   36.90000      5.3233218E-09
   36.96000      5.1462887E-09
   37.02000      4.7153415E-09
   37.08000      4.0458445E-09
   37.14000      3.1697061E-09
   37.20000      2.1270328E-09
   37.26000      9.5719832E-10
   37.32000     -3.0770855E-10
   37.38000     -1.6449609E-09
   37.44000     -3.0384371E-09
   37.50000     -4.4726356E-09
   37.56000     -5.9264589E-09
   37.62000     -7.3699655E-09
   37.68000     -8.7661327E-09
   37.74000     -1.0077608E-08
   37.80000     -1.1276209E-08
   37.86000     -1.2351565E-08
   37.92000     -1.3315322E-08
   37.98000     -1.4198909E-08
   38.04000     -1.5045302E-08
   38.10000     -1.5897603E-08
   38.16000     -1.6788551E-08
   38.22000     -1.7734695E-08
   38.28000     -1.8736987E-08
   38.34000     -1.9786979E-08
   38.40000     -2.0875499E-08
   38.46000     -2.1999858E-08
   38.52000     -2.3166521E-08
   38.58000     -2.4388230E-08
   38.64000     -2.5676982E-08
   38.70000     -2.7035888E-08
   38.76000     -2.8453126E-08
   38.82000     -2.9900249E-08
   38.88000     -3.1335265E-08
   38.94000     -3.2709377E-08
   39.00000     -3.3975212E-08
   39.06000     -3.5094221E-08
   39.12000     -3.6041371E-08
   39.18000     -3.6806114E-08
   39.24000     -3.7389558E-08
   39.30000     -3.7798859E-08
   39.36000     -3.8040788E-08
   39.42000     -3.8116998E-08
   39.48000     -3.8023302E-08
   39.54000     -3.7754106E-08
   39.60000     -3.7311157E-08
   39.66000     -3.6713789E-08
   39.72000     -3.6006533E-08
   39.78000     -3.5260136E-08
   39.84000     -3.4563989E-08
   39.90000     -3.4010771E-08
   39.96000     -3.3676997E-08
   40.02000     -3.3605112E-08
   40.08000     -3.3792716E-08
   40.14000     -3.4192766E-08
   40.20000     -3.4725556E-08
   40.26000     -3.5299557E-08
   40.32000     -3.5835495E-08
   40.38000     -3.6286668E-08
   40.44000     -3.6649443E-08
   40.50000     -3.6960746E-08
   40.56000     -3.7283538E-08
   40.62000     -3.7685023E-08
   40.68000     -3.8214626E-08
   40.74000     -3.8888519E-08
   40.80000     -3.9685030E-08
   40.86000     -4.0551363E-08
   40.92000     -4.1418577E-08
   40.98000     -4.2219693E-08
   41.04000     -4.2905477E-08
   41.10000     -4.3454001E-08
   41.16000     -4.3872063E-08
   41.22000     -4.4189008E-08
   41.28000     -4.4445162E-08
   41.34000     -4.4678373E-08
   41.40000     -4.4912582E-08
   41.46000     -4.5151754E-08
   41.52000     -4.5380904E-08
   41.58000     -4.5573721E-08
   41.64000     -4.5703910E-08
   41.70000     -4.5756167E-08
   41.76000     -4.5732996E-08
   41.82000     -4.5655391E-08
   41.88000     -4.5558046E-08
   41.94000     -4.5481599E-08
   42.00000     -4.5465079E-08
   42.06000     -4.5540784E-08
   42.12000     -4.5732151E-08
   42.18000     -4.6053700E-08
   42.24000     -4.6511598E-08
   42.30000     -4.7103882E-08
   42.36000     -4.7820119E-08
   42.42000     -4.8641109E-08
   42.48000     -4.9539270E-08
   42.54000     -5.0480164E-08
   42.60000     -5.1425008E-08
   42.66000     -5.2333963E-08
   42.72000     -5.3169668E-08
   42.78000     -5.3900855E-08
   42.84000     -5.4505627E-08
   42.90000     -5.4974027E-08
   42.96000     -5.5309389E-08
   43.02000     -5.5527984E-08
   43.08000     -5.5656809E-08
   43.14000     -5.5729593E-08
   43.20000     -5.5781683E-08
   43.26000     -5.5844474E-08
   43.32000     -5.5940408E-08
   43.38000     -5.6079326E-08
   43.44000     -5.6257107E-08
   43.50000     -5.6457129E-08
   43.56000     -5.6654642E-08
   43.62000     -5.6823673E-08
   43.68000     -5.6945066E-08
   43.74000     -5.7013743E-08
   43.80000     -5.7042872E-08
   43.86000     -5.7062991E-08
   43.92000     -5.7115351E-08
   43.98000     -5.7240317E-08
   44.04000     -5.7463758E-08
   44.10000     -5.7785602E-08
   44.16000     -5.8174919E-08
   44.22000     -5.8574447E-08
   44.28000     -5.8914544E-08
   44.34000     -5.9133189E-08
   44.40000     -5.9195997E-08
   44.46000     -5.9109336E-08
   44.52000     -5.8921465E-08
   44.58000     -5.8710249E-08
   44.64000     -5.8560609E-08
   44.70000     -5.8538578E-08
   44.76000     -5.8670278E-08
   44.82000     -5.8932898E-08
   44.88000     -5.9260834E-08
   44.94000     -5.9565160E-08
   45.00000     -5.9760509E-08
   45.06000     -5.9790700E-08
   45.12000     -5.9645181E-08
   45.18000     -5.9361390E-08
   45.24000     -5.9012326E-08
   45.30000     -5.8683323E-08
   45.36000     -5.8444989E-08
   45.42000     -5.8330215E-08
   45.48000     -5.8322090E-08
   45.54000     -5.8356544E-08
   45.60000     -5.8339566E-08
   45.66000     -5.8174773E-08
   45.72000     -5.7793436E-08
   45.78000     -5.7177544E-08
   45.84000     -5.6367810E-08
   45.90000     -5.5452485E-08
   45.96000     -5.4539463E-08
   46.02000     -5.3720317E-08
   46.08000     -5.3038637E-08
   46.14000     -5.2474061E-08
   46.20000     -5.1948046E-08
   46.26000     -5.1349517E-08
   46.32000     -5.0571522E-08
   46.38000     -4.9546532E-08
   46.44000     -4.8269190E-08
   46.50000     -4.6800224E-08
   46.56000     -4.5251287E-08
   46.62000     -4.3755943E-08
   46.68000     -4.2435158E-08
   46.74000     -4.1366842E-08
   46.80000     -4.0567926E-08
   46.86000     -3.9994585E-08
   46.92000     -3.9561705E-08
   46.98000     -3.9176875E-08
   47.04000     -3.8778904E-08
   47.10000     -3.8368487E-08
   47.16000     -3.8020460E-08
   47.22000     -3.7873530E-08
   47.28000     -3.8101604E-08
   47.34000     -3.8877701E-08
   47.40000     -4.0343792E-08
   47.46000     -4.2597044E-08
   47.52000     -4.5696513E-08
   47.58000     -4.9687188E-08
   47.64000     -5.4633379E-08
   47.70000     -6.0651480E-08
   47.76000     -6.7933470E-08
   47.82000     -7.6755846E-08
   47.88000     -8.7472927E-08
   47.94000     -1.0049853E-07
   48.00000     -1.1628406E-07
   48.06000     -1.3530294E-07
   48.12000     -1.5805001E-07
   48.18000     -1.8505942E-07
   48.24000     -2.1693759E-07
   48.30000     -2.5440190E-07
   48.36000     -2.9831483E-07
   48.42000     -3.4970583E-07
   48.48000     -4.0977915E-07
   48.54000     -4.7991296E-07
   48.60000     -5.6165629E-07
   48.66000     -6.5673129E-07
   48.72000     -7.6704407E-07
   48.78000     -8.9470615E-07
   48.84000     -1.0420657E-06
   48.90000     -1.2117474E-06
   48.96000     -1.4066967E-06
   49.02000     -1.6302242E-06
   49.08000     -1.8860425E-06
   49.14000     -2.1782901E-06
   49.20000     -2.5115437E-06
   49.26000     -2.8908244E-06
   49.32000     -3.3216093E-06
   49.38000     -3.8098601E-06
   49.44000     -4.3620685E-06
   49.50000     -4.9853115E-06
   49.56000     -5.6873082E-06
   49.62000     -6.4764599E-06
   49.68000     -7.3618721E-06
   49.74000     -8.3533550E-06
   49.80000     -9.4614188E-06
   49.86000     -1.0697263E-05
   49.92000     -1.2072772E-05
   49.98000     -1.3600513E-05
   50.04000     -1.5293741E-05
   50.10000     -1.7166412E-05
   50.16000     -1.9233185E-05
   50.22000     -2.1509428E-05
   50.28000     -2.4011220E-05
   50.34000     -2.6755306E-05
   50.40000     -2.9759021E-05
   50.46000     -3.3040204E-05
   50.52000     -3.6617068E-05
   50.58000     -4.0508097E-05
   50.64000     -4.4731914E-05
   50.70000     -4.9307204E-05
   50.76000     -5.4252596E-05
   50.82000     -5.9586575E-05
   50.88000     -6.5327331E-05
   50.94000     -7.1492650E-05
   51.00000     -7.8099678E-05
   51.06000     -8.5164793E-05
   51.12000     -9.2703383E-05
   51.18000     -1.0072964E-04
   51.24000     -1.0925639E-04
   51.30000     -1.1829486E-04
   51.36000     -1.2785447E-04
   51.42000     -1.3794264E-04
   51.48000     -1.4856468E-04
   51.54000     -1.5972357E-04
   51.60000     -1.7141979E-04
   51.66000     -1.8365117E-04
   51.72000     -1.9641276E-04
   51.78000     -2.0969661E-04
   51.84000     -2.2349168E-04
   51.90000     -2.3778372E-04
   51.96000     -2.5255524E-04
   52.02000     -2.6778545E-04
   52.08000     -2.8345035E-04
   52.14000     -2.9952262E-04
   52.20000     -3.1597196E-04
   52.26000     -3.3276499E-04
   52.32000     -3.4986541E-04
   52.38000     -3.6723411E-04
   52.44000     -3.8482944E-04
   52.50000     -4.0260729E-04
   52.56000     -4.2052151E-04
   52.62000     -4.3852409E-04
   52.68000     -4.5656564E-04
   52.74000     -4.7459567E-04
   52.80000     -4.9256318E-04
   52.86000     -5.1041675E-04
   52.92000     -5.2810519E-04
   52.98000     -5.4557767E-04
   53.04000     -5.6278444E-04
   53.10000     -5.7967711E-04
   53.16000     -5.9620925E-04
   53.22000     -6.1233714E-04
   53.28000     -6.2801957E-04
   53.34000     -6.4321875E-04
   53.40000     -6.5790035E-04
   53.46000     -6.7203434E-04
   53.52000     -6.8559486E-04
   53.58000     -6.9856085E-04
   53.64000     -7.1091601E-04
   53.70000     -7.2264904E-04
   53.76000     -7.3375384E-04
   53.82000     -7.4422953E-04
   53.88000     -7.5408100E-04
   53.94000     -7.6331838E-04
   54.00000     -7.7195751E-04
   54.06000     -7.8001933E-04
   54.12000     -7.8752998E-04
   54.18000     -7.9452031E-04
   54.24000     -8.0102566E-04
   54.30000     -8.0708566E-04
   54.36000     -8.1274373E-04
   54.42000     -8.1804668E-04
   54.48000     -8.2304399E-04
   54.54000     -8.2778762E-04
   54.60000     -8.3233125E-04
   54.66000     -8.3673000E-04
   54.72000     -8.4103964E-04
   54.78000     -8.4531627E-04
   54.84000     -8.4961532E-04
   54.90000     -8.5399108E-04
   54.96000     -8.5849600E-04
   55.02000     -8.6318009E-04
   55.08000     -8.6809043E-04
   55.14000     -8.7327056E-04
   55.20000     -8.7876047E-04
   55.26000     -8.8459579E-04
   55.32000     -8.9080748E-04
   55.38000     -8.9742162E-04
   55.44000     -9.0445887E-04
   55.50000     -9.1193413E-04
   55.56000     -9.1985654E-04