  -2.400000      0.0000000E+00
  -2.340000      0.0000000E+00
  -2.280000      0.0000000E+00
  -2.220000      0.0000000E+00
  -2.160000      0.0000000E+00
  -2.100000      0.0000000E+00
  -2.040000      0.0000000E+00
  -1.980000      0.0000000E+00
  -1.920000     -5.0317231E-27
  -1.860000     -1.0130784E-26
  -1.800000      2.3964566E-25
  -1.740000      2.1543683E-24
  -1.680000      9.8996877E-24
  -1.620000      3.0766030E-23
  -1.560000      6.8940113E-23
  -1.500000      1.0370184E-22
  -1.440000      4.2389864E-23
  -1.380000     -3.4741449E-22
  -1.320000     -1.4628462E-21
  -1.260000     -3.6543192E-21
  -1.200000     -6.4610076E-21
  -1.140000     -7.1581141E-21
  -1.080000      6.1595789E-22
  -1.020000      2.5794086E-20
 -0.9600000      7.3046213E-20
 -0.9000000      1.2909849E-19
 -0.8400000      1.4849346E-19
 -0.7800000      5.4942196E-20
 -0.7200000     -2.2259963E-19
 -0.6600000     -6.7579405E-19
 -0.6000000     -1.1381135E-18
 -0.5400000     -1.2722207E-18
 -0.4800000     -6.9249064E-19
 -0.4200000      7.8137786E-19
 -0.3600000      2.8683600E-18
 -0.3000000      4.7827025E-18
 -0.2400000      5.5501540E-18
 -0.1800000      4.5736694E-18
 -0.1200000      2.0335096E-18
 -5.9999999E-02 -1.3558647E-18
  0.0000000E+00 -5.2980476E-18
  5.9999999E-02 -1.0866917E-17
  0.1200000     -2.0180702E-17
  0.1800000     -3.3905531E-17
  0.2400000     -4.7329554E-17
  0.3000000     -4.7891713E-17
  0.3600000     -1.8006896E-17
  0.4200000      5.4844457E-17
  0.4800000      1.6360280E-16
  0.5400000      2.7094546E-16
  0.6000000      3.1271445E-16
  0.6600000      2.2120291E-16
  0.7200000     -3.6622571E-17
  0.7800000     -4.2266515E-16
  0.8400000     -8.1513771E-16
  0.9000000     -1.0357540E-15
  0.9600000     -9.1534351E-16
   1.020000     -3.7602426E-16
   1.080000      5.0530132E-16
   1.140000      1.4859433E-15
   1.200000      2.2158170E-15
   1.260000      2.3556867E-15
   1.320000      1.7188250E-15
   1.380000      3.8120098E-16
   1.440000     -1.2966863E-15
   1.500000     -2.7716519E-15
   1.560000     -3.5305134E-15
   1.620000     -3.3358544E-15
   1.680000     -2.3749929E-15
   1.740000     -1.1868979E-15
   1.800000     -3.3502707E-16
   1.860000      4.0772083E-17
   1.920000      5.0742155E-16
   1.980000      2.1548177E-15
   2.040000      5.8485300E-15
   2.100000      1.1205342E-14
   2.160000      1.5934643E-14
   2.220000      1.6238794E-14
   2.280000      8.5330006E-15
   2.340000     -8.0636647E-15
   2.400000     -2.9777928E-14
   2.460000     -4.8251994E-14
   2.520000     -5.3357516E-14
   2.580000     -3.8000307E-14
   2.640000     -2.7147402E-15
   2.700000      4.2625307E-14
   2.760000      8.1596513E-14
   2.820000      9.7865509E-14
   2.880000      8.2706181E-14
   2.940000      3.9483777E-14
   3.000000     -1.7554936E-14
   3.060000     -6.9851704E-14
   3.120000     -1.0301387E-13
   3.180000     -1.1242716E-13
   3.240000     -1.0274620E-13
   3.300000     -8.1704717E-14
   3.360000     -5.2451963E-14
   3.420000     -1.0037249E-14
   3.480000      5.4471960E-14
   3.540000      1.4353053E-13
   3.600000      2.4234594E-13
   3.660000      3.1555349E-13
   3.720000      3.1630848E-13
   3.780000      2.0648836E-13
   3.840000     -1.9956901E-14
   3.900000     -3.2189412E-13
   3.960000     -6.1357392E-13
   4.020000     -7.8749209E-13
   4.080000     -7.5137910E-13
   4.140000     -4.6631194E-13
   4.200000      2.8926897E-14
   4.260000      6.1814318E-13
   4.320000      1.1352726E-12
   4.380000      1.4122012E-12
   4.440000      1.3324282E-12
   4.500000      8.7325931E-13
   4.560000      1.2187202E-13
   4.620000     -7.4190936E-13
   4.680000     -1.4930556E-12
   4.740000     -1.9259149E-12
   4.800000     -1.9162573E-12
   4.860000     -1.4603932E-12
   4.920000     -6.7714600E-13
   4.980000      2.2980202E-13
   5.040000      1.0377681E-12
   5.100000      1.5766284E-12
   5.160000      1.7799688E-12
   5.220000      1.6961029E-12
   5.280000      1.4543172E-12
   5.340000      1.2001739E-12
   5.400000      1.0277853E-12
   5.460000      9.3963910E-13
   5.520000      8.5305867E-13
   5.580000      6.5058018E-13
   5.640000      2.4910092E-13
   5.700000     -3.4899243E-13
   5.760000     -1.0527472E-12
   5.820000     -1.7337770E-12
   5.880000     -2.3074550E-12
   5.940000     -2.7989984E-12
   6.000000     -3.3504814E-12
   6.060000     -4.1508567E-12
   6.120000     -5.3111734E-12
   6.180000     -6.7419542E-12
   6.240000     -8.0999738E-12
   6.300000     -8.8492078E-12
   6.360000     -8.4334094E-12
   6.420000     -6.5065653E-12
   6.480000     -3.1366251E-12
   6.540000      1.0971378E-12
   6.600000      5.1534350E-12
   6.660000      7.7093150E-12
   6.720000      7.4083743E-12
   6.780000      3.0953345E-12
   6.840000     -6.0279602E-12
   6.900000     -2.0349217E-11
   6.960000     -3.9874812E-11
   7.020000     -6.4294431E-11
   7.080000     -9.3034899E-11
   7.140000     -1.2528044E-10
   7.200000     -1.5996901E-10
   7.260000     -1.9579810E-10
   7.320000     -2.3127716E-10
   7.380000     -2.6484911E-10
   7.440000     -2.9507666E-10
   7.500000     -3.2086270E-10
   7.560000     -3.4165756E-10
   7.620000     -3.5760161E-10
   7.680000     -3.6955933E-10
   7.740000     -3.7901912E-10
   7.800000     -3.8785672E-10
   7.860000     -3.9799181E-10
   7.920000     -4.1099793E-10
   7.980000     -4.2774911E-10
   8.040000     -4.4819146E-10
   8.100000     -4.7130544E-10
   8.160000     -4.9527688E-10
   8.220000     -5.1783650E-10
   8.280000     -5.3667937E-10
   8.340000     -5.4985633E-10
   8.400000     -5.5605170E-10
   8.460000     -5.5471011E-10
   8.520000     -5.4602906E-10
   8.580000     -5.3086785E-10
   8.640000     -5.1062116E-10
   8.700000     -4.8707460E-10
   8.760000     -4.6222387E-10
   8.820000     -4.3802653E-10
   8.880000     -4.1607823E-10
   8.940000     -3.9726231E-10
   9.000000     -3.8147863E-10
   9.060000     -3.6758246E-10
   9.120000     -3.5362985E-10
   9.180000     -3.3743303E-10
   9.240000     -3.1730929E-10
   9.300000     -2.9280839E-10
   9.360000     -2.6517272E-10
   9.420000     -2.3734903E-10
   9.480000     -2.1350997E-10
   9.540000     -1.9821420E-10
   9.600000     -1.9546115E-10
   9.660000     -2.0792958E-10
   9.720000     -2.3660515E-10
   9.780000     -2.8084149E-10
   9.840000     -3.3872821E-10
   9.900000     -4.0754392E-10
   9.960000     -4.8409410E-10
   10.02000     -5.6486227E-10
   10.08000     -6.4606753E-10
   10.14000     -7.2382472E-10
   10.20000     -7.9458162E-10
   10.26000     -8.5585233E-10
   10.32000     -9.0705654E-10
   10.38000     -9.5012009E-10
   10.44000     -9.8949315E-10
   10.50000     -1.0314276E-09
   10.56000     -1.0826527E-09
   10.62000     -1.1488660E-09
   10.68000     -1.2335615E-09
   10.74000     -1.3376036E-09
   10.80000     -1.4596315E-09
   10.86000     -1.5970173E-09
   10.92000     -1.7468619E-09
   10.98000     -1.9065212E-09
   11.04000     -2.0734192E-09
   11.10000     -2.2442954E-09
   11.16000     -2.4143625E-09
   11.22000     -2.5769591E-09
   11.28000     -2.7240985E-09
   11.34000     -2.8479423E-09
   11.40000     -2.9428222E-09
   11.46000     -3.0071696E-09
   11.52000     -3.0447003E-09
   11.58000     -3.0644167E-09
   11.64000     -3.0793452E-09
   11.70000     -3.1042691E-09
   11.76000     -3.1529857E-09
   11.82000     -3.2357181E-09
   11.88000     -3.3572927E-09
   11.94000     -3.5165191E-09
   12.00000     -3.7069570E-09
   12.06000     -3.9189110E-09
   12.12000     -4.1421750E-09
   12.18000     -4.3688231E-09
   12.24000     -4.5953166E-09
   12.30000     -4.8233817E-09
   12.36000     -5.0595008E-09
   12.42000     -5.3132645E-09
   12.48000     -5.5951306E-09
   12.54000     -5.9142273E-09
   12.60000     -6.2766867E-09
   12.66000     -6.6847226E-09
   12.72000     -7.1363977E-09
   12.78000     -7.6258591E-09
   12.84000     -8.1438163E-09
   12.90000     -8.6781258E-09
   12.96000     -9.2144887E-09
   13.02000     -9.7372945E-09
   13.08000     -1.0230678E-08
   13.14000     -1.0679758E-08
   13.20000     -1.1071922E-08
   13.26000     -1.1397989E-08
   13.32000     -1.1653059E-08
   13.38000     -1.1836875E-08
   13.44000     -1.1953644E-08
   13.50000     -1.2011308E-08
   13.56000     -1.2020315E-08
   13.62000     -1.1992062E-08
   13.68000     -1.1937081E-08
   13.74000     -1.1863240E-08
   13.80000     -1.1774133E-08
   13.86000     -1.1667999E-08
   13.92000     -1.1537534E-08
   13.98000     -1.1370911E-08
   14.04000     -1.1154229E-08
   14.10000     -1.0875195E-08
   14.16000     -1.0527494E-08
   14.22000     -1.0114842E-08
   14.28000     -9.6535722E-09
   14.34000     -9.1727390E-09
   14.40000     -8.7113579E-09
   14.46000     -8.3130978E-09
   14.52000     -8.0195814E-09
   14.58000     -7.8638189E-09
   14.64000     -7.8652649E-09
   14.70000     -8.0274543E-09
   14.76000     -8.3383584E-09
   14.82000     -8.7729122E-09
   14.88000     -9.2967216E-09
   14.94000     -9.8699964E-09
   15.00000     -1.0451060E-08
   15.06000     -1.0999265E-08
   15.12000     -1.1477471E-08
   15.18000     -1.1854334E-08
   15.24000     -1.2106521E-08
   15.30000     -1.2220632E-08
   15.36000     -1.2194373E-08
   15.42000     -1.2036395E-08
   15.48000     -1.1764389E-08
   15.54000     -1.1401448E-08
   15.60000     -1.0971241E-08
   15.66000     -1.0493071E-08
   15.72000     -9.9780602E-09
   15.78000     -9.4275867E-09
   15.84000     -8.8345136E-09
   15.90000     -8.1869711E-09
   15.96000     -7.4737265E-09
   16.02000     -6.6897119E-09
   16.08000     -5.8402261E-09
   16.14000     -4.9426911E-09
   16.20000     -4.0254315E-09
   16.26000     -3.1236405E-09
   16.32000     -2.2733511E-09
   16.38000     -1.5047085E-09
   16.44000     -8.3610113E-10
   16.50000     -2.7062658E-10
   16.56000      2.0408741E-10
   16.62000      6.1249267E-10
   16.68000      9.8490105E-10
   16.74000      1.3499943E-09
   16.80000      1.7280063E-09
   16.86000      2.1263140E-09
   16.92000      2.5384539E-09
   16.98000      2.9465832E-09
   17.04000      3.3264942E-09
   17.10000      3.6536794E-09
   17.16000      3.9088075E-09
   17.22000      4.0812274E-09
   17.28000      4.1697041E-09
   17.34000      4.1803396E-09
   17.40000      4.1224339E-09
   17.46000      4.0036512E-09
   17.52000      3.8261327E-09
   17.58000      3.5849950E-09
   17.64000      3.2699161E-09
   17.70000      2.8695253E-09
   17.76000      2.3773223E-09
   17.82000      1.7972667E-09
   17.88000      1.1471697E-09
   17.94000      4.5859333E-10
   18.00000     -2.2711352E-10
   18.06000     -8.6599389E-10
   18.12000     -1.4204187E-09
   18.18000     -1.8678146E-09
   18.24000     -2.2071467E-09
   18.30000     -2.4614544E-09
   18.36000     -2.6754903E-09
   18.42000     -2.9085740E-09
   18.48000     -3.2239393E-09
   18.54000     -3.6768060E-09
   18.60000     -4.3038582E-09
   18.66000     -5.1165263E-09
   18.72000     -6.0995351E-09
   18.78000     -7.2148278E-09
   18.84000     -8.4096321E-09
   18.90000     -9.6264898E-09
   18.96000     -1.0812729E-08
   19.02000     -1.1927251E-08
   19.08000     -1.2943342E-08
   19.14000     -1.3847433E-08
   19.20000     -1.4634821E-08
   19.26000     -1.5304153E-08
   19.32000     -1.5852560E-08
   19.38000     -1.6272960E-08
   19.44000     -1.6553969E-08
   19.50000     -1.6681918E-08
   19.56000     -1.6643687E-08
   19.62000     -1.6428986E-08
   19.68000     -1.6031338E-08
   19.74000     -1.5447734E-08
   19.80000     -1.4677828E-08
   19.86000     -1.3723693E-08
   19.92000     -1.2590865E-08
   19.98000     -1.1290705E-08
   20.04000     -9.8433954E-09
   20.10000     -8.2804501E-09
   20.16000     -6.6456476E-09
   20.22000     -4.9936593E-09
   20.28000     -3.3861602E-09
   20.34000     -1.8857469E-09
   20.40000     -5.4847704E-10
   20.46000      5.8372540E-10
   20.52000      1.4892756E-09
   20.58000      2.1702082E-09
   20.64000      2.6514073E-09
   20.70000      2.9755229E-09
   20.76000      3.1944274E-09
   20.82000      3.3590812E-09
   20.88000      3.5101759E-09
   20.94000      3.6717094E-09
   21.00000      3.8487769E-09
   21.06000      4.0296899E-09
   21.12000      4.1914685E-09
   21.18000      4.3071204E-09
   21.24000      4.3529806E-09
   21.30000      4.3146549E-09
   21.36000      4.1905546E-09
   21.42000      3.9925312E-09
   21.48000      3.7436263E-09
   21.54000      3.4734822E-09
   21.60000      3.2124645E-09
   21.66000      2.9858593E-09
   21.72000      2.8095044E-09
   21.78000      2.6877875E-09
   21.84000      2.6142071E-09
   21.90000      2.5738960E-09
   21.96000      2.5470084E-09
   22.02000      2.5118250E-09
   22.08000      2.4468843E-09
   22.14000      2.3320947E-09
   22.20000      2.1493327E-09
   22.26000      1.8832125E-09
   22.32000      1.5224643E-09
   22.38000      1.0618598E-09
   22.44000      5.0413651E-10
   22.50000     -1.3885258E-10
   22.56000     -8.4639101E-10
   22.62000     -1.5907873E-09
   22.68000     -2.3406503E-09
   22.74000     -3.0649669E-09
   22.80000     -3.7372843E-09
   22.86000     -4.3394004E-09
   22.92000     -4.8641247E-09
   22.98000     -5.3167986E-09
   23.04000     -5.7153096E-09
   23.10000     -6.0883716E-09
   23.16000     -6.4719861E-09
   23.22000     -6.9043327E-09
   23.28000     -7.4197866E-09
   23.34000     -8.0431661E-09
   23.40000     -8.7854470E-09
   23.46000     -9.6419441E-09
   23.52000     -1.0593366E-08
   23.58000     -1.1609454E-08
   23.64000     -1.2654236E-08
   23.70000     -1.3691714E-08
   23.76000     -1.4690725E-08
   23.82000     -1.5628164E-08
   23.88000     -1.6490072E-08
   23.94000     -1.7270720E-08
   24.00000     -1.7970061E-08
   24.06000     -1.8590406E-08
   24.12000     -1.9133248E-08
   24.18000     -1.9597175E-08
   24.24000     -1.9977541E-08
   24.30000     -2.0267962E-08
   24.36000     -2.0463085E-08
   24.42000     -2.0561568E-08
   24.48000     -2.0567899E-08
   24.54000     -2.0492198E-08
   24.60000     -2.0347803E-08
   24.66000     -2.0147469E-08
   24.72000     -1.9899748E-08
   24.78000     -1.9607203E-08
   24.84000     -1.9267549E-08
   24.90000     -1.8877540E-08
   24.96000     -1.8438278E-08
   25.02000     -1.7959861E-08
   25.08000     -1.7463375E-08
   25.14000     -1.6979319E-08
   25.20000     -1.6542854E-08
   25.26000     -1.6187474E-08
   25.32000     -1.5939099E-08
   25.38000     -1.5812203E-08
   25.44000     -1.5808642E-08
   25.50000     -1.5918809E-08
   25.56000     -1.6124204E-08
   25.62000     -1.6400376E-08
   25.68000     -1.6719641E-08
   25.74000     -1.7053310E-08
   25.80000     -1.7373605E-08
   25.86000     -1.7655468E-08
   25.92000     -1.7878481E-08
   25.98000     -1.8028967E-08
   26.04000     -1.8102133E-08
   26.10000     -1.8103968E-08
   26.16000     -1.8052301E-08
   26.22000     -1.7976383E-08
   26.28000     -1.7914482E-08
   26.34000     -1.7909430E-08
   26.40000     -1.8002618E-08
   26.46000     -1.8227491E-08
   26.52000     -1.8603799E-08
   26.58000     -1.9133783E-08
   26.64000     -1.9801075E-08
   26.70000     -2.0572685E-08
   26.76000     -2.1403979E-08
   26.82000     -2.2246146E-08
   26.88000     -2.3055112E-08
   26.94000     -2.3800370E-08
   27.00000     -2.4471762E-08
   27.06000     -2.5082278E-08
   27.12000     -2.5665615E-08
   27.18000     -2.6268408E-08
   27.24000     -2.6938535E-08
   27.30000     -2.7712188E-08
   27.36000     -2.8603008E-08
   27.42000     -2.9596286E-08
   27.48000     -3.0650213E-08
   27.54000     -3.1704225E-08
   27.60000     -3.2692714E-08
   27.66000     -3.3560507E-08
   27.72000     -3.4275839E-08
   27.78000     -3.4837115E-08
   27.84000     -3.5271370E-08
   27.90000     -3.5625185E-08
   27.96000     -3.5951270E-08
   28.02000     -3.6295454E-08
   28.08000     -3.6688412E-08
   28.14000     -3.7144424E-08
   28.20000     -3.7666471E-08
   28.26000     -3.8254313E-08
   28.32000     -3.8911260E-08
   28.38000     -3.9645982E-08
   28.44000     -4.0468407E-08
   28.50000     -4.1381341E-08
   28.56000     -4.2371855E-08
   28.62000     -4.3406683E-08
   28.68000     -4.4434792E-08
   28.74000     -4.5397620E-08
   28.80000     -4.6244555E-08
   28.86000     -4.6948944E-08
   28.92000     -4.7519332E-08
   28.98000     -4.8001450E-08
   29.04000     -4.8469236E-08
   29.10000     -4.9006477E-08
   29.16000     -4.9683862E-08
   29.22000     -5.0538020E-08
   29.28000     -5.1559098E-08
   29.34000     -5.2691018E-08
   29.40000     -5.3844815E-08
   29.46000     -5.4921298E-08
   29.52000     -5.5836036E-08
   29.58000     -5.6538827E-08
   29.64000     -5.7021300E-08
   29.70000     -5.7310370E-08
   29.76000     -5.7450031E-08
   29.82000     -5.7478175E-08
   29.88000     -5.7407025E-08
   29.94000     -5.7214503E-08
   30.00000     -5.6850077E-08
   30.06000     -5.6253189E-08
   30.12000     -5.5377718E-08
   30.18000     -5.4213501E-08
   30.24000     -5.2796775E-08
   30.30000     -5.1205159E-08
   30.36000     -4.9538226E-08
   30.42000     -4.7889888E-08
   30.48000     -4.6321741E-08
   30.54000     -4.4846693E-08
   30.60000     -4.3428905E-08
   30.66000     -4.2000760E-08
   30.72000     -4.0492004E-08
   30.78000     -3.8861810E-08
   30.84000     -3.7123208E-08
   30.90000     -3.5351309E-08
   30.96000     -3.3671874E-08
   31.02000     -3.2232823E-08
   31.08000     -3.1166994E-08
   31.14000     -3.0557260E-08
   31.20000     -3.0414622E-08
   31.26000     -3.0675636E-08
   31.32000     -3.1219859E-08
   31.38000     -3.1901646E-08
   31.44000     -3.2586648E-08
   31.50000     -3.3182236E-08
   31.56000     -3.3653222E-08
   31.62000     -3.4019198E-08
   31.68000     -3.4335343E-08
   31.74000     -3.4663778E-08
   31.80000     -3.5045122E-08
   31.86000     -3.5479655E-08
   31.92000     -3.5924259E-08
   31.98000     -3.6306016E-08
   32.04000     -3.6548013E-08
   32.10000     -3.6598987E-08
   32.16000     -3.6456967E-08
   32.22000     -3.6179109E-08
   32.28000     -3.5874020E-08
   32.34000     -3.5678294E-08
   32.40000     -3.5723907E-08
   32.46000     -3.6105867E-08
   32.52000     -3.6859717E-08
   32.58000     -3.7955438E-08
   32.64000     -3.9309469E-08
   32.70000     -4.0810896E-08
   32.76000     -4.2353449E-08
   32.82000     -4.3863132E-08
   32.88000     -4.5312792E-08
   32.94000     -4.6719435E-08
   33.00000     -4.8126061E-08
   33.06000     -4.9574943E-08
   33.12000     -5.1082324E-08
   33.18000     -5.2623630E-08
   33.24000     -5.4134549E-08
   33.30000     -5.5527586E-08
   33.36000     -5.6718275E-08
   33.42000     -5.7651949E-08
   33.48000     -5.8321810E-08
   33.54000     -5.8772013E-08
   33.60000     -5.9084609E-08
   33.66000     -5.9354448E-08
   33.72000     -5.9660216E-08
   33.78000     -6.0040946E-08
   33.84000     -6.0485384E-08
   33.90000     -6.0937474E-08
   33.96000     -6.1315568E-08
   34.02000     -6.1538998E-08
   34.08000     -6.1552953E-08
   34.14000     -6.1344075E-08
   34.20000     -6.0942121E-08
   34.26000     -6.0408127E-08
   34.32000     -5.9813480E-08
   34.38000     -5.9217150E-08
   34.44000     -5.8648087E-08
   34.50000     -5.8097953E-08
   34.56000     -5.7525636E-08
   34.62000     -5.6871627E-08
   34.68000     -5.6077432E-08
   34.74000     -5.5104085E-08
   34.80000     -5.3944408E-08
   34.86000     -5.2625740E-08
   34.92000     -5.1202665E-08
   34.98000     -4.9742379E-08
   35.04000     -4.8307047E-08
   35.10000     -4.6938389E-08
   35.16000     -4.5648584E-08
   35.22000     -4.4419583E-08
   35.28000     -4.3210356E-08
   35.34000     -4.1969507E-08
   35.40000     -4.0649564E-08
   35.46000     -3.9219202E-08
   35.52000     -3.7670581E-08
   35.58000     -3.6020442E-08
   35.64000     -3.4305323E-08
   35.70000     -3.2572483E-08
   35.76000     -3.0869359E-08
   35.82000     -2.9234350E-08
   35.88000     -2.7691405E-08
   35.94000     -2.6249532E-08
   36.00000     -2.4906706E-08
   36.06000     -2.3656195E-08
   36.12000     -2.2492644E-08
   36.18000     -2.1415525E-08
   36.24000     -2.0428907E-08
   36.30000     -1.9538135E-08
   36.36000     -1.8745448E-08
   36.42000     -1.8046983E-08
   36.48000     -1.7433107E-08
   36.54000     -1.6892487E-08
   36.60000     -1.6418744E-08
   36.66000     -1.6017115E-08
   36.72000     -1.5708233E-08
   36.78000     -1.5526696E-08
   36.84000     -1.5513731E-08
   36.90000     -1.5705254E-08
   36.96000     -1.6118564E-08
   37.02000     -1.6741820E-08
   37.08000     -1.7530125E-08
   37.14000     -1.8410294E-08
   37.20000     -1.9293648E-08
   37.26000     -2.0093490E-08
   37.32000     -2.0742203E-08
   37.38000     -2.1202954E-08
   37.44000     -2.1472774E-08
   37.50000     -2.1576700E-08
   37.56000     -2.1555596E-08
   37.62000     -2.1452248E-08
   37.68000     -2.1300437E-08
   37.74000     -2.1120346E-08
   37.80000     -2.0921021E-08
   37.86000     -2.0708056E-08
   37.92000     -2.0492752E-08
   37.98000     -2.0298605E-08
   38.04000     -2.0161988E-08
   38.10000     -2.0126206E-08
   38.16000     -2.0230724E-08
   38.22000     -2.0499497E-08
   38.28000     -2.0933062E-08
   38.34000     -2.1508018E-08
   38.40000     -2.2184832E-08
   38.46000     -2.2921702E-08
   38.52000     -2.3689532E-08
   38.58000     -2.4482283E-08
   38.64000     -2.5318482E-08
   38.70000     -2.6232977E-08
   38.76000     -2.7261882E-08
   38.82000     -2.8426504E-08
   38.88000     -2.9722489E-08
   38.94000     -3.1118510E-08
   39.00000     -3.2564959E-08
   39.06000     -3.4009329E-08
   39.12000     -3.5412327E-08
   39.18000     -3.6758681E-08
   39.24000     -3.8058801E-08
   39.30000     -3.9340833E-08
   39.36000     -4.0636380E-08
   39.42000     -4.1965034E-08
   39.48000     -4.3323208E-08
   39.54000     -4.4680970E-08
   39.60000     -4.5987726E-08
   39.66000     -4.7184731E-08
   39.72000     -4.8220254E-08
   39.78000     -4.9062706E-08
   39.84000     -4.9707612E-08
   39.90000     -5.0176553E-08
   39.96000     -5.0508525E-08
   40.02000     -5.0746575E-08
   40.08000     -5.0924069E-08
   40.14000     -5.1054876E-08
   40.20000     -5.1130836E-08
   40.26000     -5.1127255E-08
   40.32000     -5.1014894E-08
   40.38000     -5.0774528E-08
   40.44000     -5.0409280E-08
   40.50000     -4.9950316E-08
   40.56000     -4.9453305E-08
   40.62000     -4.8986038E-08
   40.68000     -4.8610389E-08
   40.74000     -4.8364065E-08
   40.80000     -4.8248200E-08
   40.86000     -4.8225434E-08
   40.92000     -4.8229932E-08
   40.98000     -4.8186852E-08
   41.04000     -4.8035385E-08
   41.10000     -4.7747964E-08
   41.16000     -4.7339171E-08
   41.22000     -4.6861430E-08
   41.28000     -4.6388781E-08
   41.34000     -4.5994096E-08
   41.40000     -4.5727120E-08
   41.46000     -4.5600334E-08
   41.52000     -4.5586980E-08
   41.58000     -4.5631783E-08
   41.64000     -4.5670902E-08
   41.70000     -4.5654904E-08
   41.76000     -4.5567251E-08
   41.82000     -4.5432227E-08
   41.88000     -4.5309079E-08
   41.94000     -4.5273808E-08
   42.00000     -4.5394160E-08
   42.06000     -4.5706113E-08
   42.12000     -4.6200146E-08
   42.18000     -4.6822272E-08
   42.24000     -4.7489792E-08
   42.30000     -4.8116323E-08
   42.36000     -4.8637478E-08
   42.42000     -4.9028454E-08
   42.48000     -4.9307975E-08
   42.54000     -4.9527959E-08
   42.60000     -4.9753112E-08
   42.66000     -5.0037574E-08
   42.72000     -5.0405898E-08
   42.78000     -5.0843774E-08
   42.84000     -5.1300351E-08
   42.90000     -5.1700695E-08
   42.96000     -5.1964264E-08
   43.02000     -5.2024205E-08
   43.08000     -5.1842402E-08
   43.14000     -5.1416677E-08
   43.20000     -5.0778738E-08
   43.26000     -4.9983829E-08
   43.32000     -4.9095323E-08
   43.38000     -4.8168623E-08
   43.44000     -4.7239070E-08
   43.50000     -4.6317233E-08
   43.56000     -4.5392849E-08
   43.62000     -4.4445791E-08
   43.68000     -4.3460417E-08
   43.74000     -4.2438099E-08
   43.80000     -4.1403442E-08
   43.86000     -4.0401520E-08
   43.92000     -3.9486604E-08
   43.98000     -3.8705867E-08
   44.04000     -3.8083453E-08
   44.10000     -3.7610516E-08
   44.16000     -3.7245051E-08
   44.22000     -3.6922035E-08
   44.28000     -3.6571194E-08
   44.34000     -3.6136829E-08
   44.40000     -3.5593608E-08
   44.46000     -3.4953167E-08
   44.52000     -3.4259337E-08
   44.58000     -3.3573507E-08
   44.64000     -3.2954805E-08
   44.70000     -3.2441672E-08
   44.76000     -3.2040976E-08
   44.82000     -3.1728547E-08
   44.88000     -3.1460832E-08
   44.94000     -3.1193714E-08
   45.00000     -3.0901560E-08
   45.06000     -3.0589334E-08
   45.12000     -3.0292913E-08
   45.18000     -3.0066840E-08
   45.24000     -2.9963516E-08
   45.30000     -3.0011236E-08
   45.36000     -3.0199338E-08
   45.42000     -3.0476492E-08
   45.48000     -3.0763609E-08
   45.54000     -3.0977496E-08
   45.60000     -3.1057265E-08
   45.66000     -3.0984467E-08
   45.72000     -3.0789927E-08
   45.78000     -3.0545134E-08
   45.84000     -3.0341422E-08
   45.90000     -3.0264022E-08
   45.96000     -3.0369520E-08
   46.02000     -3.0673082E-08
   46.08000     -3.1148474E-08
   46.14000     -3.1739464E-08
   46.20000     -3.2378416E-08
   46.26000     -3.3006266E-08
   46.32000     -3.3588496E-08
   46.38000     -3.4122959E-08
   46.44000     -3.4637498E-08
   46.50000     -3.5178008E-08
   46.56000     -3.5790151E-08
   46.62000     -3.6500339E-08
   46.68000     -3.7302197E-08
   46.74000     -3.8153733E-08
   46.80000     -3.8986844E-08
   46.86000     -3.9726515E-08
   46.92000     -4.0313502E-08
   46.98000     -4.0722750E-08
   47.04000     -4.0971404E-08
   47.10000     -4.1114056E-08
   47.16000     -4.1227121E-08
   47.22000     -4.1387601E-08
   47.28000     -4.1652680E-08
   47.34000     -4.2045695E-08
   47.40000     -4.2551754E-08
   47.46000     -4.3123666E-08
   47.52000     -4.3696332E-08
   47.58000     -4.4205891E-08
   47.64000     -4.4608878E-08
   47.70000     -4.4896471E-08
   47.76000     -4.5099981E-08
   47.82000     -4.5286164E-08
   47.88000     -4.5543544E-08
   47.94000     -4.5963908E-08
   48.00000     -4.6624614E-08
   48.06000     -4.7577082E-08
   48.12000     -4.8845234E-08
   48.18000     -5.0434352E-08
   48.24000     -5.2348064E-08
   48.30000     -5.4608677E-08
   48.36000     -5.7275461E-08
   48.42000     -6.0456252E-08
   48.48000     -6.4309958E-08
   48.54000     -6.9040553E-08
   48.60000     -7.4885641E-08
   48.66000     -8.2104421E-08
   48.72000     -9.0969763E-08
   48.78000     -1.0176770E-07
   48.84000     -1.1480551E-07
   48.90000     -1.3042708E-07
   48.96000     -1.4903294E-07
   49.02000     -1.7110149E-07
   49.08000     -1.9720834E-07
   49.14000     -2.2804126E-07
   49.20000     -2.6440958E-07
   49.26000     -3.0724820E-07
   49.32000     -3.5761812E-07
   49.38000     -4.1670734E-07
   49.44000     -4.8583689E-07
   49.50000     -5.6647565E-07
   49.56000     -6.6026627E-07
   49.62000     -7.6905951E-07
   49.68000     -8.9495376E-07
   49.74000     -1.0403317E-06
   49.80000     -1.2078903E-06
   49.86000     -1.4006621E-06
   49.92000     -1.6220305E-06
   49.98000     -1.8757416E-06
   50.04000     -2.1659209E-06
   50.10000     -2.4970982E-06
   50.16000     -2.8742402E-06
   50.22000     -3.3027925E-06
   50.28000     -3.7887271E-06
   50.34000     -4.3385862E-06
   50.40000     -4.9595242E-06
   50.46000     -5.6593394E-06
   50.52000     -6.4465007E-06
   50.58000     -7.3301567E-06
   50.64000     -8.3201476E-06
   50.70000     -9.4270126E-06
   50.76000     -1.0661999E-05
   50.82000     -1.2037083E-05
   50.88000     -1.3564981E-05
   50.94000     -1.5259164E-05
   51.00000     -1.7133860E-05
   51.06000     -1.9204042E-05
   51.12000     -2.1485395E-05
   51.18000     -2.3994258E-05
   51.24000     -2.6747579E-05
   51.30000     -2.9762839E-05
   51.36000     -3.3057982E-05
   51.42000     -3.6651345E-05
   51.48000     -4.0561597E-05
   51.54000     -4.4807624E-05
   51.60000     -4.9408478E-05
   51.66000     -5.4383225E-05
   51.72000     -5.9750801E-05
   51.78000     -6.5529857E-05
   51.84000     -7.1738577E-05
   51.90000     -7.8394471E-05
   51.96000     -8.5514170E-05
   52.02000     -9.3113245E-05
   52.08000     -1.0120597E-04
   52.14000     -1.0980520E-04
   52.20000     -1.1892214E-04
   52.26000     -1.2856620E-04
   52.32000     -1.3874477E-04
   52.38000     -1.4946309E-04
   52.44000     -1.6072390E-04
   52.50000     -1.7252738E-04
   52.56000     -1.8487078E-04
   52.62000     -1.9774839E-04
   52.68000     -2.1115127E-04
   52.74000     -2.2506721E-04
   52.80000     -2.3948053E-04
   52.86000     -2.5437213E-04
   52.92000     -2.6971937E-04
   52.98000     -2.8549600E-04
   53.04000     -3.0167238E-04
   53.10000     -3.1821529E-04
   53.16000     -3.3508826E-04
   53.22000     -3.5225146E-04
   53.28000     -3.6966175E-04
   53.34000     -3.8727306E-04
   53.40000     -4.0503655E-04
   53.46000     -4.2290075E-04
   53.52000     -4.4081215E-04
   53.58000     -4.5871528E-04
   53.64000     -4.7655334E-04
   53.70000     -4.9426832E-04
   53.76000     -5.1180180E-04
   53.82000     -5.2909477E-04
   53.88000     -5.4608873E-04
   53.94000     -5.6272547E-04
   54.00000     -5.7894812E-04
   54.06000     -5.9470156E-04
   54.12000     -6.0993241E-04
   54.18000     -6.2459026E-04
   54.24000     -6.3862762E-04
   54.30000     -6.5200042E-04
   54.36000     -6.6466862E-04
   54.42000     -6.7659636E-04
   54.48000     -6.8775256E-04
   54.54000     -6.9811108E-04
   54.60000     -7.0765102E-04
   54.66000     -7.1635668E-04
   54.72000     -7.2421838E-04
   54.78000     -7.3123182E-04
   54.84000     -7.3739869E-04
   54.90000     -7.4272614E-04
   54.96000     -7.4722752E-04
   55.02000     -7.5092172E-04
   55.08000     -7.5383316E-04
   55.14000     -7.5599150E-04
   55.20000     -7.5743126E-04
   55.26000     -7.5819169E-04
   55.32000     -7.5831608E-04
   55.38000     -7.5785170E-04
   55.44000     -7.5684913E-04
   55.50000     -7.5536169E-04
   55.56000     -7.5344520E-04