  -2.400000      0.0000000E+00
  -2.340000      0.0000000E+00
  -2.280000      0.0000000E+00
  -2.220000      0.0000000E+00
  -2.160000      0.0000000E+00
  -2.100000      6.3661539E-20
  -2.040000      4.5044492E-19
  -1.980000      1.2783033E-18
  -1.920000      6.0055541E-19
  -1.860000     -8.7236453E-18
  -1.800000     -3.7815839E-17
  -1.740000     -8.6080464E-17
  -1.680000     -1.0854031E-16
  -1.620000      8.3039330E-18
  -1.560000      4.0398056E-16
  -1.500000      1.0853390E-15
  -1.440000      1.6952198E-15
  -1.380000      1.4070584E-15
  -1.320000     -7.6753906E-16
  -1.260000     -5.1254078E-15
  -1.200000     -1.0197040E-14
  -1.140000     -1.2315648E-14
  -1.080000     -6.8347838E-15
  -1.020000      8.7152050E-15
 -0.9600000      3.0767469E-14
 -0.9000000      4.7911057E-14
 -0.8400000      4.4075685E-14
 -0.7800000      7.5192868E-15
 -0.7200000     -5.7635103E-14
 -0.6600000     -1.2443283E-13
 -0.6000000     -1.4841920E-13
 -0.5400000     -8.8259607E-14
 -0.4800000      6.4588126E-14
 -0.4200000      2.6267725E-13
 -0.3600000      4.0440147E-13
 -0.3000000      3.7146691E-13
 -0.2400000      9.4422456E-14
 -0.1800000     -3.8225158E-13
 -0.1200000     -8.7554757E-13
 -5.9999999E-02 -1.1113896E-12
  0.0000000E+00 -8.4488476E-13
  5.9999999E-02 -1.1290148E-14
  0.1200000      1.1680772E-12
  0.1800000      2.2022241E-12
  0.2400000      2.5034699E-12
  0.3000000      1.6736980E-12
  0.3600000     -2.1858683E-13
  0.4200000     -2.5280307E-12
  0.4800000     -4.2031678E-12
  0.5400000     -4.2299224E-12
  0.6000000     -2.1844072E-12
  0.6600000      1.3773597E-12
  0.7200000      4.9516957E-12
  0.7800000      6.6376349E-12
  0.8400000      5.0420644E-12
  0.9000000      1.4184738E-13
  0.9600000     -6.3657482E-12
   1.020000     -1.1522940E-11
   1.080000     -1.2311622E-11
   1.140000     -7.1202788E-12
   1.200000      3.2190828E-12
   1.260000      1.5409937E-11
   1.320000      2.4834376E-11
   1.380000      2.7432875E-11
   1.440000      2.1471613E-11
   1.500000      8.3264064E-12
   1.560000     -8.1534918E-12
   1.620000     -2.3433975E-11
   1.680000     -3.4345641E-11
   1.740000     -4.0300832E-11
   1.800000     -4.2949415E-11
   1.860000     -4.4332829E-11
   1.920000     -4.4432100E-11
   1.980000     -3.9463405E-11
   2.040000     -2.2093730E-11
   2.100000      1.6027903E-11
   2.160000      8.0068029E-11
   2.220000      1.6761351E-10
   2.280000      2.6580854E-10
   2.340000      3.5128758E-10
   2.400000      3.9318893E-10
   2.460000      3.5844711E-10
   2.520000      2.1780695E-10
   2.580000     -4.9132785E-11
   2.640000     -4.5103518E-10
   2.700000     -9.8438624E-10
   2.760000     -1.6348740E-09
   2.820000     -2.3794149E-09
   2.880000     -3.1876890E-09
   2.940000     -4.0226324E-09
   3.000000     -4.8401860E-09
   3.060000     -5.5893494E-09
   3.120000     -6.2138326E-09
   3.180000     -6.6562009E-09
   3.240000     -6.8644463E-09
   3.300000     -6.7997803E-09
   3.360000     -6.4436136E-09
   3.420000     -5.8015854E-09
   3.480000     -4.9032232E-09
   3.540000     -3.7971888E-09
   3.600000     -2.5435347E-09
   3.660000     -1.2053205E-09
   3.720000      1.5800865E-10
   3.780000      1.4940424E-09
   3.840000      2.7577025E-09
   3.900000      3.9099293E-09
   3.960000      4.9169411E-09
   4.020000      5.7518394E-09
   4.080000      6.3989356E-09
   4.140000      6.8594708E-09
   4.200000      7.1561224E-09
   4.260000      7.3335640E-09
   4.320000      7.4535107E-09
   4.380000      7.5847399E-09
   4.440000      7.7907032E-09
   4.500000      8.1185210E-09
   4.560000      8.5929042E-09
   4.620000      9.2167722E-09
   4.680000      9.9778878E-09
   4.740000      1.0858608E-08
   4.800000      1.1844822E-08
   4.860000      1.2930851E-08
   4.920000      1.4118990E-08
   4.980000      1.5414727E-08
   5.040000      1.6820438E-08
   5.100000      1.8330718E-08
   5.160000      1.9931417E-08
   5.220000      2.1602519E-08
   5.280000      2.3323102E-08
   5.340000      2.5075707E-08
   5.400000      2.6847840E-08
   5.460000      2.8629874E-08
   5.520000      3.0410490E-08
   5.580000      3.2172188E-08
   5.640000      3.3889545E-08
   5.700000      3.5531858E-08
   5.760000      3.7069807E-08
   5.820000      3.8483986E-08
   5.880000      3.9772143E-08
   5.940000      4.0952195E-08
   6.000000      4.2059863E-08
   6.060000      4.3141650E-08
   6.120000      4.4245692E-08
   6.180000      4.5413675E-08
   6.240000      4.6676199E-08
   6.300000      4.8052321E-08
   6.360000      4.9552153E-08
   6.420000      5.1180294E-08
   6.480000      5.2937970E-08
   6.540000      5.4822692E-08
   6.600000      5.6825769E-08
   6.660000      5.8929231E-08
   6.720000      6.1103833E-08
   6.780000      6.3309386E-08
   6.840000      6.5497666E-08
   6.900000      6.7616966E-08
   6.960000      6.9617073E-08
   7.020000      7.1453250E-08
   7.080000      7.3088287E-08
   7.140000      7.4492156E-08
   7.200000      7.5639505E-08
   7.260000      7.6505643E-08
   7.320000      7.7062403E-08
   7.380000      7.7275374E-08
   7.440000      7.7103984E-08
   7.500000      7.6505167E-08
   7.560000      7.5440305E-08
   7.620000      7.3883776E-08
   7.680000      7.1831074E-08
   7.740000      6.9304271E-08
   7.800000      6.6353174E-08
   7.860000      6.3052134E-08
   7.920000      5.9493019E-08
   7.980000      5.5775686E-08
   8.040000      5.1997709E-08
   8.100000      4.8244686E-08
   8.160000      4.4582755E-08
   8.220000      4.1054385E-08
   8.280000      3.7678173E-08
   8.340000      3.4452452E-08
   8.400000      3.1361655E-08
   8.460000      2.8383752E-08
   8.520000      2.5497108E-08
   8.580000      2.2685663E-08
   8.640000      1.9942313E-08
   8.700000      1.7270869E-08
   8.760000      1.4686851E-08
   8.820000      1.2216737E-08
   8.880000      9.8948885E-09
   8.940000      7.7575537E-09
   9.000000      5.8346283E-09
   9.060000      4.1413450E-09
   9.120000      2.6729494E-09
   9.180000      1.4048850E-09
   9.240000      2.9904615E-10
   9.300000     -6.8582512E-10
   9.360000     -1.5832803E-09
   9.420000     -2.4116096E-09
   9.480000     -3.1717780E-09
   9.540000     -3.8506780E-09
   9.600000     -4.4276374E-09
   9.660000     -4.8814996E-09
   9.720000     -5.1962834E-09
   9.780000     -5.3646718E-09
   9.840000     -5.3895892E-09
   9.900000     -5.2843565E-09
   9.960000     -5.0716751E-09
   10.02000     -4.7813971E-09
   10.08000     -4.4472244E-09
   10.14000     -4.1029775E-09
   10.20000     -3.7795100E-09
   10.26000     -3.5031584E-09
   10.32000     -3.2958387E-09
   10.38000     -3.1758642E-09
   10.44000     -3.1580814E-09
   10.50000     -3.2523446E-09
   10.56000     -3.4605789E-09
   10.62000     -3.7739789E-09
   10.68000     -4.1724144E-09
   10.74000     -4.6274367E-09
   10.80000     -5.1086282E-09
   10.86000     -5.5913234E-09
   10.92000     -6.0628440E-09
   10.98000     -6.5249242E-09
   11.04000     -6.9916619E-09
   11.10000     -7.4842523E-09
   11.16000     -8.0249771E-09
   11.22000     -8.6327807E-09
   11.28000     -9.3214645E-09
   11.34000     -1.0099858E-08
   11.40000     -1.0972300E-08
   11.46000     -1.1937962E-08
   11.52000     -1.2988807E-08
   11.58000     -1.4107528E-08
   11.64000     -1.5267466E-08
   11.70000     -1.6435880E-08
   11.76000     -1.7580110E-08
   11.82000     -1.8674282E-08
   11.88000     -1.9703430E-08
   11.94000     -2.0662842E-08
   12.00000     -2.1552786E-08
   12.06000     -2.2371260E-08
   12.12000     -2.3108655E-08
   12.18000     -2.3747342E-08
   12.24000     -2.4266702E-08
   12.30000     -2.4651140E-08
   12.36000     -2.4897073E-08
   12.42000     -2.5015469E-08
   12.48000     -2.5028893E-08
   12.54000     -2.4965074E-08
   12.60000     -2.4850697E-08
   12.66000     -2.4708756E-08
   12.72000     -2.4560254E-08
   12.78000     -2.4428257E-08
   12.84000     -2.4340411E-08
   12.90000     -2.4326672E-08
   12.96000     -2.4411596E-08
   13.02000     -2.4603986E-08
   13.08000     -2.4888822E-08
   13.14000     -2.5226083E-08
   13.20000     -2.5558318E-08
   13.26000     -2.5824761E-08
   13.32000     -2.5976732E-08
   13.38000     -2.5988300E-08
   13.44000     -2.5858380E-08
   13.50000     -2.5604328E-08
   13.56000     -2.5250733E-08
   13.62000     -2.4818954E-08
   13.68000     -2.4321739E-08
   13.74000     -2.3764375E-08
   13.80000     -2.3150188E-08
   13.86000     -2.2486351E-08
   13.92000     -2.1786246E-08
   13.98000     -2.1066979E-08
   14.04000     -2.0343581E-08
   14.10000     -1.9623286E-08
   14.16000     -1.8903101E-08
   14.22000     -1.8172001E-08
   14.28000     -1.7416507E-08
   14.34000     -1.6626737E-08
   14.40000     -1.5800060E-08
   14.46000     -1.4941039E-08
   14.52000     -1.4058482E-08
   14.58000     -1.3161721E-08
   14.64000     -1.2258213E-08
   14.70000     -1.1353245E-08
   14.76000     -1.0451013E-08
   14.82000     -9.5556318E-09
   14.88000     -8.6710772E-09
   14.94000     -7.8003994E-09
   15.00000     -6.9454549E-09
   15.06000     -6.1083019E-09
   15.12000     -5.2940887E-09
   15.18000     -4.5136570E-09
   15.24000     -3.7834527E-09
   15.30000     -3.1214828E-09
   15.36000     -2.5404614E-09
   15.42000     -2.0416124E-09
   15.48000     -1.6130590E-09
   15.54000     -1.2347147E-09
   15.60000     -8.8791352E-10
   15.66000     -5.6483168E-10
   15.72000     -2.7218219E-10
   15.78000     -2.6440898E-11
   15.84000      1.5734088E-10
   15.90000      2.7702771E-10
   15.96000      3.4836986E-10
   16.02000      3.9996381E-10
   16.08000      4.6042062E-10
   16.14000      5.4469085E-10
   16.20000      6.4736450E-10
   16.26000      7.4699830E-10
   16.32000      8.1923118E-10
   16.38000      8.5125651E-10
   16.44000      8.4929785E-10
   16.50000      8.3473262E-10
   16.56000      8.3114760E-10
   16.62000      8.4999302E-10
   16.68000      8.8342245E-10
   16.74000      9.0877478E-10
   16.80000      9.0234303E-10
   16.86000      8.5455121E-10
   16.92000      7.7764323E-10
   16.98000      7.0109646E-10
   17.04000      6.5685779E-10
   17.10000      6.6230438E-10
   17.16000      7.1026013E-10
   17.22000      7.7172235E-10
   17.28000      8.1019508E-10
   17.34000      8.0036822E-10
   17.40000      7.4160944E-10
   17.46000      6.5943923E-10
   17.52000      5.9431704E-10
   17.58000      5.8337729E-10
   17.64000      6.4401984E-10
   17.70000      7.6695533E-10
   17.76000      9.2135077E-10
   17.82000      1.0687961E-09
   17.88000      1.1789376E-09
   17.94000      1.2395704E-09
   18.00000      1.2574397E-09
   18.06000      1.2509537E-09
   18.12000      1.2398008E-09
   18.18000      1.2373162E-09
   18.24000      1.2492094E-09
   18.30000      1.2784276E-09
   18.36000      1.3326307E-09
   18.42000      1.4296246E-09
   18.48000      1.5975113E-09
   18.54000      1.8692259E-09
   18.60000      2.2739377E-09
   18.66000      2.8290861E-09
   18.72000      3.5361856E-09
   18.78000      4.3815658E-09
   18.84000      5.3409983E-09
   18.90000      6.3857954E-09
   18.96000      7.4878512E-09
   19.02000      8.6220506E-09
   19.08000      9.7658930E-09
   19.14000      1.0897410E-08
   19.20000      1.1993060E-08
   19.26000      1.3027211E-08
   19.32000      1.3974159E-08
   19.38000      1.4812593E-08
   19.44000      1.5531496E-08
   19.50000      1.6135692E-08
   19.56000      1.6649068E-08
   19.62000      1.7113939E-08
   19.68000      1.7585901E-08
   19.74000      1.8124785E-08
   19.80000      1.8783464E-08
   19.86000      1.9596982E-08
   19.92000      2.0574609E-08
   19.98000      2.1696808E-08
   20.04000      2.2917874E-08
   20.10000      2.4173499E-08
   20.16000      2.5391158E-08
   20.22000      2.6500468E-08
   20.28000      2.7440899E-08
   20.34000      2.8165463E-08
   20.40000      2.8640704E-08
   20.46000      2.8844845E-08
   20.52000      2.8766467E-08
   20.58000      2.8405225E-08
   20.64000      2.7774396E-08
   20.70000      2.6903244E-08
   20.76000      2.5836625E-08
   20.82000      2.4630166E-08
   20.88000      2.3341766E-08
   20.94000      2.2022359E-08
   21.00000      2.0710075E-08
   21.06000      1.9430562E-08
   21.12000      1.8203490E-08
   21.18000      1.7051907E-08
   21.24000      1.6009292E-08
   21.30000      1.5120040E-08
   21.36000      1.4432084E-08
   21.42000      1.3984298E-08
   21.48000      1.3793959E-08
   21.54000      1.3849396E-08
   21.60000      1.4110402E-08
   21.66000      1.4515162E-08
   21.72000      1.4989705E-08
   21.78000      1.5455601E-08
   21.84000      1.5833750E-08
   21.90000      1.6045442E-08
   21.96000      1.6014068E-08
   22.02000      1.5670789E-08
   22.08000      1.4964995E-08
   22.14000      1.3876956E-08
   22.20000      1.2427760E-08
   22.26000      1.0681680E-08
   22.32000      8.7389118E-09
   22.38000      6.7202746E-09
   22.44000      4.7486219E-09
   22.50000      2.9324889E-09
   22.56000      1.3559628E-09
   22.62000      7.5793656E-11
   22.68000     -8.7603841E-10
   22.74000     -1.4874234E-09
   22.80000     -1.7616089E-09
   22.86000     -1.7142199E-09
   22.92000     -1.3713303E-09
   22.98000     -7.6729539E-10
   23.04000      5.8629455E-11
   23.10000      1.0668475E-09
   23.16000      2.2220674E-09
   23.22000      3.4964891E-09
   23.28000      4.8702908E-09
   23.34000      6.3290830E-09
   23.40000      7.8590388E-09
   23.46000      9.4412034E-09
   23.52000      1.1046770E-08
   23.58000      1.2634915E-08
   23.64000      1.4154133E-08
   23.70000      1.5547068E-08
   23.76000      1.6757916E-08
   23.82000      1.7740595E-08
   23.88000      1.8465560E-08
   23.94000      1.8923338E-08
   24.00000      1.9123810E-08
   24.06000      1.9091539E-08
   24.12000      1.8858698E-08
   24.18000      1.8457792E-08
   24.24000      1.7916156E-08
   24.30000      1.7253228E-08
   24.36000      1.6480474E-08
   24.42000      1.5602868E-08
   24.48000      1.4620825E-08
   24.54000      1.3531968E-08
   24.60000      1.2332929E-08
   24.66000      1.1021767E-08
   24.72000      9.6013428E-09
   24.78000      8.0832496E-09
   24.84000      6.4910761E-09
   24.90000      4.8616062E-09
   24.96000      3.2430616E-09
   25.02000      1.6905047E-09
   25.08000      2.5947264E-10
   25.14000     -1.0006133E-09
   25.20000     -2.0518973E-09
   25.26000     -2.8715412E-09
   25.32000     -3.4528227E-09
   25.38000     -3.8038390E-09
   25.44000     -3.9439847E-09
   25.50000     -3.8987515E-09
   25.56000     -3.6939500E-09
   25.62000     -3.3509564E-09
   25.68000     -2.8845106E-09
   25.74000     -2.3037348E-09
   25.80000     -1.6155877E-09
   25.86000     -8.2872609E-10
   25.92000      4.4508921E-11
   25.98000      9.8918551E-10
   26.04000      1.9912656E-09
   26.10000      3.0411527E-09
   26.16000      4.1346762E-09
   26.22000      5.2702043E-09
   26.28000      6.4428578E-09
   26.34000      7.6387305E-09
   26.40000      8.8324299E-09
   26.46000      9.9898205E-09
   26.52000      1.1075318E-08
   26.58000      1.2060818E-08
   26.64000      1.2932439E-08
   26.70000      1.3692371E-08
   26.76000      1.4355247E-08
   26.82000      1.4940978E-08
   26.88000      1.5467224E-08
   26.94000      1.5944574E-08
   27.00000      1.6376024E-08
   27.06000      1.6760289E-08
   27.12000      1.7096983E-08
   27.18000      1.7391017E-08
   27.24000      1.7654251E-08
   27.30000      1.7903874E-08
   27.36000      1.8158413E-08
   27.42000      1.8433502E-08
   27.48000      1.8739291E-08
   27.54000      1.9080584E-08
   27.60000      1.9459145E-08
   27.66000      1.9876483E-08
   27.72000      2.0335074E-08
   27.78000      2.0836817E-08
   27.84000      2.1379064E-08
   27.90000      2.1950070E-08
   27.96000      2.2526288E-08
   28.02000      2.3073390E-08
   28.08000      2.3551314E-08
   28.14000      2.3922032E-08
   28.20000      2.4157583E-08
   28.26000      2.4246040E-08
   28.32000      2.4193989E-08
   28.38000      2.4025415E-08
   28.44000      2.3777877E-08
   28.50000      2.3497240E-08
   28.56000      2.3231852E-08
   28.62000      2.3026651E-08
   28.68000      2.2917416E-08
   28.74000      2.2925516E-08
   28.80000      2.3054071E-08
   28.86000      2.3286646E-08
   28.92000      2.3589443E-08
   28.98000      2.3917071E-08
   29.04000      2.4220796E-08
   29.10000      2.4457343E-08
   29.16000      2.4596055E-08
   29.22000      2.4622976E-08
   29.28000      2.4541496E-08
   29.34000      2.4370216E-08
   29.40000      2.4138895E-08
   29.46000      2.3883064E-08
   29.52000      2.3637419E-08
   29.58000      2.3428084E-08
   29.64000      2.3264873E-08
   29.70000      2.3135803E-08
   29.76000      2.3006880E-08
   29.82000      2.2829145E-08
   29.88000      2.2552282E-08
   29.94000      2.2140751E-08
   30.00000      2.1586184E-08
   30.06000      2.0910427E-08
   30.12000      2.0157190E-08
   30.18000      1.9375479E-08
   30.24000      1.8602115E-08
   30.30000      1.7851253E-08
   30.36000      1.7115532E-08
   30.42000      1.6377536E-08
   30.48000      1.5625060E-08
   30.54000      1.4861921E-08
   30.60000      1.4108697E-08
   30.66000      1.3393602E-08
   30.72000      1.2738997E-08
   30.78000      1.2151278E-08
   30.84000      1.1619457E-08
   30.90000      1.1122554E-08
   30.96000      1.0640807E-08
   31.02000      1.0163786E-08
   31.08000      9.6908650E-09
   31.14000      9.2244337E-09
   31.20000      8.7608489E-09
   31.26000      8.2854923E-09
   31.32000      7.7757116E-09
   31.38000      7.2104696E-09
   31.44000      6.5812609E-09
   31.50000      5.8978324E-09
   31.56000      5.1851226E-09
   31.62000      4.4727790E-09
   31.68000      3.7827457E-09
   31.74000      3.1213183E-09
   31.80000      2.4792999E-09
   31.86000      1.8392203E-09
   31.92000      1.1847813E-09
   31.98000      5.0694177E-10
   32.04000     -1.9635232E-10
   32.10000     -9.2556618E-10
   32.16000     -1.6856347E-09
   32.22000     -2.4878584E-09
   32.28000     -3.3454852E-09
   32.34000     -4.2648121E-09
   32.40000     -5.2365206E-09
   32.46000     -6.2320393E-09
   32.52000     -7.2070181E-09
   32.58000     -8.1102343E-09
   32.64000     -8.8936520E-09
   32.70000     -9.5193826E-09
   32.76000     -9.9616768E-09
   32.82000     -1.0205208E-08
   32.88000     -1.0242659E-08
   32.94000     -1.0074134E-08
   33.00000     -9.7085522E-09
   33.06000     -9.1649834E-09
   33.12000     -8.4713276E-09
   33.18000     -7.6595228E-09
   33.24000     -6.7592518E-09
   33.30000     -5.7939720E-09
   33.36000     -4.7823594E-09
   33.42000     -3.7450891E-09
   33.48000     -2.7130700E-09
   33.54000     -1.7313015E-09
   33.60000     -8.5397994E-10
   33.66000     -1.3093572E-10
   33.72000      4.0954667E-10
   33.78000      7.7373746E-10
   33.84000      1.0048234E-09
   33.90000      1.1728727E-09
   33.96000      1.3563793E-09
   34.02000      1.6230112E-09
   34.08000      2.0170323E-09
   34.14000      2.5571549E-09
   34.20000      3.2435039E-09
   34.26000      4.0685766E-09
   34.32000      5.0262696E-09
   34.38000      6.1151142E-09
   34.44000      7.3353910E-09
   34.50000      8.6827603E-09
   34.56000      1.0142100E-08
   34.62000      1.1684375E-08
   34.68000      1.3267376E-08
   34.74000      1.4839350E-08
   34.80000      1.6343854E-08
   34.86000      1.7724481E-08
   34.92000      1.8929153E-08
   34.98000      1.9914317E-08
   35.04000      2.0649422E-08
   35.10000      2.1121156E-08
   35.16000      2.1336000E-08
   35.22000      2.1319197E-08
   35.28000      2.1109068E-08
   35.34000      2.0747430E-08
   35.40000      2.0268967E-08
   35.46000      1.9693603E-08
   35.52000      1.9025284E-08
   35.58000      1.8258060E-08
   35.64000      1.7387158E-08
   35.70000      1.6420261E-08
   35.76000      1.5384007E-08
   35.82000      1.4322860E-08
   35.88000      1.3291006E-08
   35.94000      1.2340956E-08
   36.00000      1.1513564E-08
   36.06000      1.0832819E-08
   36.12000      1.0306080E-08
   36.18000      9.9279660E-09
   36.24000      9.6852126E-09
   36.30000      9.5606261E-09
   36.36000      9.5358850E-09
   36.42000      9.5939594E-09
   36.48000      9.7216946E-09
   36.54000      9.9118873E-09
   36.60000      1.0163199E-08
   36.66000      1.0476557E-08
   36.72000      1.0848519E-08
   36.78000      1.1264359E-08
   36.84000      1.1694859E-08
   36.90000      1.2099677E-08
   36.96000      1.2437038E-08
   37.02000      1.2675820E-08
   37.08000      1.2804108E-08
   37.14000      1.2829526E-08
   37.20000      1.2770626E-08
   37.26000      1.2643549E-08
   37.32000      1.2451064E-08
   37.38000      1.2180357E-08
   37.44000      1.1811413E-08
   37.50000      1.1332134E-08
   37.56000      1.0752338E-08
   37.62000      1.0108987E-08
   37.68000      9.4592805E-09
   37.74000      8.8643901E-09
   37.80000      8.3712353E-09
   37.86000      8.0004190E-09
   37.92000      7.7449887E-09
   37.98000      7.5792181E-09
   38.04000      7.4721909E-09
   38.10000      7.3998132E-09
   38.16000      7.3510780E-09
   38.22000      7.3282154E-09
   38.28000      7.3432842E-09
   38.34000      7.4142901E-09
   38.40000      7.5623339E-09
   38.46000      7.8091968E-09
   38.52000      8.1739167E-09
   38.58000      8.6678895E-09
   38.64000      9.2899475E-09
   38.70000      1.0024099E-08
   38.76000      1.0841965E-08
   38.82000      1.1709626E-08
   38.88000      1.2595963E-08
   38.94000      1.3478525E-08
   39.00000      1.4344180E-08
   39.06000      1.5184821E-08
   39.12000      1.5991283E-08
   39.18000      1.6749812E-08
   39.24000      1.7443906E-08
   39.30000      1.8061202E-08
   39.36000      1.8602035E-08
   39.42000      1.9084952E-08
   39.48000      1.9545825E-08
   39.54000      2.0030109E-08
   39.60000      2.0581041E-08
   39.66000      2.1228070E-08
   39.72000      2.1979456E-08
   39.78000      2.2820824E-08
   39.84000      2.3719034E-08
   39.90000      2.4629061E-08
   39.96000      2.5501370E-08
   40.02000      2.6287886E-08
   40.08000      2.6945823E-08
   40.14000      2.7439308E-08
   40.20000      2.7739040E-08
   40.26000      2.7820386E-08
   40.32000      2.7660567E-08
   40.38000      2.7235950E-08
   40.44000      2.6520805E-08
   40.50000      2.5488465E-08
   40.56000      2.4115026E-08
   40.62000      2.2384411E-08
   40.68000      2.0292944E-08
   40.74000      1.7851690E-08
   40.80000      1.5085691E-08
   40.86000      1.2030659E-08
   40.92000      8.7284588E-09
   40.98000      5.2228599E-09
   41.04000      1.5564873E-09
   41.10000     -2.2308826E-09
   41.16000     -6.1028822E-09
   41.22000     -1.0026196E-08
   41.28000     -1.3969327E-08
   41.34000     -1.7900756E-08
   41.40000     -2.1787223E-08
   41.46000     -2.5593366E-08
   41.52000     -2.9283772E-08
   41.58000     -3.2827376E-08
   41.64000     -3.6202533E-08
   41.70000     -3.9399911E-08
   41.76000     -4.2420886E-08
   41.82000     -4.5270909E-08
   41.88000     -4.7950323E-08
   41.94000     -5.0447149E-08
   42.00000     -5.2735871E-08
   42.06000     -5.4783914E-08
   42.12000     -5.6563330E-08
   42.18000     -5.8062390E-08
   42.24000     -5.9291452E-08
   42.30000     -6.0280009E-08
   42.36000     -6.1066395E-08
   42.42000     -6.1685029E-08
   42.48000     -6.2157177E-08
   42.54000     -6.2488866E-08
   42.60000     -6.2675838E-08
   42.66000     -6.2711770E-08
   42.72000     -6.2595163E-08
   42.78000     -6.2331708E-08
   42.84000     -6.1932234E-08
   42.90000     -6.1408670E-08
   42.96000     -6.0770979E-08
   43.02000     -6.0026693E-08
   43.08000     -5.9182295E-08
   43.14000     -5.8244872E-08
   43.20000     -5.7222547E-08
   43.26000     -5.6124026E-08
   43.32000     -5.4958722E-08
   43.38000     -5.3738635E-08
   43.44000     -5.2481482E-08
   43.50000     -5.1212698E-08
   43.56000     -4.9963631E-08
   43.62000     -4.8764822E-08
   43.68000     -4.7636654E-08
   43.74000     -4.6581910E-08
   43.80000     -4.5585132E-08
   43.86000     -4.4620524E-08
   43.92000     -4.3665839E-08
   43.98000     -4.2716255E-08
   44.04000     -4.1791711E-08
   44.10000     -4.0934061E-08
   44.16000     -4.0195253E-08
   44.22000     -3.9621728E-08
   44.28000     -3.9241446E-08
   44.34000     -3.9058147E-08
   44.40000     -3.9053738E-08
   44.46000     -3.9196173E-08
   44.52000     -3.9449048E-08
   44.58000     -3.9779593E-08
   44.64000     -4.0163791E-08
   44.70000     -4.0588841E-08
   44.76000     -4.1053532E-08
   44.82000     -4.1566565E-08
   44.88000     -4.2142393E-08
   44.94000     -4.2794515E-08
   45.00000     -4.3527624E-08
   45.06000     -4.4331237E-08
   45.12000     -4.5177956E-08
   45.18000     -4.6027921E-08
   45.24000     -4.6838231E-08
   45.30000     -4.7573689E-08
   45.36000     -4.8214059E-08
   45.42000     -4.8754799E-08
   45.48000     -4.9201152E-08
   45.54000     -4.9558857E-08
   45.60000     -4.9826337E-08
   45.66000     -4.9992284E-08
   45.72000     -5.0039588E-08
   45.78000     -4.9953574E-08
   45.84000     -4.9730346E-08
   45.90000     -4.9381498E-08
   45.96000     -4.8933419E-08
   46.02000     -4.8421814E-08
   46.08000     -4.7883972E-08
   46.14000     -4.7351335E-08
   46.20000     -4.6844285E-08
   46.26000     -4.6369827E-08
   46.32000     -4.5922331E-08
   46.38000     -4.5487081E-08
   46.44000     -4.5046370E-08
   46.50000     -4.4587182E-08
   46.56000     -4.4108617E-08
   46.62000     -4.3626500E-08
   46.68000     -4.3172903E-08
   46.74000     -4.2789843E-08
   46.80000     -4.2518710E-08
   46.86000     -4.2388926E-08
   46.92000     -4.2409813E-08
   46.98000     -4.2568669E-08
   47.04000     -4.2835445E-08
   47.10000     -4.3172083E-08
   47.16000     -4.3543078E-08
   47.22000     -4.3923620E-08
   47.28000     -4.4302951E-08
   47.34000     -4.4682267E-08
   47.40000     -4.5068422E-08
   47.46000     -4.5465818E-08
   47.52000     -4.5869438E-08
   47.58000     -4.6261611E-08
   47.64000     -4.6613671E-08
   47.70000     -4.6891909E-08
   47.76000     -4.7065335E-08
   47.82000     -4.7111978E-08
   47.88000     -4.7020961E-08
   47.94000     -4.6789523E-08
   48.00000     -4.6416570E-08
   48.06000     -4.5895789E-08
   48.12000     -4.5211433E-08
   48.18000     -4.4337916E-08
   48.24000     -4.3242441E-08
   48.30000     -4.1888153E-08
   48.36000     -4.0235520E-08
   48.42000     -3.8241193E-08
   48.48000     -3.5855074E-08
   48.54000     -3.3017145E-08
   48.60000     -2.9655059E-08
   48.66000     -2.5681819E-08
   48.72000     -2.0992074E-08
   48.78000     -1.5455660E-08
   48.84000     -8.9085130E-09
   48.90000     -1.1428223E-09
   48.96000      8.1011695E-09
   49.02000      1.9140316E-08
   49.08000      3.2351529E-08
   49.14000      4.8175494E-08
   49.20000      6.7124581E-08
   49.26000      8.9796970E-08
   49.32000      1.1689630E-07
   49.38000      1.4925405E-07
   49.44000      1.8785160E-07
   49.50000      2.3384023E-07
   49.56000      2.8856084E-07
   49.62000      3.5356695E-07
   49.68000      4.3065467E-07
   49.74000      5.2190182E-07
   49.80000      6.2971452E-07
   49.86000      7.5687808E-07
   49.92000      9.0660785E-07
   49.98000      1.0825987E-06
   50.04000      1.2890754E-06
   50.10000      1.5308472E-06
   50.16000      1.8133742E-06
   50.22000      2.1428468E-06
   50.28000      2.5262764E-06
   50.34000      2.9715968E-06
   50.40000      3.4877673E-06
   50.46000      4.0848799E-06
   50.52000      4.7742647E-06
   50.58000      5.5686005E-06
   50.64000      6.4820342E-06
   50.70000      7.5303092E-06
   50.76000      8.7309063E-06
   50.82000      1.0103191E-05
   50.88000      1.1668568E-05
   50.94000      1.3450625E-05
   51.00000      1.5475296E-05
   51.06000      1.7771004E-05
   51.12000      2.0368821E-05
   51.18000      2.3302598E-05
   51.24000      2.6609117E-05
   51.30000      3.0328210E-05
   51.36000      3.4502864E-05
   51.42000      3.9179336E-05
   51.48000      4.4407243E-05
   51.54000      5.0239625E-05
   51.60000      5.6733043E-05
   51.66000      6.3947577E-05
   51.72000      7.1946881E-05
   51.78000      8.0798083E-05
   51.84000      9.0571775E-05
   51.90000      1.0134183E-04
   51.96000      1.1318529E-04
   52.02000      1.2618213E-04
   52.08000      1.4041501E-04
   52.14000      1.5596896E-04
   52.20000      1.7293105E-04
   52.26000      1.9138996E-04
   52.32000      2.1143557E-04
   52.38000      2.3315835E-04
   52.44000      2.5664887E-04
   52.50000      2.8199717E-04
   52.56000      3.0929197E-04
   52.62000      3.3861995E-04
   52.68000      3.7006507E-04
   52.74000      4.0370756E-04
   52.80000      4.3962317E-04
   52.86000      4.7788222E-04
   52.92000      5.1854871E-04
   52.98000      5.6167936E-04
   53.04000      6.0732273E-04
   53.10000      6.5551832E-04
   53.16000      7.0629554E-04
   53.22000      7.5967290E-04
   53.28000      8.1565685E-04
   53.34000      8.7424158E-04
   53.40000      9.3540765E-04
   53.46000      9.9912169E-04
   53.52000      1.0653358E-03
   53.58000      1.1339869E-03
   53.64000      1.2049965E-03
   53.70000      1.2782706E-03
   53.76000      1.3536996E-03
   53.82000      1.4311584E-03
   53.88000      1.5105060E-03
   53.94000      1.5915860E-03
   54.00000      1.6742279E-03
   54.06000      1.7582466E-03
   54.12000      1.8434437E-03
   54.18000      1.9296092E-03
   54.24000      2.0165215E-03
   54.30000      2.1039494E-03
   54.36000      2.1916530E-03
   54.42000      2.2793857E-03
   54.48000      2.3668949E-03
   54.54000      2.4539251E-03
   54.60000      2.5402184E-03
   54.66000      2.6255166E-03
   54.72000      2.7095641E-03
   54.78000      2.7921086E-03
   54.84000      2.8729050E-03
   54.90000      2.9517144E-03
   54.96000      3.0283087E-03
   55.02000      3.1024702E-03
   55.08000      3.1739937E-03
   55.14000      3.2426890E-03
   55.20000      3.3083828E-03
   55.26000      3.3709188E-03
   55.32000      3.4301598E-03
   55.38000      3.4859884E-03
   55.44000      3.5383070E-03
   55.50000      3.5870397E-03
   55.56000      3.6321310E-03