  -2.400000      0.0000000E+00
  -2.340000      0.0000000E+00
  -2.280000      0.0000000E+00
  -2.220000      0.0000000E+00
  -2.160000      0.0000000E+00
  -2.100000      0.0000000E+00
  -2.040000      0.0000000E+00
  -1.980000      0.0000000E+00
  -1.920000     -1.6792459E-26
  -1.860000     -1.4979976E-25
  -1.800000     -5.7149945E-25
  -1.740000     -8.8454579E-25
  -1.680000      1.7276263E-24
  -1.620000      1.4158204E-23
  -1.560000      4.3251429E-23
  -1.500000      7.8297966E-23
  -1.440000      6.1200624E-23
  -1.380000     -1.3095799E-22
  -1.320000     -6.3873136E-22
  -1.260000     -1.4560965E-21
  -1.200000     -2.1622249E-21
  -1.140000     -1.7059057E-21
  -1.080000      1.4409923E-21
  -1.020000      8.4382851E-21
 -0.9600000      1.8574846E-20
 -0.9000000      2.7867576E-20
 -0.8400000      2.9092184E-20
 -0.7800000      1.4017059E-20
 -0.7200000     -2.3537741E-20
 -0.6600000     -8.7279245E-20
 -0.6000000     -1.8207009E-19
 -0.5400000     -3.1382235E-19
 -0.4800000     -4.6666423E-19
 -0.4200000     -5.4261704E-19
 -0.3600000     -2.8895843E-19
 -0.3000000      6.9014718E-19
 -0.2400000      2.6956776E-18
 -0.1800000      5.4092984E-18
 -0.1200000      7.2984081E-18
 -5.9999999E-02  5.5411448E-18
  0.0000000E+00 -2.7921397E-18
  5.9999999E-02 -1.8071509E-17
  0.1200000     -3.5025487E-17
  0.1800000     -4.1830371E-17
  0.2400000     -2.4327195E-17
  0.3000000      2.3875225E-17
  0.3600000      8.9516189E-17
  0.4200000      1.3522424E-16
  0.4800000      1.1240770E-16
  0.5400000     -6.3459200E-18
  0.6000000     -1.8880339E-16
  0.6600000     -3.2721603E-16
  0.7200000     -2.7486383E-16
  0.7800000      5.8789500E-17
  0.8400000      5.9298204E-16
  0.9000000      1.0214773E-15
  0.9600000      9.0332782E-16
   1.020000     -7.9994579E-17
   1.080000     -1.7969728E-15
   1.140000     -3.4751629E-15
   1.200000     -3.8702422E-15
   1.260000     -1.8749834E-15
   1.320000      2.6300113E-15
   1.380000      8.1580640E-15
   1.440000      1.1777011E-14
   1.500000      1.0315279E-14
   1.560000      2.2862861E-15
   1.620000     -1.0427429E-14
   1.680000     -2.2338021E-14
   1.740000     -2.6311891E-14
   1.800000     -1.7332137E-14
   1.860000      3.6506226E-15
   1.920000      2.8190305E-14
   1.980000      4.2941447E-14
   2.040000      3.6200674E-14
   2.100000      5.6690683E-15
   2.160000     -3.6969187E-14
   2.220000     -6.8535021E-14
   2.280000     -6.4704332E-14
   2.340000     -1.4482646E-14
   2.400000      6.8568184E-14
   2.460000      1.4601410E-13
   2.520000      1.6864389E-13
   2.580000      1.0111673E-13
   2.640000     -5.3793883E-14
   2.700000     -2.4499332E-13
   2.760000     -3.8618978E-13
   2.820000     -3.9109604E-13
   2.880000     -2.1720399E-13
   2.940000      1.0291360E-13
   3.000000      4.6153381E-13
   3.060000      7.1289860E-13
   3.120000      7.3509157E-13
   3.180000      4.8925577E-13
   3.240000      4.5825296E-14
   3.300000     -4.3970288E-13
   3.360000     -7.9465145E-13
   3.420000     -9.0954880E-13
   3.480000     -7.8886870E-13
   3.540000     -5.4071412E-13
   3.600000     -3.0434734E-13
   3.660000     -1.5082815E-13
   3.720000     -1.4960877E-14
   3.780000      2.8949542E-13
   3.840000      9.5738489E-13
   3.900000      2.0236165E-12
   3.960000      3.2247737E-12
   4.020000      3.9850540E-12
   4.080000      3.5789954E-12
   4.140000      1.4436263E-12
   4.200000     -2.4714161E-12
   4.260000     -7.4736033E-12
   4.320000     -1.2153768E-11
   4.380000     -1.4716582E-11
   4.440000     -1.3538962E-11
   4.500000     -7.7747166E-12
   4.560000      2.2132829E-12
   4.620000      1.4759782E-11
   4.680000      2.7187492E-11
   4.740000      3.6388215E-11
   4.800000      3.9509635E-11
   4.860000      3.4554755E-11
   4.920000      2.0773838E-11
   4.980000     -1.1621352E-12
   5.040000     -2.9135167E-11
   5.100000     -5.9621016E-11
   5.160000     -8.7786590E-11
   5.220000     -1.0773770E-10
   5.280000     -1.1307975E-10
   5.340000     -9.7923662E-11
   5.400000     -5.8325400E-11
   5.460000      6.0713027E-12
   5.520000      9.0620927E-11
   5.580000      1.8501028E-10
   5.640000      2.7376870E-10
   5.700000      3.3811456E-10
   5.760000      3.5892878E-10
   5.820000      3.2029490E-10
   5.880000      2.1283642E-10
   5.940000      3.6089923E-11
   6.000000     -2.0061725E-10
   6.060000     -4.7894111E-10
   6.120000     -7.7370649E-10
   6.180000     -1.0559718E-09
   6.240000     -1.2963359E-09
   6.300000     -1.4679478E-09
   6.360000     -1.5489088E-09
   6.420000     -1.5240110E-09
   6.480000     -1.3859336E-09
   6.540000     -1.1360383E-09
   6.600000     -7.8480883E-10
   6.660000     -3.5179973E-10
   6.720000      1.3515344E-10
   6.780000      6.4170153E-10
   6.840000      1.1297954E-09
   6.900000      1.5613353E-09
   6.960000      1.9021706E-09
   7.020000      2.1258024E-09
   7.080000      2.2161861E-09
   7.140000      2.1692501E-09
   7.200000      1.9930708E-09
   7.260000      1.7069297E-09
   7.320000      1.3395982E-09
   7.380000      9.2713498E-10
   7.440000      5.1027133E-10
   7.500000      1.3127521E-10
   7.560000     -1.6984941E-10
   7.620000     -3.5975647E-10
   7.680000     -4.1628159E-10
   7.740000     -3.3222863E-10
   7.800000     -1.1736880E-10
   7.860000      2.0219480E-10
   7.920000      5.8755062E-10
   7.980000      9.9283248E-10
   8.040000      1.3721179E-09
   8.100000      1.6857432E-09
   8.160000      1.9045996E-09
   8.220000      2.0116531E-09
   8.280000      2.0008413E-09
   8.340000      1.8742923E-09
   8.400000      1.6391783E-09
   8.460000      1.3053824E-09
   8.520000      8.8454788E-10
   8.580000      3.9034137E-10
   8.640000     -1.6085387E-10
   8.700000     -7.4978962E-10
   8.760000     -1.3554580E-09
   8.820000     -1.9575352E-09
   8.880000     -2.5395590E-09
   8.940000     -3.0917531E-09
   9.000000     -3.6123986E-09
   9.060000     -4.1070667E-09
   9.120000     -4.5857869E-09
   9.180000     -5.0589599E-09
   9.240000     -5.5332707E-09
   9.300000     -6.0088321E-09
   9.360000     -6.4782988E-09
   9.420000     -6.9279764E-09
   9.480000     -7.3402990E-09
   9.540000     -7.6967304E-09
   9.600000     -7.9802422E-09
   9.660000     -8.1769569E-09
   9.720000     -8.2769978E-09
   9.780000     -8.2749017E-09
   9.840000     -8.1699376E-09
   9.900000     -7.9663245E-09
   9.960000     -7.6730435E-09
   10.02000     -7.3026847E-09
   10.08000     -6.8690231E-09
   10.14000     -6.3834982E-09
   10.20000     -5.8514176E-09
   10.26000     -5.2691882E-09
   10.32000     -4.6238267E-09
   10.38000     -3.8954266E-09
   10.44000     -3.0622640E-09
   10.50000     -2.1071784E-09
   10.56000     -1.0232066E-09
   10.62000      1.8349727E-10
   10.68000      1.4946179E-09
   10.74000      2.8843747E-09
   10.80000      4.3264881E-09
   10.86000      5.8010938E-09
   10.92000      7.2992434E-09
   10.98000      8.8234495E-09
   11.04000      1.0384102E-08
   11.10000      1.1993053E-08
   11.16000      1.3656647E-08
   11.22000      1.5370681E-08
   11.28000      1.7119076E-08
   11.34000      1.8876719E-08
   11.40000      2.0615447E-08
   11.46000      2.2311001E-08
   11.52000      2.3948495E-08
   11.58000      2.5524445E-08
   11.64000      2.7044821E-08
   11.70000      2.8520015E-08
   11.76000      2.9958880E-08
   11.82000      3.1364316E-08
   11.88000      3.2732160E-08
   11.94000      3.4053869E-08
   12.00000      3.5321570E-08
   12.06000      3.6533240E-08
   12.12000      3.7695244E-08
   12.18000      3.8820623E-08
   12.24000      3.9923133E-08
   12.30000      4.1008942E-08
   12.36000      4.2069122E-08
   12.42000      4.3076245E-08
   12.48000      4.3987139E-08
   12.54000      4.4751946E-08
   12.60000      4.5327155E-08
   12.66000      4.5688765E-08
   12.72000      4.5841087E-08
   12.78000      4.5817846E-08
   12.84000      4.5674359E-08
   12.90000      4.5472348E-08
   12.96000      4.5261466E-08
   13.02000      4.5063011E-08
   13.08000      4.4861142E-08
   13.14000      4.4604956E-08
   13.20000      4.4221842E-08
   13.26000      4.3638902E-08
   13.32000      4.2806775E-08
   13.38000      4.1718682E-08
   13.44000      4.0418861E-08
   13.50000      3.8997062E-08
   13.56000      3.7569976E-08
   13.62000      3.6254335E-08
   13.68000      3.5138985E-08
   13.74000      3.4263689E-08
   13.80000      3.3610515E-08
   13.86000      3.3109995E-08
   13.92000      3.2660068E-08
   13.98000      3.2152311E-08
   14.04000      3.1498150E-08
   14.10000      3.0648096E-08
   14.16000      2.9599340E-08
   14.22000      2.8390415E-08
   14.28000      2.7085141E-08
   14.34000      2.5750939E-08
   14.40000      2.4437771E-08
   14.46000      2.3163690E-08
   14.52000      2.1910814E-08
   14.58000      2.0632653E-08
   14.64000      1.9270191E-08
   14.70000      1.7771635E-08
   14.76000      1.6109535E-08
   14.82000      1.4289798E-08
   14.88000      1.2349821E-08
   14.94000      1.0346572E-08
   15.00000      8.3389722E-09
   15.06000      6.3708838E-09
   15.12000      4.4607980E-09
   15.18000      2.6018394E-09
   15.24000      7.7189100E-10
   15.30000     -1.0500910E-09
   15.36000     -2.8677802E-09
   15.42000     -4.6573860E-09
   15.48000     -6.3676744E-09
   15.54000     -7.9303719E-09
   15.60000     -9.2775752E-09
   15.66000     -1.0360456E-08
   15.72000     -1.1163260E-08
   15.78000     -1.1708413E-08
   15.84000     -1.2051645E-08
   15.90000     -1.2269362E-08
   15.96000     -1.2442803E-08
   16.02000     -1.2644162E-08
   16.08000     -1.2928596E-08
   16.14000     -1.3333652E-08
   16.20000     -1.3884806E-08
   16.26000     -1.4603749E-08
   16.32000     -1.5515333E-08
   16.38000     -1.6649937E-08
   16.44000     -1.8039989E-08
   16.50000     -1.9711802E-08
   16.56000     -2.1675675E-08
   16.62000     -2.3918210E-08
   16.68000     -2.6400134E-08
   16.74000     -2.9061317E-08
   16.80000     -3.1832396E-08
   16.86000     -3.4650128E-08
   16.92000     -3.7472208E-08
   16.98000     -4.0287123E-08
   17.04000     -4.3115591E-08
   17.10000     -4.6002622E-08
   17.16000     -4.9001649E-08
   17.22000     -5.2154778E-08
   17.28000     -5.5474239E-08
   17.34000     -5.8930127E-08
   17.40000     -6.2447803E-08
   17.46000     -6.5915920E-08
   17.52000     -6.9203104E-08
   17.58000     -7.2179269E-08
   17.64000     -7.4736192E-08
   17.70000     -7.6802664E-08
   17.76000     -7.8350730E-08
   17.82000     -7.9392514E-08
   17.88000     -7.9969631E-08
   17.94000     -8.0139131E-08
   18.00000     -7.9960877E-08
   18.06000     -7.9489993E-08
   18.12000     -7.8775834E-08
   18.18000     -7.7866197E-08
   18.24000     -7.6813308E-08
   18.30000     -7.5677292E-08
   18.36000     -7.4523982E-08
   18.42000     -7.3416452E-08
   18.48000     -7.2401996E-08
   18.54000     -7.1498775E-08
   18.60000     -7.0686944E-08
   18.66000     -6.9907777E-08
   18.72000     -6.9072399E-08
   18.78000     -6.8078634E-08
   18.84000     -6.6832513E-08
   18.90000     -6.5269191E-08
   18.96000     -6.3368503E-08
   19.02000     -6.1161600E-08
   19.08000     -5.8727096E-08
   19.14000     -5.6177914E-08
   19.20000     -5.3641784E-08
   19.26000     -5.1239695E-08
   19.32000     -4.9066678E-08
   19.38000     -4.7178482E-08
   19.44000     -4.5586130E-08
   19.50000     -4.4258574E-08
   19.56000     -4.3132072E-08
   19.62000     -4.2123641E-08
   19.68000     -4.1145679E-08
   19.74000     -4.0118810E-08
   19.80000     -3.8981202E-08
   19.86000     -3.7693503E-08
   19.92000     -3.6239744E-08
   19.98000     -3.4625295E-08
   20.04000     -3.2872975E-08
   20.10000     -3.1018303E-08
   20.16000     -2.9104195E-08
   20.22000     -2.7175446E-08
   20.28000     -2.5273216E-08
   20.34000     -2.3430090E-08
   20.40000     -2.1666525E-08
   20.46000     -1.9989335E-08
   20.52000     -1.8392322E-08
   20.58000     -1.6858621E-08
   20.64000     -1.5363936E-08
   20.70000     -1.3879924E-08
   20.76000     -1.2377514E-08
   20.82000     -1.0830313E-08
   20.88000     -9.2183763E-09
   20.94000     -7.5322015E-09
   21.00000     -5.7761622E-09
   21.06000     -3.9702619E-09
   21.12000     -2.1492716E-09
   21.18000     -3.5910064E-10
   21.24000      1.3488533E-09
   21.30000      2.9240599E-09
   21.36000      4.3226946E-09
   21.42000      5.5122840E-09
   21.48000      6.4750929E-09
   21.54000      7.2104145E-09
   21.60000      7.7357036E-09
   21.66000      8.0860882E-09
   21.72000      8.3116376E-09
   21.78000      8.4720941E-09
   21.84000      8.6294802E-09
   21.90000      8.8396881E-09
   21.96000      9.1444869E-09
   22.02000      9.5652579E-09
   22.08000      1.0099344E-08
   22.14000      1.0719583E-08
   22.20000      1.1377318E-08
   22.26000      1.2009048E-08
   22.32000      1.2546342E-08
   22.38000      1.2927871E-08
   22.44000      1.3111449E-08
   22.50000      1.3083319E-08
   22.56000      1.2862126E-08
   22.62000      1.2496033E-08
   22.68000      1.2053218E-08
   22.74000      1.1607721E-08
   22.80000      1.1223928E-08
   22.86000      1.0943414E-08
   22.92000      1.0777358E-08
   22.98000      1.0706380E-08
   23.04000      1.0687790E-08
   23.10000      1.0668218E-08
   23.16000      1.0598001E-08
   23.22000      1.0443156E-08
   23.28000      1.0191508E-08
   23.34000      9.8514938E-09
   23.40000      9.4446664E-09
   23.46000      8.9950269E-09
   23.52000      8.5191907E-09
   23.58000      8.0207760E-09
   23.64000      7.4906730E-09
   23.70000      6.9126753E-09
   23.76000      6.2721797E-09
   23.82000      5.5646807E-09
   23.88000      4.8007882E-09
   23.94000      4.0054071E-09
   24.00000      3.2103882E-09
   24.06000      2.4421580E-09
   24.12000      1.7080456E-09
   24.18000      9.8638164E-10
   24.24000      2.2516365E-10
   24.30000     -6.4828004E-10
   24.36000     -1.7080798E-09
   24.42000     -3.0065250E-09
   24.48000     -4.5544604E-09
   24.54000     -6.3125967E-09
   24.60000     -8.1974445E-09
   24.66000     -1.0100493E-08
   24.72000     -1.1914612E-08
   24.78000     -1.3559279E-08
   24.84000     -1.4996873E-08
   24.90000     -1.6235534E-08
   24.96000     -1.7318476E-08
   25.02000     -1.8303778E-08
   25.08000     -1.9241217E-08
   25.14000     -2.0153324E-08
   25.20000     -2.1026359E-08
   25.26000     -2.1813889E-08
   25.32000     -2.2451855E-08
   25.38000     -2.2880366E-08
   25.44000     -2.3065091E-08
   25.50000     -2.3010973E-08
   25.56000     -2.2763297E-08
   25.62000     -2.2395342E-08
   25.68000     -2.1986438E-08
   25.74000     -2.1597762E-08
   25.80000     -2.1254069E-08
   25.86000     -2.0937568E-08
   25.92000     -2.0596152E-08
   25.98000     -2.0163320E-08
   26.04000     -1.9583387E-08
   26.10000     -1.8833799E-08
   26.16000     -1.7937319E-08
   26.22000     -1.6959929E-08
   26.28000     -1.5994784E-08
   26.34000     -1.5136946E-08
   26.40000     -1.4456766E-08
   26.46000     -1.3980476E-08
   26.52000     -1.3684511E-08
   26.58000     -1.3505733E-08
   26.64000     -1.3364440E-08
   26.70000     -1.3192557E-08
   26.76000     -1.2957445E-08
   26.82000     -1.2673055E-08
   26.88000     -1.2394393E-08
   26.94000     -1.2197054E-08
   27.00000     -1.2148876E-08
   27.06000     -1.2283778E-08
   27.12000     -1.2587438E-08
   27.18000     -1.3000715E-08
   27.24000     -1.3440796E-08
   27.30000     -1.3833710E-08
   27.36000     -1.4147378E-08
   27.42000     -1.4413265E-08
   27.48000     -1.4727735E-08
   27.54000     -1.5230636E-08
   27.60000     -1.6066492E-08
   27.66000     -1.7340227E-08
   27.72000     -1.9082012E-08
   27.78000     -2.1233571E-08
   27.84000     -2.3661391E-08
   27.90000     -2.6193302E-08
   27.96000     -2.8666985E-08
   28.02000     -3.0974874E-08
   28.08000     -3.3091091E-08
   28.14000     -3.5072052E-08
   28.20000     -3.7030837E-08
   28.26000     -3.9093891E-08
   28.32000     -4.1353776E-08
   28.38000     -4.3833086E-08
   28.44000     -4.6470813E-08
   28.50000     -4.9135661E-08
   28.56000     -5.1662344E-08
   28.62000     -5.3899658E-08
   28.68000     -5.5755027E-08
   28.74000     -5.7221211E-08
   28.80000     -5.8376269E-08
   28.86000     -5.9356800E-08
   28.92000     -6.0313432E-08
   28.98000     -6.1363778E-08
   29.04000     -6.2558975E-08
   29.10000     -6.3875163E-08
   29.16000     -6.5232115E-08
   29.22000     -6.6531804E-08
   29.28000     -6.7702253E-08
   29.34000     -6.8730564E-08
   29.40000     -6.9672971E-08
   29.46000     -7.0638031E-08
   29.52000     -7.1748708E-08
   29.58000     -7.3096459E-08
   29.64000     -7.4703102E-08
   29.70000     -7.6503859E-08
   29.76000     -7.8357701E-08
   29.82000     -8.0082110E-08
   29.88000     -8.1501547E-08
   29.94000     -8.2494061E-08
   30.00000     -8.3021462E-08
   30.06000     -8.3133273E-08
   30.12000     -8.2943650E-08
   30.18000     -8.2588663E-08
   30.24000     -8.2178047E-08
   30.30000     -8.1757122E-08
   30.36000     -8.1291439E-08
   30.42000     -8.0678973E-08
   30.48000     -7.9785721E-08
   30.54000     -7.8492853E-08
   30.60000     -7.6739447E-08
   30.66000     -7.4546662E-08
   30.72000     -7.2015673E-08
   30.78000     -6.9300611E-08
   30.84000     -6.6566415E-08
   30.90000     -6.3946324E-08
   30.96000     -6.1513305E-08
   31.02000     -5.9274168E-08
   31.08000     -5.7186590E-08
   31.14000     -5.5191133E-08
   31.20000     -5.3245337E-08
   31.26000     -5.1346941E-08
   31.32000     -4.9538095E-08
   31.38000     -4.7889749E-08
   31.44000     -4.6472920E-08
   31.50000     -4.5327976E-08
   31.56000     -4.4443581E-08
   31.62000     -4.3753346E-08
   31.68000     -4.3151662E-08
   31.74000     -4.2523883E-08
   31.80000     -4.1780869E-08
   31.86000     -4.0886633E-08
   31.92000     -3.9869875E-08
   31.98000     -3.8815401E-08
   32.04000     -3.7837982E-08
   32.10000     -3.7047041E-08
   32.16000     -3.6513903E-08
   32.22000     -3.6252750E-08
   32.28000     -3.6221948E-08
   32.34000     -3.6345476E-08
   32.40000     -3.6546769E-08
   32.46000     -3.6782662E-08
   32.52000     -3.7064723E-08
   32.58000     -3.7459724E-08
   32.64000     -3.8068734E-08
   32.70000     -3.8992166E-08
   32.76000     -4.0293280E-08
   32.82000     -4.1972996E-08
   32.88000     -4.3964615E-08
   32.94000     -4.6149687E-08
   33.00000     -4.8389275E-08
   33.06000     -5.0559880E-08
   33.12000     -5.2582575E-08
   33.18000     -5.4436523E-08
   33.24000     -5.6153393E-08
   33.30000     -5.7795074E-08
   33.36000     -5.9422096E-08
   33.42000     -6.1063012E-08
   33.48000     -6.2694816E-08
   33.54000     -6.4241441E-08
   33.60000     -6.5591422E-08
   33.66000     -6.6629823E-08
   33.72000     -6.7273518E-08
   33.78000     -6.7497560E-08
   33.84000     -6.7342526E-08
   33.90000     -6.6899425E-08
   33.96000     -6.6277103E-08
   34.02000     -6.5563825E-08
   34.08000     -6.4797241E-08
   34.14000     -6.3953955E-08
   34.20000     -6.2962286E-08
   34.26000     -6.1733026E-08
   34.32000     -6.0196136E-08
   34.38000     -5.8329686E-08
   34.44000     -5.6170677E-08
   34.50000     -5.3804698E-08
   34.56000     -5.1339189E-08
   34.62000     -4.8870596E-08
   34.68000     -4.6456819E-08
   34.74000     -4.4103764E-08
   34.80000     -4.1769187E-08
   34.86000     -3.9381572E-08
   34.92000     -3.6867149E-08
   34.98000     -3.4176612E-08
   35.04000     -3.1303543E-08
   35.10000     -2.8289550E-08
   35.16000     -2.5215060E-08
   35.22000     -2.2179297E-08
   35.28000     -1.9276335E-08
   35.34000     -1.6575575E-08
   35.40000     -1.4113207E-08
   35.46000     -1.1897061E-08
   35.52000     -9.9216280E-09
   35.58000     -8.1857285E-09
   35.64000     -6.7042438E-09
   35.70000     -5.5081864E-09
   35.76000     -4.6330664E-09
   35.82000     -4.1012296E-09
   35.88000     -3.9067856E-09
   35.94000     -4.0105506E-09
   36.00000     -4.3477346E-09
   36.06000     -4.8453206E-09
   36.12000     -5.4420051E-09
   36.18000     -6.1028484E-09
   36.24000     -6.8234129E-09
   36.30000     -7.6225080E-09
   36.36000     -8.5267811E-09
   36.42000     -9.5528003E-09
   36.48000     -1.0692588E-08
   36.54000     -1.1907197E-08
   36.60000     -1.3130511E-08
   36.66000     -1.4282506E-08
   36.72000     -1.5288364E-08
   36.78000     -1.6097514E-08
   36.84000     -1.6695960E-08
   36.90000     -1.7106775E-08
   36.96000     -1.7377511E-08
   37.02000     -1.7558225E-08
   37.08000     -1.7678108E-08
   37.14000     -1.7729956E-08
   37.20000     -1.7669285E-08
   37.26000     -1.7429265E-08
   37.32000     -1.6946135E-08
   37.38000     -1.6185307E-08
   37.44000     -1.5157704E-08
   37.50000     -1.3919577E-08
   37.56000     -1.2555484E-08
   37.62000     -1.1150787E-08
   37.68000     -9.7642161E-09
   37.74000     -8.4112459E-09
   37.80000     -7.0651183E-09
   37.86000     -5.6758451E-09
   37.92000     -4.2007300E-09
   37.98000     -2.6354647E-09
   38.04000     -1.0341991E-09
   38.10000      4.8946475E-10
   38.16000      1.7821752E-09
   38.22000      2.6857443E-09
   38.28000      3.0765004E-09
   38.34000      2.8966198E-09
   38.40000      2.1673789E-09
   38.46000      9.7989650E-10
   38.52000     -5.3402971E-10
   38.58000     -2.2421154E-09
   38.64000     -4.0502890E-09
   38.70000     -5.9275300E-09
   38.76000     -7.9085920E-09
   38.82000     -1.0073435E-08
   38.88000     -1.2510184E-08
   38.94000     -1.5274612E-08
   39.00000     -1.8361009E-08
   39.06000     -2.1695662E-08
   39.12000     -2.5155915E-08
   39.18000     -2.8607971E-08
   39.24000     -3.1949103E-08
   39.30000     -3.5138207E-08
   39.36000     -3.8203250E-08
   39.42000     -4.1223398E-08
   39.48000     -4.4293479E-08
   39.54000     -4.7484484E-08
   39.60000     -5.0814560E-08
   39.66000     -5.4239749E-08
   39.72000     -5.7666067E-08
   39.78000     -6.0977008E-08
   39.84000     -6.4066157E-08
   39.90000     -6.6864096E-08
   39.96000     -6.9351522E-08
   40.02000     -7.1555576E-08
   40.08000     -7.3531332E-08
   40.14000     -7.5335009E-08
   40.20000     -7.6997921E-08
   40.26000     -7.8510055E-08
   40.32000     -7.9819266E-08
   40.38000     -8.0846867E-08
   40.44000     -8.1514557E-08
   40.50000     -8.1773457E-08
   40.56000     -8.1624599E-08
   40.62000     -8.1123503E-08
   40.68000     -8.0366959E-08
   40.74000     -7.9466993E-08
   40.80000     -7.8521410E-08
   40.86000     -7.7591089E-08
   40.92000     -7.6691620E-08
   40.98000     -7.5800479E-08
   41.04000     -7.4876063E-08
   41.10000     -7.3880429E-08
   41.16000     -7.2797469E-08
   41.22000     -7.1640557E-08
   41.28000     -7.0448095E-08
   41.34000     -6.9269717E-08
   41.40000     -6.8148879E-08
   41.46000     -6.7108004E-08
   41.52000     -6.6140970E-08
   41.58000     -6.5214785E-08
   41.64000     -6.4279369E-08
   41.70000     -6.3281909E-08
   41.76000     -6.2181329E-08
   41.82000     -6.0958499E-08
   41.88000     -5.9619353E-08
   41.94000     -5.8190061E-08
   42.00000     -5.6705996E-08
   42.06000     -5.5198189E-08
   42.12000     -5.3682093E-08
   42.18000     -5.2152835E-08
   42.24000     -5.0589101E-08
   42.30000     -4.8964445E-08
   42.36000     -4.7261945E-08
   42.42000     -4.5486654E-08
   42.48000     -4.3670966E-08
   42.54000     -4.1870965E-08
   42.60000     -4.0155168E-08
   42.66000     -3.8589814E-08
   42.72000     -3.7225622E-08
   42.78000     -3.6089499E-08
   42.84000     -3.5182318E-08
   42.90000     -3.4481531E-08
   42.96000     -3.3946449E-08
   43.02000     -3.3524469E-08
   43.08000     -3.3157864E-08
   43.14000     -3.2791572E-08
   43.20000     -3.2382324E-08
   43.26000     -3.1908140E-08
   43.32000     -3.1375684E-08
   43.38000     -3.0822029E-08
   43.44000     -3.0308353E-08
   43.50000     -2.9905433E-08
   43.56000     -2.9674107E-08
   43.62000     -2.9646483E-08
   43.68000     -2.9814412E-08
   43.74000     -3.0129968E-08
   43.80000     -3.0518873E-08
   43.86000     -3.0903308E-08
   43.92000     -3.1227049E-08
   43.98000     -3.1474858E-08
   44.04000     -3.1679612E-08
   44.10000     -3.1914634E-08
   44.16000     -3.2273249E-08
   44.22000     -3.2841356E-08
   44.28000     -3.3670879E-08
   44.34000     -3.4761388E-08
   44.40000     -3.6055233E-08
   44.46000     -3.7447812E-08
   44.52000     -3.8811017E-08
   44.58000     -4.0024162E-08
   44.64000     -4.1004569E-08
   44.70000     -4.1729134E-08
   44.76000     -4.2240266E-08
   44.82000     -4.2633321E-08
   44.88000     -4.3028432E-08
   44.94000     -4.3534872E-08
   45.00000     -4.4219171E-08
   45.06000     -4.5087621E-08
   45.12000     -4.6089205E-08
   45.18000     -4.7137885E-08
   45.24000     -4.8146060E-08
   45.30000     -4.9056993E-08
   45.36000     -4.9864283E-08
   45.42000     -5.0611465E-08
   45.48000     -5.1372435E-08
   45.54000     -5.2220358E-08
   45.60000     -5.3196811E-08
   45.66000     -5.4292475E-08
   45.72000     -5.5446037E-08
   45.78000     -5.6561358E-08
   45.84000     -5.7536642E-08
   45.90000     -5.8295480E-08
   45.96000     -5.8809480E-08
   46.02000     -5.9105115E-08
   46.08000     -5.9252862E-08
   46.14000     -5.9342231E-08
   46.20000     -5.9450954E-08
   46.26000     -5.9618429E-08
   46.32000     -5.9832267E-08
   46.38000     -6.0032797E-08
   46.44000     -6.0134212E-08
   46.50000     -6.0055505E-08
   46.56000     -5.9750626E-08
   46.62000     -5.9227425E-08
   46.68000     -5.8548665E-08
   46.74000     -5.7814603E-08
   46.80000     -5.7133139E-08
   46.86000     -5.6587641E-08
   46.92000     -5.6213121E-08
   46.98000     -5.5988160E-08
   47.04000     -5.5844442E-08
   47.10000     -5.5689995E-08
   47.16000     -5.5437990E-08
   47.22000     -5.5031933E-08
   47.28000     -5.4459633E-08
   47.34000     -5.3752249E-08
   47.40000     -5.2969607E-08
   47.46000     -5.2177118E-08
   47.52000     -5.1422507E-08
   47.58000     -5.0720519E-08
   47.64000     -5.0051458E-08
   47.70000     -4.9374616E-08
   47.76000     -4.8652346E-08
   47.82000     -4.7876220E-08
   47.88000     -4.7085489E-08
   47.94000     -4.6370531E-08
   48.00000     -4.5859540E-08
   48.06000     -4.5693422E-08
   48.12000     -4.5998629E-08
   48.18000     -4.6868657E-08
   48.24000     -4.8361620E-08
   48.30000     -5.0514878E-08
   48.36000     -5.3371185E-08
   48.42000     -5.7007014E-08
   48.48000     -6.1553663E-08
   48.54000     -6.7205320E-08
   48.60000     -7.4213858E-08
   48.66000     -8.2874415E-08
   48.72000     -9.3508881E-08
   48.78000     -1.0645444E-07
   48.84000     -1.2206266E-07
   48.90000     -1.4071202E-07
   48.96000     -1.6283340E-07
   49.02000     -1.8894498E-07
   49.08000     -2.1968958E-07
   49.14000     -2.5586570E-07
   49.20000     -2.9844495E-07
   49.26000     -3.4857160E-07
   49.32000     -4.0754676E-07
   49.38000     -4.7680683E-07
   49.44000     -5.5790906E-07
   49.50000     -6.5253670E-07
   49.56000     -7.6253122E-07
   49.62000     -8.8994852E-07
   49.68000     -1.0371289E-06
   49.74000     -1.2067654E-06
   49.80000     -1.4019580E-06
   49.86000     -1.6262421E-06
   49.92000     -1.8835974E-06
   49.98000     -2.1784422E-06
   50.04000     -2.5156273E-06
   50.10000     -2.9004470E-06
   50.16000     -3.3386675E-06
   50.22000     -3.8365783E-06
   50.28000     -4.4010599E-06
   50.34000     -5.0396502E-06
   50.40000     -5.7606089E-06
   50.46000     -6.5729591E-06
   50.52000     -7.4865134E-06
   50.58000     -8.5118854E-06
   50.64000     -9.6604917E-06
   50.70000     -1.0944546E-05
   50.76000     -1.2377069E-05
   50.82000     -1.3971894E-05
   50.88000     -1.5743701E-05
   50.94000     -1.7708016E-05
   51.00000     -1.9881260E-05
   51.06000     -2.2280730E-05
   51.12000     -2.4924586E-05
   51.18000     -2.7831789E-05
   51.24000     -3.1022024E-05
   51.30000     -3.4515619E-05
   51.36000     -3.8333437E-05
   51.42000     -4.2496809E-05
   51.48000     -4.7027417E-05
   51.54000     -5.1947220E-05
   51.60000     -5.7278339E-05
   51.66000     -6.3042913E-05
   51.72000     -6.9262926E-05
   51.78000     -7.5960030E-05
   51.84000     -8.3155348E-05
   51.90000     -9.0869245E-05
   51.96000     -9.9121120E-05
   52.02000     -1.0792919E-04
   52.08000     -1.1731033E-04
   52.14000     -1.2727983E-04
   52.20000     -1.3785114E-04
   52.26000     -1.4903570E-04
   52.32000     -1.6084271E-04
   52.38000     -1.7327882E-04
   52.44000     -1.8634788E-04
   52.50000     -2.0005078E-04
   52.56000     -2.1438515E-04
   52.62000     -2.2934515E-04
   52.68000     -2.4492145E-04
   52.74000     -2.6110097E-04
   52.80000     -2.7786684E-04
   52.86000     -2.9519841E-04
   52.92000     -3.1307118E-04
   52.98000     -3.3145677E-04
   53.04000     -3.5032292E-04
   53.10000     -3.6963337E-04
   53.16000     -3.8934816E-04
   53.22000     -4.0942355E-04
   53.28000     -4.2981235E-04
   53.34000     -4.5046405E-04
   53.40000     -4.7132527E-04
   53.46000     -4.9234007E-04
   53.52000     -5.1345013E-04
   53.58000     -5.3459546E-04
   53.64000     -5.5571448E-04
   53.70000     -5.7674461E-04
   53.76000     -5.9762254E-04
   53.82000     -6.1828515E-04
   53.88000     -6.3866971E-04
   53.94000     -6.5871462E-04
   54.00000     -6.7835982E-04
   54.06000     -6.9754734E-04
   54.12000     -7.1622210E-04
   54.18000     -7.3433202E-04
   54.24000     -7.5182872E-04
   54.30000     -7.6866819E-04
   54.36000     -7.8481098E-04
   54.42000     -8.0022286E-04
   54.48000     -8.1487535E-04
   54.54000     -8.2874548E-04
   54.60000     -8.4181636E-04
   54.66000     -8.5407740E-04
   54.72000     -8.6552452E-04
   54.78000     -8.7616016E-04
   54.84000     -8.8599348E-04
   54.90000     -8.9504017E-04
   54.96000     -9.0332265E-04
   55.02000     -9.1086922E-04
   55.08000     -9.1771444E-04
   55.14000     -9.2389842E-04
   55.20000     -9.2946662E-04
   55.26000     -9.3446928E-04
   55.32000     -9.3896111E-04
   55.38000     -9.4300060E-04
   55.44000     -9.4664958E-04
   55.50000     -9.4997243E-04
   55.56000     -9.5303549E-04