  -2.400000      0.0000000E+00
  -2.340000      0.0000000E+00
  -2.280000      0.0000000E+00
  -2.220000      0.0000000E+00
  -2.160000      0.0000000E+00
  -2.100000      0.0000000E+00
  -2.040000      0.0000000E+00
  -1.980000      0.0000000E+00
  -1.920000      3.4172373E-26
  -1.860000      3.6928238E-25
  -1.800000      1.9558004E-24
  -1.740000      6.5614303E-24
  -1.680000      1.4573994E-23
  -1.620000      1.7310191E-23
  -1.560000     -1.7367929E-23
  -1.500000     -1.5767427E-22
  -1.440000     -4.8840916E-22
  -1.380000     -1.0000722E-21
  -1.320000     -1.3282920E-21
  -1.260000     -3.9811376E-22
  -1.200000      3.6748674E-21
  -1.140000      1.2689620E-20
  -1.080000      2.5700154E-20
  -1.020000      3.4821583E-20
 -0.9600000      2.2085949E-20
 -0.9000000     -3.7335734E-20
 -0.8400000     -1.5976378E-19
 -0.7800000     -3.2466154E-19
 -0.7200000     -4.4378131E-19
 -0.6600000     -3.5209380E-19
 -0.6000000      1.4755968E-19
 -0.5400000      1.1629871E-18
 -0.4800000      2.5240862E-18
 -0.4200000      3.5951089E-18
 -0.3600000      3.2295741E-18
 -0.3000000      6.7866227E-20
 -0.2400000     -6.6490651E-18
 -0.1800000     -1.5790054E-17
 -0.1200000     -2.3077398E-17
 -5.9999999E-02 -2.0988242E-17
  0.0000000E+00 -1.2672539E-18
  5.9999999E-02  3.9159015E-17
  0.1200000      9.0275567E-17
  0.1800000      1.2382503E-16
  0.2400000      9.8135775E-17
  0.3000000     -2.1426825E-17
  0.3600000     -2.2890568E-16
  0.4200000     -4.4705435E-16
  0.4800000     -5.2691299E-16
  0.5400000     -3.0291563E-16
  0.6000000      2.9611533E-16
  0.6600000      1.1240663E-15
  0.7200000      1.7683522E-15
  0.7800000      1.6634738E-15
  0.8400000      3.9262246E-16
  0.9000000     -1.9223029E-15
  0.9600000     -4.3704473E-15
   1.020000     -5.4064482E-15
   1.080000     -3.5379795E-15
   1.140000      1.6325050E-15
   1.200000      8.5386664E-15
   1.260000      1.3641163E-14
   1.320000      1.2729539E-14
   1.380000      3.3222030E-15
   1.440000     -1.2886599E-14
   1.500000     -2.9106583E-14
   1.560000     -3.5347579E-14
   1.620000     -2.3171238E-14
   1.680000      8.4633914E-15
   1.740000      4.9431833E-14
   1.800000      7.9892344E-14
   1.860000      7.8093178E-14
   1.920000      3.2253466E-14
   1.980000     -4.9020826E-14
   2.040000     -1.3436536E-13
   2.100000     -1.7939158E-13
   2.160000     -1.4688625E-13
   2.220000     -2.9338880E-14
   2.280000      1.3808360E-13
   2.340000      2.8404408E-13
   2.400000      3.2885996E-13
   2.460000      2.2420171E-13
   2.520000     -1.3722991E-14
   2.580000     -2.9693067E-13
   2.640000     -4.9445382E-13
   2.700000     -4.9022044E-13
   2.760000     -2.4593495E-13
   2.820000      1.6308713E-13
   2.880000      5.6365085E-13
   2.940000      7.5428254E-13
   3.000000      6.0299237E-13
   3.060000      1.2754201E-13
   3.120000     -4.8707398E-13
   3.180000     -9.5477370E-13
   3.240000     -1.0188645E-12
   3.300000     -5.9009205E-13
   3.360000      1.7891076E-13
   3.420000      9.3346880E-13
   3.480000      1.2707719E-12
   3.540000      9.4760354E-13
   3.600000      4.2397529E-14
   3.660000     -1.0222934E-12
   3.720000     -1.6356257E-12
   3.780000     -1.2866007E-12
   3.840000      1.3725743E-13
   3.900000      2.1895591E-12
   3.960000      3.9494493E-12
   4.020000      4.3559956E-12
   4.080000      2.6793420E-12
   4.140000     -1.0655486E-12
   4.200000     -5.9573691E-12
   4.260000     -1.0365472E-11
   4.320000     -1.2466600E-11
   4.380000     -1.0902427E-11
   4.440000     -5.3274000E-12
   4.500000      3.3710170E-12
   4.560000      1.3270917E-11
   4.620000      2.1957124E-11
   4.680000      2.7194146E-11
   4.740000      2.7478447E-11
   4.800000      2.2287831E-11
   4.860000      1.1995690E-11
   4.920000     -2.4230899E-12
   4.980000     -1.9676162E-11
   5.040000     -3.8233684E-11
   5.100000     -5.6145366E-11
   5.160000     -7.0722608E-11
   5.220000     -7.8361567E-11
   5.280000     -7.4808770E-11
   5.340000     -5.6038559E-11
   5.400000     -1.9654875E-11
   5.460000      3.3555273E-11
   5.520000      9.8476914E-11
   5.580000      1.6548048E-10
   5.640000      2.2150491E-10
   5.700000      2.5232191E-10
   5.760000      2.4547289E-10
   5.820000      1.9309927E-10
   5.880000      9.3883172E-11
   5.940000     -4.6400762E-11
   6.000000     -2.1575551E-10
   6.060000     -3.9782150E-10
   6.120000     -5.7402189E-10
   6.180000     -7.2532536E-10
   6.240000     -8.3328394E-10
   6.300000     -8.8046892E-10
   6.360000     -8.5081697E-10
   6.420000     -7.3051165E-10
   6.480000     -5.0979365E-10
   6.540000     -1.8558996E-10
   6.600000      2.3571003E-10
   6.660000      7.3636242E-10
   6.720000      1.2872601E-09
   6.780000      1.8503465E-09
   6.840000      2.3832543E-09
   6.900000      2.8452238E-09
   6.960000      3.2029266E-09
   7.020000      3.4348482E-09
   7.080000      3.5334089E-09
   7.140000      3.5047631E-09
   7.200000      3.3669205E-09
   7.260000      3.1471601E-09
   7.320000      2.8795573E-09
   7.380000      2.6029054E-09
   7.440000      2.3586835E-09
   7.500000      2.1883699E-09
   7.560000      2.1295146E-09
   7.620000      2.2105904E-09
   7.680000      2.4454685E-09
   7.740000      2.8290232E-09
   7.800000      3.3355061E-09
   7.860000      3.9207992E-09
   7.920000      4.5285748E-09
   7.980000      5.0991638E-09
   8.040000      5.5789906E-09
   8.100000      5.9282277E-09
   8.160000      6.1248482E-09
   8.220000      6.1644543E-09
   8.280000      6.0565966E-09
   8.340000      5.8193024E-09
   8.400000      5.4738494E-09
   8.460000      5.0413265E-09
   8.520000      4.5414712E-09
   8.580000      3.9931582E-09
   8.640000      3.4151555E-09
   8.700000      2.8258034E-09
   8.760000      2.2409592E-09
   8.820000      1.6706658E-09
   8.880000      1.1159741E-09
   8.940000      5.6770066E-10
   9.000000      8.4259110E-12
   9.060000     -5.8213773E-10
   9.120000     -1.2196815E-09
   9.180000     -1.9080597E-09
   9.240000     -2.6348033E-09
   9.300000     -3.3711449E-09
   9.360000     -4.0768131E-09
   9.420000     -4.7081929E-09
   9.480000     -5.2272697E-09
   9.540000     -5.6085785E-09
   9.600000     -5.8422152E-09
   9.660000     -5.9325171E-09
   9.720000     -5.8936402E-09
   9.780000     -5.7442562E-09
   9.840000     -5.5035660E-09
   9.900000     -5.1898552E-09
   9.960000     -4.8213216E-09
   10.02000     -4.4176538E-09
   10.08000     -4.0004187E-09
   10.14000     -3.5909564E-09
   10.20000     -3.2058864E-09
   10.26000     -2.8518425E-09
   10.32000     -2.5219176E-09
   10.38000     -2.1960236E-09
   10.44000     -1.8460015E-09
   10.50000     -1.4443541E-09
   10.56000     -9.7379682E-10
   10.62000     -4.3414120E-10
   10.68000      1.5627093E-10
   10.74000      7.6549267E-10
   10.80000      1.3578435E-09
   10.86000      1.9054334E-09
   10.92000      2.3973756E-09
   10.98000      2.8435392E-09
   11.04000      3.2716772E-09
   11.10000      3.7191421E-09
   11.16000      4.2222248E-09
   11.22000      4.8067443E-09
   11.28000      5.4826534E-09
   11.34000      6.2436318E-09
   11.40000      7.0706050E-09
   11.46000      7.9368672E-09
   11.52000      8.8123873E-09
   11.58000      9.6659338E-09
   11.64000      1.0465284E-08
   11.70000      1.1177053E-08
   11.76000      1.1768094E-08
   11.82000      1.2209584E-08
   11.88000      1.2483367E-08
   11.94000      1.2588435E-08
   12.00000      1.2544701E-08
   12.06000      1.2391534E-08
   12.12000      1.2180235E-08
   12.18000      1.1961901E-08
   12.24000      1.1774137E-08
   12.30000      1.1631013E-08
   12.36000      1.1520007E-08
   12.42000      1.1407517E-08
   12.48000      1.1251659E-08
   12.54000      1.1018331E-08
   12.60000      1.0695203E-08
   12.66000      1.0298754E-08
   12.72000      9.8718189E-09
   12.78000      9.4723616E-09
   12.84000      9.1572918E-09
   12.90000      8.9667891E-09
   12.96000      8.9142000E-09
   13.02000      8.9843306E-09
   13.08000      9.1397760E-09
   13.14000      9.3321617E-09
   13.20000      9.5139088E-09
   13.26000      9.6466888E-09
   13.32000      9.7047650E-09
   13.38000      9.6737809E-09
   13.44000      9.5472785E-09
   13.50000      9.3235268E-09
   13.56000      9.0042951E-09
   13.62000      8.5956575E-09
   13.68000      8.1096179E-09
   13.74000      7.5649274E-09
   13.80000      6.9860451E-09
   13.86000      6.4002266E-09
   13.92000      5.8336989E-09
   13.98000      5.3082294E-09
   14.04000      4.8390754E-09
   14.10000      4.4345607E-09
   14.16000      4.0968384E-09
   14.22000      3.8230668E-09
   14.28000      3.6063383E-09
   14.34000      3.4361289E-09
   14.40000      3.2984337E-09
   14.46000      3.1760230E-09
   14.52000      3.0492198E-09
   14.58000      2.8974143E-09
   14.64000      2.7012690E-09
   14.70000      2.4453168E-09
   14.76000      2.1204811E-09
   14.82000      1.7259504E-09
   14.88000      1.2698685E-09
   14.94000      7.6849221E-10
   15.00000      2.4379901E-10
   15.06000     -2.8005498E-10
   15.12000     -7.8069906E-10
   15.18000     -1.2410956E-09
   15.24000     -1.6520215E-09
   15.30000     -2.0132149E-09
   15.36000     -2.3333027E-09
   15.42000     -2.6288087E-09
   15.48000     -2.9224636E-09
   15.54000     -3.2408087E-09
   15.60000     -3.6109544E-09
   15.66000     -4.0564911E-09
   15.72000     -4.5929691E-09
   15.78000     -5.2238227E-09
   15.84000     -5.9378160E-09
   15.90000     -6.7087891E-09
   15.96000     -7.4978077E-09
   16.02000     -8.2570235E-09
   16.08000     -8.9340810E-09
   16.14000     -9.4760457E-09
   16.20000     -9.8323500E-09
   16.26000     -9.9570316E-09
   16.32000     -9.8109529E-09
   16.38000     -9.3646664E-09
   16.44000     -8.6020107E-09
   16.50000     -7.5238313E-09
   16.56000     -6.1506640E-09
   16.62000     -4.5230695E-09
   16.68000     -2.6987272E-09
   16.74000     -7.4611417E-10
   16.80000      1.2644606E-09
   16.86000      3.2708325E-09
   16.92000      5.2278204E-09
   16.98000      7.1127895E-09
   17.04000      8.9264720E-09
   17.10000      1.0688736E-08
   17.16000      1.2430351E-08
   17.22000      1.4182811E-08
   17.28000      1.5968611E-08
   17.34000      1.7793930E-08
   17.40000      1.9644705E-08
   17.46000      2.1486171E-08
   17.52000      2.3265327E-08
   17.58000      2.4915835E-08
   17.64000      2.6364889E-08
   17.70000      2.7541766E-08
   17.76000      2.8387275E-08
   17.82000      2.8862695E-08
   17.88000      2.8956299E-08
   17.94000      2.8685509E-08
   18.00000      2.8093709E-08
   18.06000      2.7242082E-08
   18.12000      2.6198350E-08
   18.18000      2.5025274E-08
   18.24000      2.3771765E-08
   18.30000      2.2468715E-08
   18.36000      2.1130189E-08
   18.42000      1.9759135E-08
   18.48000      1.8355580E-08
   18.54000      1.6924714E-08
   18.60000      1.5482451E-08
   18.66000      1.4056941E-08
   18.72000      1.2685812E-08
   18.78000      1.1410275E-08
   18.84000      1.0268108E-08
   18.90000      9.2876871E-09
   18.96000      8.4845402E-09
   19.02000      7.8607822E-09
   19.08000      7.4066091E-09
   19.14000      7.1024480E-09
   19.20000      6.9205663E-09
   19.26000      6.8257027E-09
   19.32000      6.7752972E-09
   19.38000      6.7204602E-09
   19.44000      6.6087651E-09
   19.50000      6.3892380E-09
   19.56000      6.0188738E-09
   19.62000      5.4691185E-09
   19.68000      4.7303614E-09
   19.74000      3.8127608E-09
   19.80000      2.7426197E-09
   19.86000      1.5548102E-09
   19.92000      2.8304098E-10
   19.98000     -1.0493648E-09
   20.04000     -2.4353932E-09
   20.10000     -3.8850105E-09
   20.16000     -5.4202207E-09
   20.22000     -7.0659931E-09
   20.28000     -8.8398604E-09
   20.34000     -1.0743284E-08
   20.40000     -1.2756932E-08
   20.46000     -1.4840386E-08
   20.52000     -1.6935227E-08
   20.58000     -1.8969807E-08
   20.64000     -2.0864457E-08
   20.70000     -2.2536998E-08
   20.76000     -2.3909413E-08
   20.82000     -2.4916488E-08
   20.88000     -2.5516114E-08
   20.94000     -2.5699329E-08
   21.00000     -2.5496943E-08
   21.06000     -2.4979634E-08
   21.12000     -2.4249978E-08
   21.18000     -2.3427296E-08
   21.24000     -2.2628507E-08
   21.30000     -2.1949463E-08
   21.36000     -2.1451113E-08
   21.42000     -2.1153383E-08
   21.48000     -2.1037504E-08
   21.54000     -2.1055552E-08
   21.60000     -2.1144334E-08
   21.66000     -2.1240149E-08
   21.72000     -2.1291054E-08
   21.78000     -2.1264260E-08
   21.84000     -2.1147741E-08
   21.90000     -2.0946858E-08
   21.96000     -2.0677971E-08
   22.02000     -2.0361602E-08
   22.08000     -2.0017204E-08
   22.14000     -1.9660447E-08
   22.20000     -1.9302721E-08
   22.26000     -1.8951749E-08
   22.32000     -1.8612207E-08
   22.38000     -1.8285837E-08
   22.44000     -1.7971281E-08
   22.50000     -1.7664172E-08
   22.56000     -1.7357870E-08
   22.62000     -1.7044700E-08
   22.68000     -1.6717124E-08
   22.74000     -1.6368261E-08
   22.80000     -1.5991635E-08
   22.86000     -1.5580387E-08
   22.92000     -1.5126590E-08
   22.98000     -1.4620869E-08
   23.04000     -1.4052284E-08
   23.10000     -1.3408108E-08
   23.16000     -1.2673318E-08
   23.22000     -1.1830116E-08
   23.28000     -1.0858198E-08
   23.34000     -9.7363131E-09
   23.40000     -8.4449745E-09
   23.46000     -6.9693611E-09
   23.52000     -5.3010645E-09
   23.58000     -3.4379513E-09
   23.64000     -1.3825934E-09
   23.70000      8.5910290E-10
   23.76000      3.2773073E-09
   23.82000      5.8550702E-09
   23.88000      8.5638190E-09
   23.94000      1.1360397E-08
   24.00000      1.4188570E-08
   24.06000      1.6986194E-08
   24.12000      1.9696422E-08
   24.18000      2.2278950E-08
   24.24000      2.4716602E-08
   24.30000      2.7014304E-08
   24.36000      2.9190634E-08
   24.42000      3.1265436E-08
   24.48000      3.3248735E-08
   24.54000      3.5135582E-08
   24.60000      3.6908787E-08
   24.66000      3.8548066E-08
   24.72000      4.0041382E-08
   24.78000      4.1393310E-08
   24.84000      4.2626489E-08
   24.90000      4.3775088E-08
   24.96000      4.4872440E-08
   25.02000      4.5937405E-08
   25.08000      4.6964868E-08
   25.14000      4.7924097E-08
   25.20000      4.8765955E-08
   25.26000      4.9436515E-08
   25.32000      4.9892225E-08
   25.38000      5.0111250E-08
   25.44000      5.0097341E-08
   25.50000      4.9875474E-08
   25.56000      4.9481692E-08
   25.62000      4.8951531E-08
   25.68000      4.8311431E-08
   25.74000      4.7575799E-08
   25.80000      4.6749861E-08
   25.86000      4.5836074E-08
   25.92000      4.4840622E-08
   25.98000      4.3776886E-08
   26.04000      4.2664190E-08
   26.10000      4.1522295E-08
   26.16000      4.0364110E-08
   26.22000      3.9190088E-08
   26.28000      3.7987455E-08
   26.34000      3.6735742E-08
   26.40000      3.5417120E-08
   26.46000      3.4027696E-08
   26.52000      3.2584627E-08
   26.58000      3.1125133E-08
   26.64000      2.9696691E-08
   26.70000      2.8341798E-08
   26.76000      2.7083599E-08
   26.82000      2.5918776E-08
   26.88000      2.4821089E-08
   26.94000      2.3754140E-08
   27.00000      2.2687644E-08
   27.06000      2.1609996E-08
   27.12000      2.0532001E-08
   27.18000      1.9481158E-08
   27.24000      1.8490487E-08
   27.30000      1.7588235E-08
   27.36000      1.6793685E-08
   27.42000      1.6120538E-08
   27.48000      1.5585060E-08
   27.54000      1.5213454E-08
   27.60000      1.5043273E-08
   27.66000      1.5116720E-08
   27.72000      1.5467727E-08
   27.78000      1.6108118E-08
   27.84000      1.7019026E-08
   27.90000      1.8151868E-08
   27.96000      1.9439378E-08
   28.02000      2.0812855E-08
   28.08000      2.2219057E-08
   28.14000      2.3629921E-08
   28.20000      2.5041079E-08
   28.26000      2.6459723E-08
   28.32000      2.7886989E-08
   28.38000      2.9302505E-08
   28.44000      3.0658168E-08
   28.50000      3.1884436E-08
   28.56000      3.2907227E-08
   28.62000      3.3669227E-08
   28.68000      3.4147629E-08
   28.74000      3.4361758E-08
   28.80000      3.4367989E-08
   28.86000      3.4243968E-08
   28.92000      3.4067476E-08
   28.98000      3.3896878E-08
   29.04000      3.3759015E-08
   29.10000      3.3647890E-08
   29.16000      3.3534189E-08
   29.22000      3.3382236E-08
   29.28000      3.3168384E-08
   29.34000      3.2894263E-08
   29.40000      3.2589387E-08
   29.46000      3.2301404E-08
   29.52000      3.2076944E-08
   29.58000      3.1940271E-08
   29.64000      3.1878592E-08
   29.70000      3.1840806E-08
   29.76000      3.1751171E-08
   29.82000      3.1533123E-08
   29.88000      3.1133833E-08
   29.94000      3.0539656E-08
   30.00000      2.9776418E-08
   30.06000      2.8895059E-08
   30.12000      2.7949364E-08
   30.18000      2.6975529E-08
   30.24000      2.5981979E-08
   30.30000      2.4952790E-08
   30.36000      2.3861922E-08
   30.42000      2.2690825E-08
   30.48000      2.1440997E-08
   30.54000      2.0135730E-08
   30.60000      1.8810200E-08
   30.66000      1.7494163E-08
   30.72000      1.6194448E-08
   30.78000      1.4884492E-08
   30.84000      1.3505318E-08
   30.90000      1.1978188E-08
   30.96000      1.0224996E-08
   31.02000      8.1900327E-09
   31.08000      5.8565059E-09
   31.14000      3.2530576E-09
   31.20000      4.4877047E-10
   31.26000     -2.4614260E-09
   31.32000     -5.3763602E-09
   31.38000     -8.2075013E-09
   31.44000     -1.0891999E-08
   31.50000     -1.3396830E-08
   31.56000     -1.5713969E-08
   31.62000     -1.7849334E-08
   31.68000     -1.9810116E-08
   31.74000     -2.1595378E-08
   31.80000     -2.3193135E-08
   31.86000     -2.4584445E-08
   31.92000     -2.5751966E-08
   31.98000     -2.6688532E-08
   32.04000     -2.7401407E-08
   32.10000     -2.7909994E-08
   32.16000     -2.8238020E-08
   32.22000     -2.8404212E-08
   32.28000     -2.8416384E-08
   32.34000     -2.8272298E-08
   32.40000     -2.7967328E-08
   32.46000     -2.7505161E-08
   32.52000     -2.6906029E-08
   32.58000     -2.6207857E-08
   32.64000     -2.5459213E-08
   32.70000     -2.4707111E-08
   32.76000     -2.3985402E-08
   32.82000     -2.3309138E-08
   32.88000     -2.2677213E-08
   32.94000     -2.2081130E-08
   33.00000     -2.1514760E-08
   33.06000     -2.0979604E-08
   33.12000     -2.0482952E-08
   33.18000     -2.0030424E-08
   33.24000     -1.9617772E-08
   33.30000     -1.9227363E-08
   33.36000     -1.8832232E-08
   33.42000     -1.8406498E-08
   33.48000     -1.7937213E-08
   33.54000     -1.7431541E-08
   33.60000     -1.6915088E-08
   33.66000     -1.6421209E-08
   33.72000     -1.5975424E-08
   33.78000     -1.5581426E-08
   33.84000     -1.5214654E-08
   33.90000     -1.4826213E-08
   33.96000     -1.4355706E-08
   34.02000     -1.3748012E-08
   34.08000     -1.2967827E-08
   34.14000     -1.2007122E-08
   34.20000     -1.0883866E-08
   34.26000     -9.6337329E-09
   34.32000     -8.2987048E-09
   34.38000     -6.9167800E-09
   34.44000     -5.5155329E-09
   34.50000     -4.1101988E-09
   34.56000     -2.7052700E-09
   34.62000     -1.2978940E-09
   34.68000      1.1839194E-10
   34.74000      1.5504625E-09
   34.80000      3.0034113E-09
   34.86000      4.4796660E-09
   34.92000      5.9795466E-09
   34.98000      7.5029325E-09
   35.04000      9.0509644E-09
   35.10000      1.0626266E-08
   35.16000      1.2230545E-08
   35.22000      1.3859784E-08
   35.28000      1.5498928E-08
   35.34000      1.7118939E-08
   35.40000      1.8678529E-08
   35.46000      2.0130901E-08
   35.52000      2.1433257E-08
   35.58000      2.2555547E-08
   35.64000      2.3485256E-08
   35.70000      2.4227180E-08
   35.76000      2.4799409E-08
   35.82000      2.5228143E-08
   35.88000      2.5543308E-08
   35.94000      2.5775334E-08
   36.00000      2.5951959E-08
   36.06000      2.6093870E-08
   36.12000      2.6209390E-08
   36.18000      2.6290376E-08
   36.24000      2.6312396E-08
   36.30000      2.6241121E-08
   36.36000      2.6044169E-08
   36.42000      2.5704551E-08
   36.48000      2.5230497E-08
   36.54000      2.4657226E-08
   36.60000      2.4039467E-08
   36.66000      2.3437190E-08
   36.72000      2.2899798E-08
   36.78000      2.2454461E-08
   36.84000      2.2102506E-08
   36.90000      2.1824409E-08
   36.96000      2.1590825E-08
   37.02000      2.1375017E-08
   37.08000      2.1162085E-08
   37.14000      2.0952044E-08
   37.20000      2.0756580E-08
   37.26000      2.0591724E-08
   37.32000      2.0470029E-08
   37.38000      2.0395499E-08
   37.44000      2.0362839E-08
   37.50000      2.0360472E-08
   37.56000      2.0375117E-08
   37.62000      2.0395460E-08
   37.68000      2.0413292E-08
   37.74000      2.0422069E-08
   37.80000      2.0414101E-08
   37.86000      2.0378083E-08
   37.92000      2.0298179E-08
   37.98000      2.0155040E-08
   38.04000      1.9928379E-08
   38.10000      1.9600407E-08
   38.16000      1.9159399E-08
   38.22000      1.8602778E-08
   38.28000      1.7938977E-08
   38.34000      1.7187427E-08
   38.40000      1.6376143E-08
   38.46000      1.5537115E-08
   38.52000      1.4700556E-08
   38.58000      1.3889619E-08
   38.64000      1.3116998E-08
   38.70000      1.2384036E-08
   38.76000      1.1681776E-08
   38.82000      1.0992833E-08
   38.88000      1.0293135E-08
   38.94000      9.5534780E-09
   39.00000      8.7416927E-09
   39.06000      7.8263858E-09
   39.12000      6.7823938E-09
   39.18000      5.5968501E-09
   39.24000      4.2737884E-09
   39.30000      2.8352436E-09
   39.36000      1.3179131E-09
   39.42000     -2.3401028E-10
   39.48000     -1.7778898E-09
   39.54000     -3.2811356E-09
   39.60000     -4.7269961E-09
   39.66000     -6.1163323E-09
   39.72000     -7.4650393E-09
   39.78000     -8.7977305E-09
   39.84000     -1.0139291E-08
   39.90000     -1.1506759E-08
   39.96000     -1.2904307E-08
   40.02000     -1.4323478E-08
   40.08000     -1.5748908E-08
   40.14000     -1.7167343E-08
   40.20000     -1.8575738E-08
   40.26000     -1.9984221E-08
   40.32000     -2.1411770E-08
   40.38000     -2.2876181E-08
   40.44000     -2.4383050E-08
   40.50000     -2.5919553E-08
   40.56000     -2.7456771E-08
   40.62000     -2.8960129E-08
   40.68000     -3.0403417E-08
   40.74000     -3.1779983E-08
   40.80000     -3.3105959E-08
   40.86000     -3.4414398E-08
   40.92000     -3.5743270E-08
   40.98000     -3.7122906E-08
   41.04000     -3.8568036E-08
   41.10000     -4.0076781E-08
   41.16000     -4.1635442E-08
   41.22000     -4.3225665E-08
   41.28000     -4.4830447E-08
   41.34000     -4.6437123E-08
   41.40000     -4.8037784E-08
   41.46000     -4.9628831E-08
   41.52000     -5.1211156E-08
   41.58000     -5.2790984E-08
   41.64000     -5.4379790E-08
   41.70000     -5.5991517E-08
   41.76000     -5.7636363E-08
   41.82000     -5.9312786E-08
   41.88000     -6.1001295E-08
   41.94000     -6.2663595E-08
   42.00000     -6.4249143E-08
   42.06000     -6.5707361E-08
   42.12000     -6.7001004E-08
   42.18000     -6.8114993E-08
   42.24000     -6.9056725E-08
   42.30000     -6.9847687E-08
   42.36000     -7.0510389E-08
   42.42000     -7.1056839E-08
   42.48000     -7.1483953E-08
   42.54000     -7.1777862E-08
   42.60000     -7.1924589E-08
   42.66000     -7.1921598E-08
   42.72000     -7.1784527E-08
   42.78000     -7.1545919E-08
   42.84000     -7.1246774E-08
   42.90000     -7.0924976E-08
   42.96000     -7.0605530E-08
   43.02000     -7.0296061E-08
   43.08000     -6.9988552E-08
   43.14000     -6.9665077E-08
   43.20000     -6.9304683E-08
   43.26000     -6.8888788E-08
   43.32000     -6.8404312E-08
   43.38000     -6.7844731E-08
   43.44000     -6.7210344E-08
   43.50000     -6.6508008E-08
   43.56000     -6.5750271E-08
   43.62000     -6.4953248E-08
   43.68000     -6.4133303E-08
   43.74000     -6.3303524E-08
   43.80000     -6.2471486E-08
   43.86000     -6.1639810E-08
   43.92000     -6.0809136E-08
   43.98000     -5.9982028E-08
   44.04000     -5.9165213E-08
   44.10000     -5.8368304E-08
   44.16000     -5.7599088E-08
   44.22000     -5.6857569E-08
   44.28000     -5.6132155E-08
   44.34000     -5.5400452E-08
   44.40000     -5.4635191E-08
   44.46000     -5.3812922E-08
   44.52000     -5.2921902E-08
   44.58000     -5.1965753E-08
   44.64000     -5.0961695E-08
   44.70000     -4.9934577E-08
   44.76000     -4.8909687E-08
   44.82000     -4.7907427E-08
   44.88000     -4.6941690E-08
   44.94000     -4.6021555E-08
   45.00000     -4.5154518E-08
   45.06000     -4.4349001E-08
   45.12000     -4.3614627E-08
   45.18000     -4.2960139E-08
   45.24000     -4.2390074E-08
   45.30000     -4.1902016E-08
   45.36000     -4.1485954E-08
   45.42000     -4.1126484E-08
   45.48000     -4.0807492E-08
   45.54000     -4.0518024E-08
   45.60000     -4.0257426E-08
   45.66000     -4.0037968E-08
   45.72000     -3.9883652E-08
   45.78000     -3.9825064E-08
   45.84000     -3.9891258E-08
   45.90000     -4.0100741E-08
   45.96000     -4.0454143E-08
   46.02000     -4.0931052E-08
   46.08000     -4.1492232E-08
   46.14000     -4.2087098E-08
   46.20000     -4.2664308E-08
   46.26000     -4.3182386E-08
   46.32000     -4.3617000E-08
   46.38000     -4.3962853E-08
   46.44000     -4.4230084E-08
   46.50000     -4.4437275E-08
   46.56000     -4.4604121E-08
   46.62000     -4.4746521E-08
   46.68000     -4.4875080E-08
   46.74000     -4.4995865E-08
   46.80000     -4.5111189E-08
   46.86000     -4.5218485E-08
   46.92000     -4.5307118E-08
   46.98000     -4.5355115E-08
   47.04000     -4.5328587E-08
   47.10000     -4.5185665E-08
   47.16000     -4.4884430E-08
   47.22000     -4.4391694E-08
   47.28000     -4.3688580E-08
   47.34000     -4.2770100E-08
   47.40000     -4.1638884E-08
   47.46000     -4.0296094E-08
   47.52000     -3.8733578E-08
   47.58000     -3.6930103E-08
   47.64000     -3.4851492E-08
   47.70000     -3.2451730E-08
   47.76000     -2.9671490E-08
   47.82000     -2.6432494E-08
   47.88000     -2.2629207E-08
   47.94000     -1.8122144E-08
   48.00000     -1.2736826E-08
   48.06000     -6.2693535E-09
   48.12000      1.5049448E-09
   48.18000      1.0826611E-08
   48.24000      2.1957572E-08
   48.30000      3.5199630E-08
   48.36000      5.0922598E-08
   48.42000      6.9593860E-08
   48.48000      9.1800686E-08
   48.54000      1.1826054E-07
   48.60000      1.4982179E-07
   48.66000      1.8746279E-07
   48.72000      2.3229970E-07
   48.78000      2.8560950E-07
   48.84000      3.4886793E-07
   48.90000      4.2379608E-07
   48.96000      5.1240710E-07
   49.02000      6.1704577E-07
   49.08000      7.4042288E-07
   49.14000      8.8564911E-07
   49.20000      1.0562771E-06
   49.26000      1.2563576E-06
   49.32000      1.4905085E-06
   49.38000      1.7639939E-06
   49.44000      2.0828061E-06
   49.50000      2.4537474E-06
   49.56000      2.8845122E-06
   49.62000      3.3837780E-06
   49.68000      3.9613028E-06
   49.74000      4.6280365E-06
   49.80000      5.3962403E-06
   49.86000      6.2796071E-06
   49.92000      7.2933826E-06
   49.98000      8.4544890E-06
   50.04000      9.7816464E-06
   50.10000      1.1295518E-05
   50.16000      1.3018858E-05
   50.22000      1.4976681E-05
   50.28000      1.7196426E-05
   50.34000      1.9708114E-05
   50.40000      2.2544478E-05
   50.46000      2.5741099E-05
   50.52000      2.9336506E-05
   50.58000      3.3372282E-05
   50.64000      3.7893158E-05
   50.70000      4.2947140E-05
   50.76000      4.8585563E-05
   50.82000      5.4863187E-05
   50.88000      6.1838233E-05
   50.94000      6.9572387E-05
   51.00000      7.8130761E-05
   51.06000      8.7581800E-05
   51.12000      9.7997181E-05
   51.18000      1.0945167E-04
   51.24000      1.2202292E-04
   51.30000      1.3579128E-04
   51.36000      1.5083952E-04
   51.42000      1.6725245E-04
   51.48000      1.8511653E-04
   51.54000      2.0451943E-04
   51.60000      2.2554955E-04
   51.66000      2.4829549E-04
   51.72000      2.7284527E-04
   51.78000      2.9928589E-04
   51.84000      3.2770261E-04
   51.90000      3.5817799E-04
   51.96000      3.9079119E-04
   52.02000      4.2561712E-04
   52.08000      4.6272564E-04
   52.14000      5.0218054E-04
   52.20000      5.4403889E-04
   52.26000      5.8834977E-04
   52.32000      6.3515373E-04
   52.38000      6.8448170E-04
   52.44000      7.3635392E-04
   52.50000      7.9077942E-04
   52.56000      8.4775500E-04
   52.62000      9.0726459E-04
   52.68000      9.6927886E-04
   52.74000      1.0337543E-03
   52.80000      1.1006332E-03
   52.86000      1.1698427E-03
   52.92000      1.2412946E-03
   52.98000      1.3148857E-03
   53.04000      1.3904975E-03
   53.10000      1.4679965E-03
   53.16000      1.5472346E-03
   53.22000      1.6280495E-03
   53.28000      1.7102659E-03
   53.34000      1.7936951E-03
   53.40000      1.8781367E-03
   53.46000      1.9633793E-03
   53.52000      2.0492028E-03
   53.58000      2.1353783E-03
   53.64000      2.2216709E-03
   53.70000      2.3078411E-03
   53.76000      2.3936466E-03
   53.82000      2.4788431E-03
   53.88000      2.5631869E-03
   53.94000      2.6464367E-03
   54.00000      2.7283558E-03
   54.06000      2.8087134E-03
   54.12000      2.8872876E-03
   54.18000      2.9638673E-03
   54.24000      3.0382536E-03
   54.30000      3.1102616E-03
   54.36000      3.1797208E-03
   54.42000      3.2464780E-03
   54.48000      3.3103980E-03
   54.54000      3.3713651E-03
   54.60000      3.4292848E-03
   54.66000      3.4840826E-03
   54.72000      3.5357072E-03
   54.78000      3.5841293E-03
   54.84000      3.6293403E-03
   54.90000      3.6713548E-03
   54.96000      3.7102078E-03
   55.02000      3.7459556E-03
   55.08000      3.7786760E-03
   55.14000      3.8084642E-03
   55.20000      3.8354329E-03
   55.26000      3.8597123E-03
   55.32000      3.8814454E-03
   55.38000      3.9007887E-03
   55.44000      3.9179097E-03
   55.50000      3.9329836E-03
   55.56000      3.9461916E-03