  -2.400000      0.0000000E+00
  -2.340000      0.0000000E+00
  -2.280000      0.0000000E+00
  -2.220000      0.0000000E+00
  -2.160000      0.0000000E+00
  -2.100000     -1.1157485E-20
  -2.040000      7.5977793E-20
  -1.980000      1.0023477E-18
  -1.920000      4.3880372E-18
  -1.860000      1.0410746E-17
  -1.800000      1.1131570E-17
  -1.740000     -1.5948922E-17
  -1.680000     -9.9575526E-17
  -1.620000     -2.3624389E-16
  -1.560000     -3.2974320E-16
  -1.500000     -1.6296811E-16
  -1.440000      5.1194941E-16
  -1.380000      1.7197147E-15
  -1.320000      2.9395938E-15
  -1.260000      2.9887888E-15
  -1.200000      4.4218619E-16
  -1.140000     -5.3082695E-15
  -1.080000     -1.2764785E-14
  -1.020000     -1.7744341E-14
 -0.9600000     -1.4526254E-14
 -0.9000000      9.8361447E-16
 -0.8400000      2.7194184E-14
 -0.7800000      5.4343889E-14
 -0.7200000      6.6258359E-14
 -0.6600000      4.7368471E-14
 -0.6000000     -7.1461595E-15
 -0.5400000     -8.3296122E-14
 -0.4800000     -1.4836915E-13
 -0.4200000     -1.6246500E-13
 -0.3600000     -9.8885791E-14
 -0.3000000      3.5574638E-14
 -0.2400000      1.9247237E-13
 -0.1800000      2.9463197E-13
 -0.1200000      2.6979637E-13
 -5.9999999E-02  9.2679946E-14
  0.0000000E+00 -1.8558080E-13
  5.9999999E-02 -4.4113950E-13
  0.1200000     -5.2285634E-13
  0.1800000     -3.2749926E-13
  0.2400000      1.2744528E-13
  0.3000000      6.7439750E-13
  0.3600000      1.0397909E-12
  0.4200000      9.6058285E-13
  0.4800000      3.3170463E-13
  0.5400000     -6.8707290E-13
  0.6000000     -1.6760081E-12
  0.6600000     -2.1031332E-12
  0.7200000     -1.5768782E-12
  0.7800000     -9.7482183E-14
  0.8400000      1.8277370E-12
  0.9000000      3.3035233E-12
  0.9600000      3.4000645E-12
   1.020000      1.6192787E-12
   1.080000     -1.7313872E-12
   1.140000     -5.4586817E-12
   1.200000     -7.7925114E-12
   1.260000     -7.0129332E-12
   1.320000     -2.1721112E-12
   1.380000      6.3720067E-12
   1.440000      1.6827617E-11
   1.500000      2.6301350E-11
   1.560000      3.1467599E-11
   1.620000      2.9347958E-11
   1.680000      1.7992626E-11
   1.740000     -3.0264413E-12
   1.800000     -3.2267307E-11
   1.860000     -6.6119964E-11
   1.920000     -9.8545956E-11
   1.980000     -1.2102916E-10
   2.040000     -1.2309523E-10
   2.100000     -9.3808364E-11
   2.160000     -2.4485459E-11
   2.220000      8.7513809E-11
   2.280000      2.3454441E-10
   2.340000      3.9501397E-10
   2.400000      5.3150179E-10
   2.460000      5.9168870E-10
   2.520000      5.1262605E-10
   2.580000      2.2815787E-10
   2.640000     -3.2144964E-10
   2.700000     -1.1792268E-09
   2.760000     -2.3624374E-09
   2.820000     -3.8565302E-09
   2.880000     -5.6134466E-09
   2.940000     -7.5548430E-09
   3.000000     -9.5798827E-09
   3.060000     -1.1576351E-08
   3.120000     -1.3433270E-08
   3.180000     -1.5052937E-08
   3.240000     -1.6360650E-08
   3.300000     -1.7310947E-08
   3.360000     -1.7890034E-08
   3.420000     -1.8114783E-08
   3.480000     -1.8029111E-08
   3.540000     -1.7698683E-08
   3.600000     -1.7204663E-08
   3.660000     -1.6637010E-08
   3.720000     -1.6087590E-08
   3.780000     -1.5643327E-08
   3.840000     -1.5379676E-08
   3.900000     -1.5354834E-08
   3.960000     -1.5605002E-08
   4.020000     -1.6141048E-08
   4.080000     -1.6946737E-08
   4.140000     -1.7978733E-08
   4.200000     -1.9168723E-08
   4.260000     -2.0428198E-08
   4.320000     -2.1656415E-08
   4.380000     -2.2751705E-08
   4.440000     -2.3625288E-08
   4.500000     -2.4215757E-08
   4.560000     -2.4501151E-08
   4.620000     -2.4505379E-08
   4.680000     -2.4296314E-08
   4.740000     -2.3974735E-08
   4.800000     -2.3655582E-08
   4.860000     -2.3445343E-08
   4.920000     -2.3420631E-08
   4.980000     -2.3613065E-08
   5.040000     -2.4003951E-08
   5.100000     -2.4529806E-08
   5.160000     -2.5097062E-08
   5.220000     -2.5602148E-08
   5.280000     -2.5952229E-08
   5.340000     -2.6082116E-08
   5.400000     -2.5964265E-08
   5.460000     -2.5610522E-08
   5.520000     -2.5066102E-08
   5.580000     -2.4397799E-08
   5.640000     -2.3679219E-08
   5.700000     -2.2976101E-08
   5.760000     -2.2334550E-08
   5.820000     -2.1774190E-08
   5.880000     -2.1287166E-08
   5.940000     -2.0842712E-08
   6.000000     -2.0395897E-08
   6.060000     -1.9898312E-08
   6.120000     -1.9308395E-08
   6.180000     -1.8599218E-08
   6.240000     -1.7762446E-08
   6.300000     -1.6807990E-08
   6.360000     -1.5759801E-08
   6.420000     -1.4648990E-08
   6.480000     -1.3505946E-08
   6.540000     -1.2353441E-08
   6.600000     -1.1202491E-08
   6.660000     -1.0052262E-08
   6.720000     -8.8941920E-09
   6.780000     -7.7192235E-09
   6.840000     -6.5257844E-09
   6.900000     -5.3255862E-09
   6.960000     -4.1447348E-09
   7.020000     -3.0190663E-09
   7.080000     -1.9846320E-09
   7.140000     -1.0661195E-09
   7.200000     -2.6694788E-10
   7.260000      4.3556278E-10
   7.320000      1.0881039E-09
   7.380000      1.7527283E-09
   7.440000      2.4940310E-09
   7.500000      3.3657530E-09
   7.560000      4.4004271E-09
   7.620000      5.6046154E-09
   7.680000      6.9605881E-09
   7.740000      8.4335072E-09
   7.800000      9.9818322E-09
   7.860000      1.1568082E-08
   7.920000      1.3167269E-08
   7.980000      1.4771187E-08
   8.040000      1.6387911E-08
   8.100000      1.8037042E-08
   8.160000      1.9742147E-08
   8.220000      2.1522309E-08
   8.280000      2.3384791E-08
   8.340000      2.5320395E-08
   8.400000      2.7302601E-08
   8.460000      2.9290673E-08
   8.520000      3.1236162E-08
   8.580000      3.3091368E-08
   8.640000      3.4817806E-08
   8.700000      3.6392496E-08
   8.760000      3.7810416E-08
   8.820000      3.9082419E-08
   8.880000      4.0229189E-08
   8.940000      4.1273175E-08
   9.000000      4.2230901E-08
   9.060000      4.3108155E-08
   9.120000      4.3899487E-08
   9.180000      4.4592042E-08
   9.240000      4.5172388E-08
   9.300000      4.5634042E-08
   9.360000      4.5983150E-08
   9.420000      4.6240427E-08
   9.480000      4.6438625E-08
   9.540000      4.6616055E-08
   9.600000      4.6807919E-08
   9.660000      4.7037979E-08
   9.720000      4.7312877E-08
   9.780000      4.7620865E-08
   9.840000      4.7935341E-08
   9.900000      4.8222162E-08
   9.960000      4.8448495E-08
   10.02000      4.8590479E-08
   10.08000      4.8637613E-08
   10.14000      4.8592817E-08
   10.20000      4.8468820E-08
   10.26000      4.8282647E-08
   10.32000      4.8050378E-08
   10.38000      4.7783718E-08
   10.44000      4.7489028E-08
   10.50000      4.7168076E-08
   10.56000      4.6819491E-08
   10.62000      4.6439879E-08
   10.68000      4.6024283E-08
   10.74000      4.5566225E-08
   10.80000      4.5057909E-08
   10.86000      4.4490911E-08
   10.92000      4.3857259E-08
   10.98000      4.3150532E-08
   11.04000      4.2366651E-08
   11.10000      4.1504329E-08
   11.16000      4.0565478E-08
   11.22000      3.9555783E-08
   11.28000      3.8485343E-08
   11.34000      3.7368753E-08
   11.40000      3.6223891E-08
   11.46000      3.5069089E-08
   11.52000      3.3919221E-08
   11.58000      3.2781994E-08
   11.64000      3.1656072E-08
   11.70000      3.0532007E-08
   11.76000      2.9395858E-08
   11.82000      2.8234147E-08
   11.88000      2.7038142E-08
   11.94000      2.5805944E-08
   12.00000      2.4541789E-08
   12.06000      2.3253378E-08
   12.12000      2.1948797E-08
   12.18000      2.0634539E-08
   12.24000      1.9315330E-08
   12.30000      1.7995355E-08
   12.36000      1.6679710E-08
   12.42000      1.5374853E-08
   12.48000      1.4087391E-08
   12.54000      1.2821508E-08
   12.60000      1.1576076E-08
   12.66000      1.0342705E-08
   12.72000      9.1057126E-09
   12.78000      7.8442906E-09
   12.84000      6.5364794E-09
   12.90000      5.1640012E-09
   12.96000      3.7167385E-09
   13.02000      2.1956226E-09
   13.08000      6.1285393E-10
   13.14000     -1.0111328E-09
   13.20000     -2.6537466E-09
   13.26000     -4.2980726E-09
   13.32000     -5.9401710E-09
   13.38000     -7.5930906E-09
   13.44000     -9.2854391E-09
   13.50000     -1.1053977E-08
   13.56000     -1.2931983E-08
   13.62000     -1.4937081E-08
   13.68000     -1.7062973E-08
   13.74000     -1.9278449E-08
   13.80000     -2.1534486E-08
   13.86000     -2.3777295E-08
   13.92000     -2.5962839E-08
   13.98000     -2.8067982E-08
   14.04000     -3.0094768E-08
   14.10000     -3.2067021E-08
   14.16000     -3.4021063E-08
   14.22000     -3.5993910E-08
   14.28000     -3.8012494E-08
   14.34000     -4.0086398E-08
   14.40000     -4.2205102E-08
   14.46000     -4.4339671E-08
   14.52000     -4.6447997E-08
   14.58000     -4.8482544E-08
   14.64000     -5.0399144E-08
   14.70000     -5.2165070E-08
   14.76000     -5.3764310E-08
   14.82000     -5.5198402E-08
   14.88000     -5.6482214E-08
   14.94000     -5.7636054E-08
   15.00000     -5.8676822E-08
   15.06000     -5.9611658E-08
   15.12000     -6.0436534E-08
   15.18000     -6.1139943E-08
   15.24000     -6.1709741E-08
   15.30000     -6.2139620E-08
   15.36000     -6.2432122E-08
   15.42000     -6.2596868E-08
   15.48000     -6.2645199E-08
   15.54000     -6.2583979E-08
   15.60000     -6.2411651E-08
   15.66000     -6.2118445E-08
   15.72000     -6.1690443E-08
   15.78000     -6.1115628E-08
   15.84000     -6.0389254E-08
   15.90000     -5.9516541E-08
   15.96000     -5.8512025E-08
   16.02000     -5.7396178E-08
   16.08000     -5.6190974E-08
   16.14000     -5.4915887E-08
   16.20000     -5.3585566E-08
   16.26000     -5.2209462E-08
   16.32000     -5.0793215E-08
   16.38000     -4.9341160E-08
   16.44000     -4.7858940E-08
   16.50000     -4.6355389E-08
   16.56000     -4.4842750E-08
   16.62000     -4.3334971E-08
   16.68000     -4.1844331E-08
   16.74000     -4.0377554E-08
   16.80000     -3.8932946E-08
   16.86000     -3.7500154E-08
   16.92000     -3.6063224E-08
   16.98000     -3.4606479E-08
   17.04000     -3.3121481E-08
   17.10000     -3.1612650E-08
   17.16000     -3.0099333E-08
   17.22000     -2.8613144E-08
   17.28000     -2.7191096E-08
   17.34000     -2.5866445E-08
   17.40000     -2.4660066E-08
   17.46000     -2.3575032E-08
   17.52000     -2.2596083E-08
   17.58000     -2.1694044E-08
   17.64000     -2.0833753E-08
   17.70000     -1.9982982E-08
   17.76000     -1.9119707E-08
   17.82000     -1.8235630E-08
   17.88000     -1.7335280E-08
   17.94000     -1.6431276E-08
   18.00000     -1.5537536E-08
   18.06000     -1.4662718E-08
   18.12000     -1.3805852E-08
   18.18000     -1.2955409E-08
   18.24000     -1.2091883E-08
   18.30000     -1.1192954E-08
   18.36000     -1.0239589E-08
   18.42000     -9.2212682E-09
   18.48000     -8.1388052E-09
   18.54000     -7.0039579E-09
   18.60000     -5.8359895E-09
   18.66000     -4.6561670E-09
   18.72000     -3.4818644E-09
   18.78000     -2.3220235E-09
   18.84000     -1.1753167E-09
   18.90000     -3.1511769E-11
   18.96000      1.1244561E-09
   19.02000      2.3069771E-09
   19.08000      3.5243832E-09
   19.14000      4.7749831E-09
   19.20000      6.0451462E-09
   19.26000      7.3093775E-09
   19.32000      8.5318357E-09
   19.38000      9.6687174E-09
   19.44000      1.0671147E-08
   19.50000      1.1488587E-08
   19.56000      1.2072946E-08
   19.62000      1.2383484E-08
   19.68000      1.2392286E-08
   19.74000      1.2089646E-08
   19.80000      1.1488354E-08
   19.86000      1.0625767E-08
   19.92000      9.5626111E-09
   19.98000      8.3779783E-09
   20.04000      7.1605695E-09
   20.10000      5.9972263E-09
   20.16000      4.9606448E-09
   20.22000      4.0988057E-09
   20.28000      3.4286440E-09
   20.34000      2.9357179E-09
   20.40000      2.5801823E-09
   20.46000      2.3076716E-09
   20.52000      2.0623503E-09
   20.58000      1.7988738E-09
   20.64000      1.4905557E-09
   20.70000      1.1323430E-09
   20.76000      7.3879175E-10
   20.82000      3.3846032E-10
   20.88000     -3.3319625E-11
   20.94000     -3.4151840E-10
   21.00000     -5.5715582E-10
   21.06000     -6.6121503E-10
   21.12000     -6.4668532E-10
   21.18000     -5.1891907E-10
   21.24000     -2.9456768E-10
   21.30000      5.7699489E-13
   21.36000      3.3443670E-10
   21.42000      6.7177552E-10
   21.48000      9.7728670E-10
   21.54000      1.2185430E-09
   21.60000      1.3689178E-09
   21.66000      1.4105856E-09
   21.72000      1.3374545E-09
   21.78000      1.1574449E-09
   21.84000      8.9321434E-10
   21.90000      5.8049338E-10
   21.96000      2.6376071E-10
   22.02000     -1.0133844E-11
   22.08000     -1.9898634E-10
   22.14000     -2.7116032E-10
   22.20000     -2.0903479E-10
   22.26000     -9.4825588E-12
   22.32000      3.1812100E-10
   22.38000      7.5520978E-10
   22.44000      1.2774576E-09
   22.50000      1.8575863E-09
   22.56000      2.4674272E-09
   22.62000      3.0795160E-09
   22.68000      3.6684920E-09
   22.74000      4.2122874E-09
   22.80000      4.6928399E-09
   22.86000      5.0960858E-09
   22.92000      5.4113811E-09
   22.98000      5.6308971E-09
   23.04000      5.7497016E-09
   23.10000      5.7668568E-09
   23.16000      5.6871561E-09
   23.22000      5.5224882E-09
   23.28000      5.2916955E-09
   23.34000      5.0184013E-09
   23.40000      4.7273123E-09
   23.46000      4.4404063E-09
   23.52000      4.1745842E-09
   23.58000      3.9417141E-09
   23.64000      3.7507490E-09
   23.70000      3.6105414E-09
   23.76000      3.5316352E-09
   23.82000      3.5259322E-09
   23.88000      3.6042653E-09
   23.94000      3.7729944E-09
   24.00000      4.0311634E-09
   24.06000      4.3693862E-09
   24.12000      4.7708517E-09
   24.18000      5.2140763E-09
   24.24000      5.6767289E-09
   24.30000      6.1398771E-09
   24.36000      6.5920926E-09
   24.42000      7.0326567E-09
   24.48000      7.4727344E-09
   24.54000      7.9331945E-09
   24.60000      8.4382599E-09
   24.66000      9.0055288E-09
   24.72000      9.6346966E-09
   24.78000      1.0298630E-08
   24.84000      1.0940425E-08
   24.90000      1.1478463E-08
   24.96000      1.1818805E-08
   25.02000      1.1871665E-08
   25.08000      1.1567318E-08
   25.14000      1.0867256E-08
   25.20000      9.7682875E-09
   25.26000      8.2995610E-09
   25.32000      6.5143180E-09
   25.38000      4.4788062E-09
   25.44000      2.2605742E-09
   25.50000     -8.2189561E-11
   25.56000     -2.5088613E-09
   25.62000     -5.0007518E-09
   25.68000     -7.5604012E-09
   25.74000     -1.0205400E-08
   25.80000     -1.2957964E-08
   25.86000     -1.5833333E-08
   25.92000     -1.8831102E-08
   25.98000     -2.1933008E-08
   26.04000     -2.5108278E-08
   26.10000     -2.8324450E-08
   26.16000     -3.1558866E-08
   26.22000     -3.4805471E-08
   26.28000     -3.8073395E-08
   26.34000     -4.1377348E-08
   26.40000     -4.4723699E-08
   26.46000     -4.8098112E-08
   26.52000     -5.1460290E-08
   26.58000     -5.4748529E-08
   26.64000     -5.7893008E-08
   26.70000     -6.0833578E-08
   26.76000     -6.3536234E-08
   26.82000     -6.6003302E-08
   26.88000     -6.8274325E-08
   26.94000     -7.0417400E-08
   27.00000     -7.2512798E-08
   27.06000     -7.4632673E-08
   27.12000     -7.6821273E-08
   27.18000     -7.9080529E-08
   27.24000     -8.1365350E-08
   27.30000     -8.3590962E-08
   27.36000     -8.5651820E-08
   27.42000     -8.7447695E-08
   27.48000     -8.8909701E-08
   27.54000     -9.0017856E-08
   27.60000     -9.0804029E-08
   27.66000     -9.1339061E-08
   27.72000     -9.1708088E-08
   27.78000     -9.1983011E-08
   27.84000     -9.2201390E-08
   27.90000     -9.2358611E-08
   27.96000     -9.2414908E-08
   28.02000     -9.2313272E-08
   28.08000     -9.2001009E-08
   28.14000     -9.1447468E-08
   28.20000     -9.0652563E-08
   28.26000     -8.9644686E-08
   28.32000     -8.8470031E-08
   28.38000     -8.7177177E-08
   28.44000     -8.5802071E-08
   28.50000     -8.4357531E-08
   28.56000     -8.2830709E-08
   28.62000     -8.1189526E-08
   28.68000     -7.9396905E-08
   28.74000     -7.7428837E-08
   28.80000     -7.5290473E-08
   28.86000     -7.3024133E-08
   28.92000     -7.0705049E-08
   28.98000     -6.8425265E-08
   29.04000     -6.6270026E-08
   29.10000     -6.4294930E-08
   29.16000     -6.2512015E-08
   29.22000     -6.0890081E-08
   29.28000     -5.9369295E-08
   29.34000     -5.7884904E-08
   29.40000     -5.6391535E-08
   29.46000     -5.4879692E-08
   29.52000     -5.3379310E-08
   29.58000     -5.1949737E-08
   29.64000     -5.0660404E-08
   29.70000     -4.9568889E-08
   29.76000     -4.8703555E-08
   29.82000     -4.8055774E-08
   29.88000     -4.7583747E-08
   29.94000     -4.7226308E-08
   30.00000     -4.6922413E-08
   30.06000     -4.6630426E-08
   30.12000     -4.6341320E-08
   30.18000     -4.6081468E-08
   30.24000     -4.5903814E-08
   30.30000     -4.5869708E-08
   30.36000     -4.6027075E-08
   30.42000     -4.6392277E-08
   30.48000     -4.6942198E-08
   30.54000     -4.7619857E-08
   30.60000     -4.8352071E-08
   30.66000     -4.9073147E-08
   30.72000     -4.9746195E-08
   30.78000     -5.0374364E-08
   30.84000     -5.0998040E-08
   30.90000     -5.1679031E-08
   30.96000     -5.2477688E-08
   31.02000     -5.3430913E-08
   31.08000     -5.4538660E-08
   31.14000     -5.5762968E-08
   31.20000     -5.7039561E-08
   31.26000     -5.8297655E-08
   31.32000     -5.9481533E-08
   31.38000     -6.0566933E-08
   31.44000     -6.1566965E-08
   31.50000     -6.2525409E-08
   31.56000     -6.3498803E-08
   31.62000     -6.4532458E-08
   31.68000     -6.5637728E-08
   31.74000     -6.6778284E-08
   31.80000     -6.7870957E-08
   31.86000     -6.8802521E-08
   31.92000     -6.9458068E-08
   31.98000     -6.9752652E-08
   32.04000     -6.9655542E-08
   32.10000     -6.9198997E-08
   32.16000     -6.8467934E-08
   32.22000     -6.7573971E-08
   32.28000     -6.6622469E-08
   32.34000     -6.5683459E-08
   32.40000     -6.4775953E-08
   32.46000     -6.3869813E-08
   32.52000     -6.2903524E-08
   32.58000     -6.1811043E-08
   32.64000     -6.0548118E-08
   32.70000     -5.9109631E-08
   32.76000     -5.7532656E-08
   32.82000     -5.5884723E-08
   32.88000     -5.4241365E-08
   32.94000     -5.2660230E-08
   33.00000     -5.1160143E-08
   33.06000     -4.9712114E-08
   33.12000     -4.8246058E-08
   33.18000     -4.6672177E-08
   33.24000     -4.4911125E-08
   33.30000     -4.2923631E-08
   33.36000     -4.0729571E-08
   33.42000     -3.8409173E-08
   33.48000     -3.6084607E-08
   33.54000     -3.3887130E-08
   33.60000     -3.1920251E-08
   33.66000     -3.0231565E-08
   33.72000     -2.8803024E-08
   33.78000     -2.7563033E-08
   33.84000     -2.6415773E-08
   33.90000     -2.5276938E-08
   33.96000     -2.4102890E-08
   34.02000     -2.2903091E-08
   34.08000     -2.1732067E-08
   34.14000     -2.0664821E-08
   34.20000     -1.9765178E-08
   34.26000     -1.9058543E-08
   34.32000     -1.8518259E-08
   34.38000     -1.8069631E-08
   34.44000     -1.7609660E-08
   34.50000     -1.7035713E-08
   34.56000     -1.6273990E-08
   34.62000     -1.5299054E-08
   34.68000     -1.4138722E-08
   34.74000     -1.2862903E-08
   34.80000     -1.1559876E-08
   34.86000     -1.0307395E-08
   34.92000     -9.1479464E-09
   34.98000     -8.0765954E-09
   35.04000     -7.0460762E-09
   35.10000     -5.9879830E-09
   35.16000     -4.8430375E-09
   35.22000     -3.5895535E-09
   35.28000     -2.2591768E-09
   35.34000     -9.3316632E-10
   35.40000      2.8047803E-10
   35.46000      1.2813525E-09
   35.52000      2.0100421E-09
   35.58000      2.4680562E-09
   35.64000      2.7165037E-09
   35.70000      2.8534746E-09
   35.76000      2.9779141E-09
   35.82000      3.1526863E-09
   35.88000      3.3797207E-09
   35.94000      3.5957555E-09
   36.00000      3.6899670E-09
   36.06000      3.5374790E-09
   36.12000      3.0377729E-09
   36.18000      2.1459083E-09
   36.24000      8.8712893E-10
   36.30000     -6.4920763E-10
   36.36000     -2.3342410E-09
   36.42000     -4.0353294E-09
   36.48000     -5.6524145E-09
   36.54000     -7.1445001E-09
   36.60000     -8.5385281E-09
   36.66000     -9.9180406E-09
   36.72000     -1.1394999E-08
   36.78000     -1.3073411E-08
   36.84000     -1.5016239E-08
   36.90000     -1.7226290E-08
   36.96000     -1.9647342E-08
   37.02000     -2.2184988E-08
   37.08000     -2.4739746E-08
   37.14000     -2.7240558E-08
   37.20000     -2.9666767E-08
   37.26000     -3.2050938E-08
   37.32000     -3.4462104E-08
   37.38000     -3.6976257E-08
   37.44000     -3.9645354E-08
   37.50000     -4.2476021E-08
   37.56000     -4.5424969E-08
   37.62000     -4.8411369E-08
   37.68000     -5.1340383E-08
   37.74000     -5.4128456E-08
   37.80000     -5.6721365E-08
   37.86000     -5.9099630E-08
   37.92000     -6.1270953E-08
   37.98000     -6.3253886E-08
   38.04000     -6.5059609E-08
   38.10000     -6.6678481E-08
   38.16000     -6.8075970E-08
   38.22000     -6.9198983E-08
   38.28000     -6.9990406E-08
   38.34000     -7.0406770E-08
   38.40000     -7.0433273E-08
   38.46000     -7.0090827E-08
   38.52000     -6.9432389E-08
   38.58000     -6.8529047E-08
   38.64000     -6.7449982E-08
   38.70000     -6.6242606E-08
   38.76000     -6.4919718E-08
   38.82000     -6.3458167E-08
   38.88000     -6.1809878E-08
   38.94000     -5.9921753E-08
   39.00000     -5.7757621E-08
   39.06000     -5.5314882E-08
   39.12000     -5.2630330E-08
   39.18000     -4.9773750E-08
   39.24000     -4.6832319E-08
   39.30000     -4.3891916E-08
   39.36000     -4.1022080E-08
   39.42000     -3.8269480E-08
   39.48000     -3.5660939E-08
   39.54000     -3.3213318E-08
   39.60000     -3.0944960E-08
   39.66000     -2.8883196E-08
   39.72000     -2.7064504E-08
   39.78000     -2.5526893E-08
   39.84000     -2.4297512E-08
   39.90000     -2.3380204E-08
   39.96000     -2.2747798E-08
   40.02000     -2.2342268E-08
   40.08000     -2.2083269E-08
   40.14000     -2.1882940E-08
   40.20000     -2.1663043E-08
   40.26000     -2.1369885E-08
   40.32000     -2.0983141E-08
   40.38000     -2.0516230E-08
   40.44000     -2.0008265E-08
   40.50000     -1.9509734E-08
   40.56000     -1.9066054E-08
   40.62000     -1.8703821E-08
   40.68000     -1.8423867E-08
   40.74000     -1.8203185E-08
   40.80000     -1.8004728E-08
   40.86000     -1.7791415E-08
   40.92000     -1.7539115E-08
   40.98000     -1.7244007E-08
   41.04000     -1.6922000E-08
   41.10000     -1.6601192E-08
   41.16000     -1.6311018E-08
   41.22000     -1.6072772E-08
   41.28000     -1.5895031E-08
   41.34000     -1.5775010E-08
   41.40000     -1.5704041E-08
   41.46000     -1.5673759E-08
   41.52000     -1.5679754E-08
   41.58000     -1.5721206E-08
   41.64000     -1.5797378E-08
   41.70000     -1.5903495E-08
   41.76000     -1.6028777E-08
   41.82000     -1.6158149E-08
   41.88000     -1.6277216E-08
   41.94000     -1.6378344E-08
   42.00000     -1.6465206E-08
   42.06000     -1.6553813E-08
   42.12000     -1.6669603E-08
   42.18000     -1.6841792E-08
   42.24000     -1.7097133E-08
   42.30000     -1.7455312E-08
   42.36000     -1.7927420E-08
   42.42000     -1.8517813E-08
   42.48000     -1.9228592E-08
   42.54000     -2.0064975E-08
   42.60000     -2.1039455E-08
   42.66000     -2.2172689E-08
   42.72000     -2.3489829E-08
   42.78000     -2.5012318E-08
   42.84000     -2.6747035E-08
   42.90000     -2.8676352E-08
   42.96000     -3.0753217E-08
   43.02000     -3.2904460E-08
   43.08000     -3.5042934E-08
   43.14000     -3.7085591E-08
   43.20000     -3.8971738E-08
   43.26000     -4.0674990E-08
   43.32000     -4.2204231E-08
   43.38000     -4.3592934E-08
   43.44000     -4.4880895E-08
   43.50000     -4.6095440E-08
   43.56000     -4.7239563E-08
   43.62000     -4.8291614E-08
   43.68000     -4.9216474E-08
   43.74000     -4.9983694E-08
   43.80000     -5.0585317E-08
   43.86000     -5.1046456E-08
   43.92000     -5.1424440E-08
   43.98000     -5.1796462E-08
   44.04000     -5.2239553E-08
   44.10000     -5.2809092E-08
   44.16000     -5.3522562E-08
   44.22000     -5.4353595E-08
   44.28000     -5.5238598E-08
   44.34000     -5.6094564E-08
   44.40000     -5.6843227E-08
   44.46000     -5.7434391E-08
   44.52000     -5.7860778E-08
   44.58000     -5.8158690E-08
   44.64000     -5.8393169E-08
   44.70000     -5.8631468E-08
   44.76000     -5.8913582E-08
   44.82000     -5.9230278E-08
   44.88000     -5.9517255E-08
   44.94000     -5.9668750E-08
   45.00000     -5.9566677E-08
   45.06000     -5.9115560E-08
   45.12000     -5.8271006E-08
   45.18000     -5.7051579E-08
   45.24000     -5.5529991E-08
   45.30000     -5.3806957E-08
   45.36000     -5.1977278E-08
   45.42000     -5.0100091E-08
   45.48000     -4.8183551E-08
   45.54000     -4.6188642E-08
   45.60000     -4.4050232E-08
   45.66000     -4.1707576E-08
   45.72000     -3.9133454E-08
   45.78000     -3.6351789E-08
   45.84000     -3.3437317E-08
   45.90000     -3.0496789E-08
   45.96000     -2.7637288E-08
   46.02000     -2.4931781E-08
   46.08000     -2.2393577E-08
   46.14000     -1.9969134E-08
   46.20000     -1.7553058E-08
   46.26000     -1.5021753E-08
   46.32000     -1.2275437E-08
   46.38000     -9.2746060E-09
   46.44000     -6.0581824E-09
   46.50000     -2.7364344E-09
   46.56000      5.3953403E-10
   46.62000      3.6215915E-09
   46.68000      6.4067356E-09
   46.74000      8.8632506E-09
   46.80000      1.1032314E-08
   46.86000      1.3005256E-08
   46.92000      1.4885097E-08
   46.98000      1.6745979E-08
   47.04000      1.8604251E-08
   47.10000      2.0410306E-08
   47.16000      2.2063107E-08
   47.22000      2.3441807E-08
   47.28000      2.4443846E-08
   47.34000      2.5017231E-08
   47.40000      2.5176989E-08
   47.46000      2.5000865E-08
   47.52000      2.4605814E-08
   47.58000      2.4112634E-08
   47.64000      2.3609799E-08
   47.70000      2.3127797E-08
   47.76000      2.2631967E-08
   47.82000      2.2036049E-08
   47.88000      2.1231877E-08
   47.94000      2.0125521E-08
   48.00000      1.8668093E-08
   48.06000      1.6871399E-08
   48.12000      1.4803838E-08
   48.18000      1.2568422E-08
   48.24000      1.0270609E-08
   48.30000      7.9864391E-09
   48.36000      5.7407616E-09
   48.42000      3.5015288E-09
   48.48000      1.1905619E-09
   48.54000     -1.2939650E-09
   48.60000     -4.0513939E-09
   48.66000     -7.1572779E-09
   48.72000     -1.0653040E-08
   48.78000     -1.4548632E-08
   48.84000     -1.8835854E-08
   48.90000     -2.3506892E-08
   48.96000     -2.8571721E-08
   49.02000     -3.4069469E-08
   49.08000     -4.0071907E-08
   49.14000     -4.6680491E-08
   49.20000     -5.4020880E-08
   49.26000     -6.2239231E-08
   49.32000     -7.1503514E-08
   49.38000     -8.2010693E-08
   49.44000     -9.3998075E-08
   49.50000     -1.0775599E-07
   49.56000     -1.2363795E-07
   49.62000     -1.4206634E-07
   49.68000     -1.6353312E-07
   49.74000     -1.8859727E-07
   49.80000     -2.1788310E-07
   49.86000     -2.5208314E-07
   49.92000     -2.9196954E-07
   49.98000     -3.3841536E-07
   50.04000     -3.9242397E-07
   50.10000     -4.5516222E-07
   50.16000     -5.2799214E-07
   50.22000     -6.1249648E-07
   50.28000     -7.1049544E-07
   50.34000     -8.2405717E-07
   50.40000     -9.5550615E-07
   50.46000     -1.1074353E-06
   50.52000     -1.2827276E-06
   50.58000     -1.4845874E-06
   50.64000     -1.7165831E-06
   50.70000     -1.9826928E-06
   50.76000     -2.2873503E-06
   50.82000     -2.6354851E-06
   50.88000     -3.0325527E-06
   50.94000     -3.4845611E-06
   51.00000     -3.9980937E-06
   51.06000     -4.5803367E-06
   51.12000     -5.2391138E-06
   51.18000     -5.9829331E-06
   51.24000     -6.8210365E-06
   51.30000     -7.7634522E-06
   51.36000     -8.8210336E-06
   51.42000     -1.0005489E-05
   51.48000     -1.1329394E-05
   51.54000     -1.2806195E-05
   51.60000     -1.4450209E-05
   51.66000     -1.6276626E-05
   51.72000     -1.8301500E-05
   51.78000     -2.0541742E-05
   51.84000     -2.3015124E-05
   51.90000     -2.5740246E-05
   51.96000     -2.8736529E-05
   52.02000     -3.2024152E-05
   52.08000     -3.5623994E-05
   52.14000     -3.9557563E-05
   52.20000     -4.3846881E-05
   52.26000     -4.8514376E-05
   52.32000     -5.3582757E-05
   52.38000     -5.9074900E-05
   52.44000     -6.5013708E-05
   52.50000     -7.1422000E-05
   52.56000     -7.8322344E-05
   52.62000     -8.5736887E-05
   52.68000     -9.3687151E-05
   52.74000     -1.0219382E-04
   52.80000     -1.1127652E-04
   52.86000     -1.2095352E-04
   52.92000     -1.3124158E-04
   52.98000     -1.4215571E-04
   53.04000     -1.5370888E-04
   53.10000     -1.6591192E-04
   53.16000     -1.7877329E-04
   53.22000     -1.9229886E-04
   53.28000     -2.0649171E-04
   53.34000     -2.2135195E-04
   53.40000     -2.3687650E-04
   53.46000     -2.5305882E-04
   53.52000     -2.6988893E-04
   53.58000     -2.8735318E-04
   53.64000     -3.0543419E-04
   53.70000     -3.2411091E-04
   53.76000     -3.4335849E-04
   53.82000     -3.6314843E-04
   53.88000     -3.8344855E-04
   53.94000     -4.0422313E-04
   54.00000     -4.2543307E-04
   54.06000     -4.4703597E-04
   54.12000     -4.6898625E-04
   54.18000     -4.9123552E-04
   54.24000     -5.1373272E-04
   54.30000     -5.3642446E-04
   54.36000     -5.5925554E-04
   54.42000     -5.8216916E-04
   54.48000     -6.0510729E-04
   54.54000     -6.2801159E-04
   54.60000     -6.5082317E-04
   54.66000     -6.7348353E-04
   54.72000     -6.9593481E-04
   54.78000     -7.1812031E-04
   54.84000     -7.3998509E-04
   54.90000     -7.6147617E-04
   54.96000     -7.8254333E-04
   55.02000     -8.0313929E-04
   55.08000     -8.2322024E-04
   55.14000     -8.4274641E-04
   55.20000     -8.6168229E-04
   55.26000     -8.7999704E-04
   55.32000     -8.9766487E-04
   55.38000     -9.1466500E-04
   55.44000     -9.3098206E-04
   55.50000     -9.4660599E-04
   55.56000     -9.6153241E-04