  -2.400000      0.0000000E+00
  -2.340000      0.0000000E+00
  -2.280000      0.0000000E+00
  -2.220000      0.0000000E+00
  -2.160000      0.0000000E+00
  -2.100000      3.4977437E-21
  -2.040000      1.0370636E-20
  -1.980000     -5.6308556E-20
  -1.920000     -5.2340122E-19
  -1.860000     -2.0810783E-18
  -1.800000     -5.3855877E-18
  -1.740000     -9.6895192E-18
  -1.680000     -1.0754726E-17
  -1.620000      2.9562869E-19
  -1.560000      3.4411997E-17
  -1.500000      9.6314555E-17
  -1.440000      1.7200559E-16
  -1.380000      2.1897280E-16
  -1.320000      1.6951152E-16
  -1.260000     -4.4826549E-17
  -1.200000     -4.4970191E-16
  -1.140000     -9.8155258E-16
  -1.080000     -1.4644287E-15
  -1.020000     -1.6337519E-15
 -0.9600000     -1.2133457E-15
 -0.9000000     -2.7212776E-17
 -0.8400000      1.8913471E-15
 -0.7800000      4.2325305E-15
 -0.7200000      6.4090714E-15
 -0.6600000      7.6267524E-15
 -0.6000000      7.0233134E-15
 -0.5400000      3.8779083E-15
 -0.4800000     -2.1052648E-15
 -0.4200000     -1.0464808E-14
 -0.3600000     -1.9698043E-14
 -0.3000000     -2.7204925E-14
 -0.2400000     -2.9666543E-14
 -0.1800000     -2.3963496E-14
 -0.1200000     -8.4960225E-15
 -5.9999999E-02  1.5532700E-14
  0.0000000E+00  4.3497242E-14
  5.9999999E-02  6.7930382E-14
  0.1200000      8.0417945E-14
  0.1800000      7.4313541E-14
  0.2400000      4.7282338E-14
  0.3000000      2.6070249E-15
  0.3600000     -5.1345772E-14
  0.4200000     -1.0328054E-13
  0.4800000     -1.4179027E-13
  0.5400000     -1.5766201E-13
  0.6000000     -1.4498000E-13
  0.6600000     -1.0125232E-13
  0.7200000     -2.7537212E-14
  0.7800000      7.0458281E-14
  0.8400000      1.8026143E-13
  0.9000000      2.8084661E-13
  0.9600000      3.4348032E-13
   1.020000      3.3715926E-13
   1.080000      2.3873210E-13
   1.140000      4.5066615E-14
   1.200000     -2.1760077E-13
   1.260000     -4.9235182E-13
   1.320000     -7.0139738E-13
   1.380000     -7.6606993E-13
   1.440000     -6.3172471E-13
   1.500000     -2.8953917E-13
   1.560000      2.1266536E-13
   1.620000      7.7538990E-13
   1.680000      1.2681560E-12
   1.740000      1.5609792E-12
   1.800000      1.5583157E-12
   1.860000      1.2262518E-12
   1.920000      6.0518593E-13
   1.980000     -1.9645082E-13
   2.040000     -1.0275025E-12
   2.100000     -1.7337668E-12
   2.160000     -2.2029936E-12
   2.220000     -2.4030270E-12
   2.280000     -2.4001111E-12
   2.340000     -2.3469382E-12
   2.400000     -2.4363660E-12
   2.460000     -2.8261870E-12
   2.520000     -3.5509126E-12
   2.580000     -4.4453902E-12
   2.640000     -5.1088283E-12
   2.700000     -4.9341924E-12
   2.760000     -3.2158551E-12
   2.820000      6.7046282E-13
   2.880000      7.0433017E-12
   2.940000      1.5693289E-11
   3.000000      2.5719643E-11
   3.060000      3.5477291E-11
   3.120000      4.2667023E-11
   3.180000      4.4569990E-11
   3.240000      3.8393004E-11
   3.300000      2.1662935E-11
   3.360000     -7.4042014E-12
   3.420000     -4.9627250E-11
   3.480000     -1.0472051E-10
   3.540000     -1.7130090E-10
   3.600000     -2.4701866E-10
   3.660000     -3.2876674E-10
   3.720000     -4.1291762E-10
   3.780000     -4.9554671E-10
   3.840000     -5.7262278E-10
   3.900000     -6.4016931E-10
   3.960000     -6.9441985E-10
   4.020000     -7.3200018E-10
   4.080000     -7.5016177E-10
   4.140000     -7.4707462E-10
   4.200000     -7.2215589E-10
   4.260000     -6.7638328E-10
   4.320000     -6.1251343E-10
   4.380000     -5.3511939E-10
   4.440000     -4.5037232E-10
   4.500000     -3.6553630E-10
   4.560000     -2.8820657E-10
   4.620000     -2.2539405E-10
   4.680000     -1.8261591E-10
   4.740000     -1.6317214E-10
   4.800000     -1.6775788E-10
   4.860000     -1.9448106E-10
   4.920000     -2.3925345E-10
   4.980000     -2.9643363E-10
   5.040000     -3.5956024E-10
   5.100000     -4.2203643E-10
   5.160000     -4.7769949E-10
   5.220000     -5.2129001E-10
   5.280000     -5.4888111E-10
   5.340000     -5.5831173E-10
   5.400000     -5.4959282E-10
   5.460000     -5.2517013E-10
   5.520000     -4.8987697E-10
   5.580000     -4.5044216E-10
   5.640000     -4.1452902E-10
   5.700000     -3.8943562E-10
   5.760000     -3.8071843E-10
   5.820000     -3.9105855E-10
   5.880000     -4.1964338E-10
   5.940000     -4.6220627E-10
   6.000000     -5.1169197E-10
   6.060000     -5.5936622E-10
   6.120000     -5.9609823E-10
   6.180000     -6.1353977E-10
   6.240000     -6.0499594E-10
   6.300000     -5.6590355E-10
   6.360000     -4.9396481E-10
   6.420000     -3.8909095E-10
   6.480000     -2.5336286E-10
   6.540000     -9.1193449E-11
   6.600000      9.0223051E-11
   6.660000      2.8024158E-10
   6.720000      4.6410523E-10
   6.780000      6.2264011E-10
   6.840000      7.3267203E-10
   6.900000      7.6842882E-10
   6.960000      7.0397821E-10
   7.020000      5.1648402E-10
   7.080000      1.8982078E-10
   7.140000     -2.8205802E-10
   7.200000     -8.9259627E-10
   7.260000     -1.6214156E-09
   7.320000     -2.4346130E-09
   7.380000     -3.2865377E-09
   7.440000     -4.1227830E-09
   7.500000     -4.8840065E-09
   7.560000     -5.5101350E-09
   7.620000     -5.9445551E-09
   7.680000     -6.1379248E-09
   7.740000     -6.0513385E-09
   7.800000     -5.6586362E-09
   7.860000     -4.9477240E-09
   7.920000     -3.9208010E-09
   7.980000     -2.5934650E-09
   8.040000     -9.9269215E-10
   8.100000      8.4619012E-10
   8.160000      2.8832763E-09
   8.220000      5.0781370E-09
   8.280000      7.3935067E-09
   8.340000      9.7978790E-09
   8.400000      1.2266457E-08
   8.460000      1.4780242E-08
   8.520000      1.7323606E-08
   8.580000      1.9881130E-08
   8.640000      2.2434769E-08
   8.700000      2.4962233E-08
   8.760000      2.7437023E-08
   8.820000      2.9829895E-08
   8.880000      3.2110975E-08
   8.940000      3.4251546E-08
   9.000000      3.6224694E-08
   9.060000      3.8004501E-08
   9.120000      3.9564100E-08
   9.180000      4.0873378E-08
   9.240000      4.1897401E-08
   9.300000      4.2596511E-08
   9.360000      4.2928757E-08
   9.420000      4.2854733E-08
   9.480000      4.2344311E-08
   9.540000      4.1384130E-08
   9.600000      3.9984215E-08
   9.660000      3.8181931E-08
   9.720000      3.6041822E-08
   9.780000      3.3650466E-08
   9.840000      3.1106826E-08
   9.900000      2.8509586E-08
   9.960000      2.5943985E-08
   10.02000      2.3470971E-08
   10.08000      2.1121018E-08
   10.14000      1.8893896E-08
   10.20000      1.6764279E-08
   10.26000      1.4691638E-08
   10.32000      1.2632130E-08
   10.38000      1.0549742E-08
   10.44000      8.4245046E-09
   10.50000      6.2563399E-09
   10.56000      4.0642498E-09
   10.62000      1.8815900E-09
   10.68000     -2.5102892E-10
   10.74000     -2.2932929E-09
   10.80000     -4.2113664E-09
   10.86000     -5.9814513E-09
   10.92000     -7.5903550E-09
   10.98000     -9.0336334E-09
   11.04000     -1.0312585E-08
   11.10000     -1.1431571E-08
   11.16000     -1.2396758E-08
   11.22000     -1.3216567E-08
   11.28000     -1.3903214E-08
   11.34000     -1.4474085E-08
   11.40000     -1.4951667E-08
   11.46000     -1.5361307E-08
   11.52000     -1.5726993E-08
   11.58000     -1.6066306E-08
   11.64000     -1.6386144E-08
   11.70000     -1.6680898E-08
   11.76000     -1.6933987E-08
   11.82000     -1.7122840E-08
   11.88000     -1.7226352E-08
   11.94000     -1.7233024E-08
   12.00000     -1.7147665E-08
   12.06000     -1.6994635E-08
   12.12000     -1.6816321E-08
   12.18000     -1.6666656E-08
   12.24000     -1.6600890E-08
   12.30000     -1.6664048E-08
   12.36000     -1.6881090E-08
   12.42000     -1.7251580E-08
   12.48000     -1.7750441E-08
   12.54000     -1.8334514E-08
   12.60000     -1.8952935E-08
   12.66000     -1.9558074E-08
   12.72000     -2.0113831E-08
   12.78000     -2.0598986E-08
   12.84000     -2.1005119E-08
   12.90000     -2.1330322E-08
   12.96000     -2.1571266E-08
   13.02000     -2.1716502E-08
   13.08000     -2.1743450E-08
   13.14000     -2.1620169E-08
   13.20000     -2.1311603E-08
   13.26000     -2.0788459E-08
   13.32000     -2.0035948E-08
   13.38000     -1.9059490E-08
   13.44000     -1.7885124E-08
   13.50000     -1.6553948E-08
   13.56000     -1.5111691E-08
   13.62000     -1.3596396E-08
   13.68000     -1.2027962E-08
   13.74000     -1.0403143E-08
   13.80000     -8.6980503E-09
   13.86000     -6.8779080E-09
   13.92000     -4.9115161E-09
   13.98000     -2.7861957E-09
   14.04000     -5.1869098E-10
   14.10000      1.8414988E-09
   14.16000      4.2177919E-09
   14.22000      6.5201400E-09
   14.28000      8.6633216E-09
   14.34000      1.0585303E-08
   14.40000      1.2260956E-08
   14.46000      1.3707451E-08
   14.52000      1.4979765E-08
   14.58000      1.6157193E-08
   14.64000      1.7324133E-08
   14.70000      1.8549946E-08
   14.76000      1.9872999E-08
   14.82000      2.1292893E-08
   14.88000      2.2772591E-08
   14.94000      2.4249408E-08
   15.00000      2.5651321E-08
   15.06000      2.6913627E-08
   15.12000      2.7991106E-08
   15.18000      2.8862511E-08
   15.24000      2.9526744E-08
   15.30000      2.9992947E-08
   15.36000      3.0268719E-08
   15.42000      3.0351224E-08
   15.48000      3.0224985E-08
   15.54000      2.9867685E-08
   15.60000      2.9262448E-08
   15.66000      2.8412536E-08
   15.72000      2.7353209E-08
   15.78000      2.6156050E-08
   15.84000      2.4923239E-08
   15.90000      2.3772335E-08
   15.96000      2.2815176E-08
   16.02000      2.2136451E-08
   16.08000      2.1777792E-08
   16.14000      2.1731609E-08
   16.20000      2.1946185E-08
   16.26000      2.2340263E-08
   16.32000      2.2822737E-08
   16.38000      2.3311838E-08
   16.44000      2.3748527E-08
   16.50000      2.4100881E-08
   16.56000      2.4359045E-08
   16.62000      2.4523365E-08
   16.68000      2.4590520E-08
   16.74000      2.4543020E-08
   16.80000      2.4346450E-08
   16.86000      2.3956192E-08
   16.92000      2.3332001E-08
   16.98000      2.2455978E-08
   17.04000      2.1347830E-08
   17.10000      2.0071816E-08
   17.16000      1.8732063E-08
   17.22000      1.7456504E-08
   17.28000      1.6373136E-08
   17.34000      1.5584753E-08
   17.40000      1.5148769E-08
   17.46000      1.5067313E-08
   17.52000      1.5289826E-08
   17.58000      1.5727043E-08
   17.64000      1.6272205E-08
   17.70000      1.6823863E-08
   17.76000      1.7304510E-08
   17.82000      1.7670965E-08
   17.88000      1.7914886E-08
   17.94000      1.8054697E-08
   18.00000      1.8122440E-08
   18.06000      1.8150098E-08
   18.12000      1.8159552E-08
   18.18000      1.8158591E-08
   18.24000      1.8143050E-08
   18.30000      1.8102954E-08
   18.36000      1.8029352E-08
   18.42000      1.7918630E-08
   18.48000      1.7772519E-08
   18.54000      1.7594017E-08
   18.60000      1.7381234E-08
   18.66000      1.7122170E-08
   18.72000      1.6792963E-08
   18.78000      1.6360975E-08
   18.84000      1.5792082E-08
   18.90000      1.5060012E-08
   18.96000      1.4154743E-08
   19.02000      1.3087220E-08
   19.08000      1.1888716E-08
   19.14000      1.0604785E-08
   19.20000      9.2853050E-09
   19.26000      7.9731075E-09
   19.32000      6.6940493E-09
   19.38000      5.4508194E-09
   19.44000      4.2217527E-09
   19.50000      2.9645582E-09
   19.56000      1.6237153E-09
   19.62000      1.3959828E-10
   19.68000     -1.5426674E-09
   19.74000     -3.4661065E-09
   19.80000     -5.6572302E-09
   19.86000     -8.1237319E-09
   19.92000     -1.0854032E-08
   19.98000     -1.3818179E-08
   20.04000     -1.6969869E-08
   20.10000     -2.0249763E-08
   20.16000     -2.3590236E-08
   20.22000     -2.6921578E-08
   20.28000     -3.0179020E-08
   20.34000     -3.3309526E-08
   20.40000     -3.6277076E-08
   20.46000     -3.9065377E-08
   20.52000     -4.1677612E-08
   20.58000     -4.4133550E-08
   20.64000     -4.6465040E-08
   20.70000     -4.8710948E-08
   20.76000     -5.0912565E-08
   20.82000     -5.3109822E-08
   20.88000     -5.5338162E-08
   20.94000     -5.7625677E-08
   21.00000     -5.9990086E-08
   21.06000     -6.2435461E-08
   21.12000     -6.4949404E-08
   21.18000     -6.7501446E-08
   21.24000     -7.0044059E-08
   21.30000     -7.2516912E-08
   21.36000     -7.4854384E-08
   21.42000     -7.6995434E-08
   21.48000     -7.8893514E-08
   21.54000     -8.0524210E-08
   21.60000     -8.1888068E-08
   21.66000     -8.3007500E-08
   21.72000     -8.3917847E-08
   21.78000     -8.4654758E-08
   21.84000     -8.5241119E-08
   21.90000     -8.5677009E-08
   21.96000     -8.5935753E-08
   22.02000     -8.5967244E-08
   22.08000     -8.5707889E-08
   22.14000     -8.5094719E-08
   22.20000     -8.4080156E-08
   22.26000     -8.2643872E-08
   22.32000     -8.0799026E-08
   22.38000     -7.8591917E-08
   22.44000     -7.6095681E-08
   22.50000     -7.3400045E-08
   22.56000     -7.0600038E-08
   22.62000     -6.7786083E-08
   22.68000     -6.5037341E-08
   22.74000     -6.2418543E-08
   22.80000     -5.9979719E-08
   22.86000     -5.7757131E-08
   22.92000     -5.5773977E-08
   22.98000     -5.4039823E-08
   23.04000     -5.2548863E-08
   23.10000     -5.1278143E-08
   23.16000     -5.0187495E-08
   23.22000     -4.9222866E-08
   23.28000     -4.8323848E-08
   23.34000     -4.7434796E-08
   23.40000     -4.6517410E-08
   23.46000     -4.5561535E-08
   23.52000     -4.4590781E-08
   23.58000     -4.3660702E-08
   23.64000     -4.2848974E-08
   23.70000     -4.2239456E-08
   23.76000     -4.1903977E-08
   23.82000     -4.1886452E-08
   23.88000     -4.2193559E-08
   23.94000     -4.2794316E-08
   24.00000     -4.3628479E-08
   24.06000     -4.4621313E-08
   24.12000     -4.5700578E-08
   24.18000     -4.6811493E-08
   24.24000     -4.7926086E-08
   24.30000     -4.9045330E-08
   24.36000     -5.0194288E-08
   24.42000     -5.1412350E-08
   24.48000     -5.2741505E-08
   24.54000     -5.4215739E-08
   24.60000     -5.5853985E-08
   24.66000     -5.7657584E-08
   24.72000     -5.9612006E-08
   24.78000     -6.1691097E-08
   24.84000     -6.3861748E-08
   24.90000     -6.6086912E-08
   24.96000     -6.8326173E-08
   25.02000     -7.0534362E-08
   25.08000     -7.2659986E-08
   25.14000     -7.4645946E-08
   25.20000     -7.6434013E-08
   25.26000     -7.7973333E-08
   25.32000     -7.9230780E-08
   25.38000     -8.0199747E-08
   25.44000     -8.0903412E-08
   25.50000     -8.1389857E-08
   25.56000     -8.1718845E-08
   25.62000     -8.1943185E-08
   25.68000     -8.2089784E-08
   25.74000     -8.2146393E-08
   25.80000     -8.2058875E-08
   25.86000     -8.1740744E-08
   25.92000     -8.1093326E-08
   25.98000     -8.0031185E-08
   26.04000     -7.8505700E-08
   26.10000     -7.6519896E-08
   26.16000     -7.4130035E-08
   26.22000     -7.1433199E-08
   26.28000     -6.8544288E-08
   26.34000     -6.5569168E-08
   26.40000     -6.2581414E-08
   26.46000     -5.9609228E-08
   26.52000     -5.6635699E-08
   26.58000     -5.3611522E-08
   26.64000     -5.0475645E-08
   26.70000     -4.7177181E-08
   26.76000     -4.3692186E-08
   26.82000     -4.0030809E-08
   26.88000     -3.6233825E-08
   26.94000     -3.2360823E-08
   27.00000     -2.8474817E-08
   27.06000     -2.4628648E-08
   27.12000     -2.0857447E-08
   27.18000     -1.7179067E-08
   27.24000     -1.3601319E-08
   27.30000     -1.0132505E-08
   27.36000     -6.7904669E-09
   27.42000     -3.6059964E-09
   27.48000     -6.1846145E-10
   27.54000      2.1354805E-09
   27.60000      4.6363944E-09
   27.66000      6.8944206E-09
   27.72000      8.9542116E-09
   27.78000      1.0889265E-08
   27.84000      1.2785789E-08
   27.90000      1.4719872E-08
   27.96000      1.6734324E-08
   28.02000      1.8822353E-08
   28.08000      2.0923702E-08
   28.14000      2.2935538E-08
   28.20000      2.4736146E-08
   28.26000      2.6215496E-08
   28.32000      2.7304411E-08
   28.38000      2.7993943E-08
   28.44000      2.8338951E-08
   28.50000      2.8444145E-08
   28.56000      2.8435869E-08
   28.62000      2.8427177E-08
   28.68000      2.8486099E-08
   28.74000      2.8616348E-08
   28.80000      2.8756505E-08
   28.86000      2.8798345E-08
   28.92000      2.8619457E-08
   28.98000      2.8120882E-08
   29.04000      2.7258915E-08
   29.10000      2.6061697E-08
   29.16000      2.4625560E-08
   29.22000      2.3091886E-08
   29.28000      2.1610898E-08
   29.34000      2.0302569E-08
   29.40000      1.9225673E-08
   29.46000      1.8363673E-08
   29.52000      1.7631315E-08
   29.58000      1.6899747E-08
   29.64000      1.6032683E-08
   29.70000      1.4922897E-08
   29.76000      1.3518339E-08
   29.82000      1.1830413E-08
   29.88000      9.9225801E-09
   29.94000      7.8836280E-09
   30.00000      5.7949405E-09
   30.06000      3.7029575E-09
   30.12000      1.6062766E-09
   30.18000     -5.3823423E-10
   30.24000     -2.7926066E-09
   30.30000     -5.2065658E-09
   30.36000     -7.7895299E-09
   30.42000     -1.0496585E-08
   30.48000     -1.3234476E-08
   30.54000     -1.5886577E-08
   30.60000     -1.8348835E-08
   30.66000     -2.0564338E-08
   30.72000     -2.2544103E-08
   30.78000     -2.4366008E-08
   30.84000     -2.6151115E-08
   30.90000     -2.8024392E-08
   30.96000     -3.0072307E-08
   31.02000     -3.2311160E-08
   31.08000     -3.4676653E-08
   31.14000     -3.7038426E-08
   31.20000     -3.9235214E-08
   31.26000     -4.1119801E-08
   31.32000     -4.2599844E-08
   31.38000     -4.3662030E-08
   31.44000     -4.4372459E-08
   31.50000     -4.4853429E-08
   31.56000     -4.5244217E-08
   31.62000     -4.5658140E-08
   31.68000     -4.6149115E-08
   31.74000     -4.6697810E-08
   31.80000     -4.7221103E-08
   31.86000     -4.7601098E-08
   31.92000     -4.7723844E-08
   31.98000     -4.7514835E-08
   32.04000     -4.6959780E-08
   32.10000     -4.6104258E-08
   32.16000     -4.5033090E-08
   32.22000     -4.3837357E-08
   32.28000     -4.2581085E-08
   32.34000     -4.1279538E-08
   32.40000     -3.9896886E-08
   32.46000     -3.8364078E-08
   32.52000     -3.6610505E-08
   32.58000     -3.4598404E-08
   32.64000     -3.2347838E-08
   32.70000     -2.9943362E-08
   32.76000     -2.7519759E-08
   32.82000     -2.5230806E-08
   32.88000     -2.3210678E-08
   32.94000     -2.1539638E-08
   33.00000     -2.0224240E-08
   33.06000     -1.9197818E-08
   33.12000     -1.8340989E-08
   33.18000     -1.7516234E-08
   33.24000     -1.6606789E-08
   33.30000     -1.5549064E-08
   33.36000     -1.4349825E-08
   33.42000     -1.3083699E-08
   33.48000     -1.1872058E-08
   33.54000     -1.0849524E-08
   33.60000     -1.0127747E-08
   33.66000     -9.7668993E-09
   33.72000     -9.7629735E-09
   33.78000     -1.0054300E-08
   33.84000     -1.0544798E-08
   33.90000     -1.1136298E-08
   33.96000     -1.1759390E-08
   34.02000     -1.2392749E-08
   34.08000     -1.3064752E-08
   34.14000     -1.3837129E-08
   34.20000     -1.4776550E-08
   34.26000     -1.5924227E-08
   34.32000     -1.7274346E-08
   34.38000     -1.8769208E-08
   34.44000     -2.0313280E-08
   34.50000     -2.1801863E-08
   34.56000     -2.3155124E-08
   34.62000     -2.4346273E-08
   34.68000     -2.5414414E-08
   34.74000     -2.6457455E-08
   34.80000     -2.7606623E-08
   34.86000     -2.8989826E-08
   34.92000     -3.0694441E-08
   34.98000     -3.2740196E-08
   35.04000     -3.5069775E-08
   35.10000     -3.7559694E-08
   35.16000     -4.0048263E-08
   35.22000     -4.2372864E-08
   35.28000     -4.4406534E-08
   35.34000     -4.6084434E-08
   35.40000     -4.7413728E-08
   35.46000     -4.8465218E-08
   35.52000     -4.9349840E-08
   35.58000     -5.0187047E-08
   35.64000     -5.1073897E-08
   35.70000     -5.2062930E-08
   35.76000     -5.3154075E-08
   35.82000     -5.4301541E-08
   35.88000     -5.5432402E-08
   35.94000     -5.6470373E-08
   36.00000     -5.7357344E-08
   36.06000     -5.8066473E-08
   36.12000     -5.8603991E-08
   36.18000     -5.9000659E-08
   36.24000     -5.9297292E-08
   36.30000     -5.9530191E-08
   36.36000     -5.9721856E-08
   36.42000     -5.9879646E-08
   36.48000     -6.0001874E-08
   36.54000     -6.0087721E-08
   36.60000     -6.0146149E-08
   36.66000     -6.0199518E-08
   36.72000     -6.0279802E-08
   36.78000     -6.0418586E-08
   36.84000     -6.0634349E-08
   36.90000     -6.0921913E-08
   36.96000     -6.1248151E-08
   37.02000     -6.1556143E-08
   37.08000     -6.1777001E-08
   37.14000     -6.1846102E-08
   37.20000     -6.1719049E-08
   37.26000     -6.1382835E-08
   37.32000     -6.0859115E-08
   37.38000     -6.0198666E-08
   37.44000     -5.9468810E-08
   37.50000     -5.8737054E-08
   37.56000     -5.8055463E-08
   37.62000     -5.7449626E-08
   37.68000     -5.6915081E-08
   37.74000     -5.6421751E-08
   37.80000     -5.5925014E-08
   37.86000     -5.5379815E-08
   37.92000     -5.4753588E-08
   37.98000     -5.4033940E-08
   38.04000     -5.3228732E-08
   38.10000     -5.2358740E-08
   38.16000     -5.1445735E-08
   38.22000     -5.0500354E-08
   38.28000     -4.9514409E-08
   38.34000     -4.8460539E-08
   38.40000     -4.7299512E-08
   38.46000     -4.5992461E-08
   38.52000     -4.4513605E-08
   38.58000     -4.2858815E-08
   38.64000     -4.1047070E-08
   38.70000     -3.9114639E-08
   38.76000     -3.7104311E-08
   38.82000     -3.5053606E-08
   38.88000     -3.2985930E-08
   38.94000     -3.0906950E-08
   39.00000     -2.8806571E-08
   39.06000     -2.6664763E-08
   39.12000     -2.4458764E-08
   39.18000     -2.2169251E-08
   39.24000     -1.9784206E-08
   39.30000     -1.7300414E-08
   39.36000     -1.4723426E-08
   39.42000     -1.2067003E-08
   39.48000     -9.3526227E-09
   39.54000     -6.6089627E-09
   39.60000     -3.8707668E-09
   39.66000     -1.1763857E-09
   39.72000      1.4362663E-09
   39.78000      3.9349008E-09
   39.84000      6.2980825E-09
   39.90000      8.5190335E-09
   39.96000      1.0606699E-08
   40.02000      1.2583347E-08
   40.08000      1.4478875E-08
   40.14000      1.6322817E-08
   40.20000      1.8135742E-08
   40.26000      1.9921954E-08
   40.32000      2.1665288E-08
   40.38000      2.3329212E-08
   40.44000      2.4861656E-08
   40.50000      2.6203917E-08
   40.56000      2.7302073E-08
   40.62000      2.8118384E-08
   40.68000      2.8639938E-08
   40.74000      2.8882106E-08
   40.80000      2.8885429E-08
   40.86000      2.8706415E-08
   40.92000      2.8404310E-08
   40.98000      2.8027385E-08
   41.04000      2.7602397E-08
   41.10000      2.7130028E-08
   41.16000      2.6587202E-08
   41.22000      2.5935149E-08
   41.28000      2.5130513E-08
   41.34000      2.4136268E-08
   41.40000      2.2929756E-08
   41.46000      2.1506445E-08
   41.52000      1.9879383E-08
   41.58000      1.8075349E-08
   41.64000      1.6129169E-08
   41.70000      1.4077659E-08
   41.76000      1.1954324E-08
   41.82000      9.7856754E-09
   41.88000      7.5896152E-09
   41.94000      5.3758868E-09
   42.00000      3.1480283E-09
   42.06000      9.0576058E-10
   42.12000     -1.3534415E-09
   42.18000     -3.6344734E-09
   42.24000     -5.9464003E-09
   42.30000     -8.3048430E-09
   42.36000     -1.0733188E-08
   42.42000     -1.3261032E-08
   42.48000     -1.5919369E-08
   42.54000     -1.8733640E-08
   42.60000     -2.1717216E-08
   42.66000     -2.4868294E-08
   42.72000     -2.8172449E-08
   42.78000     -3.1611179E-08
   42.84000     -3.5174644E-08
   42.90000     -3.8875129E-08
   42.96000     -4.2757314E-08
   43.02000     -4.6902215E-08
   43.08000     -5.1423761E-08
   43.14000     -5.6459061E-08
   43.20000     -6.2155507E-08
   43.26000     -6.8658984E-08
   43.32000     -7.6107320E-08
   43.38000     -8.4632077E-08
   43.44000     -9.4369334E-08
   43.50000     -1.0547809E-07
   43.56000     -1.1816235E-07
   43.62000     -1.3269178E-07
   43.68000     -1.4941621E-07
   43.74000     -1.6877092E-07
   43.80000     -1.9127266E-07
   43.86000     -2.1750945E-07
   43.92000     -2.4813002E-07
   43.98000     -2.8383869E-07
   44.04000     -3.2540115E-07
   44.10000     -3.7366252E-07
   44.16000     -4.2957717E-07
   44.22000     -4.9424432E-07
   44.28000     -5.6894436E-07
   44.34000     -6.5516855E-07
   44.40000     -7.5463799E-07
   44.46000     -8.6931090E-07
   44.52000     -1.0013807E-06
   44.58000     -1.1532711E-06
   44.64000     -1.3276335E-06
   44.70000     -1.5273574E-06
   44.76000     -1.7555935E-06
   44.82000     -2.0157927E-06
   44.88000     -2.3117559E-06
   44.94000     -2.6476857E-06
   45.00000     -3.0282340E-06
   45.06000     -3.4585369E-06
   45.12000     -3.9442330E-06
   45.18000     -4.4914700E-06
   45.24000     -5.1069042E-06
   45.30000     -5.7976963E-06
   45.36000     -6.5715199E-06
   45.42000     -7.4365753E-06
   45.48000     -8.4016156E-06
   45.54000     -9.4759735E-06
   45.60000     -1.0669587E-05
   45.66000     -1.1993011E-05
   45.72000     -1.3457411E-05
   45.78000     -1.5074544E-05
   45.84000     -1.6856717E-05
   45.90000     -1.8816751E-05
   45.96000     -2.0967933E-05
   46.02000     -2.3323975E-05
   46.08000     -2.5898984E-05
   46.14000     -2.8707414E-05
   46.20000     -3.1764044E-05
   46.26000     -3.5083907E-05
   46.32000     -3.8682225E-05
   46.38000     -4.2574309E-05
   46.44000     -4.6775440E-05
   46.50000     -5.1300733E-05
   46.56000     -5.6164983E-05
   46.62000     -6.1382525E-05
   46.68000     -6.6967092E-05
   46.74000     -7.2931667E-05
   46.80000     -7.9288387E-05
   46.86000     -8.6048341E-05
   46.92000     -9.3221519E-05
   46.98000     -1.0081662E-04
   47.04000     -1.0884098E-04
   47.10000     -1.1730030E-04
   47.16000     -1.2619863E-04
   47.22000     -1.3553812E-04
   47.28000     -1.4531892E-04
   47.34000     -1.5553900E-04
   47.40000     -1.6619412E-04
   47.46000     -1.7727764E-04
   47.52000     -1.8878053E-04
   47.58000     -2.0069125E-04
   47.64000     -2.1299586E-04
   47.70000     -2.2567781E-04
   47.76000     -2.3871816E-04
   47.82000     -2.5209549E-04
   47.88000     -2.6578608E-04
   47.94000     -2.7976395E-04
   48.00000     -2.9400096E-04
   48.06000     -3.0846699E-04
   48.12000     -3.2313011E-04
   48.18000     -3.3795691E-04
   48.24000     -3.5291244E-04
   48.30000     -3.6796075E-04
   48.36000     -3.8306497E-04
   48.42000     -3.9818764E-04
   48.48000     -4.1329110E-04
   48.54000     -4.2833760E-04
   48.60000     -4.4328990E-04
   48.66000     -4.5811158E-04
   48.72000     -4.7276722E-04
   48.78000     -4.8722301E-04
   48.84000     -5.0144683E-04
   48.90000     -5.1540881E-04
   48.96000     -5.2908115E-04
   49.02000     -5.4243894E-04
   49.08000     -5.5545993E-04
   49.14000     -5.6812516E-04
   49.20000     -5.8041874E-04
   49.26000     -5.9232838E-04
   49.32000     -6.0384528E-04
   49.38000     -6.1496452E-04
   49.44000     -6.2568462E-04
   49.50000     -6.3600810E-04
   49.56000     -6.4594077E-04
   49.62000     -6.5549230E-04
   49.68000     -6.6467549E-04
   49.74000     -6.7350653E-04
   49.80000     -6.8200426E-04
   49.86000     -6.9019030E-04
   49.92000     -6.9808855E-04
   49.98000     -7.0572499E-04
   50.04000     -7.1312708E-04
   50.10000     -7.2032353E-04
   50.16000     -7.2734378E-04
   50.22000     -7.3421752E-04
   50.28000     -7.4097433E-04
   50.34000     -7.4764329E-04
   50.40000     -7.5425243E-04
   50.46000     -7.6082838E-04
   50.52000     -7.6739583E-04
   50.58000     -7.7397737E-04
   50.64000     -7.8059279E-04
   50.70000     -7.8725920E-04
   50.76000     -7.9399039E-04
   50.82000     -8.0079678E-04
   50.88000     -8.0768508E-04
   50.94000     -8.1465842E-04
   51.00000     -8.2171586E-04
   51.06000     -8.2885282E-04
   51.12000     -8.3606073E-04
   51.18000     -8.4332738E-04
   51.24000     -8.5063692E-04
   51.30000     -8.5796998E-04
   51.36000     -8.6530414E-04
   51.42000     -8.7261433E-04
   51.48000     -8.7987253E-04
   51.54000     -8.8704901E-04
   51.60000     -8.9411199E-04
   51.66000     -9.0102863E-04
   51.72000     -9.0776518E-04
   51.78000     -9.1428764E-04
   51.84000     -9.2056219E-04
   51.90000     -9.2655583E-04
   51.96000     -9.3223655E-04
   52.02000     -9.3757402E-04
   52.08000     -9.4253948E-04
   52.14000     -9.4710721E-04
   52.20000     -9.5125358E-04
   52.26000     -9.5495855E-04
   52.32000     -9.5820514E-04
   52.38000     -9.6098008E-04
   52.44000     -9.6327387E-04
   52.50000     -9.6508086E-04
   52.56000     -9.6639938E-04
   52.62000     -9.6723170E-04
   52.68000     -9.6758391E-04
   52.74000     -9.6746604E-04
   52.80000     -9.6689153E-04
   52.86000     -9.6587732E-04
   52.92000     -9.6444337E-04
   52.98000     -9.6261228E-04
   53.04000     -9.6040906E-04
   53.10000     -9.5786067E-04
   53.16000     -9.5499586E-04
   53.22000     -9.5184433E-04
   53.28000     -9.4843667E-04
   53.34000     -9.4480347E-04
   53.40000     -9.4097515E-04
   53.46000     -9.3698152E-04
   53.52000     -9.3285082E-04
   53.58000     -9.2860992E-04
   53.64000     -9.2428387E-04
   53.70000     -9.1989525E-04
   53.76000     -9.1546448E-04
   53.82000     -9.1100886E-04
   53.88000     -9.0654270E-04
   53.94000     -9.0207724E-04
   54.00000     -8.9762028E-04
   54.06000     -8.9317624E-04
   54.12000     -8.8874617E-04
   54.18000     -8.8432786E-04
   54.24000     -8.7991625E-04
   54.30000     -8.7550317E-04
   54.36000     -8.7107776E-04
   54.42000     -8.6662685E-04
   54.48000     -8.6213514E-04
   54.54000     -8.5758546E-04
   54.60000     -8.5295917E-04
   54.66000     -8.4823667E-04
   54.72000     -8.4339769E-04
   54.78000     -8.3842169E-04
   54.84000     -8.3328859E-04
   54.90000     -8.2797895E-04
   54.96000     -8.2247448E-04
   55.02000     -8.1675837E-04
   55.08000     -8.1081555E-04
   55.14000     -8.0463302E-04
   55.20000     -7.9820014E-04
   55.26000     -7.9150900E-04
   55.32000     -7.8455458E-04
   55.38000     -7.7733508E-04
   55.44000     -7.6985167E-04
   55.50000     -7.6210918E-04
   55.56000     -7.5411535E-04