  -2.400000      0.0000000E+00
  -2.340000      0.0000000E+00
  -2.280000      0.0000000E+00
  -2.220000      0.0000000E+00
  -2.160000      0.0000000E+00
  -2.100000     -1.6879393E-20
  -2.040000     -1.6125435E-19
  -1.980000     -7.7879753E-19
  -1.920000     -2.4530912E-18
  -1.860000     -5.3554527E-18
  -1.800000     -7.4515209E-18
  -1.740000     -2.0834366E-18
  -1.680000      2.2464809E-17
  -1.620000      7.7031870E-17
  -1.560000      1.5628392E-16
  -1.500000      2.1808158E-16
  -1.440000      1.7278674E-16
  -1.380000     -9.4232290E-17
  -1.320000     -6.5049690E-16
  -1.260000     -1.4075778E-15
  -1.200000     -2.0329612E-15
  -1.140000     -1.9731990E-15
  -1.080000     -6.6325189E-16
  -1.020000      2.0907856E-15
 -0.9600000      5.7086073E-15
 -0.9000000      8.6841096E-15
 -0.8400000      8.9517559E-15
 -0.7800000      4.8380159E-15
 -0.7200000     -3.6946828E-15
 -0.6600000     -1.4157998E-14
 -0.6000000     -2.1750961E-14
 -0.5400000     -2.1086445E-14
 -0.4800000     -9.0786558E-15
 -0.4200000      1.2238994E-14
 -0.3600000      3.4682076E-14
 -0.3000000      4.6018426E-14
 -0.2400000      3.5232905E-14
 -0.1800000     -8.5038095E-16
 -0.1200000     -5.2824319E-14
 -5.9999999E-02 -9.9137671E-14
  0.0000000E+00 -1.1325417E-13
  5.9999999E-02 -7.5904608E-14
  0.1200000      1.2419013E-14
  0.1800000      1.2514297E-13
  0.2400000      2.1453957E-13
  0.3000000      2.2872608E-13
  0.3600000      1.3587779E-13
  0.4200000     -5.3835422E-14
  0.4800000     -2.7927706E-13
  0.5400000     -4.3966160E-13
  0.6000000     -4.2636364E-13
  0.6600000     -1.6708488E-13
  0.7200000      3.3205911E-13
  0.7800000      9.6264088E-13
  0.8400000      1.5204972E-12
  0.9000000      1.7468772E-12
  0.9600000      1.3982524E-12
   1.020000      3.2993757E-13
   1.080000     -1.4270022E-12
   1.140000     -3.6174085E-12
   1.200000     -5.7609993E-12
   1.260000     -7.2102875E-12
   1.320000     -7.2685321E-12
   1.380000     -5.3556929E-12
   1.440000     -1.1961059E-12
   1.500000      5.0110597E-12
   1.560000      1.2484988E-11
   1.620000      1.9864908E-11
   1.680000      2.5351790E-11
   1.740000      2.6996383E-11
   1.800000      2.3106286E-11
   1.860000      1.2709184E-11
   1.920000     -4.0196358E-12
   1.980000     -2.5471319E-11
   2.040000     -4.8557450E-11
   2.100000     -6.8971336E-11
   2.160000     -8.1771583E-11
   2.220000     -8.2237162E-11
   2.280000     -6.6875873E-11
   2.340000     -3.4413878E-11
   2.400000      1.3433647E-11
   2.460000      7.1600781E-11
   2.520000      1.3185851E-10
   2.580000      1.8360778E-10
   2.640000      2.1523075E-10
   2.700000      2.1585098E-10
   2.760000      1.7727463E-10
   2.820000      9.5846005E-11
   2.880000     -2.6040441E-11
   2.940000     -1.7897928E-10
   3.000000     -3.4627481E-10
   3.060000     -5.0439197E-10
   3.120000     -6.2411470E-10
   3.180000     -6.7234668E-10
   3.240000     -6.1446426E-10
   3.300000     -4.1712397E-10
   3.360000     -5.1405224E-11
   3.420000      5.0387233E-10
   3.480000      1.2588874E-09
   3.540000      2.2099345E-09
   3.600000      3.3373235E-09
   3.660000      4.6044950E-09
   3.720000      5.9587535E-09
   3.780000      7.3338438E-09
   3.840000      8.6543803E-09
   3.900000      9.8417976E-09
   3.960000      1.0821203E-08
   4.020000      1.1528256E-08
   4.080000      1.1915114E-08
   4.140000      1.1954617E-08
   4.200000      1.1642122E-08
   4.260000      1.0994892E-08
   4.320000      1.0049376E-08
   4.380000      8.8571133E-09
   4.440000      7.4801765E-09
   4.500000      5.9869527E-09
   4.560000      4.4487916E-09
   4.620000      2.9374969E-09
   4.680000      1.5232255E-09
   4.740000      2.7206487E-10
   4.800000     -7.5739615E-10
   4.860000     -1.5188010E-09
   4.920000     -1.9837247E-09
   4.980000     -2.1473046E-09
   5.040000     -2.0322477E-09
   5.100000     -1.6895435E-09
   5.160000     -1.1945989E-09
   5.220000     -6.3838956E-10
   5.280000     -1.1440945E-10
   5.340000      2.9659852E-10
   5.400000      5.4125537E-10
   5.460000      6.0433614E-10
   5.520000      5.1303339E-10
   5.580000      3.3316874E-10
   5.640000      1.5750462E-10
   5.700000      8.8102373E-11
   5.760000      2.1614811E-10
   5.820000      6.0343741E-10
   5.880000      1.2695408E-09
   5.940000      2.1875535E-09
   6.000000      3.2894916E-09
   6.060000      4.4802460E-09
   6.120000      5.6570451E-09
   6.180000      6.7300898E-09
   6.240000      7.6397244E-09
   6.300000      8.3662979E-09
   6.360000      8.9305807E-09
   6.420000      9.3848627E-09
   6.480000      9.7970787E-09
   6.540000      1.0232000E-08
   6.600000      1.0734199E-08
   6.660000      1.1317002E-08
   6.720000      1.1960035E-08
   6.780000      1.2615752E-08
   6.840000      1.3222929E-08
   6.900000      1.3723369E-08
   6.960000      1.4077272E-08
   7.020000      1.4273221E-08
   7.080000      1.4330355E-08
   7.140000      1.4292477E-08
   7.200000      1.4216089E-08
   7.260000      1.4155867E-08
   7.320000      1.4151539E-08
   7.380000      1.4219462E-08
   7.440000      1.4350571E-08
   7.500000      1.4514476E-08
   7.560000      1.4667861E-08
   7.620000      1.4764441E-08
   7.680000      1.4763813E-08
   7.740000      1.4637377E-08
   7.800000      1.4370771E-08
   7.860000      1.3963397E-08
   7.920000      1.3426257E-08
   7.980000      1.2779403E-08
   8.040000      1.2049724E-08
   8.100000      1.1269106E-08
   8.160000      1.0472359E-08
   8.220000      9.6941495E-09
   8.280000      8.9644905E-09
   8.340000      8.3031146E-09
   8.400000      7.7138802E-09
   8.460000      7.1810038E-09
   8.520000      6.6689303E-09
   8.580000      6.1270486E-09
   8.640000      5.4992455E-09
   8.700000      4.7367994E-09
   8.760000      3.8117998E-09
   8.820000      2.7275793E-09
   8.880000      1.5228944E-09
   8.940000      2.6781555E-10
   9.000000     -9.4870500E-10
   9.060000     -2.0373323E-09
   9.120000     -2.9287182E-09
   9.180000     -3.5905674E-09
   9.240000     -4.0366195E-09
   9.300000     -4.3245425E-09
   9.360000     -4.5425770E-09
   9.420000     -4.7878834E-09
   9.480000     -5.1420197E-09
   9.540000     -5.6500760E-09
   9.600000     -6.3091359E-09
   9.660000     -7.0692394E-09
   9.720000     -7.8464701E-09
   9.780000     -8.5443368E-09
   9.840000     -9.0773264E-09
   9.900000     -9.3900754E-09
   9.960000     -9.4671853E-09
   10.02000     -9.3316688E-09
   10.08000     -9.0334167E-09
   10.14000     -8.6318241E-09
   10.20000     -8.1780360E-09
   10.26000     -7.7018845E-09
   10.32000     -7.2068165E-09
   10.38000     -6.6735462E-09
   10.44000     -6.0706440E-09
   10.50000     -5.3684732E-09
   10.56000     -4.5521595E-09
   10.62000     -3.6297727E-09
   10.68000     -2.6334068E-09
   10.74000     -1.6129086E-09
   10.80000     -6.2412309E-10
   10.86000      2.8488745E-10
   10.92000      1.0856462E-09
   10.98000      1.7757077E-09
   11.04000      2.3780682E-09
   11.10000      2.9340643E-09
   11.16000      3.4922574E-09
   11.22000      4.0968544E-09
   11.28000      4.7790034E-09
   11.34000      5.5529230E-09
   11.40000      6.4169297E-09
   11.46000      7.3577189E-09
   11.52000      8.3554372E-09
   11.58000      9.3873478E-09
   11.64000      1.0429019E-08
   11.70000      1.1453417E-08
   11.76000      1.2429373E-08
   11.82000      1.3321285E-08
   11.88000      1.4091518E-08
   11.94000      1.4705877E-08
   12.00000      1.5141341E-08
   12.06000      1.5394123E-08
   12.12000      1.5485560E-08
   12.18000      1.5463383E-08
   12.24000      1.5396921E-08
   12.30000      1.5366121E-08
   12.36000      1.5446274E-08
   12.42000      1.5691791E-08
   12.48000      1.6123330E-08
   12.54000      1.6722039E-08
   12.60000      1.7433132E-08
   12.66000      1.8178422E-08
   12.72000      1.8874873E-08
   12.78000      1.9454408E-08
   12.84000      1.9879806E-08
   12.90000      2.0152644E-08
   12.96000      2.0311427E-08
   13.02000      2.0420865E-08
   13.08000      2.0555474E-08
   13.14000      2.0782071E-08
   13.20000      2.1145748E-08
   13.26000      2.1662734E-08
   13.32000      2.2321400E-08
   13.38000      2.3090363E-08
   13.44000      2.3930543E-08
   13.50000      2.4807058E-08
   13.56000      2.5697187E-08
   13.62000      2.6592190E-08
   13.68000      2.7493162E-08
   13.74000      2.8403276E-08
   13.80000      2.9320049E-08
   13.86000      3.0231021E-08
   13.92000      3.1114684E-08
   13.98000      3.1946193E-08
   14.04000      3.2705486E-08
   14.10000      3.3384357E-08
   14.16000      3.3989600E-08
   14.22000      3.4540800E-08
   14.28000      3.5063337E-08
   14.34000      3.5578857E-08
   14.40000      3.6096193E-08
   14.46000      3.6605499E-08
   14.52000      3.7077392E-08
   14.58000      3.7467426E-08
   14.64000      3.7724877E-08
   14.70000      3.7803510E-08
   14.76000      3.7671633E-08
   14.82000      3.7318610E-08
   14.88000      3.6756031E-08
   14.94000      3.6013088E-08
   15.00000      3.5127520E-08
   15.06000      3.4134878E-08
   15.12000      3.3059617E-08
   15.18000      3.1910922E-08
   15.24000      3.0684781E-08
   15.30000      2.9371563E-08
   15.36000      2.7966646E-08
   15.42000      2.6480398E-08
   15.48000      2.4944047E-08
   15.54000      2.3409211E-08
   15.60000      2.1940766E-08
   15.66000      2.0604755E-08
   15.72000      1.9454559E-08
   15.78000      1.8519083E-08
   15.84000      1.7796408E-08
   15.90000      1.7254854E-08
   15.96000      1.6841417E-08
   16.02000      1.6495498E-08
   16.08000      1.6164005E-08
   16.14000      1.5813523E-08
   16.20000      1.5435878E-08
   16.26000      1.5045536E-08
   16.32000      1.4669886E-08
   16.38000      1.4335897E-08
   16.44000      1.4057809E-08
   16.50000      1.3830083E-08
   16.56000      1.3627922E-08
   16.62000      1.3414920E-08
   16.68000      1.3154942E-08
   16.74000      1.2824005E-08
   16.80000      1.2418131E-08
   16.86000      1.1954758E-08
   16.92000      1.1467521E-08
   16.98000      1.0996453E-08
   17.04000      1.0576922E-08
   17.10000      1.0230894E-08
   17.16000      9.9631476E-09
   17.22000      9.7634798E-09
   17.28000      9.6140367E-09
   17.34000      9.4993080E-09
   17.40000      9.4154631E-09
   17.46000      9.3757953E-09
   17.52000      9.4101216E-09
   17.58000      9.5578123E-09
   17.64000      9.8561337E-09
   17.70000      1.0327222E-08
   17.76000      1.0967644E-08
   17.82000      1.1743902E-08
   17.88000      1.2595546E-08
   17.94000      1.3445304E-08
   18.00000      1.4213566E-08
   18.06000      1.4833308E-08
   18.12000      1.5261488E-08
   18.18000      1.5484131E-08
   18.24000      1.5514125E-08
   18.30000      1.5382797E-08
   18.36000      1.5127954E-08
   18.42000      1.4781840E-08
   18.48000      1.4362281E-08
   18.54000      1.3869303E-08
   18.60000      1.3287862E-08
   18.66000      1.2595594E-08
   18.72000      1.1772940E-08
   18.78000      1.0812311E-08
   18.84000      9.7231876E-09
   18.90000      8.5313445E-09
   18.96000      7.2723676E-09
   19.02000      5.9815819E-09
   19.08000      4.6838298E-09
   19.14000      3.3866161E-09
   19.20000      2.0789397E-09
   19.26000      7.3609624E-10
   19.32000     -6.7140460E-10
   19.38000     -2.1680413E-09
   19.44000     -3.7660115E-09
   19.50000     -5.4628004E-09
   19.56000     -7.2440303E-09
   19.62000     -9.0901384E-09
   19.68000     -1.0984168E-08
   19.74000     -1.2917791E-08
   19.80000     -1.4893505E-08
   19.86000     -1.6922446E-08
   19.92000     -1.9018835E-08
   19.98000     -2.1193127E-08
   20.04000     -2.3446210E-08
   20.10000     -2.5766441E-08
   20.16000     -2.8130200E-08
   20.22000     -3.0505333E-08
   20.28000     -3.2856114E-08
   20.34000     -3.5147909E-08
   20.40000     -3.7350322E-08
   20.46000     -3.9438302E-08
   20.52000     -4.1391640E-08
   20.58000     -4.3193843E-08
   20.64000     -4.4831399E-08
   20.70000     -4.6294105E-08
   20.76000     -4.7576471E-08
   20.82000     -4.8679677E-08
   20.88000     -4.9613167E-08
   20.94000     -5.0395162E-08
   21.00000     -5.1051511E-08
   21.06000     -5.1612858E-08
   21.12000     -5.2110568E-08
   21.18000     -5.2572226E-08
   21.24000     -5.3017697E-08
   21.30000     -5.3456819E-08
   21.36000     -5.3889405E-08
   21.42000     -5.4307701E-08
   21.48000     -5.4700575E-08
   21.54000     -5.5058184E-08
   21.60000     -5.5375370E-08
   21.66000     -5.5652524E-08
   21.72000     -5.5893285E-08
   21.78000     -5.6099825E-08
   21.84000     -5.6267353E-08
   21.90000     -5.6379974E-08
   21.96000     -5.6409785E-08
   22.02000     -5.6319969E-08
   22.08000     -5.6071364E-08
   22.14000     -5.5630711E-08
   22.20000     -5.4978194E-08
   22.26000     -5.4112071E-08
   22.32000     -5.3049099E-08
   22.38000     -5.1820624E-08
   22.44000     -5.0465573E-08
   22.50000     -4.9022354E-08
   22.56000     -4.7521983E-08
   22.62000     -4.5984443E-08
   22.68000     -4.4419348E-08
   22.74000     -4.2830770E-08
   22.80000     -4.1224727E-08
   22.86000     -3.9616943E-08
   22.92000     -3.8038021E-08
   22.98000     -3.6533777E-08
   23.04000     -3.5159808E-08
   23.10000     -3.3971272E-08
   23.16000     -3.3010746E-08
   23.22000     -3.2297972E-08
   23.28000     -3.1825000E-08
   23.34000     -3.1558727E-08
   23.40000     -3.1450320E-08
   23.46000     -3.1448561E-08
   23.52000     -3.1512851E-08
   23.58000     -3.1621706E-08
   23.64000     -3.1774242E-08
   23.70000     -3.1984722E-08
   23.76000     -3.2272581E-08
   23.82000     -3.2651791E-08
   23.88000     -3.3123360E-08
   23.94000     -3.3673377E-08
   24.00000     -3.4276972E-08
   24.06000     -3.4906567E-08
   24.12000     -3.5541582E-08
   24.18000     -3.6176594E-08
   24.24000     -3.6825451E-08
   24.30000     -3.7520131E-08
   24.36000     -3.8304464E-08
   24.42000     -3.9224030E-08
   24.48000     -4.0314450E-08
   24.54000     -4.1590702E-08
   24.60000     -4.3040178E-08
   24.66000     -4.4621373E-08
   24.72000     -4.6269012E-08
   24.78000     -4.7904759E-08
   24.84000     -4.9451053E-08
   24.90000     -5.0844637E-08
   24.96000     -5.2046065E-08
   25.02000     -5.3042672E-08
   25.08000     -5.3844250E-08
   25.14000     -5.4473063E-08
   25.20000     -5.4951592E-08
   25.26000     -5.5292237E-08
   25.32000     -5.5492535E-08
   25.38000     -5.5537491E-08
   25.44000     -5.5408201E-08
   25.50000     -5.5093462E-08
   25.56000     -5.4599962E-08
   25.62000     -5.3956750E-08
   25.68000     -5.3211576E-08
   25.74000     -5.2419441E-08
   25.80000     -5.1626412E-08
   25.86000     -5.0853728E-08
   25.92000     -5.0087454E-08
   25.98000     -4.9277403E-08
   26.04000     -4.8346337E-08
   26.10000     -4.7207102E-08
   26.16000     -4.5783029E-08
   26.22000     -4.4025757E-08
   26.28000     -4.1925606E-08
   26.34000     -3.9511935E-08
   26.40000     -3.6843904E-08
   26.46000     -3.3994993E-08
   26.52000     -3.1036027E-08
   26.58000     -2.8021665E-08
   26.64000     -2.4983789E-08
   26.70000     -2.1932811E-08
   26.76000     -1.8865457E-08
   26.82000     -1.5775584E-08
   26.88000     -1.2663910E-08
   26.94000     -9.5431121E-09
   27.00000     -6.4366792E-09
   27.06000     -3.3722243E-09
   27.12000     -3.7216533E-10
   27.18000      2.5541975E-09
   27.24000      5.4135718E-09
   27.30000      8.2247196E-09
   27.36000      1.1008510E-08
   27.42000      1.3775272E-08
   27.48000      1.6514027E-08
   27.54000      1.9187738E-08
   27.60000      2.1736644E-08
   27.66000      2.4088985E-08
   27.72000      2.6175856E-08
   27.78000      2.7945804E-08
   27.84000      2.9375057E-08
   27.90000      3.0471114E-08
   27.96000      3.1269497E-08
   28.02000      3.1825401E-08
   28.08000      3.2202848E-08
   28.14000      3.2463895E-08
   28.20000      3.2659720E-08
   28.26000      3.2824694E-08
   28.32000      3.2973830E-08
   28.38000      3.3103554E-08
   28.44000      3.3195530E-08
   28.50000      3.3222580E-08
   28.56000      3.3155413E-08
   28.62000      3.2968376E-08
   28.68000      3.2642816E-08
   28.74000      3.2167129E-08
   28.80000      3.1534082E-08
   28.86000      3.0737002E-08
   28.92000      2.9766994E-08
   28.98000      2.8612980E-08
   29.04000      2.7265131E-08
   29.10000      2.5720617E-08
   29.16000      2.3989431E-08
   29.22000      2.2097653E-08
   29.28000      2.0086382E-08
   29.34000      1.8005984E-08
   29.40000      1.5907160E-08
   29.46000      1.3831393E-08
   29.52000      1.1803618E-08
   29.58000      9.8291517E-09
   29.64000      7.8954860E-09
   29.70000      5.9780261E-09
   29.76000      4.0478421E-09
   29.82000      2.0791293E-09
   29.88000      5.4530328E-11
   29.94000     -2.0326785E-09
   30.00000     -4.1795265E-09
   30.06000     -6.3765850E-09
   30.12000     -8.6121776E-09
   30.18000     -1.0876115E-08
   30.24000     -1.3161741E-08
   30.30000     -1.5465538E-08
   30.36000     -1.7784320E-08
   30.42000     -2.0110797E-08
   30.48000     -2.2429031E-08
   30.54000     -2.4711557E-08
   30.60000     -2.6919668E-08
   30.66000     -2.9007365E-08
   30.72000     -3.0928163E-08
   30.78000     -3.2642792E-08
   30.84000     -3.4125321E-08
   30.90000     -3.5365712E-08
   30.96000     -3.6368206E-08
   31.02000     -3.7146503E-08
   31.08000     -3.7717953E-08
   31.14000     -3.8099117E-08
   31.20000     -3.8304165E-08
   31.26000     -3.8346037E-08
   31.32000     -3.8238795E-08
   31.38000     -3.7999250E-08
   31.44000     -3.7646309E-08
   31.50000     -3.7198092E-08
   31.56000     -3.6668109E-08
   31.62000     -3.6062659E-08
   31.68000     -3.5381095E-08
   31.74000     -3.4619266E-08
   31.80000     -3.3774917E-08
   31.86000     -3.2852903E-08
   31.92000     -3.1867994E-08
   31.98000     -3.0844443E-08
   32.04000     -2.9812654E-08
   32.10000     -2.8804715E-08
   32.16000     -2.7850653E-08
   32.22000     -2.6976490E-08
   32.28000     -2.6204162E-08
   32.34000     -2.5552163E-08
   32.40000     -2.5035590E-08
   32.46000     -2.4664750E-08
   32.52000     -2.4442551E-08
   32.58000     -2.4361764E-08
   32.64000     -2.4403574E-08
   32.70000     -2.4538418E-08
   32.76000     -2.4729204E-08
   32.82000     -2.4936092E-08
   32.88000     -2.5121576E-08
   32.94000     -2.5254682E-08
   33.00000     -2.5313648E-08
   33.06000     -2.5287003E-08
   33.12000     -2.5173369E-08
   33.18000     -2.4980430E-08
   33.24000     -2.4723212E-08
   33.30000     -2.4421830E-08
   33.36000     -2.4098730E-08
   33.42000     -2.3775607E-08
   33.48000     -2.3470360E-08
   33.54000     -2.3194495E-08
   33.60000     -2.2951230E-08
   33.66000     -2.2734532E-08
   33.72000     -2.2529088E-08
   33.78000     -2.2311418E-08
   33.84000     -2.2052355E-08
   33.90000     -2.1721103E-08
   33.96000     -2.1290843E-08
   34.02000     -2.0745061E-08
   34.08000     -2.0083236E-08
   34.14000     -1.9323991E-08
   34.20000     -1.8504174E-08
   34.26000     -1.7673342E-08
   34.32000     -1.6884607E-08
   34.38000     -1.6184289E-08
   34.44000     -1.5603389E-08
   34.50000     -1.5153605E-08
   34.56000     -1.4829064E-08
   34.62000     -1.4612989E-08
   34.68000     -1.4486788E-08
   34.74000     -1.4438255E-08
   34.80000     -1.4466038E-08
   34.86000     -1.4579001E-08
   34.92000     -1.4791110E-08
   34.98000     -1.5114068E-08
   35.04000     -1.5550679E-08
   35.10000     -1.6091485E-08
   35.16000     -1.6715990E-08
   35.22000     -1.7398058E-08
   35.28000     -1.8113697E-08
   35.34000     -1.8848683E-08
   35.40000     -1.9603602E-08
   35.46000     -2.0394710E-08
   35.52000     -2.1250269E-08
   35.58000     -2.2203290E-08
   35.64000     -2.3282544E-08
   35.70000     -2.4504164E-08
   35.76000     -2.5865974E-08
   35.82000     -2.7345996E-08
   35.88000     -2.8905591E-08
   35.94000     -3.0496480E-08
   36.00000     -3.2069952E-08
   36.06000     -3.3585895E-08
   36.12000     -3.5019397E-08
   36.18000     -3.6363215E-08
   36.24000     -3.7625476E-08
   36.30000     -3.8823440E-08
   36.36000     -3.9975085E-08
   36.42000     -4.1090956E-08
   36.48000     -4.2168601E-08
   36.54000     -4.3190980E-08
   36.60000     -4.4129074E-08
   36.66000     -4.4947729E-08
   36.72000     -4.5612833E-08
   36.78000     -4.6097952E-08
   36.84000     -4.6388870E-08
   36.90000     -4.6485379E-08
   36.96000     -4.6400441E-08
   37.02000     -4.6157560E-08
   37.08000     -4.5787228E-08
   37.14000     -4.5323226E-08
   37.20000     -4.4799279E-08
   37.26000     -4.4246271E-08
   37.32000     -4.3690129E-08
   37.38000     -4.3150489E-08
   37.44000     -4.2640306E-08
   37.50000     -4.2166352E-08
   37.56000     -4.1730505E-08
   37.62000     -4.1331333E-08
   37.68000     -4.0965524E-08
   37.74000     -4.0628535E-08
   37.80000     -4.0314440E-08
   37.86000     -4.0015053E-08
   37.92000     -3.9718941E-08
   37.98000     -3.9411077E-08
   38.04000     -3.9073637E-08
   38.10000     -3.8688135E-08
   38.16000     -3.8238536E-08
   38.22000     -3.7714461E-08
   38.28000     -3.7113626E-08
   38.34000     -3.6442600E-08
   38.40000     -3.5715537E-08
   38.46000     -3.4951221E-08
   38.52000     -3.4169119E-08
   38.58000     -3.3385522E-08
   38.64000     -3.2610824E-08
   38.70000     -3.1848497E-08
   38.76000     -3.1095990E-08
   38.82000     -3.0347039E-08
   38.88000     -2.9594851E-08
   38.94000     -2.8835222E-08
   39.00000     -2.8068797E-08
   39.06000     -2.7301914E-08
   39.12000     -2.6545624E-08
   39.18000     -2.5812929E-08
   39.24000     -2.5114566E-08
   39.30000     -2.4454311E-08
   39.36000     -2.3824901E-08
   39.42000     -2.3206010E-08
   39.48000     -2.2565237E-08
   39.54000     -2.1862487E-08
   39.60000     -2.1057030E-08
   39.66000     -2.0115763E-08
   39.72000     -1.9020588E-08
   39.78000     -1.7773068E-08
   39.84000     -1.6395338E-08
   39.90000     -1.4927263E-08
   39.96000     -1.3421025E-08
   40.02000     -1.1934688E-08
   40.08000     -1.0526327E-08
   40.14000     -9.2495771E-09
   40.20000     -8.1507423E-09
   40.26000     -7.2669604E-09
   40.32000     -6.6248007E-09
   40.38000     -6.2389307E-09
   40.44000     -6.1109540E-09
   40.50000     -6.2288854E-09
   40.56000     -6.5677832E-09
   40.62000     -7.0918174E-09
   40.68000     -7.7576336E-09
   40.74000     -8.5185539E-09
   40.80000     -9.3290353E-09
   40.86000     -1.0148917E-08
   40.92000     -1.0947156E-08
   40.98000     -1.1704781E-08
   41.04000     -1.2416707E-08
   41.10000     -1.3091814E-08
   41.16000     -1.3750673E-08
   41.22000     -1.4420579E-08
   41.28000     -1.5128348E-08
   41.34000     -1.5892246E-08
   41.40000     -1.6715253E-08
   41.46000     -1.7582030E-08
   41.52000     -1.8461188E-08
   41.58000     -1.9312996E-08
   41.64000     -2.0100876E-08
   41.70000     -2.0803494E-08
   41.76000     -2.1423858E-08
   41.82000     -2.1992445E-08
   41.88000     -2.2563162E-08
   41.94000     -2.3203086E-08
   42.00000     -2.3978691E-08
   42.06000     -2.4942313E-08
   42.12000     -2.6122235E-08
   42.18000     -2.7518658E-08
   42.24000     -2.9105996E-08
   42.30000     -3.0840312E-08
   42.36000     -3.2669551E-08
   42.42000     -3.4543881E-08
   42.48000     -3.6423845E-08
   42.54000     -3.8284899E-08
   42.60000     -4.0118213E-08
   42.66000     -4.1928484E-08
   42.72000     -4.3730378E-08
   42.78000     -4.5545320E-08
   42.84000     -4.7399983E-08
   42.90000     -4.9327106E-08
   42.96000     -5.1368268E-08
   43.02000     -5.3577576E-08
   43.08000     -5.6024813E-08
   43.14000     -5.8796900E-08
   43.20000     -6.1997319E-08
   43.26000     -6.5744025E-08
   43.32000     -7.0167083E-08
   43.38000     -7.5407584E-08
   43.44000     -8.1618914E-08
   43.50000     -8.8970758E-08
   43.56000     -9.7655317E-08
   43.62000     -1.0789469E-07
   43.68000     -1.1994827E-07
   43.74000     -1.3411955E-07
   43.80000     -1.5076232E-07
   43.86000     -1.7028660E-07
   43.92000     -1.9316522E-07
   43.98000     -2.1994110E-07
   44.04000     -2.5123546E-07
   44.10000     -2.8775645E-07
   44.16000     -3.3030798E-07
   44.22000     -3.7979819E-07
   44.28000     -4.3724825E-07
   44.34000     -5.0380163E-07
   44.40000     -5.8073499E-07
   44.46000     -6.6947030E-07
   44.52000     -7.7158995E-07
   44.58000     -8.8885270E-07
   44.64000     -1.0232126E-06
   44.70000     -1.1768384E-06
   44.76000     -1.3521339E-06
   44.82000     -1.5517593E-06
   44.88000     -1.7786493E-06
   44.94000     -2.0360337E-06
   45.00000     -2.3274515E-06
   45.06000     -2.6567636E-06
   45.12000     -3.0281642E-06
   45.18000     -3.4461893E-06
   45.24000     -3.9157271E-06
   45.30000     -4.4420290E-06
   45.36000     -5.0307231E-06
   45.42000     -5.6878293E-06
   45.48000     -6.4197743E-06
   45.54000     -7.2333964E-06
   45.60000     -8.1359512E-06
   45.66000     -9.1351030E-06
   45.72000     -1.0238915E-05
   45.78000     -1.1455829E-05
   45.84000     -1.2794640E-05
   45.90000     -1.4264473E-05
   45.96000     -1.5874752E-05
   46.02000     -1.7635162E-05
   46.08000     -1.9555617E-05
   46.14000     -2.1646207E-05
   46.20000     -2.3917150E-05
   46.26000     -2.6378721E-05
   46.32000     -2.9041195E-05
   46.38000     -3.1914762E-05
   46.44000     -3.5009460E-05
   46.50000     -3.8335082E-05
   46.56000     -4.1901079E-05
   46.62000     -4.5716482E-05
   46.68000     -4.9789771E-05
   46.74000     -5.4128785E-05
   46.80000     -5.8740607E-05
   46.86000     -6.3631436E-05
   46.92000     -6.8806512E-05
   46.98000     -7.4269956E-05
   47.04000     -8.0024707E-05
   47.10000     -8.6072381E-05
   47.16000     -9.2413204E-05
   47.22000     -9.9045908E-05
   47.28000     -1.0596766E-04
   47.34000     -1.1317398E-04
   47.40000     -1.2065867E-04
   47.46000     -1.2841381E-04
   47.52000     -1.3642963E-04
   47.58000     -1.4469461E-04
   47.64000     -1.5319537E-04
   47.70000     -1.6191682E-04
   47.76000     -1.7084205E-04
   47.82000     -1.7995255E-04
   47.88000     -1.8922817E-04
   47.94000     -1.9864729E-04
   48.00000     -2.0818689E-04
   48.06000     -2.1782272E-04
   48.12000     -2.2752944E-04
   48.18000     -2.3728079E-04
   48.24000     -2.4704976E-04
   48.30000     -2.5680882E-04
   48.36000     -2.6653014E-04
   48.42000     -2.7618586E-04
   48.48000     -2.8574839E-04
   48.54000     -2.9519049E-04
   48.60000     -3.0448593E-04
   48.66000     -3.1360931E-04
   48.72000     -3.2253651E-04
   48.78000     -3.3124498E-04
   48.84000     -3.3971388E-04
   48.90000     -3.4792427E-04
   48.96000     -3.5585949E-04
   49.02000     -3.6350501E-04
   49.08000     -3.7084907E-04
   49.14000     -3.7788233E-04
   49.20000     -3.8459836E-04
   49.26000     -3.9099349E-04
   49.32000     -3.9706691E-04
   49.38000     -4.0282085E-04
   49.44000     -4.0826050E-04
   49.50000     -4.1339392E-04
   49.56000     -4.1823194E-04
   49.62000     -4.2278809E-04
   49.68000     -4.2707840E-04
   49.74000     -4.3112112E-04
   49.80000     -4.3493646E-04
   49.86000     -4.3854656E-04
   49.92000     -4.4197513E-04
   49.98000     -4.4524722E-04
   50.04000     -4.4838883E-04
   50.10000     -4.5142657E-04
   50.16000     -4.5438722E-04
   50.22000     -4.5729763E-04
   50.28000     -4.6018406E-04
   50.34000     -4.6307212E-04
   50.40000     -4.6598626E-04
   50.46000     -4.6894961E-04
   50.52000     -4.7198366E-04
   50.58000     -4.7510778E-04
   50.64000     -4.7833921E-04
   50.70000     -4.8169258E-04
   50.76000     -4.8517989E-04
   50.82000     -4.8881018E-04
   50.88000     -4.9258972E-04
   50.94000     -4.9652177E-04
   51.00000     -5.0060637E-04
   51.06000     -5.0484081E-04
   51.12000     -5.0921930E-04
   51.18000     -5.1373325E-04
   51.24000     -5.1837089E-04
   51.30000     -5.2311830E-04
   51.36000     -5.2795891E-04
   51.42000     -5.3287414E-04
   51.48000     -5.3784344E-04
   51.54000     -5.4284499E-04
   51.60000     -5.4785563E-04
   51.66000     -5.5285136E-04
   51.72000     -5.5780780E-04
   51.78000     -5.6270044E-04
   51.84000     -5.6750479E-04
   51.90000     -5.7219714E-04
   51.96000     -5.7675439E-04
   52.02000     -5.8115466E-04
   52.08000     -5.8537774E-04
   52.14000     -5.8940513E-04
   52.20000     -5.9322047E-04
   52.26000     -5.9680967E-04
   52.32000     -6.0016121E-04
   52.38000     -6.0326594E-04
   52.44000     -6.0611760E-04
   52.50000     -6.0871249E-04
   52.56000     -6.1105000E-04
   52.62000     -6.1313197E-04
   52.68000     -6.1496283E-04
   52.74000     -6.1654969E-04
   52.80000     -6.1790185E-04
   52.86000     -6.1903085E-04
   52.92000     -6.1995018E-04
   52.98000     -6.2067516E-04
   53.04000     -6.2122237E-04
   53.10000     -6.2160974E-04
   53.16000     -6.2185561E-04
   53.22000     -6.2197918E-04
   53.28000     -6.2199921E-04
   53.34000     -6.2193454E-04
   53.40000     -6.2180340E-04
   53.46000     -6.2162295E-04
   53.52000     -6.2140945E-04
   53.58000     -6.2117737E-04
   53.64000     -6.2093959E-04
   53.70000     -6.2070682E-04
   53.76000     -6.2048773E-04
   53.82000     -6.2028843E-04
   53.88000     -6.2011246E-04
   53.94000     -6.1996083E-04
   54.00000     -6.1983196E-04
   54.06000     -6.1972137E-04
   54.12000     -6.1962224E-04
   54.18000     -6.1952492E-04
   54.24000     -6.1941741E-04
   54.30000     -6.1928539E-04
   54.36000     -6.1911228E-04
   54.42000     -6.1887945E-04
   54.48000     -6.1856688E-04
   54.54000     -6.1815302E-04
   54.60000     -6.1761547E-04
   54.66000     -6.1693101E-04
   54.72000     -6.1607605E-04
   54.78000     -6.1502703E-04
   54.84000     -6.1376038E-04
   54.90000     -6.1225321E-04
   54.96000     -6.1048358E-04
   55.02000     -6.0843042E-04
   55.08000     -6.0607452E-04
   55.14000     -6.0339825E-04
   55.20000     -6.0038589E-04
   55.26000     -5.9702434E-04
   55.32000     -5.9330260E-04
   55.38000     -5.8921246E-04
   55.44000     -5.8474852E-04
   55.50000     -5.7990802E-04
   55.56000     -5.7469110E-04