  -2.400000      0.0000000E+00
  -2.340000      0.0000000E+00
  -2.280000      0.0000000E+00
  -2.220000      0.0000000E+00
  -2.160000      0.0000000E+00
  -2.100000      5.0641881E-20
  -2.040000      3.7292073E-19
  -1.980000      1.2953414E-18
  -1.920000      2.4780462E-18
  -1.860000      1.3016941E-18
  -1.800000     -8.1241403E-18
  -1.740000     -3.2011575E-17
  -1.680000     -6.7150807E-17
  -1.620000     -8.6994241E-17
  -1.560000     -3.5812460E-17
  -1.500000      1.5019550E-16
  -1.440000      4.8356968E-16
  -1.380000      8.4527017E-16
  -1.320000      9.4069923E-16
  -1.260000      3.7176559E-16
  -1.200000     -1.1274013E-15
  -1.140000     -3.3454670E-15
  -1.080000     -5.3307447E-15
  -1.020000     -5.4828201E-15
 -0.9600000     -2.1946772E-15
 -0.9000000      5.0382223E-15
 -0.8400000      1.4519300E-14
 -0.7800000      2.2025213E-14
 -0.7200000      2.1927872E-14
 -0.6600000      9.8429303E-15
 -0.6000000     -1.4068881E-14
 -0.5400000     -4.2868117E-14
 -0.4800000     -6.3536517E-14
 -0.4200000     -6.1527010E-14
 -0.3600000     -2.8178592E-14
 -0.3000000      3.2061332E-14
 -0.2400000      9.8738089E-14
 -0.1800000      1.4004745E-13
 -0.1200000      1.2526650E-13
 -5.9999999E-02  4.1053129E-14
  0.0000000E+00 -9.5592276E-14
  5.9999999E-02 -2.3538818E-13
  0.1200000     -3.1018273E-13
  0.1800000     -2.5959741E-13
  0.2400000     -6.1771633E-14
  0.3000000      2.4516503E-13
  0.3600000      5.6308425E-13
  0.4200000      7.6037278E-13
  0.4800000      7.1916404E-13
  0.5400000      3.8721015E-13
  0.6000000     -1.8664135E-13
  0.6600000     -8.5104162E-13
  0.7200000     -1.3910757E-12
  0.7800000     -1.5981819E-12
  0.8400000     -1.3479116E-12
  0.9000000     -6.5640413E-13
  0.9600000      3.0844256E-13
   1.020000      1.2699043E-12
   1.080000      1.9281686E-12
   1.140000      2.0602832E-12
   1.200000      1.5984129E-12
   1.260000      6.5690319E-13
   1.320000     -5.0285096E-13
   1.380000     -1.5568102E-12
   1.440000     -2.2192385E-12
   1.500000     -2.3203850E-12
   1.560000     -1.8307675E-12
   1.620000     -8.2560407E-13
   1.680000      5.8853719E-13
   1.740000      2.3417093E-12
   1.800000      4.4170275E-12
   1.860000      6.7884812E-12
   1.920000      9.2891745E-12
   1.980000      1.1459086E-11
   2.040000      1.2448635E-11
   2.100000      1.1054916E-11
   2.160000      5.9366093E-12
   2.220000     -4.0021580E-12
   2.280000     -1.9132097E-11
   2.340000     -3.8646569E-11
   2.400000     -6.0278935E-11
   2.460000     -8.0309835E-11
   2.520000     -9.3927081E-11
   2.580000     -9.5920813E-11
   2.640000     -8.1616609E-11
   2.700000     -4.7888863E-11
   2.760000      5.9278034E-12
   2.820000      7.7395604E-11
   2.880000      1.6071276E-10
   2.940000      2.4687399E-10
   3.000000      3.2421321E-10
   3.060000      3.7923198E-10
   3.120000      3.9759324E-10
   3.180000      3.6517733E-10
   3.240000      2.6914770E-10
   3.300000      9.9028098E-11
   3.360000     -1.5217191E-10
   3.420000     -4.8676441E-10
   3.480000     -9.0117558E-10
   3.540000     -1.3848861E-09
   3.600000     -1.9197743E-09
   3.660000     -2.4801643E-09
   3.720000     -3.0338030E-09
   3.780000     -3.5438348E-09
   3.840000     -3.9715959E-09
   3.900000     -4.2798454E-09
   3.960000     -4.4358974E-09
   4.020000     -4.4141659E-09
   4.080000     -4.1977781E-09
   4.140000     -3.7791863E-09
   4.200000     -3.1599805E-09
   4.260000     -2.3502460E-09
   4.320000     -1.3678590E-09
   4.380000     -2.3792593E-10
   4.440000      1.0076405E-09
   4.500000      2.3306679E-09
   4.560000      3.6877819E-09
   4.620000      5.0323168E-09
   4.680000      6.3172236E-09
   4.740000      7.4987820E-09
   4.800000      8.5406278E-09
   4.860000      9.4173656E-09
   4.920000      1.0117039E-08
   4.980000      1.0641872E-08
   5.040000      1.1007095E-08
   5.100000      1.1237982E-08
   5.160000      1.1365691E-08
   5.220000      1.1422602E-08
   5.280000      1.1437962E-08
   5.340000      1.1434456E-08
   5.400000      1.1426070E-08
   5.460000      1.1417399E-08
   5.520000      1.1404246E-08
   5.580000      1.1375286E-08
   5.640000      1.1314430E-08
   5.700000      1.1203577E-08
   5.760000      1.1025385E-08
   5.820000      1.0765773E-08
   5.880000      1.0415854E-08
   5.940000      9.9731068E-09
   6.000000      9.4416368E-09
   6.060000      8.8315089E-09
   6.120000      8.1572225E-09
   6.180000      7.4355255E-09
   6.240000      6.6829000E-09
   6.300000      5.9131029E-09
   6.360000      5.1352869E-09
   6.420000      4.3531512E-09
   6.480000      3.5654584E-09
   6.540000      2.7679379E-09
   6.600000      1.9562125E-09
   6.660000      1.1290228E-09
   6.720000      2.9086181E-10
   6.780000     -5.4674848E-10
   6.840000     -1.3657082E-09
   6.900000     -2.1433422E-09
   6.960000     -2.8553155E-09
   7.020000     -3.4786316E-09
   7.080000     -3.9940322E-09
   7.140000     -4.3875183E-09
   7.200000     -4.6511603E-09
   7.260000     -4.7836330E-09
   7.320000     -4.7909170E-09
   7.380000     -4.6873252E-09
   7.440000     -4.4966608E-09
   7.500000     -4.2529771E-09
   7.560000     -4.0003019E-09
   7.620000     -3.7907766E-09
   7.680000     -3.6809069E-09
   7.740000     -3.7260679E-09
   7.800000     -3.9738435E-09
   7.860000     -4.4572692E-09
   7.920000     -5.1893476E-09
   7.980000     -6.1602199E-09
   8.040000     -7.3379587E-09
   8.100000     -8.6731022E-09
   8.160000     -1.0106025E-08
   8.220000     -1.1575438E-08
   8.280000     -1.3026034E-08
   8.340000     -1.4413769E-08
   8.400000     -1.5708279E-08
   8.460000     -1.6892947E-08
   8.520000     -1.7963822E-08
   8.580000     -1.8928448E-08
   8.640000     -1.9804988E-08
   8.700000     -2.0621238E-08
   8.760000     -2.1412578E-08
   8.820000     -2.2218188E-08
   8.880000     -2.3075561E-08
   8.940000     -2.4014286E-08
   9.000000     -2.5050626E-08
   9.060000     -2.6184328E-08
   9.120000     -2.7398459E-08
   9.180000     -2.8662276E-08
   9.240000     -2.9936377E-08
   9.300000     -3.1179066E-08
   9.360000     -3.2352926E-08
   9.420000     -3.3430492E-08
   9.480000     -3.4398102E-08
   9.540000     -3.5256996E-08
   9.600000     -3.6021124E-08
   9.660000     -3.6711747E-08
   9.720000     -3.7349999E-08
   9.780000     -3.7949373E-08
   9.840000     -3.8510429E-08
   9.900000     -3.9019465E-08
   9.960000     -3.9451425E-08
   10.02000     -3.9776015E-08
   10.08000     -3.9964736E-08
   10.14000     -3.9996603E-08
   10.20000     -3.9861057E-08
   10.26000     -3.9557651E-08
   10.32000     -3.9093401E-08
   10.38000     -3.8478941E-08
   10.44000     -3.7724625E-08
   10.50000     -3.6837285E-08
   10.56000     -3.5818104E-08
   10.62000     -3.4661905E-08
   10.68000     -3.3358337E-08
   10.74000     -3.1895151E-08
   10.80000     -3.0263305E-08
   10.86000     -2.8462749E-08
   10.92000     -2.6507243E-08
   10.98000     -2.4426308E-08
   11.04000     -2.2263341E-08
   11.10000     -2.0070200E-08
   11.16000     -1.7899893E-08
   11.22000     -1.5799719E-08
   11.28000     -1.3806971E-08
   11.34000     -1.1948262E-08
   11.40000     -1.0242066E-08
   11.46000     -8.7029779E-09
   11.52000     -7.3456867E-09
   11.58000     -6.1869612E-09
   11.64000     -5.2448166E-09
   11.70000     -4.5350643E-09
   11.76000     -4.0663379E-09
   11.82000     -3.8351735E-09
   11.88000     -3.8227466E-09
   11.94000     -3.9944239E-09
   12.00000     -4.3024895E-09
   12.06000     -4.6914819E-09
   12.12000     -5.1047513E-09
   12.18000     -5.4904730E-09
   12.24000     -5.8055578E-09
   12.30000     -6.0166681E-09
   12.36000     -6.0986109E-09
   12.42000     -6.0313012E-09
   12.48000     -5.7968443E-09
   12.54000     -5.3780749E-09
   12.60000     -4.7590842E-09
   12.66000     -3.9274171E-09
   12.72000     -2.8770133E-09
   12.78000     -1.6108260E-09
   12.84000     -1.4235732E-10
   12.90000      1.5041703E-09
   12.96000      3.2948648E-09
   13.02000      5.1880984E-09
   13.08000      7.1369715E-09
   13.14000      9.0920222E-09
   13.20000      1.1003952E-08
   13.26000      1.2826144E-08
   13.32000      1.4516797E-08
   13.38000      1.6040541E-08
   13.44000      1.7369551E-08
   13.50000      1.8484235E-08
   13.56000      1.9373591E-08
   13.62000      2.0035161E-08
   13.68000      2.0474548E-08
   13.74000      2.0704427E-08
   13.80000      2.0743192E-08
   13.86000      2.0613637E-08
   13.92000      2.0341972E-08
   13.98000      1.9957350E-08
   14.04000      1.9491557E-08
   14.10000      1.8978200E-08
   14.16000      1.8450761E-08
   14.22000      1.7939435E-08
   14.28000      1.7467560E-08
   14.34000      1.7049084E-08
   14.40000      1.6688587E-08
   14.46000      1.6384528E-08
   14.52000      1.6135019E-08
   14.58000      1.5944103E-08
   14.64000      1.5826016E-08
   14.70000      1.5805407E-08
   14.76000      1.5913091E-08
   14.82000      1.6178641E-08
   14.88000      1.6622334E-08
   14.94000      1.7249178E-08
   15.00000      1.8046773E-08
   15.06000      1.8987178E-08
   15.12000      2.0031649E-08
   15.18000      2.1136277E-08
   15.24000      2.2256920E-08
   15.30000      2.3352554E-08
   15.36000      2.4387207E-08
   15.42000      2.5331206E-08
   15.48000      2.6162477E-08
   15.54000      2.6868120E-08
   15.60000      2.7445825E-08
   15.66000      2.7904312E-08
   15.72000      2.8262054E-08
   15.78000      2.8544100E-08
   15.84000      2.8777620E-08
   15.90000      2.8987422E-08
   15.96000      2.9192892E-08
   16.02000      2.9407277E-08
   16.08000      2.9639322E-08
   16.14000      2.9896174E-08
   16.20000      3.0185767E-08
   16.26000      3.0516929E-08
   16.32000      3.0896498E-08
   16.38000      3.1324053E-08
   16.44000      3.1786488E-08
   16.50000      3.2255176E-08
   16.56000      3.2688057E-08
   16.62000      3.3037363E-08
   16.68000      3.3261443E-08
   16.74000      3.3337301E-08
   16.80000      3.3269718E-08
   16.86000      3.3093656E-08
   16.92000      3.2868641E-08
   16.98000      3.2666591E-08
   17.04000      3.2556702E-08
   17.10000      3.2591856E-08
   17.16000      3.2800486E-08
   17.22000      3.3185618E-08
   17.28000      3.3730363E-08
   17.34000      3.4406906E-08
   17.40000      3.5185248E-08
   17.46000      3.6038376E-08
   17.52000      3.6942609E-08
   17.58000      3.7873995E-08
   17.64000      3.8803503E-08
   17.70000      3.9694207E-08
   17.76000      4.0502762E-08
   17.82000      4.1185487E-08
   17.88000      4.1707143E-08
   17.94000      4.2049312E-08
   18.00000      4.2215028E-08
   18.06000      4.2227928E-08
   18.12000      4.2125912E-08
   18.18000      4.1951481E-08
   18.24000      4.1741561E-08
   18.30000      4.1519634E-08
   18.36000      4.1291763E-08
   18.42000      4.1046846E-08
   18.48000      4.0760202E-08
   18.54000      4.0399186E-08
   18.60000      3.9929390E-08
   18.66000      3.9320383E-08
   18.72000      3.8549995E-08
   18.78000      3.7606544E-08
   18.84000      3.6488732E-08
   18.90000      3.5203470E-08
   18.96000      3.3762571E-08
   19.02000      3.2179567E-08
   19.08000      3.0468005E-08
   19.14000      2.8641812E-08
   19.20000      2.6717203E-08
   19.26000      2.4714742E-08
   19.32000      2.2659899E-08
   19.38000      2.0580918E-08
   19.44000      1.8504165E-08
   19.50000      1.6448409E-08
   19.56000      1.4420196E-08
   19.62000      1.2412328E-08
   19.68000      1.0406236E-08
   19.74000      8.3776266E-09
   19.80000      6.3034959E-09
   19.86000      4.1681356E-09
   19.92000      1.9662150E-09
   19.98000     -2.9791844E-10
   20.04000     -2.6143001E-09
   20.10000     -4.9733213E-09
   20.16000     -7.3716873E-09
   20.22000     -9.8165138E-09
   20.28000     -1.2326280E-08
   20.34000     -1.4928204E-08
   20.40000     -1.7652567E-08
   20.46000     -2.0525377E-08
   20.52000     -2.3561258E-08
   20.58000     -2.6758530E-08
   20.64000     -3.0097791E-08
   20.70000     -3.3544328E-08
   20.76000     -3.7053411E-08
   20.82000     -4.0576595E-08
   20.88000     -4.4066990E-08
   20.94000     -4.7481969E-08
   21.00000     -5.0783139E-08
   21.06000     -5.3934567E-08
   21.12000     -5.6901204E-08
   21.18000     -5.9649217E-08
   21.24000     -6.2148871E-08
   21.30000     -6.4379265E-08
   21.36000     -6.6332873E-08
   21.42000     -6.8017620E-08
   21.48000     -6.9455012E-08
   21.54000     -7.0674432E-08
   21.60000     -7.1705458E-08
   21.66000     -7.2570955E-08
   21.72000     -7.3283324E-08
   21.78000     -7.3845015E-08
   21.84000     -7.4252554E-08
   21.90000     -7.4501784E-08
   21.96000     -7.4591846E-08
   22.02000     -7.4526362E-08
   22.08000     -7.4311757E-08
   22.14000     -7.3954226E-08
   22.20000     -7.3457642E-08
   22.26000     -7.2823838E-08
   22.32000     -7.2055670E-08
   22.38000     -7.1161651E-08
   22.44000     -7.0160084E-08
   22.50000     -6.9080748E-08
   22.56000     -6.7963157E-08
   22.62000     -6.6851463E-08
   22.68000     -6.5787560E-08
   22.74000     -6.4803857E-08
   22.80000     -6.3917774E-08
   22.86000     -6.3128766E-08
   22.92000     -6.2418749E-08
   22.98000     -6.1755749E-08
   23.04000     -6.1100117E-08
   23.10000     -6.0412276E-08
   23.16000     -5.9660458E-08
   23.22000     -5.8826782E-08
   23.28000     -5.7910306E-08
   23.34000     -5.6926364E-08
   23.40000     -5.5902515E-08
   23.46000     -5.4872462E-08
   23.52000     -5.3869737E-08
   23.58000     -5.2922985E-08
   23.64000     -5.2053871E-08
   23.70000     -5.1277613E-08
   23.76000     -5.0605280E-08
   23.82000     -5.0046093E-08
   23.88000     -4.9608389E-08
   23.94000     -4.9298290E-08
   24.00000     -4.9116355E-08
   24.06000     -4.9053359E-08
   24.12000     -4.9087117E-08
   24.18000     -4.9182304E-08
   24.24000     -4.9294353E-08
   24.30000     -4.9377284E-08
   24.36000     -4.9393833E-08
   24.42000     -4.9324925E-08
   24.48000     -4.9175370E-08
   24.54000     -4.8973469E-08
   24.60000     -4.8763830E-08
   24.66000     -4.8595048E-08
   24.72000     -4.8505601E-08
   24.78000     -4.8512259E-08
   24.84000     -4.8604456E-08
   24.90000     -4.8746415E-08
   24.96000     -4.8886132E-08
   25.02000     -4.8968271E-08
   25.08000     -4.8946823E-08
   25.14000     -4.8793950E-08
   25.20000     -4.8503043E-08
   25.26000     -4.8086381E-08
   25.32000     -4.7569557E-08
   25.38000     -4.6985651E-08
   25.44000     -4.6371206E-08
   25.50000     -4.5764537E-08
   25.56000     -4.5205020E-08
   25.62000     -4.4731234E-08
   25.68000     -4.4376321E-08
   25.74000     -4.4160700E-08
   25.80000     -4.4084402E-08
   25.86000     -4.4122363E-08
   25.92000     -4.4225825E-08
   25.98000     -4.4330601E-08
   26.04000     -4.4370292E-08
   26.10000     -4.4290051E-08
   26.16000     -4.4055941E-08
   26.22000     -4.3656623E-08
   26.28000     -4.3097177E-08
   26.34000     -4.2388354E-08
   26.40000     -4.1536300E-08
   26.46000     -4.0537454E-08
   26.52000     -3.9380680E-08
   26.58000     -3.8055266E-08
   26.64000     -3.6560536E-08
   26.70000     -3.4912201E-08
   26.76000     -3.3142094E-08
   26.82000     -3.1291016E-08
   26.88000     -2.9397768E-08
   26.94000     -2.7489069E-08
   27.00000     -2.5574728E-08
   27.06000     -2.3650122E-08
   27.12000     -2.1704828E-08
   27.18000     -1.9733751E-08
   27.24000     -1.7746039E-08
   27.30000     -1.5768270E-08
   27.36000     -1.3840636E-08
   27.42000     -1.2007794E-08
   27.48000     -1.0307968E-08
   27.54000     -8.7643954E-09
   27.60000     -7.3820887E-09
   27.66000     -6.1506675E-09
   27.72000     -5.0516520E-09
   27.78000     -4.0669592E-09
   27.84000     -3.1850211E-09
   27.90000     -2.4020208E-09
   27.96000     -1.7178449E-09
   28.02000     -1.1285775E-09
   28.08000     -6.1897798E-10
   28.14000     -1.5865985E-10
   28.20000      2.9547298E-10
   28.26000      7.9024021E-10
   28.32000      1.3629164E-09
   28.38000      2.0278608E-09
   28.44000      2.7677354E-09
   28.50000      3.5328487E-09
   28.56000      4.2496291E-09
   28.62000      4.8361986E-09
   28.68000      5.2205080E-09
   28.74000      5.3554663E-09
   28.80000      5.2263847E-09
   28.86000      4.8486233E-09
   28.92000      4.2567092E-09
   28.98000      3.4891703E-09
   29.04000      2.5748070E-09
   29.10000      1.5254411E-09
   29.16000      3.3761008E-10
   29.22000     -9.9788000E-10
   29.28000     -2.4827571E-09
   29.34000     -4.1001043E-09
   29.40000     -5.8100440E-09
   29.46000     -7.5543340E-09
   29.52000     -9.2683479E-09
   29.58000     -1.0895949E-08
   29.64000     -1.2401733E-08
   29.70000     -1.3776318E-08
   29.76000     -1.5033251E-08
   29.82000     -1.6199456E-08
   29.88000     -1.7303456E-08
   29.94000     -1.8366046E-08
   30.00000     -1.9396516E-08
   30.06000     -2.0394719E-08
   30.12000     -2.1356675E-08
   30.18000     -2.2280014E-08
   30.24000     -2.3166043E-08
   30.30000     -2.4017320E-08
   30.36000     -2.4832216E-08
   30.42000     -2.5599915E-08
   30.48000     -2.6299380E-08
   30.54000     -2.6904154E-08
   30.60000     -2.7391891E-08
   30.66000     -2.7754687E-08
   30.72000     -2.8005015E-08
   30.78000     -2.8173236E-08
   30.84000     -2.8296066E-08
   30.90000     -2.8399414E-08
   30.96000     -2.8482441E-08
   31.02000     -2.8510071E-08
   31.08000     -2.8418585E-08
   31.14000     -2.8133806E-08
   31.20000     -2.7595922E-08
   31.26000     -2.6781640E-08
   31.32000     -2.5714748E-08
   31.38000     -2.4460334E-08
   31.44000     -2.3104478E-08
   31.50000     -2.1727210E-08
   31.56000     -2.0379549E-08
   31.62000     -1.9073839E-08
   31.68000     -1.7791171E-08
   31.74000     -1.6502485E-08
   31.80000     -1.5194139E-08
   31.86000     -1.3886706E-08
   31.92000     -1.2638462E-08
   31.98000     -1.1531418E-08
   32.04000     -1.0645055E-08
   32.10000     -1.0028232E-08
   32.16000     -9.6808543E-09
   32.22000     -9.5531298E-09
   32.28000     -9.5633723E-09
   32.34000     -9.6277821E-09
   32.40000     -9.6907771E-09
   32.46000     -9.7439958E-09
   32.52000     -9.8265192E-09
   32.58000     -1.0006294E-08
   32.64000     -1.0350276E-08
   32.70000     -1.0895408E-08
   32.76000     -1.1632233E-08
   32.82000     -1.2507844E-08
   32.88000     -1.3446925E-08
   32.94000     -1.4382130E-08
   33.00000     -1.5281021E-08
   33.06000     -1.6158026E-08
   33.12000     -1.7065936E-08
   33.18000     -1.8069880E-08
   33.24000     -1.9214191E-08
   33.30000     -2.0495870E-08
   33.36000     -2.1856099E-08
   33.42000     -2.3194236E-08
   33.48000     -2.4399737E-08
   33.54000     -2.5390023E-08
   33.60000     -2.6139608E-08
   33.66000     -2.6688978E-08
   33.72000     -2.7129349E-08
   33.78000     -2.7568866E-08
   33.84000     -2.8092884E-08
   33.90000     -2.8733142E-08
   33.96000     -2.9456938E-08
   34.02000     -3.0179532E-08
   34.08000     -3.0794080E-08
   34.14000     -3.1207314E-08
   34.20000     -3.1367737E-08
   34.26000     -3.1277214E-08
   34.32000     -3.0983720E-08
   34.38000     -3.0560440E-08
   34.44000     -3.0080525E-08
   34.50000     -2.9597190E-08
   34.56000     -2.9135023E-08
   34.62000     -2.8693217E-08
   34.68000     -2.8256773E-08
   34.74000     -2.7809659E-08
   34.80000     -2.7344578E-08
   34.86000     -2.6866703E-08
   34.92000     -2.6391723E-08
   34.98000     -2.5940503E-08
   35.04000     -2.5533199E-08
   35.10000     -2.5184749E-08
   35.16000     -2.4902581E-08
   35.22000     -2.4686367E-08
   35.28000     -2.4529429E-08
   35.34000     -2.4421523E-08
   35.40000     -2.4352678E-08
   35.46000     -2.4317586E-08
   35.52000     -2.4319354E-08
   35.58000     -2.4371163E-08
   35.64000     -2.4494472E-08
   35.70000     -2.4713557E-08
   35.76000     -2.5047598E-08
   35.82000     -2.5502924E-08
   35.88000     -2.6068419E-08
   35.94000     -2.6716281E-08
   36.00000     -2.7408404E-08
   36.06000     -2.8106449E-08
   36.12000     -2.8782075E-08
   36.18000     -2.9423651E-08
   36.24000     -3.0037040E-08
   36.30000     -3.0640486E-08
   36.36000     -3.1255858E-08
   36.42000     -3.1899976E-08
   36.48000     -3.2579262E-08
   36.54000     -3.3289457E-08
   36.60000     -3.4019681E-08
   36.66000     -3.4758251E-08
   36.72000     -3.5497052E-08
   36.78000     -3.6232350E-08
   36.84000     -3.6961762E-08
   36.90000     -3.7679353E-08
   36.96000     -3.8371759E-08
   37.02000     -3.9017834E-08
   37.08000     -3.9592628E-08
   37.14000     -4.0074202E-08
   37.20000     -4.0450296E-08
   37.26000     -4.0721616E-08
   37.32000     -4.0899938E-08
   37.38000     -4.1001346E-08
   37.44000     -4.1037307E-08
   37.50000     -4.1007148E-08
   37.56000     -4.0895152E-08
   37.62000     -4.0673431E-08
   37.68000     -4.0309530E-08
   37.74000     -3.9775689E-08
   37.80000     -3.9056332E-08
   37.86000     -3.8151168E-08
   37.92000     -3.7073342E-08
   37.98000     -3.5844078E-08
   38.04000     -3.4486362E-08
   38.10000     -3.3020306E-08
   38.16000     -3.1461465E-08
   38.22000     -2.9821813E-08
   38.28000     -2.8111952E-08
   38.34000     -2.6342756E-08
   38.40000     -2.4525542E-08
   38.46000     -2.2670946E-08
   38.52000     -2.0787729E-08
   38.58000     -1.8882828E-08
   38.64000     -1.6963202E-08
   38.70000     -1.5038799E-08
   38.76000     -1.3125097E-08
   38.82000     -1.1243597E-08
   38.88000     -9.4194830E-09
   38.94000     -7.6771434E-09
   39.00000     -6.0353367E-09
   39.06000     -4.5040984E-09
   39.12000     -3.0847132E-09
   39.18000     -1.7726264E-09
   39.24000     -5.6181965E-10
   39.30000      5.5143007E-10
   39.36000      1.5670216E-09
   39.42000      2.4821152E-09
   39.48000      3.2938781E-09
   39.54000      4.0021844E-09
   39.60000      4.6107536E-09
   39.66000      5.1261644E-09
   39.72000      5.5553762E-09
   39.78000      5.9031073E-09
   39.84000      6.1704166E-09
   39.90000      6.3550645E-09
   39.96000      6.4532424E-09
   40.02000      6.4615882E-09
   40.08000      6.3783423E-09
   40.14000      6.2031686E-09
   40.20000      5.9359815E-09
   40.26000      5.5758087E-09
   40.32000      5.1207549E-09
   40.38000      4.5695523E-09
   40.44000      3.9243067E-09
   40.50000      3.1932301E-09
   40.56000      2.3918967E-09
   40.62000      1.5419548E-09
   40.68000      6.6718620E-10
   40.74000     -2.1207429E-10
   40.80000     -1.0843254E-09
   40.86000     -1.9500790E-09
   40.92000     -2.8214415E-09
   40.98000     -3.7179271E-09
   41.04000     -4.6597268E-09
   41.10000     -5.6606808E-09
   41.16000     -6.7233907E-09
   41.22000     -7.8381168E-09
   41.28000     -8.9856194E-09
   41.34000     -1.0142466E-08
   41.40000     -1.1286328E-08
   41.46000     -1.2398876E-08
   41.52000     -1.3465033E-08
   41.58000     -1.4469196E-08
   41.64000     -1.5390478E-08
   41.70000     -1.6199664E-08
   41.76000     -1.6859673E-08
   41.82000     -1.7329805E-08
   41.88000     -1.7572095E-08
   41.94000     -1.7557198E-08
   42.00000     -1.7267556E-08
   42.06000     -1.6696877E-08
   42.12000     -1.5846691E-08
   42.18000     -1.4721822E-08
   42.24000     -1.3326496E-08
   42.30000     -1.1661828E-08
   42.36000     -9.7239834E-09
   42.42000     -7.5016473E-09
   42.48000     -4.9716840E-09
   42.54000     -2.0931152E-09
   42.60000      1.1991880E-09
   42.66000      4.9991664E-09
   42.72000      9.4313588E-09
   42.78000      1.4650210E-08
   42.84000      2.0838906E-08
   42.90000      2.8210419E-08
   42.96000      3.7012601E-08
   43.02000      4.7537331E-08
   43.08000      6.0131804E-08
   43.14000      7.5209030E-08
   43.20000      9.3255657E-08
   43.26000      1.1483705E-07
   43.32000      1.4060220E-07
   43.38000      1.7129203E-07
   43.44000      2.0775462E-07
   43.50000      2.5096847E-07
   43.56000      3.0207218E-07
   43.62000      3.6239709E-07
   43.68000      4.3349897E-07
   43.74000      5.1718649E-07
   43.80000      6.1554732E-07
   43.86000      7.3097453E-07
   43.92000      8.6619923E-07
   43.98000      1.0243325E-06
   44.04000      1.2089192E-06
   44.10000      1.4240018E-06
   44.16000      1.6741890E-06
   44.22000      1.9647264E-06
   44.28000      2.3015623E-06
   44.34000      2.6914108E-06
   44.40000      3.1418124E-06
   44.46000      3.6611973E-06
   44.52000      4.2589604E-06
   44.58000      4.9455480E-06
   44.64000      5.7325574E-06
   44.70000      6.6328503E-06
   44.76000      7.6606721E-06
   44.82000      8.8317665E-06
   44.88000      1.0163489E-05
   44.94000      1.1674910E-05
   45.00000      1.3386912E-05
   45.06000      1.5322286E-05
   45.12000      1.7505823E-05
   45.18000      1.9964395E-05
   45.24000      2.2727065E-05
   45.30000      2.5825155E-05
   45.36000      2.9292343E-05
   45.42000      3.3164724E-05
   45.48000      3.7480862E-05
   45.54000      4.2281852E-05
   45.60000      4.7611287E-05
   45.66000      5.3515294E-05
   45.72000      6.0042472E-05
   45.78000      6.7243818E-05
   45.84000      7.5172669E-05
   45.90000      8.3884486E-05
   45.96000      9.3436778E-05
   46.02000      1.0388881E-04
   46.08000      1.1530142E-04
   46.14000      1.2773676E-04
   46.20000      1.4125787E-04
   46.26000      1.5592846E-04
   46.32000      1.7181235E-04
   46.38000      1.8897318E-04
   46.44000      2.0747381E-04
   46.50000      2.2737593E-04
   46.56000      2.4873929E-04
   46.62000      2.7162128E-04
   46.68000      2.9607624E-04
   46.74000      3.2215487E-04
   46.80000      3.4990342E-04
   46.86000      3.7936313E-04
   46.92000      4.1056942E-04
   46.98000      4.4355134E-04
   47.04000      4.7833065E-04
   47.10000      5.1492150E-04
   47.16000      5.5332930E-04
   47.22000      5.9355068E-04
   47.28000      6.3557259E-04
   47.34000      6.7937182E-04
   47.40000      7.2491483E-04
   47.46000      7.7215704E-04
   47.52000      8.2104286E-04
   47.58000      8.7150512E-04
   47.64000      9.2346559E-04
   47.70000      9.7683456E-04
   47.76000      1.0315113E-03
   47.82000      1.0873839E-03
   47.88000      1.1443303E-03
   47.94000      1.2022179E-03
   48.00000      1.2609056E-03
   48.06000      1.3202436E-03
   48.12000      1.3800744E-03
   48.18000      1.4402342E-03
   48.24000      1.5005538E-03
   48.30000      1.5608601E-03
   48.36000      1.6209768E-03
   48.42000      1.6807269E-03
   48.48000      1.7399332E-03
   48.54000      1.7984202E-03
   48.60000      1.8560165E-03
   48.66000      1.9125548E-03
   48.72000      1.9678755E-03
   48.78000      2.0218261E-03
   48.84000      2.0742642E-03
   48.90000      2.1250579E-03
   48.96000      2.1740887E-03
   49.02000      2.2212509E-03
   49.08000      2.2664545E-03
   49.14000      2.3096243E-03
   49.20000      2.3507024E-03
   49.26000      2.3896482E-03
   49.32000      2.4264387E-03
   49.38000      2.4610683E-03
   49.44000      2.4935496E-03
   49.50000      2.5239130E-03
   49.56000      2.5522055E-03
   49.62000      2.5784909E-03
   49.68000      2.6028489E-03
   49.74000      2.6253748E-03
   49.80000      2.6461764E-03
   49.86000      2.6653733E-03
   49.92000      2.6830961E-03
   49.98000      2.6994834E-03
   50.04000      2.7146812E-03
   50.10000      2.7288401E-03
   50.16000      2.7421145E-03
   50.22000      2.7546585E-03
   50.28000      2.7666257E-03
   50.34000      2.7781664E-03
   50.40000      2.7894250E-03
   50.46000      2.8005389E-03
   50.52000      2.8116365E-03
   50.58000      2.8228352E-03
   50.64000      2.8342397E-03
   50.70000      2.8459423E-03
   50.76000      2.8580194E-03
   50.82000      2.8705327E-03
   50.88000      2.8835263E-03
   50.94000      2.8970276E-03
   51.00000      2.9110468E-03
   51.06000      2.9255757E-03
   51.12000      2.9405905E-03
   51.18000      2.9560514E-03
   51.24000      2.9719018E-03
   51.30000      2.9880719E-03
   51.36000      3.0044781E-03
   51.42000      3.0210246E-03
   51.48000      3.0376057E-03
   51.54000      3.0541068E-03
   51.60000      3.0704075E-03
   51.66000      3.0863818E-03
   51.72000      3.1019021E-03
   51.78000      3.1168403E-03
   51.84000      3.1310695E-03
   51.90000      3.1444668E-03
   51.96000      3.1569158E-03
   52.02000      3.1683072E-03
   52.08000      3.1785406E-03
   52.14000      3.1875274E-03
   52.20000      3.1951910E-03
   52.26000      3.2014688E-03
   52.32000      3.2063131E-03
   52.38000      3.2096915E-03
   52.44000      3.2115881E-03
   52.50000      3.2120033E-03
   52.56000      3.2109539E-03
   52.62000      3.2084724E-03
   52.68000      3.2046072E-03
   52.74000      3.1994211E-03
   52.80000      3.1929908E-03
   52.86000      3.1854061E-03
   52.92000      3.1767681E-03
   52.98000      3.1671878E-03
   53.04000      3.1567835E-03
   53.10000      3.1456803E-03
   53.16000      3.1340064E-03
   53.22000      3.1218929E-03
   53.28000      3.1094702E-03
   53.34000      3.0968683E-03
   53.40000      3.0842114E-03
   53.46000      3.0716185E-03
   53.52000      3.0592009E-03
   53.58000      3.0470605E-03
   53.64000      3.0352871E-03
   53.70000      3.0239592E-03
   53.76000      3.0131405E-03
   53.82000      3.0028806E-03
   53.88000      2.9932130E-03
   53.94000      2.9841550E-03
   54.00000      2.9757076E-03
   54.06000      2.9678552E-03
   54.12000      2.9605664E-03
   54.18000      2.9537946E-03
   54.24000      2.9474774E-03
   54.30000      2.9415390E-03
   54.36000      2.9358901E-03
   54.42000      2.9304300E-03
   54.48000      2.9250474E-03
   54.54000      2.9196225E-03
   54.60000      2.9140292E-03
   54.66000      2.9081367E-03
   54.72000      2.9018114E-03
   54.78000      2.8949189E-03
   54.84000      2.8873261E-03
   54.90000      2.8789020E-03
   54.96000      2.8695208E-03
   55.02000      2.8590634E-03
   55.08000      2.8474187E-03
   55.14000      2.8344856E-03
   55.20000      2.8201751E-03
   55.26000      2.8044099E-03
   55.32000      2.7871272E-03
   55.38000      2.7682774E-03
   55.44000      2.7478267E-03
   55.50000      2.7257565E-03
   55.56000      2.7020636E-03