  -2.400000      0.0000000E+00
  -2.340000      0.0000000E+00
  -2.280000      0.0000000E+00
  -2.220000      0.0000000E+00
  -2.160000      0.0000000E+00
  -2.100000      0.0000000E+00
  -2.040000      0.0000000E+00
  -1.980000      0.0000000E+00
  -1.920000     -8.1645275E-25
  -1.860000     -7.7974617E-24
  -1.800000     -3.2452072E-23
  -1.740000     -5.9797872E-23
  -1.680000      6.8348215E-23
  -1.620000      7.9328847E-22
  -1.560000      2.5923861E-21
  -1.500000      4.5933933E-21
  -1.440000      1.8930533E-21
  -1.380000     -1.5933717E-20
  -1.320000     -5.8603872E-20
  -1.260000     -1.1398293E-19
  -1.200000     -1.1575396E-19
  -1.140000      6.9972236E-20
  -1.080000      5.8085677E-19
  -1.020000      1.3679772E-18
 -0.9600000      1.9214095E-18
 -0.9000000      1.1305698E-18
 -0.8400000     -2.3451582E-18
 -0.7800000     -8.8979455E-18
 -0.7200000     -1.6205704E-17
 -0.6600000     -1.8009069E-17
 -0.6000000     -5.3361392E-18
 -0.5400000      2.8224061E-17
 -0.4800000      7.7791307E-17
 -0.4200000      1.1942441E-16
 -0.3600000      1.1114167E-16
 -0.3000000      1.0084730E-17
 -0.2400000     -1.9410934E-16
 -0.1800000     -4.4308624E-16
 -0.1200000     -5.9715373E-16
 -5.9999999E-02 -4.7443358E-16
  0.0000000E+00  4.9376601E-17
  5.9999999E-02  9.1167490E-16
  0.1200000      1.7784842E-15
  0.1800000      2.0953869E-15
  0.2400000      1.3240247E-15
  0.3000000     -6.8719434E-16
  0.3600000     -3.3745968E-15
  0.4200000     -5.4219769E-15
  0.4800000     -5.2035335E-15
  0.5400000     -1.6735295E-15
  0.6000000      4.6481661E-15
  0.6600000      1.1191235E-14
  0.7200000      1.3921476E-14
  0.7800000      9.1572723E-15
  0.8400000     -3.9380726E-15
  0.9000000     -2.1434101E-14
  0.9600000     -3.4747365E-14
   1.020000     -3.3659019E-14
   1.080000     -1.1703293E-14
   1.140000      2.8279698E-14
   1.200000      7.1670209E-14
   1.260000      9.5429707E-14
   1.320000      7.7725159E-14
   1.380000      1.0751035E-14
   1.440000     -8.9358134E-14
   1.500000     -1.8226547E-13
   1.560000     -2.1653628E-13
   1.620000     -1.5358649E-13
   1.680000      7.0382284E-15
   1.740000      2.1456742E-13
   1.800000      3.7734125E-13
   1.860000      3.9851908E-13
   1.920000      2.2574798E-13
   1.980000     -1.0781365E-13
   2.040000     -4.7584468E-13
   2.100000     -6.9847692E-13
   2.160000     -6.2150176E-13
   2.220000     -2.0399558E-13
   2.280000      4.2988695E-13
   2.340000      1.0119053E-12
   2.400000      1.2313832E-12
   2.460000      8.8463541E-13
   2.520000      5.8937819E-15
   2.580000     -1.0929158E-12
   2.640000     -1.9156762E-12
   2.700000     -1.9912923E-12
   2.760000     -1.1170943E-12
   2.820000      4.8057711E-13
   2.880000      2.1680260E-12
   2.940000      3.1350411E-12
   3.000000      2.7610058E-12
   3.060000      9.5951589E-13
   3.120000     -1.6742311E-12
   3.180000     -4.0228719E-12
   3.240000     -4.8899431E-12
   3.300000     -3.5595359E-12
   3.360000     -2.2084171E-13
   3.420000      3.9680763E-12
   3.480000      7.2624224E-12
   3.540000      8.0415926E-12
   3.600000      5.5585358E-12
   3.660000      3.8164423E-13
   3.720000     -5.7125901E-12
   3.780000     -1.0405315E-11
   3.840000     -1.1805320E-11
   3.900000     -9.2992194E-12
   3.960000     -3.8734211E-12
   4.020000      2.2872661E-12
   4.080000      6.7911796E-12
   4.140000      8.1914944E-12
   4.200000      6.7486416E-12
   4.260000      4.3870086E-12
   4.320000      3.7761422E-12
   4.380000      6.8830267E-12
   4.440000      1.3638131E-11
   4.500000      2.1383329E-11
   4.560000      2.5487742E-11
   4.620000      2.1030120E-11
   4.680000      4.9578102E-12
   4.740000     -2.2138564E-11
   4.800000     -5.5413056E-11
   4.860000     -8.6672260E-11
   4.920000     -1.0656490E-10
   4.980000     -1.0729477E-10
   5.040000     -8.4878451E-11
   5.100000     -4.0152322E-11
   5.160000      2.1750178E-11
   5.220000      9.3096052E-11
   5.280000      1.6558921E-10
   5.340000      2.3179339E-10
   5.400000      2.8529498E-10
   5.460000      3.1956282E-10
   5.520000      3.2611061E-10
   5.580000      2.9297562E-10
   5.640000      2.0450559E-10
   5.700000      4.2978798E-11
   5.760000     -2.0815874E-10
   5.820000     -5.6037147E-10
   5.880000     -1.0167528E-09
   5.940000     -1.5705903E-09
   6.000000     -2.2063762E-09
   6.060000     -2.9029779E-09
   6.120000     -3.6378833E-09
   6.180000     -4.3910342E-09
   6.240000     -5.1469558E-09
   6.300000     -5.8946097E-09
   6.360000     -6.6253620E-09
   6.420000     -7.3302608E-09
   6.480000     -7.9980760E-09
   6.540000     -8.6151886E-09
   6.600000     -9.1674872E-09
   6.660000     -9.6433972E-09
   6.720000     -1.0036480E-08
   6.780000     -1.0346069E-08
   6.840000     -1.0575182E-08
   6.900000     -1.0726236E-08
   6.960000     -1.0796238E-08
   7.020000     -1.0773719E-08
   7.080000     -1.0639281E-08
   7.140000     -1.0370335E-08
   7.200000     -9.9489785E-09
   7.260000     -9.3705141E-09
   7.320000     -8.6495815E-09
   7.380000     -7.8215381E-09
   7.440000     -6.9382207E-09
   7.500000     -6.0592091E-09
   7.560000     -5.2411777E-09
   7.620000     -4.5285131E-09
   7.680000     -3.9477359E-09
   7.740000     -3.5067678E-09
   7.800000     -3.1983791E-09
   7.860000     -3.0058305E-09
   7.920000     -2.9083782E-09
   7.980000     -2.8849083E-09
   8.040000     -2.9151901E-09
   8.100000     -2.9795177E-09
   8.160000     -3.0582361E-09
   8.220000     -3.1325793E-09
   8.280000     -3.1874123E-09
   8.340000     -3.2153100E-09
   8.400000     -3.2204357E-09
   8.460000     -3.2203546E-09
   8.520000     -3.2444234E-09
   8.580000     -3.3285186E-09
   8.640000     -3.5072136E-09
   8.700000     -3.8055252E-09
   8.760000     -4.2326160E-09
   8.820000     -4.7792774E-09
   8.880000     -5.4197784E-09
   8.940000     -6.1172640E-09
   9.000000     -6.8308248E-09
   9.060000     -7.5220479E-09
   9.120000     -8.1593710E-09
   9.180000     -8.7196970E-09
   9.240000     -9.1879055E-09
   9.300000     -9.5556683E-09
   9.360000     -9.8209778E-09
   9.420000     -9.9889954E-09
   9.480000     -1.0073668E-08
   9.540000     -1.0098620E-08
   9.600000     -1.0095559E-08
   9.660000     -1.0099246E-08
   9.720000     -1.0139491E-08
   9.780000     -1.0232296E-08
   9.840000     -1.0373262E-08
   9.900000     -1.0536172E-08
   9.960000     -1.0678247E-08
   10.02000     -1.0751269E-08
   10.08000     -1.0715541E-08
   10.14000     -1.0552261E-08
   10.20000     -1.0270129E-08
   10.26000     -9.9036326E-09
   10.32000     -9.5032187E-09
   10.38000     -9.1202370E-09
   10.44000     -8.7913632E-09
   10.50000     -8.5274650E-09
   10.56000     -8.3104705E-09
   10.62000     -8.0992821E-09
   10.68000     -7.8429245E-09
   10.74000     -7.4968920E-09
   10.80000     -7.0377322E-09
   10.86000     -6.4714882E-09
   10.92000     -5.8335039E-09
   10.98000     -5.1796896E-09
   11.04000     -4.5718385E-09
   11.10000     -4.0612531E-09
   11.16000     -3.6753931E-09
   11.22000     -3.4112866E-09
   11.28000     -3.2374643E-09
   11.34000     -3.1036675E-09
   11.40000     -2.9553529E-09
   11.46000     -2.7486879E-09
   11.52000     -2.4617348E-09
   11.58000     -2.0988333E-09
   11.64000     -1.6874222E-09
   11.70000     -1.2688995E-09
   11.76000     -8.8685470E-10
   11.82000     -5.7648969E-10
   11.88000     -3.5820019E-10
   11.94000     -2.3648014E-10
   12.00000     -2.0332153E-10
   12.06000     -2.4387981E-10
   12.12000     -3.4187028E-10
   12.18000     -4.8291648E-10
   12.24000     -6.5541528E-10
   12.30000     -8.4971791E-10
   12.36000     -1.0570049E-09
   12.42000     -1.2689830E-09
   12.48000     -1.4787386E-09
   12.54000     -1.6822311E-09
   12.60000     -1.8794768E-09
   12.66000     -2.0746298E-09
   12.72000     -2.2747646E-09
   12.78000     -2.4878146E-09
   12.84000     -2.7204963E-09
   12.90000     -2.9769618E-09
   12.96000     -3.2584753E-09
   13.02000     -3.5638705E-09
   13.08000     -3.8901868E-09
   13.14000     -4.2328541E-09
   13.20000     -4.5850879E-09
   13.26000     -4.9366222E-09
   13.32000     -5.2722857E-09
   13.38000     -5.5711591E-09
   13.44000     -5.8069318E-09
   13.50000     -5.9497798E-09
   13.56000     -5.9696124E-09
   13.62000     -5.8400782E-09
   13.68000     -5.5423919E-09
   13.74000     -5.0679887E-09
   13.80000     -4.4192126E-09
   13.86000     -3.6077459E-09
   13.92000     -2.6511515E-09
   13.98000     -1.5685268E-09
   14.04000     -3.7664949E-10
   14.10000      9.1207025E-10
   14.16000      2.2891076E-09
   14.22000      3.7470178E-09
   14.28000      5.2754978E-09
   14.34000      6.8580794E-09
   14.40000      8.4711136E-09
   14.46000      1.0085835E-08
   14.52000      1.1673047E-08
   14.58000      1.3208744E-08
   14.64000      1.4678490E-08
   14.70000      1.6078692E-08
   14.76000      1.7414077E-08
   14.82000      1.8692131E-08
   14.88000      1.9916396E-08
   14.94000      2.1081057E-08
   15.00000      2.2168740E-08
   15.06000      2.3152440E-08
   15.12000      2.4001103E-08
   15.18000      2.4687271E-08
   15.24000      2.5194552E-08
   15.30000      2.5522684E-08
   15.36000      2.5688662E-08
   15.42000      2.5723503E-08
   15.48000      2.5665491E-08
   15.54000      2.5551669E-08
   15.60000      2.5409896E-08
   15.66000      2.5253456E-08
   15.72000      2.5079411E-08
   15.78000      2.4870822E-08
   15.84000      2.4601921E-08
   15.90000      2.4244740E-08
   15.96000      2.3775502E-08
   16.02000      2.3179343E-08
   16.08000      2.2452383E-08
   16.14000      2.1600821E-08
   16.20000      2.0637536E-08
   16.26000      1.9577381E-08
   16.32000      1.8432848E-08
   16.38000      1.7211768E-08
   16.44000      1.5917967E-08
   16.50000      1.4554641E-08
   16.56000      1.3128923E-08
   16.62000      1.1655637E-08
   16.68000      1.0158425E-08
   16.74000      8.6676977E-09
   16.80000      7.2161357E-09
   16.86000      5.8334848E-09
   16.92000      4.5423438E-09
   16.98000      3.3560155E-09
   17.04000      2.2784490E-09
   17.10000      1.3056449E-09
   17.16000      4.2772941E-10
   17.22000     -3.6881606E-10
   17.28000     -1.0989334E-09
   17.34000     -1.7768088E-09
   17.40000     -2.4138487E-09
   17.46000     -3.0170479E-09
   17.52000     -3.5879764E-09
   17.58000     -4.1224673E-09
   17.64000     -4.6110085E-09
   17.70000     -5.0399147E-09
   17.76000     -5.3935323E-09
   17.82000     -5.6577112E-09
   17.88000     -5.8243406E-09
   17.94000     -5.8959997E-09
   18.00000     -5.8891141E-09
   18.06000     -5.8340262E-09
   18.12000     -5.7712906E-09
   18.18000     -5.7449685E-09
   18.24000     -5.7949840E-09
   18.30000     -5.9510050E-09
   18.36000     -6.2295560E-09
   18.42000     -6.6346519E-09
   18.48000     -7.1609096E-09
   18.54000     -7.7975342E-09
   18.60000     -8.5318783E-09
   18.66000     -9.3520010E-09
   18.72000     -1.0248188E-08
   18.78000     -1.1213468E-08
   18.84000     -1.2242926E-08
   18.90000     -1.3331551E-08
   18.96000     -1.4470798E-08
   19.02000     -1.5644817E-08
   19.08000     -1.6827908E-08
   19.14000     -1.7984618E-08
   19.20000     -1.9072935E-08
   19.26000     -2.0049709E-08
   19.32000     -2.0876431E-08
   19.38000     -2.1523396E-08
   19.44000     -2.1971227E-08
   19.50000     -2.2209937E-08
   19.56000     -2.2236799E-08
   19.62000     -2.2054428E-08
   19.68000     -2.1670049E-08
   19.74000     -2.1095966E-08
   19.80000     -2.0350560E-08
   19.86000     -1.9458865E-08
   19.92000     -1.8451953E-08
   19.98000     -1.7364981E-08
   20.04000     -1.6234141E-08
   20.10000     -1.5093370E-08
   20.16000     -1.3971685E-08
   20.22000     -1.2892025E-08
   20.28000     -1.1872006E-08
   20.34000     -1.0926264E-08
   20.40000     -1.0069424E-08
   20.46000     -9.3182093E-09
   20.52000     -8.6915124E-09
   20.58000     -8.2078895E-09
   20.64000     -7.8811819E-09
   20.70000     -7.7157987E-09
   20.76000     -7.7035240E-09
   20.82000     -7.8231537E-09
   20.88000     -8.0432478E-09
   20.94000     -8.3270884E-09
   21.00000     -8.6383345E-09
   21.06000     -8.9457872E-09
   21.12000     -9.2262633E-09
   21.18000     -9.4653236E-09
   21.24000     -9.6561932E-09
   21.30000     -9.7975521E-09
   21.36000     -9.8909112E-09
   21.42000     -9.9382129E-09
   21.48000     -9.9402921E-09
   21.54000     -9.8967154E-09
   21.60000     -9.8073150E-09
   21.66000     -9.6752579E-09
   21.72000     -9.5108295E-09
   21.78000     -9.3345447E-09
   21.84000     -9.1780832E-09
   21.90000     -9.0820436E-09
   21.96000     -9.0905763E-09
   22.02000     -9.2441290E-09
   22.08000     -9.5723216E-09
   22.14000     -1.0088922E-08
   22.20000     -1.0790125E-08
   22.26000     -1.1656048E-08
   22.32000     -1.2654358E-08
   22.38000     -1.3744555E-08
   22.44000     -1.4881737E-08
   22.50000     -1.6019509E-08
   22.56000     -1.7112400E-08
   22.62000     -1.8118396E-08
   22.68000     -1.9002021E-08
   22.74000     -1.9737739E-08
   22.80000     -2.0313022E-08
   22.86000     -2.0730321E-08
   22.92000     -2.1007295E-08
   22.98000     -2.1175255E-08
   23.04000     -2.1276096E-08
   23.10000     -2.1358288E-08
   23.16000     -2.1472550E-08
   23.22000     -2.1667729E-08
   23.28000     -2.1987193E-08
   23.34000     -2.2465874E-08
   23.40000     -2.3127807E-08
   23.46000     -2.3983876E-08
   23.52000     -2.5029564E-08
   23.58000     -2.6242789E-08
   23.64000     -2.7582420E-08
   23.70000     -2.8988477E-08
   23.76000     -3.0385081E-08
   23.82000     -3.1686671E-08
   23.88000     -3.2807119E-08
   23.94000     -3.3670258E-08
   24.00000     -3.4219777E-08
   24.06000     -3.4426339E-08
   24.12000     -3.4290537E-08
   24.18000     -3.3841218E-08
   24.24000     -3.3129798E-08
   24.30000     -3.2221742E-08
   24.36000     -3.1186680E-08
   24.42000     -3.0088398E-08
   24.48000     -2.8976126E-08
   24.54000     -2.7878070E-08
   24.60000     -2.6798322E-08
   24.66000     -2.5717670E-08
   24.72000     -2.4598418E-08
   24.78000     -2.3392420E-08
   24.84000     -2.2050981E-08
   24.90000     -2.0534792E-08
   24.96000     -1.8822131E-08
   25.02000     -1.6913983E-08
   25.08000     -1.4835300E-08
   25.14000     -1.2632245E-08
   25.20000     -1.0365945E-08
   25.26000     -8.1038243E-09
   25.32000     -5.9101697E-09
   25.38000     -3.8379668E-09
   25.44000     -1.9238691E-09
   25.50000     -1.8746388E-10
   25.56000      1.3653074E-09
   25.62000      2.7361096E-09
   25.68000      3.9280099E-09
   25.74000      4.9414997E-09
   25.80000      5.7740697E-09
   25.86000      6.4229932E-09
   25.92000      6.8895325E-09
   25.98000      7.1821398E-09
   26.04000      7.3167890E-09
   26.10000      7.3138606E-09
   26.16000      7.1925128E-09
   26.22000      6.9644406E-09
   26.28000      6.6290600E-09
   26.34000      6.1716134E-09
   26.40000      5.5647162E-09
   26.46000      4.7730535E-09
   26.52000      3.7602712E-09
   26.58000      2.4967721E-09
   26.64000      9.6691832E-10
   26.70000     -8.2588358E-10
   26.76000     -2.8574918E-09
   26.82000     -5.0853859E-09
   26.88000     -7.4547479E-09
   26.94000     -9.9069029E-09
   27.00000     -1.2387976E-08
   27.06000     -1.4855570E-08
   27.12000     -1.7281872E-08
   27.18000     -1.9652740E-08
   27.24000     -2.1963615E-08
   27.30000     -2.4213877E-08
   27.36000     -2.6401633E-08
   27.42000     -2.8520468E-08
   27.48000     -3.0558908E-08
   27.54000     -3.2502388E-08
   27.60000     -3.4336718E-08
   27.66000     -3.6051556E-08
   27.72000     -3.7642661E-08
   27.78000     -3.9111878E-08
   27.84000     -4.0464901E-08
   27.90000     -4.1707462E-08
   27.96000     -4.2841172E-08
   28.02000     -4.3860432E-08
   28.08000     -4.4751449E-08
   28.14000     -4.5493767E-08
   28.20000     -4.6063885E-08
   28.26000     -4.6440075E-08
   28.32000     -4.6606974E-08
   28.38000     -4.6558775E-08
   28.44000     -4.6300187E-08
   28.50000     -4.5844988E-08
   28.56000     -4.5212889E-08
   28.62000     -4.4425757E-08
   28.68000     -4.3504549E-08
   28.74000     -4.2467860E-08
   28.80000     -4.1332182E-08
   28.86000     -4.0113079E-08
   28.92000     -3.8825966E-08
   28.98000     -3.7485339E-08
   29.04000     -3.6101987E-08
   29.10000     -3.4679136E-08
   29.16000     -3.3209229E-08
   29.22000     -3.1673505E-08
   29.28000     -3.0045669E-08
   29.34000     -2.8299571E-08
   29.40000     -2.6418974E-08
   29.46000     -2.4406393E-08
   29.52000     -2.2287855E-08
   29.58000     -2.0111470E-08
   29.64000     -1.7939769E-08
   29.70000     -1.5837685E-08
   29.76000     -1.3859649E-08
   29.82000     -1.2039402E-08
   29.88000     -1.0385245E-08
   29.94000     -8.8816288E-09
   30.00000     -7.4961388E-09
   30.06000     -6.1895533E-09
   30.12000     -4.9262385E-09
   30.18000     -3.6824710E-09
   30.24000     -2.4511426E-09
   30.30000     -1.2422533E-09
   30.36000     -7.9390015E-11
   30.42000      1.0069557E-09
   30.48000      1.9878243E-09
   30.54000      2.8441196E-09
   30.60000      3.5727872E-09
   30.66000      4.1890984E-09
   30.72000      4.7242130E-09
   30.78000      5.2185403E-09
   30.84000      5.7127276E-09
   30.90000      6.2388334E-09
   30.96000      6.8140955E-09
   31.02000      7.4386732E-09
   31.08000      8.0973601E-09
   31.14000      8.7640135E-09
   31.20000      9.4068948E-09
   31.26000      9.9932418E-09
   31.32000      1.0492100E-08
   31.38000      1.0875220E-08
   31.44000      1.1116446E-08
   31.50000      1.1190285E-08
   31.56000      1.1070335E-08
   31.62000      1.0728177E-08
   31.68000      1.0133257E-08
   31.74000      9.2542232E-09
   31.80000      8.0620683E-09
   31.86000      6.5350170E-09
   31.92000      4.6645057E-09
   31.98000      2.4608824E-09
   32.04000     -4.3002189E-11
   32.10000     -2.7920235E-09
   32.16000     -5.7136882E-09
   32.22000     -8.7271488E-09
   32.28000     -1.1754233E-08
   32.34000     -1.4729476E-08
   32.40000     -1.7606220E-08
   32.46000     -2.0357119E-08
   32.52000     -2.2969273E-08
   32.58000     -2.5436128E-08
   32.64000     -2.7749239E-08
   32.70000     -2.9892803E-08
   32.76000     -3.1842635E-08
   32.82000     -3.3569464E-08
   32.88000     -3.5044973E-08
   32.94000     -3.6248402E-08
   33.00000     -3.7171500E-08
   33.06000     -3.7820758E-08
   33.12000     -3.8216573E-08
   33.18000     -3.8390006E-08
   33.24000     -3.8377983E-08
   33.30000     -3.8218090E-08
   33.36000     -3.7943696E-08
   33.42000     -3.7580264E-08
   33.48000     -3.7143504E-08
   33.54000     -3.6639786E-08
   33.60000     -3.6068958E-08
   33.66000     -3.5428975E-08
   33.72000     -3.4721104E-08
   33.78000     -3.3953924E-08
   33.84000     -3.3144630E-08
   33.90000     -3.2316802E-08
   33.96000     -3.1495357E-08
   34.02000     -3.0700573E-08
   34.08000     -2.9943639E-08
   34.14000     -2.9225735E-08
   34.20000     -2.8541116E-08
   34.26000     -2.7882919E-08
   34.32000     -2.7249259E-08
   34.38000     -2.6647072E-08
   34.44000     -2.6092259E-08
   34.50000     -2.5606241E-08
   34.56000     -2.5210422E-08
   34.62000     -2.4920574E-08
   34.68000     -2.4742759E-08
   34.74000     -2.4671664E-08
   34.80000     -2.4691358E-08
   34.86000     -2.4778192E-08
   34.92000     -2.4905349E-08
   34.98000     -2.5048466E-08
   35.04000     -2.5191229E-08
   35.10000     -2.5329312E-08
   35.16000     -2.5470893E-08
   35.22000     -2.5632684E-08
   35.28000     -2.5831943E-08
   35.34000     -2.6077000E-08
   35.40000     -2.6359933E-08
   35.46000     -2.6654892E-08
   35.52000     -2.6923637E-08
   35.58000     -2.7126825E-08
   35.64000     -2.7237141E-08
   35.70000     -2.7249122E-08
   35.76000     -2.7181811E-08
   35.82000     -2.7073060E-08
   35.88000     -2.6967623E-08
   35.94000     -2.6903404E-08
   36.00000     -2.6900681E-08
   36.06000     -2.6957455E-08
   36.12000     -2.7051581E-08
   36.18000     -2.7147911E-08
   36.24000     -2.7207514E-08
   36.30000     -2.7196169E-08
   36.36000     -2.7090492E-08
   36.42000     -2.6881198E-08
   36.48000     -2.6573680E-08
   36.54000     -2.6186038E-08
   36.60000     -2.5744631E-08
   36.66000     -2.5277398E-08
   36.72000     -2.4806072E-08
   36.78000     -2.4339482E-08
   36.84000     -2.3870578E-08
   36.90000     -2.3379080E-08
   36.96000     -2.2839593E-08
   37.02000     -2.2232626E-08
   37.08000     -2.1554266E-08
   37.14000     -2.0820476E-08
   37.20000     -2.0064109E-08
   37.26000     -1.9325892E-08
   37.32000     -1.8643272E-08
   37.38000     -1.8041716E-08
   37.44000     -1.7531679E-08
   37.50000     -1.7111541E-08
   37.56000     -1.6774019E-08
   37.62000     -1.6512397E-08
   37.68000     -1.6323526E-08
   37.74000     -1.6206807E-08
   37.80000     -1.6160678E-08
   37.86000     -1.6179312E-08
   37.92000     -1.6251938E-08
   37.98000     -1.6365549E-08
   38.04000     -1.6509892E-08
   38.10000     -1.6682442E-08
   38.16000     -1.6890986E-08
   38.22000     -1.7152530E-08
   38.28000     -1.7488640E-08
   38.34000     -1.7918795E-08
   38.40000     -1.8454006E-08
   38.46000     -1.9092901E-08
   38.52000     -1.9821783E-08
   38.58000     -2.0618847E-08
   38.64000     -2.1461297E-08
   38.70000     -2.2333024E-08
   38.76000     -2.3229983E-08
   38.82000     -2.4161086E-08
   38.88000     -2.5143926E-08
   38.94000     -2.6196712E-08
   39.00000     -2.7329248E-08
   39.06000     -2.8536537E-08
   39.12000     -2.9797475E-08
   39.18000     -3.1079246E-08
   39.24000     -3.2345667E-08
   39.30000     -3.3566305E-08
   39.36000     -3.4722706E-08
   39.42000     -3.5809634E-08
   39.48000     -3.6830958E-08
   39.54000     -3.7792173E-08
   39.60000     -3.8692811E-08
   39.66000     -3.9521971E-08
   39.72000     -4.0259060E-08
   39.78000     -4.0879762E-08
   39.84000     -4.1365205E-08
   39.90000     -4.1711093E-08
   39.96000     -4.1933255E-08
   40.02000     -4.2067366E-08
   40.08000     -4.2162537E-08
   40.14000     -4.2270376E-08
   40.20000     -4.2432909E-08
   40.26000     -4.2672738E-08
   40.32000     -4.2988308E-08
   40.38000     -4.3355513E-08
   40.44000     -4.3735064E-08
   40.50000     -4.4083528E-08
   40.56000     -4.4365144E-08
   40.62000     -4.4561268E-08
   40.68000     -4.4674838E-08
   40.74000     -4.4728594E-08
   40.80000     -4.4757208E-08
   40.86000     -4.4795392E-08
   40.92000     -4.4865477E-08
   40.98000     -4.4968402E-08
   41.04000     -4.5081379E-08
   41.10000     -4.5163549E-08
   41.16000     -4.5168218E-08
   41.22000     -4.5058002E-08
   41.28000     -4.4817920E-08
   41.34000     -4.4461906E-08
   41.40000     -4.4030283E-08
   41.46000     -4.3578591E-08
   41.52000     -4.3161084E-08
   41.58000     -4.2814023E-08
   41.64000     -4.2544123E-08
   41.70000     -4.2326146E-08
   41.76000     -4.2110763E-08
   41.82000     -4.1840519E-08
   41.88000     -4.1469121E-08
   41.94000     -4.0977866E-08
   42.00000     -4.0383796E-08
   42.06000     -3.9736836E-08
   42.12000     -3.9106876E-08
   42.18000     -3.8565005E-08
   42.24000     -3.8165055E-08
   42.30000     -3.7931141E-08
   42.36000     -3.7854516E-08
   42.42000     -3.7899749E-08
   42.48000     -3.8017149E-08
   42.54000     -3.8157069E-08
   42.60000     -3.8281691E-08
   42.66000     -3.8371546E-08
   42.72000     -3.8425984E-08
   42.78000     -3.8458534E-08
   42.84000     -3.8489208E-08
   42.90000     -3.8536186E-08
   42.96000     -3.8609315E-08
   43.02000     -3.8707217E-08
   43.08000     -3.8818996E-08
   43.14000     -3.8929983E-08
   43.20000     -3.9029597E-08
   43.26000     -3.9118177E-08
   43.32000     -3.9209670E-08
   43.38000     -3.9328423E-08
   43.44000     -3.9500719E-08
   43.50000     -3.9744041E-08
   43.56000     -4.0058332E-08
   43.62000     -4.0423100E-08
   43.68000     -4.0801563E-08
   43.74000     -4.1150422E-08
   43.80000     -4.1431335E-08
   43.86000     -4.1619803E-08
   43.92000     -4.1708702E-08
   43.98000     -4.1706198E-08
   44.04000     -4.1630010E-08
   44.10000     -4.1500950E-08
   44.16000     -4.1337888E-08
   44.22000     -4.1154774E-08
   44.28000     -4.0959161E-08
   44.34000     -4.0751289E-08
   44.40000     -4.0523659E-08
   44.46000     -4.0261998E-08
   44.52000     -3.9948748E-08
   44.58000     -3.9569183E-08
   44.64000     -3.9118625E-08
   44.70000     -3.8607837E-08
   44.76000     -3.8063735E-08
   44.82000     -3.7524124E-08
   44.88000     -3.7027899E-08
   44.94000     -3.6604149E-08
   45.00000     -3.6264311E-08
   45.06000     -3.6000127E-08
   45.12000     -3.5787874E-08
   45.18000     -3.5596866E-08
   45.24000     -3.5399367E-08
   45.30000     -3.5179216E-08
   45.36000     -3.4937720E-08
   45.42000     -3.4696683E-08
   45.48000     -3.4498761E-08
   45.54000     -3.4405456E-08
   45.60000     -3.4492647E-08
   45.66000     -3.4843818E-08
   45.72000     -3.5541898E-08
   45.78000     -3.6661543E-08
   45.84000     -3.8264350E-08
   45.90000     -4.0399055E-08
   45.96000     -4.3107558E-08
   46.02000     -4.6435982E-08
   46.08000     -5.0448538E-08
   46.14000     -5.5241411E-08
   46.20000     -6.0954122E-08
   46.26000     -6.7776710E-08
   46.32000     -7.5952308E-08
   46.38000     -8.5775753E-08
   46.44000     -9.7589698E-08
   46.50000     -1.1178010E-07
   46.56000     -1.2877319E-07
   46.62000     -1.4903580E-07
   46.68000     -1.7308011E-07
   46.74000     -2.0147371E-07
   46.80000     -2.3485400E-07
   46.86000     -2.7394543E-07
   46.92000     -3.1957737E-07
   46.98000     -3.7270007E-07
   47.04000     -4.3439698E-07
   47.10000     -5.0589364E-07
   47.16000     -5.8856381E-07
   47.22000     -6.8393615E-07
   47.28000     -7.9370477E-07
   47.34000     -9.1974528E-07
   47.40000     -1.0641376E-06
   47.46000     -1.2291922E-06
   47.52000     -1.4174784E-06
   47.58000     -1.6318484E-06
   47.64000     -1.8754564E-06
   47.70000     -2.1517744E-06
   47.76000     -2.4646022E-06
   47.82000     -2.8180784E-06
   47.88000     -3.2166938E-06
   47.94000     -3.6653057E-06
   48.00000     -4.1691574E-06
   48.06000     -4.7338972E-06
   48.12000     -5.3655926E-06
   48.18000     -6.0707507E-06
   48.24000     -6.8563309E-06
   48.30000     -7.7297555E-06
   48.36000     -8.6989121E-06
   48.42000     -9.7721504E-06
   48.48000     -1.0958269E-05
   48.54000     -1.2266492E-05
   48.60000     -1.3706439E-05
   48.66000     -1.5288104E-05
   48.72000     -1.7021814E-05
   48.78000     -1.8918216E-05
   48.84000     -2.0988229E-05
   48.90000     -2.3243019E-05
   48.96000     -2.5693931E-05
   49.02000     -2.8352426E-05
   49.08000     -3.1229993E-05
   49.14000     -3.4338071E-05
   49.20000     -3.7687962E-05
   49.26000     -4.1290728E-05
   49.32000     -4.5157114E-05
   49.38000     -4.9297418E-05
   49.44000     -5.3721411E-05
   49.50000     -5.8438181E-05
   49.56000     -6.3456042E-05
   49.62000     -6.8782399E-05
   49.68000     -7.4423624E-05
   49.74000     -8.0384918E-05
   49.80000     -8.6670203E-05
   49.86000     -9.3282011E-05
   49.92000     -1.0022137E-04
   49.98000     -1.0748766E-04
   50.04000     -1.1507853E-04
   50.10000     -1.2298980E-04
   50.16000     -1.3121541E-04
   50.22000     -1.3974727E-04
   50.28000     -1.4857535E-04
   50.34000     -1.5768757E-04
   50.40000     -1.6706977E-04
   50.46000     -1.7670575E-04
   50.52000     -1.8657731E-04
   50.58000     -1.9666416E-04
   50.64000     -2.0694411E-04
   50.70000     -2.1739314E-04
   50.76000     -2.2798548E-04
   50.82000     -2.3869383E-04
   50.88000     -2.4948944E-04
   50.94000     -2.6034247E-04
   51.00000     -2.7122186E-04
   51.06000     -2.8209583E-04
   51.12000     -2.9293192E-04
   51.18000     -3.0369745E-04
   51.24000     -3.1435958E-04
   51.30000     -3.2488577E-04
   51.36000     -3.3524385E-04
   51.42000     -3.4540243E-04
   51.48000     -3.5533120E-04
   51.54000     -3.6500127E-04
   51.60000     -3.7438545E-04
   51.66000     -3.8345839E-04
   51.72000     -3.9219714E-04
   51.78000     -4.0058087E-04
   51.84000     -4.0859141E-04
   51.90000     -4.1621324E-04
   51.96000     -4.2343393E-04
   52.02000     -4.3024408E-04
   52.08000     -4.3663761E-04
   52.14000     -4.4261172E-04
   52.20000     -4.4816697E-04
   52.26000     -4.5330718E-04
   52.32000     -4.5803943E-04
   52.38000     -4.6237384E-04
   52.44000     -4.6632357E-04
   52.50000     -4.6990465E-04
   52.56000     -4.7313588E-04
   52.62000     -4.7603846E-04
   52.68000     -4.7863580E-04
   52.74000     -4.8095317E-04
   52.80000     -4.8301727E-04
   52.86000     -4.8485596E-04
   52.92000     -4.8649803E-04
   52.98000     -4.8797269E-04
   53.04000     -4.8930937E-04
   53.10000     -4.9053720E-04
   53.16000     -4.9168459E-04
   53.22000     -4.9277872E-04
   53.28000     -4.9384561E-04
   53.34000     -4.9490924E-04
   53.40000     -4.9599161E-04
   53.46000     -4.9711263E-04
   53.52000     -4.9828936E-04
   53.58000     -4.9953599E-04
   53.64000     -5.0086371E-04
   53.70000     -5.0228066E-04
   53.76000     -5.0379161E-04
   53.82000     -5.0539809E-04
   53.88000     -5.0709810E-04
   53.94000     -5.0888670E-04
   54.00000     -5.1075540E-04
   54.06000     -5.1269284E-04
   54.12000     -5.1468471E-04
   54.18000     -5.1671430E-04
   54.24000     -5.1876222E-04
   54.30000     -5.2080734E-04
   54.36000     -5.2282651E-04
   54.42000     -5.2479544E-04
   54.48000     -5.2668870E-04
   54.54000     -5.2848022E-04
   54.60000     -5.3014362E-04
   54.66000     -5.3165277E-04
   54.72000     -5.3298206E-04
   54.78000     -5.3410704E-04
   54.84000     -5.3500454E-04
   54.90000     -5.3565326E-04
   54.96000     -5.3603406E-04
   55.02000     -5.3613016E-04
   55.08000     -5.3592742E-04
   55.14000     -5.3541479E-04
   55.20000     -5.3458393E-04
   55.26000     -5.3343014E-04
   55.32000     -5.3195172E-04
   55.38000     -5.3015049E-04
   55.44000     -5.2803184E-04
   55.50000     -5.2560464E-04
   55.56000     -5.2288081E-04