  -2.400000      0.0000000E+00
  -2.340000      0.0000000E+00
  -2.280000      0.0000000E+00
  -2.220000      0.0000000E+00
  -2.160000      0.0000000E+00
  -2.100000      0.0000000E+00
  -2.040000      0.0000000E+00
  -1.980000      0.0000000E+00
  -1.920000     -6.3393103E-26
  -1.860000     -6.3598351E-25
  -1.800000     -2.6949524E-24
  -1.740000     -4.1055611E-24
  -1.680000      1.5804159E-23
  -1.620000      1.2306095E-22
  -1.560000      4.2075809E-22
  -1.500000      8.8079165E-22
  -1.440000      8.9321804E-22
  -1.380000     -1.2777100E-21
  -1.320000     -8.2161928E-21
  -1.260000     -2.0709144E-20
  -1.200000     -3.2025150E-20
  -1.140000     -2.2124383E-20
  -1.080000      3.9500065E-20
  -1.020000      1.7139754E-19
 -0.9600000      3.3693460E-19
 -0.9000000      4.0454540E-19
 -0.8400000      1.6456647E-19
 -0.7800000     -5.4430857E-19
 -0.7200000     -1.6092060E-18
 -0.6600000     -2.4511305E-18
 -0.6000000     -2.1058993E-18
 -0.5400000      2.2994150E-19
 -0.4800000      4.2930802E-18
 -0.4200000      8.0569699E-18
 -0.3600000      8.1145128E-18
 -0.3000000      1.6970549E-18
 -0.2400000     -1.0235846E-17
 -0.1800000     -2.0887631E-17
 -0.1200000     -1.9256131E-17
 -5.9999999E-02  3.0590380E-18
  0.0000000E+00  4.2054405E-17
  5.9999999E-02  7.4978668E-17
  0.1200000      6.5509297E-17
  0.1800000     -1.5676528E-17
  0.2400000     -1.6120654E-16
  0.3000000     -3.0588088E-16
  0.3600000     -3.3610220E-16
  0.4200000     -1.4174190E-16
  0.4800000      3.0230042E-16
  0.5400000      8.6591374E-16
  0.6000000      1.2595278E-15
  0.6600000      1.1327470E-15
  0.7200000      2.6246438E-16
  0.7800000     -1.2462983E-15
  0.8400000     -2.8644018E-15
  0.9000000     -3.7495459E-15
  0.9600000     -3.0841812E-15
   1.020000     -5.3767682E-16
   1.080000      3.3564117E-15
   1.140000      7.1439707E-15
   1.200000      8.8603805E-15
   1.260000      6.8576876E-15
   1.320000      7.6822564E-16
   1.380000     -7.8406579E-15
   1.440000     -1.5563407E-14
   1.500000     -1.8223680E-14
   1.560000     -1.2718871E-14
   1.620000      1.0191320E-15
   1.680000      1.8914986E-14
   1.740000      3.3382592E-14
   1.800000      3.6006754E-14
   1.860000      2.1599638E-14
   1.920000     -8.0430310E-15
   1.980000     -4.2820226E-14
   2.040000     -6.7003748E-14
   2.100000     -6.5804113E-14
   2.160000     -3.3478564E-14
   2.220000      2.1045684E-14
   2.280000      7.4991229E-14
   2.340000      1.0055013E-13
   2.400000      7.9142822E-14
   2.460000      1.4584320E-14
   2.520000     -6.2806958E-14
   2.580000     -1.0636871E-13
   2.640000     -7.6101946E-14
   2.700000      3.4728903E-14
   2.760000      1.8355293E-13
   2.820000      2.8549786E-13
   2.880000      2.4684185E-13
   2.940000      1.4826624E-14
   3.000000     -3.7791631E-13
   3.060000     -7.9922343E-13
   3.120000     -1.0494058E-12
   3.180000     -9.3600301E-13
   3.240000     -3.6601559E-13
   3.300000      5.8369970E-13
   3.360000      1.6550291E-12
   3.420000      2.4731844E-12
   3.480000      2.6728103E-12
   3.540000      2.0415477E-12
   3.600000      6.2333526E-13
   3.660000     -1.2656768E-12
   3.720000     -3.1229596E-12
   3.780000     -4.4194123E-12
   3.840000     -4.7723383E-12
   3.900000     -4.0628768E-12
   3.960000     -2.4519260E-12
   4.020000     -2.9336584E-13
   4.080000      2.0098157E-12
   4.140000      4.1348795E-12
   4.200000      5.8916717E-12
   4.260000      7.1775936E-12
   4.320000      7.8707397E-12
   4.380000      7.7376196E-12
   4.440000      6.4337407E-12
   4.500000      3.6317451E-12
   4.560000     -7.6002334E-13
   4.620000     -6.3906107E-12
   4.680000     -1.2394659E-11
   4.740000     -1.7537225E-11
   4.800000     -2.0562005E-11
   4.860000     -2.0622030E-11
   4.920000     -1.7604257E-11
   4.980000     -1.2173196E-11
   5.040000     -5.4616420E-12
   5.100000      1.5058719E-12
   5.160000      8.4244400E-12
   5.220000      1.6055941E-11
   5.280000      2.6068413E-11
   5.340000      4.0294518E-11
   5.400000      5.9564048E-11
   5.460000      8.2464258E-11
   5.520000      1.0447031E-10
   5.580000      1.1782414E-10
   5.640000      1.1233951E-10
   5.700000      7.7042248E-11
   5.760000      2.3118629E-12
   5.820000     -1.1794216E-10
   5.880000     -2.8452138E-10
   5.940000     -4.9190280E-10
   6.000000     -7.2802225E-10
   6.060000     -9.7478370E-10
   6.120000     -1.2090990E-09
   6.180000     -1.4042757E-09
   6.240000     -1.5316574E-09
   6.300000     -1.5625334E-09
   6.360000     -1.4703783E-09
   6.420000     -1.2334344E-09
   6.480000     -8.3750429E-10
   6.540000     -2.7864144E-10
   6.600000      4.3471410E-10
   6.660000      1.2806199E-09
   6.720000      2.2238882E-09
   6.780000      3.2178322E-09
   6.840000      4.2073576E-09
   6.900000      5.1330447E-09
   6.960000      5.9357781E-09
   7.020000      6.5615025E-09
   7.080000      6.9657706E-09
   7.140000      7.1178330E-09
   7.200000      7.0039903E-09
   7.260000      6.6298522E-09
   7.320000      6.0209868E-09
   7.380000      5.2214513E-09
   7.440000      4.2898307E-09
   7.500000      3.2928344E-09
   7.560000      2.2970834E-09
   7.620000      1.3603122E-09
   7.680000      5.2360583E-10
   7.740000     -1.9369886E-10
   7.800000     -7.9525725E-10
   7.860000     -1.3047143E-09
   7.920000     -1.7590117E-09
   7.980000     -2.1993862E-09
   8.040000     -2.6619020E-09
   8.100000     -3.1693570E-09
   8.160000     -3.7259564E-09
   8.220000     -4.3154573E-09
   8.280000     -4.9027493E-09
   8.340000     -5.4382907E-09
   8.400000     -5.8645098E-09
   8.460000     -6.1232490E-09
   8.520000     -6.1633987E-09
   8.580000     -5.9479452E-09
   8.640000     -5.4596772E-09
   8.700000     -4.7047322E-09
   8.760000     -3.7131973E-09
   8.820000     -2.5361961E-09
   8.880000     -1.2394271E-09
   8.940000      1.0614183E-10
   9.000000      1.4348932E-09
   9.060000      2.6964047E-09
   9.120000      3.8623682E-09
   9.180000      4.9289994E-09
   9.240000      5.9144618E-09
   9.300000      6.8521433E-09
   9.360000      7.7817282E-09
   9.420000      8.7404990E-09
   9.480000      9.7570236E-09
   9.540000      1.0848386E-08
   9.600000      1.2020828E-08
   9.660000      1.3272514E-08
   9.720000      1.4596567E-08
   9.780000      1.5982749E-08
   9.840000      1.7417063E-08
   9.900000      1.8879723E-08
   9.960000      2.0342961E-08
   10.02000      2.1770509E-08
   10.08000      2.3120121E-08
   10.14000      2.4349486E-08
   10.20000      2.5424425E-08
   10.26000      2.6327189E-08
   10.32000      2.7062178E-08
   10.38000      2.7656892E-08
   10.44000      2.8157126E-08
   10.50000      2.8617141E-08
   10.56000      2.9087088E-08
   10.62000      2.9601029E-08
   10.68000      3.0168792E-08
   10.74000      3.0774117E-08
   10.80000      3.1379695E-08
   10.86000      3.1937763E-08
   10.92000      3.2403346E-08
   10.98000      3.2746293E-08
   11.04000      3.2958663E-08
   11.10000      3.3055308E-08
   11.16000      3.3067639E-08
   11.22000      3.3032656E-08
   11.28000      3.2980747E-08
   11.34000      3.2926405E-08
   11.40000      3.2864826E-08
   11.46000      3.2775770E-08
   11.52000      3.2633515E-08
   11.58000      3.2419720E-08
   11.64000      3.2134988E-08
   11.70000      3.1804930E-08
   11.76000      3.1478297E-08
   11.82000      3.1216942E-08
   11.88000      3.1080059E-08
   11.94000      3.1107163E-08
   12.00000      3.1304964E-08
   12.06000      3.1642504E-08
   12.12000      3.2056644E-08
   12.18000      3.2467025E-08
   12.24000      3.2796695E-08
   12.30000      3.2992713E-08
   12.36000      3.3040809E-08
   12.42000      3.2969744E-08
   12.48000      3.2843925E-08
   12.54000      3.2746097E-08
   12.60000      3.2754780E-08
   12.66000      3.2922589E-08
   12.72000      3.3261184E-08
   12.78000      3.3736789E-08
   12.84000      3.4277356E-08
   12.90000      3.4789249E-08
   12.96000      3.5178985E-08
   13.02000      3.5374267E-08
   13.08000      3.5338818E-08
   13.14000      3.5077321E-08
   13.20000      3.4629295E-08
   13.26000      3.4053883E-08
   13.32000      3.3409794E-08
   13.38000      3.2736047E-08
   13.44000      3.2038734E-08
   13.50000      3.1287453E-08
   13.56000      3.0422125E-08
   13.62000      2.9368254E-08
   13.68000      2.8056222E-08
   13.74000      2.6439363E-08
   13.80000      2.4506022E-08
   13.86000      2.2282608E-08
   13.92000      1.9827283E-08
   13.98000      1.7216488E-08
   14.04000      1.4528379E-08
   14.10000      1.1827905E-08
   14.16000      9.1574268E-09
   14.22000      6.5349384E-09
   14.28000      3.9594537E-09
   14.34000      1.4210570E-09
   14.40000     -1.0880742E-09
   14.46000     -3.5651528E-09
   14.52000     -5.9929230E-09
   14.58000     -8.3407006E-09
   14.64000     -1.0568854E-08
   14.70000     -1.2634488E-08
   14.76000     -1.4496279E-08
   14.82000     -1.6117566E-08
   14.88000     -1.7467942E-08
   14.94000     -1.8524531E-08
   15.00000     -1.9274085E-08
   15.06000     -1.9716275E-08
   15.12000     -1.9867612E-08
   15.18000     -1.9764339E-08
   15.24000     -1.9462576E-08
   15.30000     -1.9034395E-08
   15.36000     -1.8559721E-08
   15.42000     -1.8115234E-08
   15.48000     -1.7762591E-08
   15.54000     -1.7538740E-08
   15.60000     -1.7450756E-08
   15.66000     -1.7476673E-08
   15.72000     -1.7572210E-08
   15.78000     -1.7681907E-08
   15.84000     -1.7751955E-08
   15.90000     -1.7741753E-08
   15.96000     -1.7631633E-08
   16.02000     -1.7425410E-08
   16.08000     -1.7147958E-08
   16.14000     -1.6839389E-08
   16.20000     -1.6548132E-08
   16.26000     -1.6325179E-08
   16.32000     -1.6220801E-08
   16.38000     -1.6283710E-08
   16.44000     -1.6561396E-08
   16.50000     -1.7099694E-08
   16.56000     -1.7939893E-08
   16.62000     -1.9112724E-08
   16.68000     -2.0630122E-08
   16.74000     -2.2476900E-08
   16.80000     -2.4605166E-08
   16.86000     -2.6933796E-08
   16.92000     -2.9354021E-08
   16.98000     -3.1740441E-08
   17.04000     -3.3965161E-08
   17.10000     -3.5912045E-08
   17.16000     -3.7488224E-08
   17.22000     -3.8631121E-08
   17.28000     -3.9310677E-08
   17.34000     -3.9527805E-08
   17.40000     -3.9310731E-08
   17.46000     -3.8710859E-08
   17.52000     -3.7799005E-08
   17.58000     -3.6661820E-08
   17.64000     -3.5397605E-08
   17.70000     -3.4110354E-08
   17.76000     -3.2901504E-08
   17.82000     -3.1859862E-08
   17.88000     -3.1051265E-08
   17.94000     -3.0510453E-08
   18.00000     -3.0237505E-08
   18.06000     -3.0200606E-08
   18.12000     -3.0345269E-08
   18.18000     -3.0608469E-08
   18.24000     -3.0934569E-08
   18.30000     -3.1289144E-08
   18.36000     -3.1666978E-08
   18.42000     -3.2091755E-08
   18.48000     -3.2607002E-08
   18.54000     -3.3260246E-08
   18.60000     -3.4084309E-08
   18.66000     -3.5080824E-08
   18.72000     -3.6210821E-08
   18.78000     -3.7395516E-08
   18.84000     -3.8527684E-08
   18.90000     -3.9491063E-08
   18.96000     -4.0182794E-08
   19.02000     -4.0532942E-08
   19.08000     -4.0516049E-08
   19.14000     -4.0151917E-08
   19.20000     -3.9496094E-08
   19.26000     -3.8623281E-08
   19.32000     -3.7608796E-08
   19.38000     -3.6513292E-08
   19.44000     -3.5374416E-08
   19.50000     -3.4206778E-08
   19.56000     -3.3008707E-08
   19.62000     -3.1772565E-08
   19.68000     -3.0494522E-08
   19.74000     -2.9180445E-08
   19.80000     -2.7846204E-08
   19.86000     -2.6512897E-08
   19.92000     -2.5199087E-08
   19.98000     -2.3913090E-08
   20.04000     -2.2648059E-08
   20.10000     -2.1381521E-08
   20.16000     -2.0079469E-08
   20.22000     -1.8703739E-08
   20.28000     -1.7220527E-08
   20.34000     -1.5607784E-08
   20.40000     -1.3859773E-08
   20.46000     -1.1987931E-08
   20.52000     -1.0018194E-08
   20.58000     -7.9858218E-09
   20.64000     -5.9291203E-09
   20.70000     -3.8835761E-09
   20.76000     -1.8774979E-09
   20.82000      7.0215944E-11
   20.88000      1.9501809E-09
   20.94000      3.7608996E-09
   21.00000      5.5059686E-09
   21.06000      7.1906796E-09
   21.12000      8.8184713E-09
   21.18000      1.0387632E-08
   21.24000      1.1888739E-08
   21.30000      1.3303437E-08
   21.36000      1.4605196E-08
   21.42000      1.5762495E-08
   21.48000      1.6744425E-08
   21.54000      1.7527993E-08
   21.60000      1.8105734E-08
   21.66000      1.8491676E-08
   21.72000      1.8723764E-08
   21.78000      1.8861265E-08
   21.84000      1.8976834E-08
   21.90000      1.9144283E-08
   21.96000      1.9424560E-08
   22.02000      1.9853285E-08
   22.08000      2.0433323E-08
   22.14000      2.1134692E-08
   22.20000      2.1902347E-08
   22.26000      2.2669909E-08
   22.32000      2.3375691E-08
   22.38000      2.3976392E-08
   22.44000      2.4454517E-08
   22.50000      2.4817389E-08
   22.56000      2.5088188E-08
   22.62000      2.5291873E-08
   22.68000      2.5440439E-08
   22.74000      2.5522194E-08
   22.80000      2.5498617E-08
   22.86000      2.5310147E-08
   22.92000      2.4889582E-08
   22.98000      2.4179414E-08
   23.04000      2.3148104E-08
   23.10000      2.1800343E-08
   23.16000      2.0178067E-08
   23.22000      1.8351603E-08
   23.28000      1.6403355E-08
   23.34000      1.4408696E-08
   23.40000      1.2419579E-08
   23.46000      1.0455550E-08
   23.52000      8.5045500E-09
   23.58000      6.5329218E-09
   23.64000      4.5013220E-09
   23.70000      2.3815629E-09
   23.76000      1.6924291E-10
   23.82000     -2.1115707E-09
   23.88000     -4.4128861E-09
   23.94000     -6.6749650E-09
   24.00000     -8.8422105E-09
   24.06000     -1.0877750E-08
   24.12000     -1.2772226E-08
   24.18000     -1.4544274E-08
   24.24000     -1.6232898E-08
   24.30000     -1.7884453E-08
   24.36000     -1.9538376E-08
   24.42000     -2.1215738E-08
   24.48000     -2.2913429E-08
   24.54000     -2.4604827E-08
   24.60000     -2.6246024E-08
   24.66000     -2.7785553E-08
   24.72000     -2.9175110E-08
   24.78000     -3.0379031E-08
   24.84000     -3.1380701E-08
   24.90000     -3.2184715E-08
   24.96000     -3.2814498E-08
   25.02000     -3.3305881E-08
   25.08000     -3.3698363E-08
   25.14000     -3.4026328E-08
   25.20000     -3.4312713E-08
   25.26000     -3.4566927E-08
   25.32000     -3.4787476E-08
   25.38000     -3.4968284E-08
   25.44000     -3.5106495E-08
   25.50000     -3.5209105E-08
   25.56000     -3.5296207E-08
   25.62000     -3.5399768E-08
   25.68000     -3.5558148E-08
   25.74000     -3.5808085E-08
   25.80000     -3.6176573E-08
   25.86000     -3.6675345E-08
   25.92000     -3.7299937E-08
   25.98000     -3.8033996E-08
   26.04000     -3.8857507E-08
   26.10000     -3.9756287E-08
   26.16000     -4.0729287E-08
   26.22000     -4.1790731E-08
   26.28000     -4.2965997E-08
   26.34000     -4.4282267E-08
   26.40000     -4.5756927E-08
   26.46000     -4.7387712E-08
   26.52000     -4.9147864E-08
   26.58000     -5.0988106E-08
   26.64000     -5.2844968E-08
   26.70000     -5.4653157E-08
   26.76000     -5.6358587E-08
   26.82000     -5.7928588E-08
   26.88000     -5.9356566E-08
   26.94000     -6.0660099E-08
   27.00000     -6.1872967E-08
   27.06000     -6.3033625E-08
   27.12000     -6.4173385E-08
   27.18000     -6.5308200E-08
   27.24000     -6.6436307E-08
   27.30000     -6.7542651E-08
   27.36000     -6.8607967E-08
   27.42000     -6.9619119E-08
   27.48000     -7.0576199E-08
   27.54000     -7.1493496E-08
   27.60000     -7.2393249E-08
   27.66000     -7.3294416E-08
   27.72000     -7.4200322E-08
   27.78000     -7.5090149E-08
   27.84000     -7.5917747E-08
   27.90000     -7.6619052E-08
   27.96000     -7.7126366E-08
   28.02000     -7.7385359E-08
   28.08000     -7.7369492E-08
   28.14000     -7.7087300E-08
   28.20000     -7.6579802E-08
   28.26000     -7.5908659E-08
   28.32000     -7.5138267E-08
   28.38000     -7.4317072E-08
   28.44000     -7.3463752E-08
   28.50000     -7.2562557E-08
   28.56000     -7.1569183E-08
   28.62000     -7.0425628E-08
   28.68000     -6.9079590E-08
   28.74000     -6.7502612E-08
   28.80000     -6.5701663E-08
   28.86000     -6.3720719E-08
   28.92000     -6.1631908E-08
   28.98000     -5.9519046E-08
   29.04000     -5.7458571E-08
   29.10000     -5.5503811E-08
   29.16000     -5.3677205E-08
   29.22000     -5.1972506E-08
   29.28000     -5.0365522E-08
   29.34000     -4.8829133E-08
   29.40000     -4.7346884E-08
   29.46000     -4.5920267E-08
   29.52000     -4.4567344E-08
   29.58000     -4.3313719E-08
   29.64000     -4.2179884E-08
   29.70000     -4.1170107E-08
   29.76000     -4.0267484E-08
   29.82000     -3.9437193E-08
   29.88000     -3.8636976E-08
   29.94000     -3.7830976E-08
   30.00000     -3.7001872E-08
   30.06000     -3.6156671E-08
   30.12000     -3.5323726E-08
   30.18000     -3.4541792E-08
   30.24000     -3.3844842E-08
   30.30000     -3.3248387E-08
   30.36000     -3.2742818E-08
   30.42000     -3.2297020E-08
   30.48000     -3.1871885E-08
   30.54000     -3.1439182E-08
   30.60000     -3.0998869E-08
   30.66000     -3.0587639E-08
   30.72000     -3.0274304E-08
   30.78000     -3.0142186E-08
   30.84000     -3.0263642E-08
   30.90000     -3.0675139E-08
   30.96000     -3.1361864E-08
   31.02000     -3.2257905E-08
   31.08000     -3.3263198E-08
   31.14000     -3.4272517E-08
   31.20000     -3.5207592E-08
   31.26000     -3.6041730E-08
   31.32000     -3.6808377E-08
   31.38000     -3.7589864E-08
   31.44000     -3.8489098E-08
   31.50000     -3.9592809E-08
   31.56000     -4.0938236E-08
   31.62000     -4.2494637E-08
   31.68000     -4.4166509E-08
   31.74000     -4.5818286E-08
   31.80000     -4.7313105E-08
   31.86000     -4.8553073E-08
   31.92000     -4.9507740E-08
   31.98000     -5.0220908E-08
   32.04000     -5.0793140E-08
   32.10000     -5.1345275E-08
   32.16000     -5.1974716E-08
   32.22000     -5.2718878E-08
   32.28000     -5.3538059E-08
   32.34000     -5.4323760E-08
   32.40000     -5.4930286E-08
   32.46000     -5.5219513E-08
   32.52000     -5.5104223E-08
   32.58000     -5.4575541E-08
   32.64000     -5.3704980E-08
   32.70000     -5.2619967E-08
   32.76000     -5.1460663E-08
   32.82000     -5.0332112E-08
   32.88000     -4.9267761E-08
   32.94000     -4.8216535E-08
   33.00000     -4.7058073E-08
   33.06000     -4.5641656E-08
   33.12000     -4.3836458E-08
   33.18000     -4.1577419E-08
   33.24000     -3.8892093E-08
   33.30000     -3.5900040E-08
   33.36000     -3.2784712E-08
   33.42000     -2.9746346E-08
   33.48000     -2.6950380E-08
   33.54000     -2.4487234E-08
   33.60000     -2.2355724E-08
   33.66000     -2.0474783E-08
   33.72000     -1.8719012E-08
   33.78000     -1.6965924E-08
   33.84000     -1.5139214E-08
   33.90000     -1.3234218E-08
   33.96000     -1.1318229E-08
   34.02000     -9.5071382E-09
   34.08000     -7.9276212E-09
   34.14000     -6.6783192E-09
   34.20000     -5.8027378E-09
   34.26000     -5.2816822E-09
   34.32000     -5.0459845E-09
   34.38000     -5.0036246E-09
   34.44000     -5.0712621E-09
   34.50000     -5.1996607E-09
   34.56000     -5.3853206E-09
   34.62000     -5.6656075E-09
   34.68000     -6.1001399E-09
   34.74000     -6.7454695E-09
   34.80000     -7.6319395E-09
   34.86000     -8.7504848E-09
   34.92000     -1.0053441E-08
   34.98000     -1.1468398E-08
   35.04000     -1.2919481E-08
   35.10000     -1.4347860E-08
   35.16000     -1.5723836E-08
   35.22000     -1.7046196E-08
   35.28000     -1.8329619E-08
   35.34000     -1.9585604E-08
   35.40000     -2.0804913E-08
   35.46000     -2.1948818E-08
   35.52000     -2.2953014E-08
   35.58000     -2.3742986E-08
   35.64000     -2.4255172E-08
   35.70000     -2.4455961E-08
   35.76000     -2.4351435E-08
   35.82000     -2.3984139E-08
   35.88000     -2.3417959E-08
   35.94000     -2.2716446E-08
   36.00000     -2.1922149E-08
   36.06000     -2.1044034E-08
   36.12000     -2.0056994E-08
   36.18000     -1.8913338E-08
   36.24000     -1.7561948E-08
   36.30000     -1.5968551E-08
   36.36000     -1.4130306E-08
   36.42000     -1.2080218E-08
   36.48000     -9.8802957E-09
   36.54000     -7.6062339E-09
   36.60000     -5.3290417E-09
   36.66000     -3.0998677E-09
   36.72000     -9.4291486E-10
   36.78000      1.1416343E-09
   36.84000      3.1663931E-09
   36.90000      5.1419504E-09
   36.96000      7.0643940E-09
   37.02000      8.9100904E-09
   37.08000      1.0639697E-08
   37.14000      1.2209612E-08
   37.20000      1.3585980E-08
   37.26000      1.4755340E-08
   37.32000      1.5727357E-08
   37.38000      1.6528526E-08
   37.44000      1.7189544E-08
   37.50000      1.7731805E-08
   37.56000      1.8158730E-08
   37.62000      1.8455481E-08
   37.68000      1.8596877E-08
   37.74000      1.8559810E-08
   37.80000      1.8334624E-08
   37.86000      1.7930629E-08
   37.92000      1.7373569E-08
   37.98000      1.6696493E-08
   38.04000      1.5928185E-08
   38.10000      1.5084273E-08
   38.16000      1.4164933E-08
   38.22000      1.3160402E-08
   38.28000      1.2062353E-08
   38.34000      1.0876844E-08
   38.40000      9.6335544E-09
   38.46000      8.3870599E-09
   38.52000      7.2082922E-09
   38.58000      6.1677143E-09
   38.64000      5.3149458E-09
   38.70000      4.6615236E-09
   38.76000      4.1733310E-09
   38.82000      3.7766461E-09
   38.88000      3.3773624E-09
   38.94000      2.8881331E-09
   39.00000      2.2548234E-09
   39.06000      1.4732087E-09
   39.12000      5.8979138E-10
   39.18000     -3.1395936E-10
   39.24000     -1.1487198E-09
   39.30000     -1.8463885E-09
   39.36000     -2.3810054E-09
   39.42000     -2.7743763E-09
   39.48000     -3.0848306E-09
   39.54000     -3.3835990E-09
   39.60000     -3.7276342E-09
   39.66000     -4.1387964E-09
   39.72000     -4.5969020E-09
   39.78000     -5.0491140E-09
   39.84000     -5.4323355E-09
   39.90000     -5.7006400E-09
   39.96000     -5.8478498E-09
   40.02000     -5.9168541E-09
   40.08000     -5.9915881E-09
   40.14000     -6.1734307E-09
   40.20000     -6.5492212E-09
   40.26000     -7.1612782E-09
   40.32000     -7.9897085E-09
   40.38000     -8.9536991E-09
   40.44000     -9.9325774E-09
   40.50000     -1.0800871E-08
   40.56000     -1.1466766E-08
   40.62000     -1.1901610E-08
   40.68000     -1.2150601E-08
   40.74000     -1.2320513E-08
   40.80000     -1.2547848E-08
   40.86000     -1.2957364E-08
   40.92000     -1.3624424E-08
   40.98000     -1.4553573E-08
   41.04000     -1.5680335E-08
   41.10000     -1.6895392E-08
   41.16000     -1.8082684E-08
   41.22000     -1.9158307E-08
   41.28000     -2.0097165E-08
   41.34000     -2.0938828E-08
   41.40000     -2.1771490E-08
   41.46000     -2.2700299E-08
   41.52000     -2.3811333E-08
   41.58000     -2.5143319E-08
   41.64000     -2.6675906E-08
   41.70000     -2.8337499E-08
   41.76000     -3.0028986E-08
   41.82000     -3.1654917E-08
   41.88000     -3.3151700E-08
   41.94000     -3.4503852E-08
   42.00000     -3.5743643E-08
   42.06000     -3.6934768E-08
   42.12000     -3.8146098E-08
   42.18000     -3.9424343E-08
   42.24000     -4.0775028E-08
   42.30000     -4.2158167E-08
   42.36000     -4.3500179E-08
   42.42000     -4.4718121E-08
   42.48000     -4.5747925E-08
   42.54000     -4.6566996E-08
   42.60000     -4.7203194E-08
   42.66000     -4.7726928E-08
   42.72000     -4.8228898E-08
   42.78000     -4.8790959E-08
   42.84000     -4.9460006E-08
   42.90000     -5.0233744E-08
   42.96000     -5.1063139E-08
   43.02000     -5.1870547E-08
   43.08000     -5.2577509E-08
   43.14000     -5.3133036E-08
   43.20000     -5.3533235E-08
   43.26000     -5.3826312E-08
   43.32000     -5.4101644E-08
   43.38000     -5.4466643E-08
   43.44000     -5.5018678E-08
   43.50000     -5.5820358E-08
   43.56000     -5.6885213E-08
   43.62000     -5.8177193E-08
   43.68000     -5.9623261E-08
   43.74000     -6.1134550E-08
   43.80000     -6.2629290E-08
   43.86000     -6.4050653E-08
   43.92000     -6.5374742E-08
   43.98000     -6.6607122E-08
   44.04000     -6.7770159E-08
   44.10000     -6.8885960E-08
   44.16000     -6.9960905E-08
   44.22000     -7.0976476E-08
   44.28000     -7.1889197E-08
   44.34000     -7.2638905E-08
   44.40000     -7.3162305E-08
   44.46000     -7.3407321E-08
   44.52000     -7.3343855E-08
   44.58000     -7.2968035E-08
   44.64000     -7.2299436E-08
   44.70000     -7.1372426E-08
   44.76000     -7.0224900E-08
   44.82000     -6.8887601E-08
   44.88000     -6.7377158E-08
   44.94000     -6.5694515E-08
   45.00000     -6.3829241E-08
   45.06000     -6.1768304E-08
   45.12000     -5.9507165E-08
   45.18000     -5.7060330E-08
   45.24000     -5.4468504E-08
   45.30000     -5.1800217E-08
   45.36000     -4.9147257E-08
   45.42000     -4.6614723E-08
   45.48000     -4.4308404E-08
   45.54000     -4.2323208E-08
   45.60000     -4.0736367E-08
   45.66000     -3.9607965E-08
   45.72000     -3.8988937E-08
   45.78000     -3.8934171E-08
   45.84000     -3.9516568E-08
   45.90000     -4.0837730E-08
   45.96000     -4.3032315E-08
   46.02000     -4.6265768E-08
   46.08000     -5.0727660E-08
   46.14000     -5.6624650E-08
   46.20000     -6.4176952E-08
   46.26000     -7.3621152E-08
   46.32000     -8.5219902E-08
   46.38000     -9.9277365E-08
   46.44000     -1.1615770E-07
   46.50000     -1.3630353E-07
   46.56000     -1.6025160E-07
   46.62000     -1.8864360E-07
   46.68000     -2.2223148E-07
   46.74000     -2.6187826E-07
   46.80000     -3.0855662E-07
   46.86000     -3.6334902E-07
   46.92000     -4.2745305E-07
   46.98000     -5.0219569E-07
   47.04000     -5.8905619E-07
   47.10000     -6.8969791E-07
   47.16000     -8.0600427E-07
   47.22000     -9.4011381E-07
   47.28000     -1.0944522E-06
   47.34000     -1.2717555E-06
   47.40000     -1.4750874E-06
   47.46000     -1.7078494E-06
   47.52000     -1.9737904E-06
   47.58000     -2.2770203E-06
   47.64000     -2.6220289E-06
   47.70000     -3.0137151E-06
   47.76000     -3.4574236E-06
   47.82000     -3.9589831E-06
   47.88000     -4.5247466E-06
   47.94000     -5.1616253E-06
   48.00000     -5.8771175E-06
   48.06000     -6.6793277E-06
   48.12000     -7.5769799E-06
   48.18000     -8.5794218E-06
   48.24000     -9.6966269E-06
   48.30000     -1.0939194E-05
   48.36000     -1.2318339E-05
   48.42000     -1.3845899E-05
   48.48000     -1.5534330E-05
   48.54000     -1.7396702E-05
   48.60000     -1.9446694E-05
   48.66000     -2.1698568E-05
   48.72000     -2.4167137E-05
   48.78000     -2.6867698E-05
   48.84000     -2.9815972E-05
   48.90000     -3.3028009E-05
   48.96000     -3.6520101E-05
   49.02000     -4.0308692E-05
   49.08000     -4.4410270E-05
   49.14000     -4.8841259E-05
   49.20000     -5.3617914E-05
   49.26000     -5.8756192E-05
   49.32000     -6.4271604E-05
   49.38000     -7.0179085E-05
   49.44000     -7.6492797E-05
   49.50000     -8.3225998E-05
   49.56000     -9.0390859E-05
   49.62000     -9.7998265E-05
   49.68000     -1.0605766E-04
   49.74000     -1.1457685E-04
   49.80000     -1.2356190E-04
   49.86000     -1.3301693E-04
   49.92000     -1.4294394E-04
   49.98000     -1.5334270E-04
   50.04000     -1.6421056E-04
   50.10000     -1.7554231E-04
   50.16000     -1.8733012E-04
   50.22000     -1.9956338E-04
   50.28000     -2.1222871E-04
   50.34000     -2.2530986E-04
   50.40000     -2.3878769E-04
   50.46000     -2.5264019E-04
   50.52000     -2.6684260E-04
   50.58000     -2.8136725E-04
   50.64000     -2.9618395E-04
   50.70000     -3.1125991E-04
   50.76000     -3.2655994E-04
   50.82000     -3.4204678E-04
   50.88000     -3.5768113E-04
   50.94000     -3.7342194E-04
   51.00000     -3.8922671E-04
   51.06000     -4.0505180E-04
   51.12000     -4.2085277E-04
   51.18000     -4.3658481E-04
   51.24000     -4.5220306E-04
   51.30000     -4.6766299E-04
   51.36000     -4.8292082E-04
   51.42000     -4.9793388E-04
   51.48000     -5.1266100E-04
   51.54000     -5.2706309E-04
   51.60000     -5.4110319E-04
   51.66000     -5.5474706E-04
   51.72000     -5.6796358E-04
   51.78000     -5.8072491E-04
   51.84000     -5.9300708E-04
   51.90000     -6.0478976E-04
   51.96000     -6.1605719E-04
   52.02000     -6.2679785E-04
   52.08000     -6.3700473E-04
   52.14000     -6.4667565E-04
   52.20000     -6.5581291E-04
   52.26000     -6.6442351E-04
   52.32000     -6.7251897E-04
   52.38000     -6.8011519E-04
   52.44000     -6.8723247E-04
   52.50000     -6.9389527E-04
   52.56000     -7.0013182E-04
   52.62000     -7.0597412E-04
   52.68000     -7.1145722E-04
   52.74000     -7.1661919E-04
   52.80000     -7.2150037E-04
   52.86000     -7.2614301E-04
   52.92000     -7.3059072E-04
   52.98000     -7.3488784E-04
   53.04000     -7.3907909E-04
   53.10000     -7.4320904E-04
   53.16000     -7.4732146E-04
   53.22000     -7.5145898E-04
   53.28000     -7.5566233E-04
   53.34000     -7.5997028E-04
   53.40000     -7.6441880E-04
   53.46000     -7.6904095E-04
   53.52000     -7.7386637E-04
   53.58000     -7.7892095E-04
   53.64000     -7.8422623E-04
   53.70000     -7.8979949E-04
   53.76000     -7.9565338E-04
   53.82000     -8.0179604E-04
   53.88000     -8.0823072E-04
   53.94000     -8.1495638E-04
   54.00000     -8.2196720E-04
   54.06000     -8.2925282E-04
   54.12000     -8.3679869E-04
   54.18000     -8.4458600E-04
   54.24000     -8.5259217E-04
   54.30000     -8.6079113E-04
   54.36000     -8.6915371E-04
   54.42000     -8.7764807E-04
   54.48000     -8.8624010E-04
   54.54000     -8.9489378E-04
   54.60000     -9.0357201E-04
   54.66000     -9.1223686E-04
   54.72000     -9.2085020E-04
   54.78000     -9.2937407E-04
   54.84000     -9.3777123E-04
   54.90000     -9.4600563E-04
   54.96000     -9.5404277E-04
   55.02000     -9.6184993E-04
   55.08000     -9.6939679E-04
   55.14000     -9.7665563E-04
   55.20000     -9.8360190E-04
   55.26000     -9.9021429E-04
   55.32000     -9.9647453E-04
   55.38000     -1.0023685E-03
   55.44000     -1.0078858E-03
   55.50000     -1.0130192E-03
   55.56000     -1.0177657E-03