  -2.400000      0.0000000E+00
  -2.340000      0.0000000E+00
  -2.280000      0.0000000E+00
  -2.220000      0.0000000E+00
  -2.160000      0.0000000E+00
  -2.100000      0.0000000E+00
  -2.040000      0.0000000E+00
  -1.980000      0.0000000E+00
  -1.920000     -1.5516534E-25
  -1.860000     -3.8031738E-24
  -1.800000     -3.4471038E-23
  -1.740000     -1.7817746E-22
  -1.680000     -5.9764759E-22
  -1.620000     -1.2871144E-21
  -1.560000     -1.2120559E-21
  -1.500000      3.0209494E-21
  -1.440000      1.7093935E-20
  -1.380000      4.3412355E-20
  -1.320000      6.6727232E-20
  -1.260000      3.6551260E-20
  -1.200000     -1.3035733E-19
  -1.140000     -4.9073508E-19
  -1.080000     -9.4110137E-19
  -1.020000     -1.0680770E-18
 -0.9600000     -1.5537993E-19
 -0.9000000      2.4244585E-18
 -0.8400000      6.3583049E-18
 -0.7800000      9.4465052E-18
 -0.7200000      7.4933489E-18
 -0.6600000     -3.8420165E-18
 -0.6000000     -2.4908173E-17
 -0.5400000     -4.7302744E-17
 -0.4800000     -5.2501895E-17
 -0.4200000     -1.8582935E-17
 -0.3600000      6.3421374E-17
 -0.3000000      1.6947789E-16
 -0.2400000      2.3333447E-16
 -0.1800000      1.6545650E-16
 -0.1200000     -9.2613332E-17
 -5.9999999E-02 -4.9535715E-16
  0.0000000E+00 -8.4697429E-16
  5.9999999E-02 -8.3857241E-16
  0.1200000     -2.0003813E-16
  0.1800000      1.0700771E-15
  0.2400000      2.5173336E-15
  0.3000000      3.2531124E-15
  0.3600000      2.3008699E-15
  0.4200000     -7.8304374E-16
  0.4800000     -5.2885485E-15
  0.5400000     -9.1597465E-15
  0.6000000     -9.5975245E-15
  0.6600000     -4.4750373E-15
  0.7200000      5.9515830E-15
  0.7800000      1.8006597E-14
  0.8400000      2.5227230E-14
  0.9000000      2.1048632E-14
  0.9600000      2.7898705E-15
   1.020000     -2.4964104E-14
   1.080000     -4.9936414E-14
   1.140000     -5.6208307E-14
   1.200000     -3.2157772E-14
   1.260000      2.0889986E-14
   1.320000      8.4156050E-14
   1.380000      1.2531687E-13
   1.440000      1.1176762E-13
   1.500000      2.9077093E-14
   1.560000     -1.0403070E-13
   1.620000     -2.3391112E-13
   1.680000     -2.8906006E-13
   1.740000     -2.1290608E-13
   1.800000      5.7783026E-16
   1.860000      2.8707901E-13
   1.920000      5.2373985E-13
   1.980000      5.7583896E-13
   2.040000      3.6362899E-13
   2.100000     -8.0602666E-14
   2.160000     -5.9838620E-13
   2.220000     -9.5304732E-13
   2.280000     -9.3094738E-13
   2.340000     -4.5643746E-13
   2.400000      3.3631499E-13
   2.460000      1.1226348E-12
   2.520000      1.5092173E-12
   2.580000      1.2187589E-12
   2.640000      2.5567910E-13
   2.700000     -1.0367027E-12
   2.760000     -2.0796977E-12
   2.820000     -2.3030198E-12
   2.880000     -1.4317937E-12
   2.940000      3.2113114E-13
   3.000000      2.2725509E-12
   3.060000      3.5243601E-12
   3.120000      3.3690271E-12
   3.180000      1.6659933E-12
   3.240000     -1.0044428E-12
   3.300000     -3.5210892E-12
   3.360000     -4.6955890E-12
   3.420000     -3.8460519E-12
   3.480000     -1.1984915E-12
   3.540000      2.1082762E-12
   3.600000      4.4716474E-12
   3.660000      4.5672498E-12
   3.720000      2.0558501E-12
   3.780000     -2.0993834E-12
   3.840000     -5.9150701E-12
   3.900000     -7.2136472E-12
   3.960000     -4.6671521E-12
   4.020000      1.4124345E-12
   4.080000      8.9436757E-12
   4.140000      1.4750470E-11
   4.200000      1.5825835E-11
   4.260000      1.0675784E-11
   4.320000      1.4918902E-13
   4.380000     -1.2660010E-11
   4.440000     -2.3468352E-11
   4.500000     -2.8421251E-11
   4.560000     -2.5605271E-11
   4.620000     -1.5797466E-11
   4.680000     -2.1052366E-12
   4.740000      1.1366366E-11
   4.800000      2.1238343E-11
   4.860000      2.6191415E-11
   4.920000      2.7279521E-11
   4.980000      2.7044570E-11
   5.040000      2.7815026E-11
   5.100000      2.9989792E-11
   5.160000      3.1183202E-11
   5.220000      2.6780014E-11
   5.280000      1.1842611E-11
   5.340000     -1.6317770E-11
   5.400000     -5.5965451E-11
   5.460000     -1.0014807E-10
   5.520000     -1.3776071E-10
   5.580000     -1.5617858E-10
   5.640000     -1.4448025E-10
   5.700000     -9.5967005E-11
   5.760000     -8.9030051E-12
   5.820000      1.1491325E-10
   5.880000      2.7324579E-10
   5.940000      4.6696963E-10
   6.000000      7.0261386E-10
   6.060000      9.9281239E-10
   6.120000      1.3544056E-09
   6.180000      1.8048978E-09
   6.240000      2.3586542E-09
   6.300000      3.0243070E-09
   6.360000      3.8042844E-09
   6.420000      4.6963922E-09
   6.480000      5.6963763E-09
   6.540000      6.7998376E-09
   6.600000      8.0020364E-09
   6.660000      9.2949994E-09
   6.720000      1.0662583E-08
   6.780000      1.2075319E-08
   6.840000      1.3487312E-08
   6.900000      1.4837100E-08
   6.960000      1.6053116E-08
   7.020000      1.7062790E-08
   7.080000      1.7803005E-08
   7.140000      1.8229013E-08
   7.200000      1.8319529E-08
   7.260000      1.8077044E-08
   7.320000      1.7524131E-08
   7.380000      1.6697788E-08
   7.440000      1.5644154E-08
   7.500000      1.4415186E-08
   7.560000      1.3067399E-08
   7.620000      1.1661366E-08
   7.680000      1.0260051E-08
   7.740000      8.9244381E-09
   7.800000      7.7065208E-09
   7.860000      6.6413537E-09
   7.920000      5.7411582E-09
   7.980000      4.9943627E-09
   8.040000      4.3710711E-09
   8.100000      3.8341117E-09
   8.160000      3.3525813E-09
   8.220000      2.9135114E-09
   8.280000      2.5276548E-09
   8.340000      2.2272812E-09
   8.400000      2.0566164E-09
   8.460000      2.0581201E-09
   8.520000      2.2591937E-09
   8.580000      2.6635945E-09
   8.640000      3.2500242E-09
   8.700000      3.9777333E-09
   8.760000      4.7965942E-09
   8.820000      5.6578480E-09
   8.880000      6.5219745E-09
   8.940000      7.3617175E-09
   9.000000      8.1604581E-09
   9.060000      8.9079490E-09
   9.120000      9.5962003E-09
   9.180000      1.0217805E-08
   9.240000      1.0767470E-08
   9.300000      1.1245772E-08
   9.360000      1.1662920E-08
   9.420000      1.2040083E-08
   9.480000      1.2406820E-08
   9.540000      1.2794761E-08
   9.600000      1.3229342E-08
   9.660000      1.3722420E-08
   9.720000      1.4268373E-08
   9.780000      1.4845224E-08
   9.840000      1.5420497E-08
   9.900000      1.5959854E-08
   9.960000      1.6435651E-08
   10.02000      1.6832672E-08
   10.08000      1.7149439E-08
   10.14000      1.7395134E-08
   10.20000      1.7583686E-08
   10.26000      1.7727391E-08
   10.32000      1.7832200E-08
   10.38000      1.7895889E-08
   10.44000      1.7909018E-08
   10.50000      1.7857516E-08
   10.56000      1.7725544E-08
   10.62000      1.7497634E-08
   10.68000      1.7160062E-08
   10.74000      1.6702188E-08
   10.80000      1.6118568E-08
   10.86000      1.5412231E-08
   10.92000      1.4598327E-08
   10.98000      1.3706561E-08
   11.04000      1.2780536E-08
   11.10000      1.1872922E-08
   11.16000      1.1036927E-08
   11.22000      1.0316145E-08
   11.28000      9.7358885E-09
   11.34000      9.2988497E-09
   11.40000      8.9865342E-09
   11.46000      8.7658290E-09
   11.52000      8.5982563E-09
   11.58000      8.4487271E-09
   11.64000      8.2912353E-09
   11.70000      8.1104963E-09
   11.76000      7.9004172E-09
   11.82000      7.6613933E-09
   11.88000      7.3984032E-09
   11.94000      7.1208710E-09
   12.00000      6.8437913E-09
   12.06000      6.5886376E-09
   12.12000      6.3825438E-09
   12.18000      6.2551626E-09
   12.24000      6.2339764E-09
   12.30000      6.3398251E-09
   12.36000      6.5845103E-09
   12.42000      6.9714359E-09
   12.48000      7.4987403E-09
   12.54000      8.1631111E-09
   12.60000      8.9620080E-09
   12.66000      9.8927480E-09
   12.72000      1.0948378E-08
   12.78000      1.2111989E-08
   12.84000      1.3352027E-08
   12.90000      1.4621005E-08
   12.96000      1.5858621E-08
   13.02000      1.6998420E-08
   13.08000      1.7975575E-08
   13.14000      1.8732935E-08
   13.20000      1.9223483E-08
   13.26000      1.9409045E-08
   13.32000      1.9257147E-08
   13.38000      1.8738701E-08
   13.44000      1.7828832E-08
   13.50000      1.6511450E-08
   13.56000      1.4786153E-08
   13.62000      1.2674588E-08
   13.68000      1.0223234E-08
   13.74000      7.5007360E-09
   13.80000      4.5898516E-09
   13.86000      1.5759516E-09
   13.92000     -1.4648427E-09
   13.98000     -4.4747845E-09
   14.04000     -7.4187332E-09
   14.10000     -1.0282812E-08
   14.16000     -1.3068403E-08
   14.22000     -1.5783545E-08
   14.28000     -1.8434358E-08
   14.34000     -2.1018844E-08
   14.40000     -2.3524439E-08
   14.46000     -2.5929348E-08
   14.52000     -2.8206319E-08
   14.58000     -3.0326916E-08
   14.64000     -3.2264325E-08
   14.70000     -3.3993945E-08
   14.76000     -3.5492210E-08
   14.82000     -3.6735116E-08
   14.88000     -3.7698179E-08
   14.94000     -3.8358717E-08
   15.00000     -3.8700183E-08
   15.06000     -3.8716930E-08
   15.12000     -3.8417568E-08
   15.18000     -3.7825220E-08
   15.24000     -3.6974427E-08
   15.30000     -3.5905572E-08
   15.36000     -3.4658942E-08
   15.42000     -3.3270577E-08
   15.48000     -3.1771485E-08
   15.54000     -3.0190563E-08
   15.60000     -2.8559807E-08
   15.66000     -2.6919523E-08
   15.72000     -2.5320801E-08
   15.78000     -2.3823420E-08
   15.84000     -2.2488983E-08
   15.90000     -2.1371049E-08
   15.96000     -2.0505304E-08
   16.02000     -1.9902958E-08
   16.08000     -1.9549493E-08
   16.14000     -1.9408850E-08
   16.20000     -1.9431283E-08
   16.26000     -1.9562032E-08
   16.32000     -1.9748166E-08
   16.38000     -1.9942027E-08
   16.44000     -2.0101330E-08
   16.50000     -2.0187070E-08
   16.56000     -2.0160950E-08
   16.62000     -1.9983869E-08
   16.68000     -1.9616353E-08
   16.74000     -1.9021266E-08
   16.80000     -1.8168517E-08
   16.86000     -1.7041044E-08
   16.92000     -1.5640868E-08
   16.98000     -1.3993733E-08
   17.04000     -1.2150715E-08
   17.10000     -1.0185571E-08
   17.16000     -8.1875271E-09
   17.22000     -6.2503780E-09
   17.28000     -4.4598809E-09
   17.34000     -2.8821103E-09
   17.40000     -1.5553083E-09
   17.46000     -4.8694748E-10
   17.52000      3.4359912E-10
   17.58000      9.7781128E-10
   17.64000      1.4683030E-09
   17.70000      1.8691677E-09
   17.76000      2.2285271E-09
   17.82000      2.5844027E-09
   17.88000      2.9637439E-09
   17.94000      3.3834713E-09
   18.00000      3.8521044E-09
   18.06000      4.3710875E-09
   18.12000      4.9358984E-09
   18.18000      5.5378173E-09
   18.24000      6.1672956E-09
   18.30000      6.8189805E-09
   18.36000      7.4971336E-09
   18.42000      8.2191036E-09
   18.48000      9.0145411E-09
   18.54000      9.9192849E-09
   18.60000      1.0964976E-08
   18.66000      1.2167338E-08
   18.72000      1.3516996E-08
   18.78000      1.4975923E-08
   18.84000      1.6480788E-08
   18.90000      1.7952068E-08
   18.96000      1.9306116E-08
   19.02000      2.0466864E-08
   19.08000      2.1374552E-08
   19.14000      2.1990404E-08
   19.20000      2.2297566E-08
   19.26000      2.2299494E-08
   19.32000      2.2017078E-08
   19.38000      2.1485270E-08
   19.44000      2.0749320E-08
   19.50000      1.9860414E-08
   19.56000      1.8870633E-08
   19.62000      1.7827681E-08
   19.68000      1.6770301E-08
   19.74000      1.5725689E-08
   19.80000      1.4709676E-08
   19.86000      1.3729781E-08
   19.92000      1.2790183E-08
   19.98000      1.1896965E-08
   20.04000      1.1061903E-08
   20.10000      1.0303680E-08
   20.16000      9.6463992E-09
   20.22000      9.1161896E-09
   20.28000      8.7371941E-09
   20.34000      8.5281036E-09
   20.40000      8.4997982E-09
   20.46000      8.6540526E-09
   20.52000      8.9829042E-09
   20.58000      9.4684003E-09
   20.64000      1.0082866E-08
   20.70000      1.0790278E-08
   20.76000      1.1549412E-08
   20.82000      1.2319028E-08
   20.88000      1.3064491E-08
   20.94000      1.3764284E-08
   21.00000      1.4414296E-08
   21.06000      1.5027917E-08
   21.12000      1.5631032E-08
   21.18000      1.6252780E-08
   21.24000      1.6914715E-08
   21.30000      1.7622144E-08
   21.36000      1.8361058E-08
   21.42000      1.9102197E-08
   21.48000      1.9810948E-08
   21.54000      2.0459089E-08
   21.60000      2.1033216E-08
   21.66000      2.1535866E-08
   21.72000      2.1978609E-08
   21.78000      2.2370216E-08
   21.84000      2.2705743E-08
   21.90000      2.2962329E-08
   21.96000      2.3104517E-08
   22.02000      2.3097314E-08
   22.08000      2.2921187E-08
   22.14000      2.2581995E-08
   22.20000      2.2111060E-08
   22.26000      2.1555284E-08
   22.32000      2.0961973E-08
   22.38000      2.0365450E-08
   22.44000      1.9781321E-08
   22.50000      1.9210230E-08
   22.56000      1.8648024E-08
   22.62000      1.8096348E-08
   22.68000      1.7567741E-08
   22.74000      1.7082623E-08
   22.80000      1.6659772E-08
   22.86000      1.6305233E-08
   22.92000      1.6005016E-08
   22.98000      1.5724963E-08
   23.04000      1.5417527E-08
   23.10000      1.5032235E-08
   23.16000      1.4525438E-08
   23.22000      1.3865936E-08
   23.28000      1.3035446E-08
   23.34000      1.2025294E-08
   23.40000      1.0832122E-08
   23.46000      9.4552091E-09
   23.52000      7.8967828E-09
   23.58000      6.1650587E-09
   23.64000      4.2784540E-09
   23.70000      2.2690037E-09
   23.76000      1.8332781E-10
   23.82000     -1.9196946E-09
   23.88000     -3.9744359E-09
   23.94000     -5.9162870E-09
   24.00000     -7.6901427E-09
   24.06000     -9.2577324E-09
   24.12000     -1.0601970E-08
   24.18000     -1.1727052E-08
   24.24000     -1.2654122E-08
   24.30000     -1.3413708E-08
   24.36000     -1.4037377E-08
   24.42000     -1.4551382E-08
   24.48000     -1.4974319E-08
   24.54000     -1.5318937E-08
   24.60000     -1.5596209E-08
   24.66000     -1.5818529E-08
   24.72000     -1.5999364E-08
   24.78000     -1.6148656E-08
   24.84000     -1.6265936E-08
   24.90000     -1.6334891E-08
   24.96000     -1.6323014E-08
   25.02000     -1.6187752E-08
   25.08000     -1.5887350E-08
   25.14000     -1.5392121E-08
   25.20000     -1.4691453E-08
   25.26000     -1.3793925E-08
   25.32000     -1.2721347E-08
   25.38000     -1.1500498E-08
   25.44000     -1.0157271E-08
   25.50000     -8.7161789E-09
   25.56000     -7.2048953E-09
   25.62000     -5.6601630E-09
   25.68000     -4.1302393E-09
   25.74000     -2.6704914E-09
   25.80000     -1.3323402E-09
   25.86000     -1.4960355E-10
   25.92000      8.7165758E-10
   25.98000      1.7545765E-09
   26.04000      2.5426088E-09
   26.10000      3.2834373E-09
   26.16000      4.0121986E-09
   26.22000      4.7410862E-09
   26.28000      5.4595408E-09
   26.34000      6.1443544E-09
   26.40000      6.7743682E-09
   26.46000      7.3423378E-09
   26.52000      7.8580014E-09
   26.58000      8.3407778E-09
   26.64000      8.8057099E-09
   26.70000      9.2497059E-09
   26.76000      9.6451878E-09
   26.82000      9.9447846E-09
   26.88000      1.0095560E-08
   26.94000      1.0056740E-08
   27.00000      9.8133075E-09
   27.06000      9.3797645E-09
   27.12000      8.7928980E-09
   27.18000      8.0972811E-09
   27.24000      7.3302409E-09
   27.30000      6.5128196E-09
   27.36000      5.6501199E-09
   27.42000      4.7398765E-09
   27.48000      3.7843675E-09
   27.54000      2.7994027E-09
   27.60000      1.8156882E-09
   27.66000      8.7145169E-10
   27.72000     -8.0845698E-13
   27.78000     -7.8790990E-10
   27.84000     -1.5040557E-09
   27.90000     -2.1896207E-09
   27.96000     -2.9004281E-09
   28.02000     -3.6909107E-09
   28.08000     -4.5969002E-09
   28.14000     -5.6240341E-09
   28.20000     -6.7458550E-09
   28.26000     -7.9122664E-09
   28.32000     -9.0652987E-09
   28.38000     -1.0156498E-08
   28.44000     -1.1159671E-08
   28.50000     -1.2074492E-08
   28.56000     -1.2920001E-08
   28.62000     -1.3721024E-08
   28.68000     -1.4493263E-08
   28.74000     -1.5233329E-08
   28.80000     -1.5917772E-08
   28.86000     -1.6511354E-08
   28.92000     -1.6980865E-08
   28.98000     -1.7308414E-08
   29.04000     -1.7498454E-08
   29.10000     -1.7575491E-08
   29.16000     -1.7573502E-08
   29.22000     -1.7521657E-08
   29.28000     -1.7432441E-08
   29.34000     -1.7297120E-08
   29.40000     -1.7090210E-08
   29.46000     -1.6780579E-08
   29.52000     -1.6343936E-08
   29.58000     -1.5771061E-08
   29.64000     -1.5068245E-08
   29.70000     -1.4250352E-08
   29.76000     -1.3330469E-08
   29.82000     -1.2311776E-08
   29.88000     -1.1186011E-08
   29.94000     -9.9394510E-09
   30.00000     -8.5633536E-09
   30.06000     -7.0633810E-09
   30.12000     -5.4629754E-09
   30.18000     -3.7987160E-09
   30.24000     -2.1098052E-09
   30.30000     -4.2678205E-10
   30.36000      1.2351495E-09
   30.42000      2.8752520E-09
   30.48000      4.4998130E-09
   30.54000      6.1123182E-09
   30.60000      7.7063493E-09
   30.66000      9.2645989E-09
   30.72000      1.0764055E-08
   30.78000      1.2184205E-08
   30.84000      1.3513691E-08
   30.90000      1.4751807E-08
   30.96000      1.5903977E-08
   31.02000      1.6973527E-08
   31.08000      1.7954203E-08
   31.14000      1.8827716E-08
   31.20000      1.9568544E-08
   31.26000      2.0154754E-08
   31.32000      2.0580375E-08
   31.38000      2.0863469E-08
   31.44000      2.1045144E-08
   31.50000      2.1178451E-08
   31.56000      2.1310608E-08
   31.62000      2.1465723E-08
   31.68000      2.1635801E-08
   31.74000      2.1784736E-08
   31.80000      2.1864439E-08
   31.86000      2.1836275E-08
   31.92000      2.1688013E-08
   31.98000      2.1437943E-08
   32.04000      2.1123574E-08
   32.10000      2.0779817E-08
   32.16000      2.0417067E-08
   32.22000      2.0010301E-08
   32.28000      1.9505496E-08
   32.34000      1.8841474E-08
   32.40000      1.7977518E-08
   32.46000      1.6913708E-08
   32.52000      1.5693747E-08
   32.58000      1.4387908E-08
   32.64000      1.3063078E-08
   32.70000      1.1753191E-08
   32.76000      1.0443657E-08
   32.82000      9.0772367E-09
   32.88000      7.5792022E-09
   32.94000      5.8907736E-09
   33.00000      3.9961572E-09
   33.06000      1.9314417E-09
   33.12000     -2.2801477E-10
   33.18000     -2.3954183E-09
   33.24000     -4.5028097E-09
   33.30000     -6.5205898E-09
   33.36000     -8.4587679E-09
   33.42000     -1.0351146E-08
   33.48000     -1.2231222E-08
   33.54000     -1.4111496E-08
   33.60000     -1.5975113E-08
   33.66000     -1.7782080E-08
   33.72000     -1.9485322E-08
   33.78000     -2.1047816E-08
   33.84000     -2.2452644E-08
   33.90000     -2.3702382E-08
   33.96000     -2.4809903E-08
   34.02000     -2.5786758E-08
   34.08000     -2.6635831E-08
   34.14000     -2.7351989E-08
   34.20000     -2.7929804E-08
   34.26000     -2.8373510E-08
   34.32000     -2.8703120E-08
   34.38000     -2.8952643E-08
   34.44000     -2.9160461E-08
   34.50000     -2.9356183E-08
   34.56000     -2.9550435E-08
   34.62000     -2.9733028E-08
   34.68000     -2.9881132E-08
   34.74000     -2.9974196E-08
   34.80000     -3.0008831E-08
   34.86000     -3.0006404E-08
   34.92000     -3.0008938E-08
   34.98000     -3.0064392E-08
   35.04000     -3.0207016E-08
   35.10000     -3.0441427E-08
   35.16000     -3.0737553E-08
   35.22000     -3.1039434E-08
   35.28000     -3.1284813E-08
   35.34000     -3.1428087E-08
   35.40000     -3.1457247E-08
   35.46000     -3.1397988E-08
   35.52000     -3.1302960E-08
   35.58000     -3.1230211E-08
   35.64000     -3.1219294E-08
   35.70000     -3.1274521E-08
   35.76000     -3.1362280E-08
   35.82000     -3.1423639E-08
   35.88000     -3.1397338E-08
   35.94000     -3.1243736E-08
   36.00000     -3.0959797E-08
   36.06000     -3.0578867E-08
   36.12000     -3.0155388E-08
   36.18000     -2.9741399E-08
   36.24000     -2.9365333E-08
   36.30000     -2.9022441E-08
   36.36000     -2.8680969E-08
   36.42000     -2.8300649E-08
   36.48000     -2.7854405E-08
   36.54000     -2.7342583E-08
   36.60000     -2.6792767E-08
   36.66000     -2.6245363E-08
   36.72000     -2.5732113E-08
   36.78000     -2.5258247E-08
   36.84000     -2.4797137E-08
   36.90000     -2.4300162E-08
   36.96000     -2.3716963E-08
   37.02000     -2.3016199E-08
   37.08000     -2.2196838E-08
   37.14000     -2.1284805E-08
   37.20000     -2.0317081E-08
   37.26000     -1.9321455E-08
   37.32000     -1.8301851E-08
   37.38000     -1.7236134E-08
   37.44000     -1.6086881E-08
   37.50000     -1.4819365E-08
   37.56000     -1.3417858E-08
   37.62000     -1.1892789E-08
   37.68000     -1.0276191E-08
   37.74000     -8.6086134E-09
   37.80000     -6.9244410E-09
   37.86000     -5.2425371E-09
   37.92000     -3.5658920E-09
   37.98000     -1.8892172E-09
   38.04000     -2.0974049E-10
   38.10000      1.4645685E-09
   38.16000      3.1132967E-09
   38.22000      4.7089079E-09
   38.28000      6.2262786E-09
   38.34000      7.6519573E-09
   38.40000      8.9890868E-09
   38.46000      1.0255984E-08
   38.52000      1.1478960E-08
   38.58000      1.2682043E-08
   38.64000      1.3877178E-08
   38.70000      1.5058145E-08
   38.76000      1.6200168E-08
   38.82000      1.7265327E-08
   38.88000      1.8212049E-08
   38.94000      1.9005537E-08
   39.00000      1.9625411E-08
   39.06000      2.0067635E-08
   39.12000      2.0339829E-08
   39.18000      2.0451807E-08
   39.24000      2.0405565E-08
   39.30000      2.0189718E-08
   39.36000      1.9781803E-08
   39.42000      1.9158337E-08
   39.48000      1.8308496E-08
   39.54000      1.7244808E-08
   39.60000      1.6004966E-08
   39.66000      1.4642574E-08
   39.72000      1.3210156E-08
   39.78000      1.1741902E-08
   39.84000      1.0244388E-08
   39.90000      8.7000283E-09
   39.96000      7.0818480E-09
   40.02000      5.3724256E-09
   40.08000      3.5774954E-09
   40.14000      1.7272425E-09
   40.20000     -1.3552874E-10
   40.26000     -1.9744228E-09
   40.32000     -3.7759911E-09
   40.38000     -5.5552878E-09
   40.44000     -7.3475062E-09
   40.50000     -9.1898418E-09
   40.56000     -1.1102660E-08
   40.62000     -1.3079332E-08
   40.68000     -1.5089702E-08
   40.74000     -1.7095212E-08
   40.80000     -1.9068001E-08
   40.86000     -2.1004285E-08
   40.92000     -2.2925249E-08
   40.98000     -2.4864637E-08
   41.04000     -2.6848500E-08
   41.10000     -2.8876187E-08
   41.16000     -3.0910972E-08
   41.22000     -3.2884333E-08
   41.28000     -3.4712098E-08
   41.34000     -3.6315814E-08
   41.40000     -3.7641115E-08
   41.46000     -3.8666744E-08
   41.52000     -3.9402234E-08
   41.58000     -3.9876909E-08
   41.64000     -4.0125922E-08
   41.70000     -4.0179387E-08
   41.76000     -4.0058282E-08
   41.82000     -3.9777440E-08
   41.88000     -3.9352742E-08
   41.94000     -3.8808295E-08
   42.00000     -3.8180019E-08
   42.06000     -3.7514326E-08
   42.12000     -3.6862907E-08
   42.18000     -3.6276361E-08
   42.24000     -3.5799339E-08
   42.30000     -3.5468698E-08
   42.36000     -3.5314297E-08
   42.42000     -3.5360625E-08
   42.48000     -3.5627224E-08
   42.54000     -3.6126590E-08
   42.60000     -3.6859930E-08
   42.66000     -3.7812615E-08
   42.72000     -3.8951807E-08
   42.78000     -4.0228361E-08
   42.84000     -4.1583348E-08
   42.90000     -4.2957620E-08
   42.96000     -4.4301345E-08
   43.02000     -4.5579824E-08
   43.08000     -4.6773383E-08
   43.14000     -4.7871175E-08
   43.20000     -4.8861612E-08
   43.26000     -4.9723553E-08
   43.32000     -5.0422493E-08
   43.38000     -5.0913670E-08
   43.44000     -5.1151254E-08
   43.50000     -5.1099558E-08
   43.56000     -5.0741434E-08
   43.62000     -5.0080104E-08
   43.68000     -4.9133785E-08
   43.74000     -4.7925791E-08
   43.80000     -4.6475009E-08
   43.86000     -4.4791129E-08
   43.92000     -4.2876707E-08
   43.98000     -4.0734530E-08
   44.04000     -3.8376282E-08
   44.10000     -3.5828130E-08
   44.16000     -3.3130448E-08
   44.22000     -3.0332217E-08
   44.28000     -2.7482983E-08
   44.34000     -2.4626187E-08
   44.40000     -2.1796545E-08
   44.46000     -1.9021659E-08
   44.52000     -1.6325794E-08
   44.58000     -1.3732744E-08
   44.64000     -1.1265458E-08
   44.70000     -8.9420151E-09
   44.76000     -6.7695600E-09
   44.82000     -4.7388449E-09
   44.88000     -2.8216831E-09
   44.94000     -9.7212716E-10
   45.00000      8.6962304E-10
   45.06000      2.7727600E-09
   45.12000      4.8131259E-09
   45.18000      7.0734023E-09
   45.24000      9.6458779E-09
   45.30000      1.2636110E-08
   45.36000      1.6165361E-08
   45.42000      2.0370441E-08
   45.48000      2.5401086E-08
   45.54000      3.1416668E-08
   45.60000      3.8585053E-08
   45.66000      4.7086228E-08
   45.72000      5.7121991E-08
   45.78000      6.8931023E-08
   45.84000      8.2806871E-08
   45.90000      9.9115695E-08
   45.96000      1.1831099E-07
   46.02000      1.4094461E-07
   46.08000      1.6767521E-07
   46.14000      1.9927727E-07
   46.20000      2.3665416E-07
   46.26000      2.8085742E-07
   46.32000      3.3311238E-07
   46.38000      3.9484826E-07
   46.44000      4.6772925E-07
   46.50000      5.5368417E-07
   46.56000      6.5493469E-07
   46.62000      7.7402359E-07
   46.68000      9.1384868E-07
   46.74000      1.0777045E-06
   46.80000      1.2693348E-06
   46.86000      1.4929950E-06
   46.92000      1.7535195E-06
   46.98000      2.0563916E-06
   47.04000      2.4078138E-06
   47.10000      2.8147770E-06
   47.16000      3.2851353E-06
   47.22000      3.8276844E-06
   47.28000      4.4522467E-06
   47.34000      5.1697666E-06
   47.40000      5.9924068E-06
   47.46000      6.9336543E-06
   47.52000      8.0084192E-06
   47.58000      9.2331466E-06
   47.64000      1.0625924E-05
   47.70000      1.2206599E-05
   47.76000      1.3996893E-05
   47.82000      1.6020509E-05
   47.88000      1.8303243E-05
   47.94000      2.0873074E-05
   48.00000      2.3760265E-05
   48.06000      2.6997426E-05
   48.12000      3.0619591E-05
   48.18000      3.4664274E-05
   48.24000      3.9171522E-05
   48.30000      4.4183962E-05
   48.36000      4.9746803E-05
   48.42000      5.5907822E-05
   48.48000      6.2717350E-05
   48.54000      7.0228169E-05
   48.60000      7.8495410E-05
   48.66000      8.7576416E-05
   48.72000      9.7530552E-05
   48.78000      1.0841902E-04
   48.84000      1.2030465E-04
   48.90000      1.3325154E-04
   48.96000      1.4732481E-04
   49.02000      1.6259025E-04
   49.08000      1.7911383E-04
   49.14000      1.9696132E-04
   49.20000      2.1619775E-04
   49.26000      2.3688684E-04
   49.32000      2.5909045E-04
   49.38000      2.8286807E-04
   49.44000      3.0827601E-04
   49.50000      3.3536690E-04
   49.56000      3.6418898E-04
   49.62000      3.9478531E-04
   49.68000      4.2719315E-04
   49.74000      4.6144330E-04
   49.80000      4.9755938E-04
   49.86000      5.3555710E-04
   49.92000      5.7544373E-04
   49.98000      6.1721745E-04
   50.04000      6.6086673E-04
   50.10000      7.0636999E-04
   50.16000      7.5369503E-04
   50.22000      8.0279890E-04
   50.28000      8.5362716E-04
   50.34000      9.0611429E-04
   50.40000      9.6018316E-04
   50.46000      1.0157451E-03
   50.52000      1.0727006E-03
   50.58000      1.1309388E-03
   50.64000      1.1903384E-03
   50.70000      1.2507684E-03
   50.76000      1.3120883E-03
   50.82000      1.3741488E-03
   50.88000      1.4367931E-03
   50.94000      1.4998578E-03
   51.00000      1.5631737E-03
   51.06000      1.6265678E-03
   51.12000      1.6898636E-03
   51.18000      1.7528834E-03
   51.24000      1.8154494E-03
   51.30000      1.8773851E-03
   51.36000      1.9385169E-03
   51.42000      1.9986760E-03
   51.48000      2.0576997E-03
   51.54000      2.1154329E-03
   51.60000      2.1717292E-03
   51.66000      2.2264535E-03
   51.72000      2.2794821E-03
   51.78000      2.3307046E-03
   51.84000      2.3800244E-03
   51.90000      2.4273607E-03
   51.96000      2.4726486E-03
   52.02000      2.5158401E-03
   52.08000      2.5569042E-03
   52.14000      2.5958281E-03
   52.20000      2.6326154E-03
   52.26000      2.6672881E-03
   52.32000      2.6998846E-03
   52.38000      2.7304604E-03
   52.44000      2.7590864E-03
   52.50000      2.7858489E-03
   52.56000      2.8108468E-03
   52.62000      2.8341934E-03
   52.68000      2.8560120E-03
   52.74000      2.8764352E-03
   52.80000      2.8956037E-03
   52.86000      2.9136629E-03
   52.92000      2.9307627E-03
   52.98000      2.9470546E-03
   53.04000      2.9626903E-03
   53.10000      2.9778196E-03
   53.16000      2.9925886E-03
   53.22000      3.0071372E-03
   53.28000      3.0215972E-03
   53.34000      3.0360906E-03
   53.40000      3.0507282E-03
   53.46000      3.0656082E-03
   53.52000      3.0808151E-03
   53.58000      3.0964185E-03
   53.64000      3.1124712E-03
   53.70000      3.1290113E-03
   53.76000      3.1460582E-03
   53.82000      3.1636143E-03
   53.88000      3.1816652E-03
   53.94000      3.2001785E-03
   54.00000      3.2191060E-03
   54.06000      3.2383834E-03
   54.12000      3.2579324E-03
   54.18000      3.2776592E-03
   54.24000      3.2974596E-03
   54.30000      3.3172173E-03
   54.36000      3.3368065E-03
   54.42000      3.3560952E-03
   54.48000      3.3749433E-03
   54.54000      3.3932095E-03
   54.60000      3.4107496E-03
   54.66000      3.4274196E-03
   54.72000      3.4430777E-03
   54.78000      3.4575865E-03
   54.84000      3.4708146E-03
   54.90000      3.4826382E-03
   54.96000      3.4929432E-03
   55.02000      3.5016269E-03
   55.08000      3.5085988E-03
   55.14000      3.5137823E-03
   55.20000      3.5171153E-03
   55.26000      3.5185511E-03
   55.32000      3.5180592E-03
   55.38000      3.5156247E-03
   55.44000      3.5112503E-03
   55.50000      3.5049540E-03
   55.56000      3.4967717E-03