  -2.400000      0.0000000E+00
  -2.340000      0.0000000E+00
  -2.280000      0.0000000E+00
  -2.220000      0.0000000E+00
  -2.160000      0.0000000E+00
  -2.100000      5.3147262E-20
  -2.040000      4.4475154E-19
  -1.980000      1.9312192E-18
  -1.920000      5.5980589E-18
  -1.860000      1.1510624E-17
  -1.800000      1.5724922E-17
  -1.740000      7.2254367E-18
  -1.680000     -3.0705050E-17
  -1.620000     -1.0950615E-16
  -1.560000     -2.1511140E-16
  -1.500000     -2.9045707E-16
  -1.440000     -2.4239306E-16
  -1.380000      1.0666143E-17
  -1.320000      4.6125719E-16
  -1.260000      9.5413285E-16
  -1.200000      1.2125449E-15
  -1.140000      9.8282419E-16
  -1.080000      2.4564379E-16
  -1.020000     -6.4848154E-16
 -0.9600000     -1.0820714E-15
 -0.9000000     -5.6792776E-16
 -0.8400000      7.1558646E-16
 -0.7800000      1.6102606E-15
 -0.7200000      2.7626604E-16
 -0.6600000     -4.7484455E-15
 -0.6000000     -1.3052317E-14
 -0.5400000     -2.1227747E-14
 -0.4800000     -2.3115014E-14
 -0.4200000     -1.2037004E-14
 -0.3600000      1.5289375E-14
 -0.3000000      5.4677972E-14
 -0.2400000      9.2614474E-14
 -0.1800000      1.0885724E-13
 -0.1200000      8.4198151E-14
 -5.9999999E-02  1.1361440E-14
  0.0000000E+00 -9.5816408E-14
  5.9999999E-02 -2.0104305E-13
  0.1200000     -2.5629087E-13
  0.1800000     -2.2341722E-13
  0.2400000     -9.8374901E-14
  0.3000000      7.5426990E-14
  0.3600000      2.1693374E-13
  0.4200000      2.4335365E-13
  0.4800000      1.1997903E-13
  0.5400000     -1.0165410E-13
  0.6000000     -2.8516932E-13
  0.6600000     -2.6377113E-13
  0.7200000      6.6960245E-14
  0.7800000      6.6118508E-13
  0.8400000      1.2943283E-12
  0.9000000      1.6296166E-12
  0.9600000      1.3687493E-12
   1.020000      4.2246390E-13
   1.080000     -9.9245959E-13
   1.140000     -2.4037948E-12
   1.200000     -3.2871481E-12
   1.260000     -3.3377864E-12
   1.320000     -2.6662340E-12
   1.380000     -1.7838192E-12
   1.440000     -1.3368863E-12
   1.500000     -1.6864083E-12
   1.560000     -2.5429899E-12
   1.620000     -2.8859768E-12
   1.680000     -1.2905546E-12
   1.740000      3.4063362E-12
   1.800000      1.1361908E-11
   1.860000      2.1253539E-11
   1.920000      3.0347169E-11
   1.980000      3.5161374E-11
   2.040000      3.2516947E-11
   2.100000      2.0584749E-11
   2.160000     -4.5190495E-13
   2.220000     -2.8316226E-11
   2.280000     -5.9059153E-11
   2.340000     -8.7692173E-11
   2.400000     -1.0871821E-10
   2.460000     -1.1643578E-10
   2.520000     -1.0519111E-10
   2.580000     -6.9978377E-11
   2.640000     -7.7701014E-12
   2.700000      8.0359115E-11
   2.760000      1.8676376E-10
   2.820000      2.9532796E-10
   2.880000      3.8121090E-10
   2.940000      4.1301629E-10
   3.000000      3.5746406E-10
   3.060000      1.8578242E-10
   3.120000     -1.1963967E-10
   3.180000     -5.6001537E-10
   3.240000     -1.1176791E-09
   3.300000     -1.7569552E-09
   3.360000     -2.4281070E-09
   3.420000     -3.0734251E-09
   3.480000     -3.6342234E-09
   3.540000     -4.0575832E-09
   3.600000     -4.3019810E-09
   3.660000     -4.3412616E-09
   3.720000     -4.1666537E-09
   3.780000     -3.7866927E-09
   3.840000     -3.2250753E-09
   3.900000     -2.5167468E-09
   3.960000     -1.7028312E-09
   4.020000     -8.2531881E-10
   4.080000      7.7479058E-11
   4.140000      9.7388109E-10
   4.200000      1.8397924E-09
   4.260000      2.6578144E-09
   4.320000      3.4151273E-09
   4.380000      4.1010377E-09
   4.440000      4.7050910E-09
   4.500000      5.2164530E-09
   4.560000      5.6248961E-09
   4.620000      5.9233014E-09
   4.680000      6.1111116E-09
   4.740000      6.1977636E-09
   4.800000      6.2049126E-09
   4.860000      6.1663572E-09
   4.920000      6.1250880E-09
   4.980000      6.1277108E-09
   5.040000      6.2174208E-09
   5.100000      6.4273378E-09
   5.160000      6.7760837E-09
   5.220000      7.2668760E-09
   5.280000      7.8903115E-09
   5.340000      8.6298320E-09
   5.400000      9.4680557E-09
   5.460000      1.0392008E-08
   5.520000      1.1395863E-08
   5.580000      1.2480728E-08
   5.640000      1.3651995E-08
   5.700000      1.4915397E-08
   5.760000      1.6272988E-08
   5.820000      1.7719978E-08
   5.880000      1.9242901E-08
   5.940000      2.0819218E-08
   6.000000      2.2418437E-08
   6.060000      2.4004725E-08
   6.120000      2.5541043E-08
   6.180000      2.6994311E-08
   6.240000      2.8340681E-08
   6.300000      2.9569355E-08
   6.360000      3.0683392E-08
   6.420000      3.1696633E-08
   6.480000      3.2627245E-08
   6.540000      3.3489869E-08
   6.600000      3.4289258E-08
   6.660000      3.5018026E-08
   6.720000      3.5659724E-08
   6.780000      3.6196447E-08
   6.840000      3.6618314E-08
   6.900000      3.6931798E-08
   6.960000      3.7164259E-08
   7.020000      3.7363787E-08
   7.080000      3.7594798E-08
   7.140000      3.7930686E-08
   7.200000      3.8444799E-08
   7.260000      3.9200639E-08
   7.320000      4.0242043E-08
   7.380000      4.1584691E-08
   7.440000      4.3210960E-08
   7.500000      4.5070287E-08
   7.560000      4.7086250E-08
   7.620000      4.9169298E-08
   7.680000      5.1231602E-08
   7.740000      5.3199109E-08
   7.800000      5.5016724E-08
   7.860000      5.6645241E-08
   7.920000      5.8052375E-08
   7.980000      5.9202836E-08
   8.040000      6.0052820E-08
   8.100000      6.0551898E-08
   8.160000      6.0651779E-08
   8.220000      6.0317880E-08
   8.280000      5.9538543E-08
   8.340000      5.8327739E-08
   8.400000      5.6720474E-08
   8.460000      5.4762996E-08
   8.520000      5.2502287E-08
   8.580000      4.9978901E-08
   8.640000      4.7225445E-08
   8.700000      4.4270120E-08
   8.760000      4.1142883E-08
   8.820000      3.7880920E-08
   8.880000      3.4531286E-08
   8.940000      3.1150151E-08
   9.000000      2.7799654E-08
   9.060000      2.4543938E-08
   9.120000      2.1445240E-08
   9.180000      1.8559998E-08
   9.240000      1.5934214E-08
   9.300000      1.3597757E-08
   9.360000      1.1558625E-08
   9.420000      9.7995434E-09
   9.480000      8.2795220E-09
   9.540000      6.9415891E-09
   9.600000      5.7252740E-09
   9.660000      4.5799546E-09
   9.720000      3.4743473E-09
   9.780000      2.3990192E-09
   9.840000      1.3620427E-09
   9.900000      3.8109768E-10
   9.960000     -5.2346499E-10
   10.02000     -1.3315693E-09
   10.08000     -2.0225901E-09
   10.14000     -2.5738955E-09
   10.20000     -2.9625400E-09
   10.26000     -3.1717515E-09
   10.32000     -3.2002059E-09
   10.38000     -3.0693359E-09
   10.44000     -2.8239657E-09
   10.50000     -2.5245914E-09
   10.56000     -2.2339075E-09
   10.62000     -2.0031348E-09
   10.68000     -1.8635580E-09
   10.74000     -1.8255725E-09
   10.80000     -1.8835016E-09
   10.86000     -2.0219739E-09
   10.92000     -2.2201530E-09
   10.98000     -2.4529914E-09
   11.04000     -2.6917599E-09
   11.10000     -2.9071192E-09
   11.16000     -3.0761946E-09
   11.22000     -3.1916938E-09
   11.28000     -3.2684502E-09
   11.34000     -3.3428986E-09
   11.40000     -3.4640781E-09
   11.46000     -3.6790744E-09
   11.52000     -4.0187982E-09
   11.58000     -4.4898618E-09
   11.64000     -5.0751758E-09
   11.70000     -5.7416800E-09
   11.76000     -6.4506884E-09
   11.82000     -7.1662334E-09
   11.88000     -7.8590885E-09
   11.94000     -8.5072021E-09
   12.00000     -9.0951202E-09
   12.06000     -9.6146682E-09
   12.12000     -1.0067260E-08
   12.18000     -1.0466187E-08
   12.24000     -1.0836454E-08
   12.30000     -1.1210645E-08
   12.36000     -1.1621282E-08
   12.42000     -1.2091979E-08
   12.48000     -1.2630377E-08
   12.54000     -1.3225183E-08
   12.60000     -1.3847930E-08
   12.66000     -1.4458427E-08
   12.72000     -1.5011720E-08
   12.78000     -1.5464488E-08
   12.84000     -1.5779740E-08
   12.90000     -1.5930036E-08
   12.96000     -1.5900538E-08
   13.02000     -1.5693077E-08
   13.08000     -1.5331125E-08
   13.14000     -1.4863491E-08
   13.20000     -1.4363069E-08
   13.26000     -1.3917476E-08
   13.32000     -1.3611333E-08
   13.38000     -1.3504307E-08
   13.44000     -1.3612600E-08
   13.50000     -1.3901926E-08
   13.56000     -1.4296278E-08
   13.62000     -1.4700271E-08
   13.68000     -1.5026876E-08
   13.74000     -1.5220053E-08
   13.80000     -1.5264670E-08
   13.86000     -1.5182286E-08
   13.92000     -1.5017692E-08
   13.98000     -1.4823810E-08
   14.04000     -1.4650671E-08
   14.10000     -1.4539659E-08
   14.16000     -1.4520108E-08
   14.22000     -1.4604773E-08
   14.28000     -1.4783564E-08
   14.34000     -1.5018879E-08
   14.40000     -1.5247821E-08
   14.46000     -1.5394411E-08
   14.52000     -1.5389878E-08
   14.58000     -1.5194006E-08
   14.64000     -1.4808820E-08
   14.70000     -1.4278628E-08
   14.76000     -1.3676405E-08
   14.82000     -1.3082193E-08
   14.88000     -1.2561907E-08
   14.94000     -1.2153444E-08
   15.00000     -1.1862756E-08
   15.06000     -1.1668148E-08
   15.12000     -1.1528727E-08
   15.18000     -1.1393428E-08
   15.24000     -1.1209138E-08
   15.30000     -1.0928360E-08
   15.36000     -1.0517253E-08
   15.42000     -9.9634221E-09
   15.48000     -9.2809413E-09
   15.54000     -8.5092067E-09
   15.60000     -7.7036164E-09
   15.66000     -6.9194668E-09
   15.72000     -6.1943100E-09
   15.78000     -5.5361831E-09
   15.84000     -4.9238080E-09
   15.90000     -4.3201602E-09
   15.96000     -3.6945189E-09
   16.02000     -3.0434437E-09
   16.08000     -2.4008187E-09
   16.14000     -1.8318207E-09
   16.20000     -1.4133246E-09
   16.26000     -1.2099000E-09
   16.32000     -1.2564146E-09
   16.38000     -1.5541972E-09
   16.44000     -2.0799571E-09
   16.50000     -2.7998024E-09
   16.56000     -3.6788648E-09
   16.62000     -4.6812980E-09
   16.68000     -5.7630123E-09
   16.74000     -6.8653572E-09
   16.80000     -7.9179738E-09
   16.86000     -8.8529060E-09
   16.92000     -9.6236104E-09
   16.98000     -1.0217401E-08
   17.04000     -1.0652040E-08
   17.10000     -1.0955916E-08
   17.16000     -1.1141533E-08
   17.22000     -1.1187316E-08
   17.28000     -1.1039335E-08
   17.34000     -1.0633802E-08
   17.40000     -9.9292050E-09
   17.46000     -8.9308596E-09
   17.52000     -7.6942328E-09
   17.58000     -6.3047616E-09
   17.64000     -4.8447051E-09
   17.70000     -3.3643053E-09
   17.76000     -1.8715958E-09
   17.82000     -3.4438652E-10
   17.88000      1.2442457E-09
   17.94000      2.9022826E-09
   18.00000      4.6097539E-09
   18.06000      6.3276997E-09
   18.12000      8.0176408E-09
   18.18000      9.6585921E-09
   18.24000      1.1251189E-08
   18.30000      1.2807174E-08
   18.36000      1.4331679E-08
   18.42000      1.5809910E-08
   18.48000      1.7206741E-08
   18.54000      1.8479593E-08
   18.60000      1.9596829E-08
   18.66000      2.0550887E-08
   18.72000      2.1358835E-08
   18.78000      2.2050811E-08
   18.84000      2.2653994E-08
   18.90000      2.3182000E-08
   18.96000      2.3635829E-08
   19.02000      2.4015167E-08
   19.08000      2.4332412E-08
   19.14000      2.4620322E-08
   19.20000      2.4928065E-08
   19.26000      2.5307365E-08
   19.32000      2.5796130E-08
   19.38000      2.6407811E-08
   19.44000      2.7130932E-08
   19.50000      2.7936917E-08
   19.56000      2.8789986E-08
   19.62000      2.9652886E-08
   19.68000      3.0486497E-08
   19.74000      3.1246721E-08
   19.80000      3.1884788E-08
   19.86000      3.2355057E-08
   19.92000      3.2628602E-08
   19.98000      3.2705493E-08
   20.04000      3.2617127E-08
   20.10000      3.2414423E-08
   20.16000      3.2145500E-08
   20.22000      3.1833299E-08
   20.28000      3.1464701E-08
   20.34000      3.0997395E-08
   20.40000      3.0381091E-08
   20.46000      2.9582255E-08
   20.52000      2.8599645E-08
   20.58000      2.7463875E-08
   20.64000      2.6223356E-08
   20.70000      2.4926479E-08
   20.76000      2.3610742E-08
   20.82000      2.2303956E-08
   20.88000      2.1033893E-08
   20.94000      1.9837083E-08
   21.00000      1.8758209E-08
   21.06000      1.7838111E-08
   21.12000      1.7096832E-08
   21.18000      1.6522261E-08
   21.24000      1.6072663E-08
   21.30000      1.5693349E-08
   21.36000      1.5339438E-08
   21.42000      1.4992750E-08
   21.48000      1.4664049E-08
   21.54000      1.4379958E-08
   21.60000      1.4162390E-08
   21.66000      1.4012146E-08
   21.72000      1.3905725E-08
   21.78000      1.3806971E-08
   21.84000      1.3687260E-08
   21.90000      1.3543782E-08
   21.96000      1.3406900E-08
   22.02000      1.3333398E-08
   22.08000      1.3389212E-08
   22.14000      1.3629577E-08
   22.20000      1.4084626E-08
   22.26000      1.4754855E-08
   22.32000      1.5615845E-08
   22.38000      1.6627835E-08
   22.44000      1.7744881E-08
   22.50000      1.8920089E-08
   22.56000      2.0106762E-08
   22.62000      2.1257861E-08
   22.68000      2.2326773E-08
   22.74000      2.3271115E-08
   22.80000      2.4058805E-08
   22.86000      2.4673886E-08
   22.92000      2.5119325E-08
   22.98000      2.5415479E-08
   23.04000      2.5594842E-08
   23.10000      2.5694987E-08
   23.16000      2.5751655E-08
   23.22000      2.5792854E-08
   23.28000      2.5833950E-08
   23.34000      2.5873701E-08
   23.40000      2.5892021E-08
   23.46000      2.5851167E-08
   23.52000      2.5701729E-08
   23.58000      2.5392930E-08
   23.64000      2.4884356E-08
   23.70000      2.4154794E-08
   23.76000      2.3204770E-08
   23.82000      2.2052209E-08
   23.88000      2.0724158E-08
   23.94000      1.9249073E-08
   24.00000      1.7652978E-08
   24.06000      1.5959506E-08
   24.12000      1.4190734E-08
   24.18000      1.2365109E-08
   24.24000      1.0491379E-08
   24.30000      8.5616074E-09
   24.36000      6.5491457E-09
   24.42000      4.4165116E-09
   24.48000      2.1332398E-09
   24.54000     -3.0240074E-10
   24.60000     -2.8478342E-09
   24.66000     -5.4155396E-09
   24.72000     -7.8899953E-09
   24.78000     -1.0156706E-08
   24.84000     -1.2131954E-08
   24.90000     -1.3781595E-08
   24.96000     -1.5122430E-08
   25.02000     -1.6207846E-08
   25.08000     -1.7105894E-08
   25.14000     -1.7879891E-08
   25.20000     -1.8578156E-08
   25.26000     -1.9233379E-08
   25.32000     -1.9866899E-08
   25.38000     -2.0491898E-08
   25.44000     -2.1112232E-08
   25.50000     -2.1718334E-08
   25.56000     -2.2284800E-08
   25.62000     -2.2773888E-08
   25.68000     -2.3145480E-08
   25.74000     -2.3369692E-08
   25.80000     -2.3435941E-08
   25.86000     -2.3354044E-08
   25.92000     -2.3147107E-08
   25.98000     -2.2840613E-08
   26.04000     -2.2453632E-08
   26.10000     -2.1996170E-08
   26.16000     -2.1472440E-08
   26.22000     -2.0886358E-08
   26.28000     -2.0244984E-08
   26.34000     -1.9558101E-08
   26.40000     -1.8835536E-08
   26.46000     -1.8085554E-08
   26.52000     -1.7316244E-08
   26.58000     -1.6538536E-08
   26.64000     -1.5766933E-08
   26.70000     -1.5014663E-08
   26.76000     -1.4283918E-08
   26.82000     -1.3556495E-08
   26.88000     -1.2792163E-08
   26.94000     -1.1939187E-08
   27.00000     -1.0954779E-08
   27.06000     -9.8266542E-09
   27.12000     -8.5846672E-09
   27.18000     -7.2955038E-09
   27.24000     -6.0418150E-09
   27.30000     -4.8952118E-09
   27.36000     -3.8955257E-09
   27.42000     -3.0449923E-09
   27.48000     -2.3178148E-09
   27.54000     -1.6778769E-09
   27.60000     -1.0944801E-09
   27.66000     -5.4920923E-10
   27.72000     -3.3634911E-11
   27.78000      4.5674398E-10
   27.84000      9.2581126E-10
   27.90000      1.3744843E-09
   27.96000      1.7952848E-09
   28.02000      2.1697062E-09
   28.08000      2.4729689E-09
   28.14000      2.6857876E-09
   28.20000      2.8073577E-09
   28.26000      2.8616933E-09
   28.32000      2.8922429E-09
   28.38000      2.9459175E-09
   28.44000      3.0536482E-09
   28.50000      3.2168010E-09
   28.56000      3.4060670E-09
   28.62000      3.5733285E-09
   28.68000      3.6709016E-09
   28.74000      3.6695964E-09
   28.80000      3.5683654E-09
   28.86000      3.3927361E-09
   28.92000      3.1841316E-09
   28.98000      2.9852179E-09
   29.04000      2.8265830E-09
   29.10000      2.7182665E-09
   29.16000      2.6473610E-09
   29.22000      2.5814981E-09
   29.28000      2.4775160E-09
   29.34000      2.2942475E-09
   29.40000      2.0072819E-09
   29.46000      1.6217491E-09
   29.52000      1.1778726E-09
   29.58000      7.4487005E-10
   29.64000      4.0251741E-10
   29.70000      2.1527839E-10
   29.76000      2.0866903E-10
   29.82000      3.5839642E-10
   29.88000      5.9839600E-10
   29.94000      8.4572044E-10
   30.00000      1.0321950E-09
   30.06000      1.1292617E-09
   30.12000      1.1556142E-09
   30.18000      1.1656475E-09
   30.24000      1.2258589E-09
   30.30000      1.3912109E-09
   30.36000      1.6916570E-09
   30.42000      2.1320916E-09
   30.48000      2.7014122E-09
   30.54000      3.3827721E-09
   30.60000      4.1590966E-09
   30.66000      5.0135123E-09
   30.72000      5.9289742E-09
   30.78000      6.8917636E-09
   30.84000      7.8993212E-09
   30.90000      8.9675174E-09
   30.96000      1.0130113E-08
   31.02000      1.1426316E-08
   31.08000      1.2879418E-08
   31.14000      1.4476027E-08
   31.20000      1.6157065E-08
   31.26000      1.7826963E-08
   31.32000      1.9378760E-08
   31.38000      2.0725214E-08
   31.44000      2.1823409E-08
   31.50000      2.2684079E-08
   31.56000      2.3364018E-08
   31.62000      2.3946598E-08
   31.68000      2.4518430E-08
   31.74000      2.5149104E-08
   31.80000      2.5877835E-08
   31.86000      2.6708072E-08
   31.92000      2.7609998E-08
   31.98000      2.8530563E-08
   32.04000      2.9409861E-08
   32.10000      3.0200475E-08
   32.16000      3.0883903E-08
   32.22000      3.1477295E-08
   32.28000      3.2026229E-08
   32.34000      3.2584740E-08
   32.40000      3.3189778E-08
   32.46000      3.3840774E-08
   32.52000      3.4493624E-08
   32.58000      3.5072354E-08
   32.64000      3.5494164E-08
   32.70000      3.5697500E-08
   32.76000      3.5661742E-08
   32.82000      3.5410800E-08
   32.88000      3.5000156E-08
   32.94000      3.4493500E-08
   33.00000      3.3939006E-08
   33.06000      3.3354656E-08
   33.12000      3.2727474E-08
   33.18000      3.2025831E-08
   33.24000      3.1219017E-08
   33.30000      3.0296196E-08
   33.36000      2.9277929E-08
   33.42000      2.8216503E-08
   33.48000      2.7185424E-08
   33.54000      2.6261576E-08
   33.60000      2.5505326E-08
   33.66000      2.4944143E-08
   33.72000      2.4564086E-08
   33.78000      2.4311472E-08
   33.84000      2.4104491E-08
   33.90000      2.3851912E-08
   33.96000      2.3474191E-08
   34.02000      2.2921592E-08
   34.08000      2.2184786E-08
   34.14000      2.1295458E-08
   34.20000      2.0317135E-08
   34.26000      1.9328672E-08
   34.32000      1.8404441E-08
   34.38000      1.7595861E-08
   34.44000      1.6918825E-08
   34.50000      1.6350711E-08
   34.56000      1.5838777E-08
   34.62000      1.5318761E-08
   34.68000      1.4738679E-08
   34.74000      1.4079926E-08
   34.80000      1.3367295E-08
   34.86000      1.2662776E-08
   34.92000      1.2044299E-08
   34.98000      1.1577234E-08
   35.04000      1.1290258E-08
   35.10000      1.1165689E-08
   35.16000      1.1148082E-08
   35.22000      1.1166624E-08
   35.28000      1.1160945E-08
   35.34000      1.1099189E-08
   35.40000      1.0981825E-08
   35.46000      1.0831801E-08
   35.52000      1.0677608E-08
   35.58000      1.0537701E-08
   35.64000      1.0412347E-08
   35.70000      1.0284426E-08
   35.76000      1.0126662E-08
   35.82000      9.9111608E-09
   35.88000      9.6178274E-09
   35.94000      9.2399652E-09
   36.00000      8.7864924E-09
   36.06000      8.2804705E-09
   36.12000      7.7535107E-09
   36.18000      7.2362449E-09
   36.24000      6.7467196E-09
   36.30000      6.2805250E-09
   36.36000      5.8072822E-09
   36.42000      5.2766054E-09
   36.48000      4.6330477E-09
   36.54000      3.8353241E-09
   36.60000      2.8725196E-09
   36.66000      1.7705429E-09
   36.72000      5.8589789E-10
   36.78000     -6.1082966E-10
   36.84000     -1.7549550E-09
   36.90000     -2.8030365E-09
   36.96000     -3.7378456E-09
   37.02000     -4.5621578E-09
   37.08000     -5.2855942E-09
   37.14000     -5.9115397E-09
   37.20000     -6.4304113E-09
   37.26000     -6.8218928E-09
   37.32000     -7.0641222E-09
   37.38000     -7.1445774E-09
   37.44000     -7.0671313E-09
   37.50000     -6.8522836E-09
   37.56000     -6.5313497E-09
   37.62000     -6.1382908E-09
   37.68000     -5.7034022E-09
   37.74000     -5.2511311E-09
   37.80000     -4.8013713E-09
   37.86000     -4.3714454E-09
   37.92000     -3.9760368E-09
   37.98000     -3.6243692E-09
   38.04000     -3.3165524E-09
   38.10000     -3.0423875E-09
   38.16000     -2.7849199E-09
   38.22000     -2.5281350E-09
   38.28000     -2.2651416E-09
   38.34000     -2.0020148E-09
   38.40000     -1.7542047E-09
   38.46000     -1.5363727E-09
   38.52000     -1.3504793E-09
   38.58000     -1.1785654E-09
   38.64000     -9.8471331E-10
   38.70000     -7.2601702E-10
   38.76000     -3.6752645E-10
   38.82000      1.0616947E-10
   38.88000      6.8836581E-10
   38.94000      1.3574748E-09
   39.00000      2.0895579E-09
   39.06000      2.8688845E-09
   39.12000      3.6906314E-09
   39.18000      4.5545763E-09
   39.24000      5.4539724E-09
   39.30000      6.3666667E-09
   39.36000      7.2541928E-09
   39.42000      8.0699039E-09
   39.48000      8.7718837E-09
   39.54000      9.3335668E-09
   39.60000      9.7463726E-09
   39.66000      1.0013363E-08
   39.72000      1.0138239E-08
   39.78000      1.0116673E-08
   39.84000      9.9354391E-09
   39.90000      9.5798667E-09
   39.96000      9.0447951E-09
   40.02000      8.3416900E-09
   40.08000      7.4966273E-09
   40.14000      6.5394321E-09
   40.20000      5.4900453E-09
   40.26000      4.3506612E-09
   40.32000      3.1094447E-09
   40.38000      1.7550139E-09
   40.44000      2.9412719E-10
   40.50000     -1.2377271E-09
   40.56000     -2.7798450E-09
   40.62000     -4.2632404E-09
   40.68000     -5.6325753E-09
   40.74000     -6.8615833E-09
   40.80000     -7.9541289E-09
   40.86000     -8.9314005E-09
   40.92000     -9.8137765E-09
   40.98000     -1.0608650E-08
   41.04000     -1.1311156E-08
   41.10000     -1.1915950E-08
   41.16000     -1.2430711E-08
   41.22000     -1.2880713E-08
   41.28000     -1.3299790E-08
   41.34000     -1.3712471E-08
   41.40000     -1.4118968E-08
   41.46000     -1.4493963E-08
   41.52000     -1.4802185E-08
   41.58000     -1.5023129E-08
   41.64000     -1.5170894E-08
   41.70000     -1.5297170E-08
   41.76000     -1.5474862E-08
   41.82000     -1.5770977E-08
   41.88000     -1.6223387E-08
   41.94000     -1.6833388E-08
   42.00000     -1.7576506E-08
   42.06000     -1.8423751E-08
   42.12000     -1.9360725E-08
   42.18000     -2.0394895E-08
   42.24000     -2.1549660E-08
   42.30000     -2.2851543E-08
   42.36000     -2.4319442E-08
   42.42000     -2.5961265E-08
   42.48000     -2.7776688E-08
   42.54000     -2.9760407E-08
   42.60000     -3.1900779E-08
   42.66000     -3.4173809E-08
   42.72000     -3.6537855E-08
   42.78000     -3.8935770E-08
   42.84000     -4.1307477E-08
   42.90000     -4.3608850E-08
   42.96000     -4.5827367E-08
   43.02000     -4.7984994E-08
   43.08000     -5.0124680E-08
   43.14000     -5.2285490E-08
   43.20000     -5.4478097E-08
   43.26000     -5.6672420E-08
   43.32000     -5.8803607E-08
   43.38000     -6.0793219E-08
   43.44000     -6.2575388E-08
   43.50000     -6.4115945E-08
   43.56000     -6.5416877E-08
   43.62000     -6.6506075E-08
   43.68000     -6.7419364E-08
   43.74000     -6.8183873E-08
   43.80000     -6.8809989E-08
   43.86000     -6.9292994E-08
   43.92000     -6.9620903E-08
   43.98000     -6.9782715E-08
   44.04000     -6.9773037E-08
   44.10000     -6.9592353E-08
   44.16000     -6.9245445E-08
   44.22000     -6.8740654E-08
   44.28000     -6.8091147E-08
   44.34000     -6.7316570E-08
   44.40000     -6.6442162E-08
   44.46000     -6.5493801E-08
   44.52000     -6.4490166E-08
   44.58000     -6.3435749E-08
   44.64000     -6.2319209E-08
   44.70000     -6.1119344E-08
   44.76000     -5.9817062E-08
   44.82000     -5.8408780E-08
   44.88000     -5.6915319E-08
   44.94000     -5.5382305E-08
   45.00000     -5.3871364E-08
   45.06000     -5.2444658E-08
   45.12000     -5.1147854E-08
   45.18000     -4.9996778E-08
   45.24000     -4.8972140E-08
   45.30000     -4.8024479E-08
   45.36000     -4.7088594E-08
   45.42000     -4.6103601E-08
   45.48000     -4.5032092E-08
   45.54000     -4.3871253E-08
   45.60000     -4.2650974E-08
   45.66000     -4.1418897E-08
   45.72000     -4.0218321E-08
   45.78000     -3.9068713E-08
   45.84000     -3.7957893E-08
   45.90000     -3.6849762E-08
   45.96000     -3.5703689E-08
   46.02000     -3.4496161E-08
   46.08000     -3.3234272E-08
   46.14000     -3.1955413E-08
   46.20000     -3.0714521E-08
   46.26000     -2.9565985E-08
   46.32000     -2.8548158E-08
   46.38000     -2.7675117E-08
   46.44000     -2.6935618E-08
   46.50000     -2.6296362E-08
   46.56000     -2.5707545E-08
   46.62000     -2.5111296E-08
   46.68000     -2.4454966E-08
   46.74000     -2.3708775E-08
   46.80000     -2.2882595E-08
   46.86000     -2.2032786E-08
   46.92000     -2.1251555E-08
   46.98000     -2.0638948E-08
   47.04000     -2.0267656E-08
   47.10000     -2.0157074E-08
   47.16000     -2.0270612E-08
   47.22000     -2.0539005E-08
   47.28000     -2.0898408E-08
   47.34000     -2.1323370E-08
   47.40000     -2.1837277E-08
   47.46000     -2.2495444E-08
   47.52000     -2.3351699E-08
   47.58000     -2.4428584E-08
   47.64000     -2.5708513E-08
   47.70000     -2.7150072E-08
   47.76000     -2.8718047E-08
   47.82000     -3.0407335E-08
   47.88000     -3.2244799E-08
   47.94000     -3.4266776E-08
   48.00000     -3.6485226E-08
   48.06000     -3.8862591E-08
   48.12000     -4.1310759E-08
   48.18000     -4.3715303E-08
   48.24000     -4.5971856E-08
   48.30000     -4.8015124E-08
   48.36000     -4.9826369E-08
   48.42000     -5.1418500E-08
   48.48000     -5.2810677E-08
   48.54000     -5.4008801E-08
   48.60000     -5.5001994E-08
   48.66000     -5.5773029E-08
   48.72000     -5.6310480E-08
   48.78000     -5.6609341E-08
   48.84000     -5.6655693E-08
   48.90000     -5.6403490E-08
   48.96000     -5.5759429E-08
   49.02000     -5.4589059E-08
   49.08000     -5.2744408E-08
   49.14000     -5.0098947E-08
   49.20000     -4.6568534E-08
   49.26000     -4.2102908E-08
   49.32000     -3.6648313E-08
   49.38000     -3.0098686E-08
   49.44000     -2.2259803E-08
   49.50000     -1.2843484E-08
   49.56000     -1.4910875E-09
   49.62000      1.2192019E-08
   49.68000      2.8616272E-08
   49.74000      4.8219402E-08
   49.80000      7.1509426E-08
   49.86000      9.9122296E-08
   49.92000      1.3187099E-07
   49.98000      1.7077001E-07
   50.04000      2.1703435E-07
   50.10000      2.7206639E-07
   50.16000      3.3744905E-07
   50.22000      4.1495917E-07
   50.28000      5.0660356E-07
   50.34000      6.1467131E-07
   50.40000      7.4179258E-07
   50.46000      8.9099819E-07
   50.52000      1.0657797E-06
   50.58000      1.2701537E-06
   50.64000      1.5087350E-06
   50.70000      1.7868136E-06
   50.76000      2.1104352E-06
   50.82000      2.4864710E-06
   50.88000      2.9226851E-06
   50.94000      3.4277966E-06
   51.00000      4.0115569E-06
   51.06000      4.6848540E-06
   51.12000      5.4598522E-06
   51.18000      6.3501543E-06
   51.24000      7.3709793E-06
   51.30000      8.5393212E-06
   51.36000      9.8740793E-06
   51.42000      1.1396161E-05
   51.48000      1.3128581E-05
   51.54000      1.5096568E-05
   51.60000      1.7327715E-05
   51.66000      1.9852157E-05
   51.72000      2.2702787E-05
   51.78000      2.5915424E-05
   51.84000      2.9528994E-05
   51.90000      3.3585635E-05
   51.96000      3.8130787E-05
   52.02000      4.3213280E-05
   52.08000      4.8885402E-05
   52.14000      5.5202963E-05
   52.20000      6.2225387E-05
   52.26000      7.0015711E-05
   52.32000      7.8640631E-05
   52.38000      8.8170491E-05
   52.44000      9.8679200E-05
   52.50000      1.1024417E-04
   52.56000      1.2294619E-04
   52.62000      1.3686916E-04
   52.68000      1.5209988E-04
   52.74000      1.6872770E-04
   52.80000      1.8684412E-04
   52.86000      2.0654249E-04
   52.92000      2.2791741E-04
   52.98000      2.5106434E-04
   53.04000      2.7607908E-04
   53.10000      3.0305705E-04
   53.16000      3.3209272E-04
   53.22000      3.6327890E-04
   53.28000      3.9670587E-04
   53.34000      4.3246060E-04
   53.40000      4.7062579E-04
   53.46000      5.1127904E-04
   53.52000      5.5449177E-04
   53.58000      6.0032838E-04
   53.64000      6.4884516E-04
   53.70000      7.0008985E-04
   53.76000      7.5410015E-04
   53.82000      8.1090321E-04
   53.88000      8.7051454E-04
   53.94000      9.3293720E-04
   54.00000      9.9816069E-04
   54.06000      1.0661605E-03
   54.12000      1.1368977E-03
   54.18000      1.2103179E-03
   54.24000      1.2863511E-03
   54.30000      1.3649112E-03
   54.36000      1.4458959E-03
   54.42000      1.5291864E-03
   54.48000      1.6146480E-03
   54.54000      1.7021297E-03
   54.60000      1.7914650E-03
   54.66000      1.8824723E-03
   54.72000      1.9749554E-03
   54.78000      2.0687042E-03
   54.84000      2.1634952E-03
   54.90000      2.2590936E-03
   54.96000      2.3552538E-03
   55.02000      2.4517220E-03
   55.08000      2.5482362E-03
   55.14000      2.6445279E-03
   55.20000      2.7403252E-03
   55.26000      2.8353529E-03
   55.32000      2.9293352E-03
   55.38000      3.0219969E-03
   55.44000      3.1130661E-03
   55.50000      3.2022756E-03
   55.56000      3.2893647E-03