  -2.400000      0.0000000E+00
  -2.340000      0.0000000E+00
  -2.280000      0.0000000E+00
  -2.220000      0.0000000E+00
  -2.160000      0.0000000E+00
  -2.100000     -5.2191252E-20
  -2.040000     -3.2033272E-19
  -1.980000     -8.3560741E-19
  -1.920000     -7.3099677E-19
  -1.860000      2.3506167E-18
  -1.800000      1.0919675E-17
  -1.740000      2.3194297E-17
  -1.680000      2.7634609E-17
  -1.620000      2.7000521E-18
  -1.560000     -7.1387593E-17
  -1.500000     -1.8881906E-16
  -1.440000     -2.9453895E-16
  -1.380000     -2.8264910E-16
  -1.320000     -3.5843897E-17
  -1.260000      4.9458561E-16
  -1.200000      1.1976184E-15
  -1.140000      1.7530635E-15
  -1.080000      1.6796813E-15
  -1.020000      5.1244165E-16
 -0.9600000     -1.9094638E-15
 -0.9000000     -5.1305514E-15
 -0.8400000     -7.9012292E-15
 -0.7800000     -8.3345636E-15
 -0.7200000     -4.5533095E-15
 -0.6600000      4.2071398E-15
 -0.6000000      1.6408256E-14
 -0.5400000      2.7644679E-14
 -0.4800000      3.1509683E-14
 -0.4200000      2.2241638E-14
 -0.3600000     -1.5322364E-15
 -0.3000000     -3.3850391E-14
 -0.2400000     -6.1717463E-14
 -0.1800000     -7.0145888E-14
 -0.1200000     -5.0815099E-14
 -5.9999999E-02 -1.0002364E-14
  0.0000000E+00  3.0259476E-14
  5.9999999E-02  4.1920623E-14
  0.1200000      9.7129082E-15
  0.1800000     -5.0401706E-14
  0.2400000     -8.6928322E-14
  0.3000000     -3.2972557E-14
  0.3600000      1.5140054E-13
  0.4200000      4.3343242E-13
  0.4800000      6.8836896E-13
  0.5400000      7.3180405E-13
  0.6000000      4.0564505E-13
  0.6600000     -3.1392841E-13
  0.7200000     -1.2440354E-12
  0.7800000     -2.0146935E-12
  0.8400000     -2.2008569E-12
  0.9000000     -1.5276068E-12
  0.9600000     -5.5405469E-14
   1.020000      1.7616956E-12
   1.080000      3.2077043E-12
   1.140000      3.5983618E-12
   1.200000      2.6142222E-12
   1.260000      5.0532668E-13
   1.320000     -1.9602388E-12
   1.380000     -3.8130887E-12
   1.440000     -4.3302011E-12
   1.500000     -3.3875602E-12
   1.560000     -1.5127106E-12
   1.620000      4.2804868E-13
   1.680000      1.7739665E-12
   1.740000      2.5555118E-12
   1.800000      3.6119692E-12
   1.860000      6.1821910E-12
   1.920000      1.1076023E-11
   1.980000      1.7791999E-11
   2.040000      2.4060030E-11
   2.100000      2.6176688E-11
   2.160000      2.0189510E-11
   2.220000      3.6016520E-12
   2.280000     -2.3017956E-11
   2.340000     -5.5181599E-11
   2.400000     -8.4824509E-11
   2.460000     -1.0187075E-10
   2.520000     -9.6636421E-11
   2.580000     -6.2437278E-11
   2.640000      2.2167830E-12
   2.700000      9.2216089E-11
   2.760000      1.9528976E-10
   2.820000      2.9211997E-10
   2.880000      3.5695405E-10
   2.940000      3.5872202E-10
   3.000000      2.6291178E-10
   3.060000      3.4558634E-11
   3.120000     -3.5746617E-10
   3.180000     -9.3513874E-10
   3.240000     -1.7057911E-09
   3.300000     -2.6577331E-09
   3.360000     -3.7583550E-09
   3.420000     -4.9556474E-09
   3.480000     -6.1832774E-09
   3.540000     -7.3684032E-09
   3.600000     -8.4406633E-09
   3.660000     -9.3404848E-09
   3.720000     -1.0025135E-08
   3.780000     -1.0471675E-08
   3.840000     -1.0676886E-08
   3.900000     -1.0655079E-08
   3.960000     -1.0435057E-08
   4.020000     -1.0057406E-08
   4.080000     -9.5727000E-09
   4.140000     -9.0403844E-09
   4.200000     -8.5274312E-09
   4.260000     -8.1054816E-09
   4.320000     -7.8455429E-09
   4.380000     -7.8100895E-09
   4.440000     -8.0435845E-09
   4.500000     -8.5634531E-09
   4.560000     -9.3540198E-09
   4.620000     -1.0365576E-08
   4.680000     -1.1519633E-08
   4.740000     -1.2719836E-08
   4.800000     -1.3866480E-08
   4.860000     -1.4871658E-08
   4.920000     -1.5672020E-08
   4.980000     -1.6236831E-08
   5.040000     -1.6570260E-08
   5.100000     -1.6708125E-08
   5.160000     -1.6710084E-08
   5.220000     -1.6648874E-08
   5.280000     -1.6598078E-08
   5.340000     -1.6620035E-08
   5.400000     -1.6755392E-08
   5.460000     -1.7015907E-08
   5.520000     -1.7382025E-08
   5.580000     -1.7806192E-08
   5.640000     -1.8221940E-08
   5.700000     -1.8557344E-08
   5.760000     -1.8750193E-08
   5.820000     -1.8761330E-08
   5.880000     -1.8582890E-08
   5.940000     -1.8239209E-08
   6.000000     -1.7780248E-08
   6.060000     -1.7269318E-08
   6.120000     -1.6768547E-08
   6.180000     -1.6326050E-08
   6.240000     -1.5968059E-08
   6.300000     -1.5697680E-08
   6.360000     -1.5499804E-08
   6.420000     -1.5349848E-08
   6.480000     -1.5222925E-08
   6.540000     -1.5100259E-08
   6.600000     -1.4970770E-08
   6.660000     -1.4827878E-08
   6.720000     -1.4663315E-08
   6.780000     -1.4460975E-08
   6.840000     -1.4193771E-08
   6.900000     -1.3825217E-08
   6.960000     -1.3315569E-08
   7.020000     -1.2630657E-08
   7.080000     -1.1750545E-08
   7.140000     -1.0675462E-08
   7.200000     -9.4274579E-09
   7.260000     -8.0477474E-09
   7.320000     -6.5907542E-09
   7.380000     -5.1162892E-09
   7.440000     -3.6812504E-09
   7.500000     -2.3318703E-09
   7.560000     -1.0974526E-09
   7.620000      1.3404592E-11
   7.680000      1.0130120E-09
   7.740000      1.9304711E-09
   7.800000      2.8034270E-09
   7.860000      3.6672425E-09
   7.920000      4.5443991E-09
   7.980000      5.4374167E-09
   8.040000      6.3279164E-09
   8.100000      7.1826496E-09
   8.160000      7.9650349E-09
   8.220000      8.6487395E-09
   8.280000      9.2290122E-09
   8.340000      9.7280859E-09
   8.400000      1.0192875E-08
   8.460000      1.0685649E-08
   8.520000      1.1270437E-08
   8.580000      1.1999029E-08
   8.640000      1.2900143E-08
   8.700000      1.3974171E-08
   8.760000      1.5194241E-08
   8.820000      1.6512892E-08
   8.880000      1.7872591E-08
   8.940000      1.9217772E-08
   9.000000      2.0505794E-08
   9.060000      2.1714266E-08
   9.120000      2.2842784E-08
   9.180000      2.3908338E-08
   9.240000      2.4935570E-08
   9.300000      2.5944805E-08
   9.360000      2.6942059E-08
   9.420000      2.7914622E-08
   9.480000      2.8833904E-08
   9.540000      2.9664436E-08
   9.600000      3.0375482E-08
   9.660000      3.0950890E-08
   9.720000      3.1393853E-08
   9.780000      3.1725463E-08
   9.840000      3.1978420E-08
   9.900000      3.2188606E-08
   9.960000      3.2387330E-08
   10.02000      3.2595999E-08
   10.08000      3.2823717E-08
   10.14000      3.3067536E-08
   10.20000      3.3314823E-08
   10.26000      3.3547227E-08
   10.32000      3.3745625E-08
   10.38000      3.3895009E-08
   10.44000      3.3987916E-08
   10.50000      3.4025053E-08
   10.56000      3.4012871E-08
   10.62000      3.3959079E-08
   10.68000      3.3868275E-08
   10.74000      3.3740040E-08
   10.80000      3.3570647E-08
   10.86000      3.3357573E-08
   10.92000      3.3104399E-08
   10.98000      3.2823287E-08
   11.04000      3.2533300E-08
   11.10000      3.2255059E-08
   11.16000      3.2004145E-08
   11.22000      3.1786161E-08
   11.28000      3.1595572E-08
   11.34000      3.1418242E-08
   11.40000      3.1236041E-08
   11.46000      3.1031146E-08
   11.52000      3.0788598E-08
   11.58000      3.0496995E-08
   11.64000      3.0148453E-08
   11.70000      2.9738821E-08
   11.76000      2.9268339E-08
   11.82000      2.8741935E-08
   11.88000      2.8168179E-08
   11.94000      2.7556704E-08
   12.00000      2.6915108E-08
   12.06000      2.6246932E-08
   12.12000      2.5551737E-08
   12.18000      2.4826992E-08
   12.24000      2.4070157E-08
   12.30000      2.3279336E-08
   12.36000      2.2451983E-08
   12.42000      2.1582860E-08
   12.48000      2.0663190E-08
   12.54000      1.9682439E-08
   12.60000      1.8632223E-08
   12.66000      1.7510249E-08
   12.72000      1.6321712E-08
   12.78000      1.5076932E-08
   12.84000      1.3786297E-08
   12.90000      1.2455088E-08
   12.96000      1.1080828E-08
   13.02000      9.6541415E-09
   13.08000      8.1620692E-09
   13.14000      6.5917005E-09
   13.20000      4.9325082E-09
   13.26000      3.1772678E-09
   13.32000      1.3227816E-09
   13.38000     -6.2844685E-10
   13.44000     -2.6657776E-09
   13.50000     -4.7690385E-09
   13.56000     -6.9104247E-09
   13.62000     -9.0606038E-09
   13.68000     -1.1197391E-08
   13.74000     -1.3313255E-08
   13.80000     -1.5417722E-08
   13.86000     -1.7532916E-08
   13.92000     -1.9683931E-08
   13.98000     -2.1888503E-08
   14.04000     -2.4150808E-08
   14.10000     -2.6461921E-08
   14.16000     -2.8805747E-08
   14.22000     -3.1166334E-08
   14.28000     -3.3532036E-08
   14.34000     -3.5894484E-08
   14.40000     -3.8243936E-08
   14.46000     -4.0565180E-08
   14.52000     -4.2838060E-08
   14.58000     -4.5043549E-08
   14.64000     -4.7172328E-08
   14.70000     -4.9230430E-08
   14.76000     -5.1237436E-08
   14.82000     -5.3216741E-08
   14.88000     -5.5182248E-08
   14.94000     -5.7128204E-08
   15.00000     -5.9027776E-08
   15.06000     -6.0841032E-08
   15.12000     -6.2527974E-08
   15.18000     -6.4059577E-08
   15.24000     -6.5421467E-08
   15.30000     -6.6609665E-08
   15.36000     -6.7622629E-08
   15.42000     -6.8455869E-08
   15.48000     -6.9103109E-08
   15.54000     -6.9562965E-08
   15.60000     -6.9846038E-08
   15.66000     -6.9976451E-08
   15.72000     -6.9985170E-08
   15.78000     -6.9898000E-08
   15.84000     -6.9724805E-08
   15.90000     -6.9456689E-08
   15.96000     -6.9073387E-08
   16.02000     -6.8557327E-08
   16.08000     -6.7906605E-08
   16.14000     -6.7139574E-08
   16.20000     -6.6288273E-08
   16.26000     -6.5384079E-08
   16.32000     -6.4443313E-08
   16.38000     -6.3460277E-08
   16.44000     -6.2410905E-08
   16.50000     -6.1264387E-08
   16.56000     -5.9996310E-08
   16.62000     -5.8596491E-08
   16.68000     -5.7069080E-08
   16.74000     -5.5426867E-08
   16.80000     -5.3685028E-08
   16.86000     -5.1858606E-08
   16.92000     -4.9964388E-08
   16.98000     -4.8023828E-08
   17.04000     -4.6062418E-08
   17.10000     -4.4103249E-08
   17.16000     -4.2157197E-08
   17.22000     -4.0215795E-08
   17.28000     -3.8252718E-08
   17.34000     -3.6235559E-08
   17.40000     -3.4143405E-08
   17.46000     -3.1981518E-08
   17.52000     -2.9785189E-08
   17.58000     -2.7610133E-08
   17.64000     -2.5513966E-08
   17.70000     -2.3538055E-08
   17.76000     -2.1698391E-08
   17.82000     -1.9988855E-08
   17.88000     -1.8393340E-08
   17.94000     -1.6898850E-08
   18.00000     -1.5502355E-08
   18.06000     -1.4208942E-08
   18.12000     -1.3024343E-08
   18.18000     -1.1947952E-08
   18.24000     -1.0970976E-08
   18.30000     -1.0080116E-08
   18.36000     -9.2629593E-09
   18.42000     -8.5101100E-09
   18.48000     -7.8116598E-09
   18.54000     -7.1500237E-09
   18.60000     -6.4944627E-09
   18.66000     -5.8024812E-09
   18.72000     -5.0296878E-09
   18.78000     -4.1448418E-09
   18.84000     -3.1435068E-09
   18.90000     -2.0539979E-09
   18.96000     -9.3285024E-10
   19.02000      1.4812147E-10
   19.08000      1.1176642E-09
   19.14000      1.9178721E-09
   19.20000      2.5103919E-09
   19.26000      2.8761904E-09
   19.32000      3.0118341E-09
   19.38000      2.9258342E-09
   19.44000      2.6370954E-09
   19.50000      2.1750772E-09
   19.56000      1.5795413E-09
   19.62000      8.9769103E-10
   19.68000      1.7804005E-10
   19.74000     -5.3753402E-10
   19.80000     -1.2206757E-09
   19.86000     -1.8595893E-09
   19.92000     -2.4569766E-09
   19.98000     -3.0237355E-09
   20.04000     -3.5708769E-09
   20.10000     -4.1024748E-09
   20.16000     -4.6116240E-09
   20.22000     -5.0799551E-09
   20.28000     -5.4801093E-09
   20.34000     -5.7801142E-09
   20.40000     -5.9487708E-09
   20.46000     -5.9614407E-09
   20.52000     -5.8056244E-09
   20.58000     -5.4854068E-09
   20.64000     -5.0235784E-09
   20.70000     -4.4605142E-09
   20.76000     -3.8497467E-09
   20.82000     -3.2512637E-09
   20.88000     -2.7242204E-09
   20.94000     -2.3206068E-09
   21.00000     -2.0805757E-09
   21.06000     -2.0292847E-09
   21.12000     -2.1748363E-09
   21.18000     -2.5073863E-09
   21.24000     -3.0001752E-09
   21.30000     -3.6133012E-09
   21.36000     -4.3001456E-09
   21.42000     -5.0148521E-09
   21.48000     -5.7182459E-09
   21.54000     -6.3800063E-09
   21.60000     -6.9768333E-09
   21.66000     -7.4887341E-09
   21.72000     -7.8967934E-09
   21.78000     -8.1848412E-09
   21.84000     -8.3446672E-09
   21.90000     -8.3815204E-09
   21.96000     -8.3156300E-09
   22.02000     -8.1772349E-09
   22.08000     -7.9964018E-09
   22.14000     -7.7923863E-09
   22.20000     -7.5682216E-09
   22.26000     -7.3137598E-09
   22.32000     -7.0158053E-09
   22.38000     -6.6699610E-09
   22.44000     -6.2877250E-09
   22.50000     -5.8949725E-09
   22.56000     -5.5227289E-09
   22.62000     -5.1953317E-09
   22.68000     -4.9222715E-09
   22.74000     -4.6976543E-09
   22.80000     -4.5067843E-09
   22.86000     -4.3355390E-09
   22.92000     -4.1771058E-09
   22.98000     -4.0327781E-09
   23.04000     -3.9073553E-09
   23.10000     -3.8028700E-09
   23.16000     -3.7149450E-09
   23.22000     -3.6338847E-09
   23.28000     -3.5491228E-09
   23.34000     -3.4532570E-09
   23.40000     -3.3422127E-09
   23.46000     -3.2110066E-09
   23.52000     -3.0482041E-09
   23.58000     -2.8339961E-09
   23.64000     -2.5452516E-09
   23.70000     -2.1665991E-09
   23.76000     -1.7020140E-09
   23.82000     -1.1796493E-09
   23.88000     -6.4531180E-10
   23.94000     -1.4593818E-10
   24.00000      2.8964739E-10
   24.06000      6.6319045E-10
   24.12000      1.0062868E-09
   24.18000      1.3669358E-09
   24.24000      1.7904054E-09
   24.30000      2.3038411E-09
   24.36000      2.9109275E-09
   24.42000      3.5964240E-09
   24.48000      4.3348409E-09
   24.54000      5.0964308E-09
   24.60000      5.8474598E-09
   24.66000      6.5474133E-09
   24.72000      7.1490818E-09
   24.78000      7.6058084E-09
   24.84000      7.8846130E-09
   24.90000      7.9784011E-09
   24.96000      7.9092333E-09
   25.02000      7.7188993E-09
   25.08000      7.4504274E-09
   25.14000      7.1298096E-09
   25.20000      6.7573098E-09
   25.26000      6.3121992E-09
   25.32000      5.7669958E-09
   25.38000      5.1022968E-09
   25.44000      4.3139732E-09
   25.50000      3.4100287E-09
   25.56000      2.4009323E-09
   25.62000      1.2904612E-09
   25.68000      7.2410522E-11
   25.74000     -1.2663279E-09
   25.80000     -2.7400724E-09
   25.86000     -4.3605781E-09
   25.92000     -6.1368572E-09
   25.98000     -8.0764213E-09
   26.04000     -1.0184142E-08
   26.10000     -1.2457023E-08
   26.16000     -1.4877429E-08
   26.22000     -1.7410429E-08
   26.28000     -2.0010175E-08
   26.34000     -2.2635371E-08
   26.40000     -2.5267802E-08
   26.46000     -2.7924500E-08
   26.52000     -3.0655976E-08
   26.58000     -3.3529364E-08
   26.64000     -3.6603041E-08
   26.70000     -3.9903501E-08
   26.76000     -4.3414261E-08
   26.82000     -4.7080341E-08
   26.88000     -5.0824593E-08
   26.94000     -5.4567508E-08
   27.00000     -5.8242570E-08
   27.06000     -6.1803682E-08
   27.12000     -6.5226182E-08
   27.18000     -6.8505720E-08
   27.24000     -7.1657738E-08
   27.30000     -7.4716418E-08
   27.36000     -7.7729510E-08
   27.42000     -8.0745792E-08
   27.48000     -8.3796913E-08
   27.54000     -8.6880362E-08
   27.60000     -8.9952707E-08
   27.66000     -9.2938663E-08
   27.72000     -9.5754110E-08
   27.78000     -9.8333153E-08
   27.84000     -1.0064642E-07
   27.90000     -1.0270175E-07
   27.96000     -1.0452754E-07
   28.02000     -1.0614841E-07
   28.08000     -1.0756641E-07
   28.14000     -1.0875732E-07
   28.20000     -1.0968258E-07
   28.26000     -1.1030875E-07
   28.32000     -1.1062284E-07
   28.38000     -1.1063556E-07
   28.44000     -1.1037239E-07
   28.50000     -1.0985917E-07
   28.56000     -1.0911078E-07
   28.62000     -1.0812794E-07
   28.68000     -1.0690098E-07
   28.74000     -1.0541535E-07
   28.80000     -1.0365437E-07
   28.86000     -1.0159869E-07
   28.92000     -9.9226597E-08
   28.98000     -9.6519990E-08
   29.04000     -9.3477212E-08
   29.10000     -9.0127827E-08
   29.16000     -8.6540446E-08
   29.22000     -8.2816328E-08
   29.28000     -7.9067675E-08
   29.34000     -7.5388186E-08
   29.40000     -7.1828332E-08
   29.46000     -6.8386719E-08
   29.52000     -6.5021524E-08
   29.58000     -6.1676296E-08
   29.64000     -5.8308043E-08
   29.70000     -5.4905463E-08
   29.76000     -5.1490790E-08
   29.82000     -4.8107548E-08
   29.88000     -4.4802732E-08
   29.94000     -4.1612843E-08
   30.00000     -3.8559183E-08
   30.06000     -3.5651567E-08
   30.12000     -3.2895489E-08
   30.18000     -3.0297592E-08
   30.24000     -2.7867788E-08
   30.30000     -2.5620079E-08
   30.36000     -2.3575204E-08
   30.42000     -2.1765734E-08
   30.48000     -2.0240108E-08
   30.54000     -1.9059899E-08
   30.60000     -1.8286878E-08
   30.66000     -1.7962590E-08
   30.72000     -1.8089443E-08
   30.78000     -1.8624396E-08
   30.84000     -1.9491592E-08
   30.90000     -2.0610848E-08
   30.96000     -2.1929790E-08
   31.02000     -2.3444350E-08
   31.08000     -2.5197425E-08
   31.14000     -2.7256329E-08
   31.20000     -2.9680036E-08
   31.26000     -3.2491290E-08
   31.32000     -3.5664620E-08
   31.38000     -3.9131880E-08
   31.44000     -4.2798696E-08
   31.50000     -4.6562207E-08
   31.56000     -5.0324200E-08
   31.62000     -5.3999919E-08
   31.68000     -5.7526378E-08
   31.74000     -6.0872466E-08
   31.80000     -6.4047455E-08
   31.86000     -6.7100657E-08
   31.92000     -7.0106211E-08
   31.98000     -7.3134665E-08
   32.04000     -7.6222136E-08
   32.10000     -7.9351949E-08
   32.16000     -8.2459188E-08
   32.22000     -8.5456840E-08
   32.28000     -8.8270077E-08
   32.34000     -9.0860574E-08
   32.40000     -9.3228067E-08
   32.46000     -9.5390064E-08
   32.52000     -9.7352846E-08
   32.58000     -9.9091515E-08
   32.64000     -1.0055054E-07
   32.70000     -1.0166341E-07
   32.76000     -1.0237923E-07
   32.82000     -1.0268104E-07
   32.88000     -1.0258772E-07
   32.94000     -1.0214179E-07
   33.00000     -1.0139340E-07
   33.06000     -1.0039014E-07
   33.12000     -9.9175374E-08
   33.18000     -9.7789638E-08
   33.24000     -9.6266923E-08
   33.30000     -9.4622628E-08
   33.36000     -9.2838711E-08
   33.42000     -9.0857725E-08
   33.48000     -8.8595314E-08
   33.54000     -8.5970619E-08
   33.60000     -8.2942464E-08
   33.66000     -7.9532953E-08
   33.72000     -7.5824744E-08
   33.78000     -7.1931694E-08
   33.84000     -6.7956606E-08
   33.90000     -6.3957259E-08
   33.96000     -5.9936923E-08
   34.02000     -5.5862088E-08
   34.08000     -5.1695615E-08
   34.14000     -4.7426685E-08
   34.20000     -4.3082714E-08
   34.26000     -3.8720575E-08
   34.32000     -3.4406291E-08
   34.38000     -3.0197285E-08
   34.44000     -2.6136524E-08
   34.50000     -2.2257881E-08
   34.56000     -1.8593918E-08
   34.62000     -1.5176573E-08
   34.68000     -1.2028281E-08
   34.74000     -9.1502077E-09
   34.80000     -6.5186763E-09
   34.86000     -4.0966093E-09
   34.92000     -1.8562718E-09
   34.98000      1.9997531E-10
   35.04000      2.0356241E-09
   35.10000      3.5985288E-09
   35.16000      4.8535576E-09
   35.22000      5.8103544E-09
   35.28000      6.5277557E-09
   35.34000      7.0888628E-09
   35.40000      7.5582065E-09
   35.46000      7.9441733E-09
   35.52000      8.1883407E-09
   35.58000      8.1889633E-09
   35.64000      7.8469391E-09
   35.70000      7.1104385E-09
   35.76000      5.9960823E-09
   35.82000      4.5786881E-09
   35.88000      2.9591676E-09
   35.94000      1.2305233E-09
   36.00000     -5.4068428E-10
   36.06000     -2.3126698E-09
   36.12000     -4.0555617E-09
   36.18000     -5.7420593E-09
   36.24000     -7.3507906E-09
   36.30000     -8.8794403E-09
   36.36000     -1.0355077E-08
   36.42000     -1.1829143E-08
   36.48000     -1.3354565E-08
   36.54000     -1.4955731E-08
   36.60000     -1.6609203E-08
   36.66000     -1.8248725E-08
   36.72000     -1.9794149E-08
   36.78000     -2.1189200E-08
   36.84000     -2.2426800E-08
   36.90000     -2.3547246E-08
   36.96000     -2.4610184E-08
   37.02000     -2.5656496E-08
   37.08000     -2.6681670E-08
   37.14000     -2.7634982E-08
   37.20000     -2.8443335E-08
   37.26000     -2.9044756E-08
   37.32000     -2.9412353E-08
   37.38000     -2.9556963E-08
   37.44000     -2.9510574E-08
   37.50000     -2.9303752E-08
   37.56000     -2.8952160E-08
   37.62000     -2.8459379E-08
   37.68000     -2.7831405E-08
   37.74000     -2.7090591E-08
   37.80000     -2.6278039E-08
   37.86000     -2.5442359E-08
   37.92000     -2.4622715E-08
   37.98000     -2.3838297E-08
   38.04000     -2.3091893E-08
   38.10000     -2.2385308E-08
   38.16000     -2.1735886E-08
   38.22000     -2.1182261E-08
   38.28000     -2.0774598E-08
   38.34000     -2.0555051E-08
   38.40000     -2.0541073E-08
   38.46000     -2.0722601E-08
   38.52000     -2.1075209E-08
   38.58000     -2.1580787E-08
   38.64000     -2.2242295E-08
   38.70000     -2.3082936E-08
   38.76000     -2.4130046E-08
   38.82000     -2.5393772E-08
   38.88000     -2.6853776E-08
   38.94000     -2.8461971E-08
   39.00000     -3.0159285E-08
   39.06000     -3.1896153E-08
   39.12000     -3.3645044E-08
   39.18000     -3.5399101E-08
   39.24000     -3.7159882E-08
   39.30000     -3.8923254E-08
   39.36000     -4.0672106E-08
   39.42000     -4.2378772E-08
   39.48000     -4.4013078E-08
   39.54000     -4.5548553E-08
   39.60000     -4.6961844E-08
   39.66000     -4.8226138E-08
   39.72000     -4.9304788E-08
   39.78000     -5.0151929E-08
   39.84000     -5.0722718E-08
   39.90000     -5.0989151E-08
   39.96000     -5.0952853E-08
   40.02000     -5.0646861E-08
   40.08000     -5.0123813E-08
   40.14000     -4.9435279E-08
   40.20000     -4.8611945E-08
   40.26000     -4.7653991E-08
   40.32000     -4.6535725E-08
   40.38000     -4.5221203E-08
   40.44000     -4.3682402E-08
   40.50000     -4.1911072E-08
   40.56000     -3.9920000E-08
   40.62000     -3.7735717E-08
   40.68000     -3.5389423E-08
   40.74000     -3.2912954E-08
   40.80000     -3.0342058E-08
   40.86000     -2.7723530E-08
   40.92000     -2.5119011E-08
   40.98000     -2.2599712E-08
   41.04000     -2.0231953E-08
   41.10000     -1.8059914E-08
   41.16000     -1.6095070E-08
   41.22000     -1.4319022E-08
   41.28000     -1.2699346E-08
   41.34000     -1.1210702E-08
   41.40000     -9.8504627E-09
   41.46000     -8.6416057E-09
   41.52000     -7.6231750E-09
   41.58000     -6.8356103E-09
   41.64000     -6.3101053E-09
   41.70000     -6.0668470E-09
   41.76000     -6.1197443E-09
   41.82000     -6.4802581E-09
   41.88000     -7.1539734E-09
   41.94000     -8.1299945E-09
   42.00000     -9.3705523E-09
   42.06000     -1.0810713E-08
   42.12000     -1.2373280E-08
   42.18000     -1.3994222E-08
   42.24000     -1.5645691E-08
   42.30000     -1.7342737E-08
   42.36000     -1.9127846E-08
   42.42000     -2.1040105E-08
   42.48000     -2.3085379E-08
   42.54000     -2.5224230E-08
   42.60000     -2.7384667E-08
   42.66000     -2.9492817E-08
   42.72000     -3.1504623E-08
   42.78000     -3.3421738E-08
   42.84000     -3.5284696E-08
   42.90000     -3.7149572E-08
   42.96000     -3.9062950E-08
   43.02000     -4.1048590E-08
   43.08000     -4.3109836E-08
   43.14000     -4.5240725E-08
   43.20000     -4.7434206E-08
   43.26000     -4.9679898E-08
   43.32000     -5.1953968E-08
   43.38000     -5.4211672E-08
   43.44000     -5.6392981E-08
   43.50000     -5.8442946E-08
   43.56000     -6.0336554E-08
   43.62000     -6.2091651E-08
   43.68000     -6.3758350E-08
   43.74000     -6.5386935E-08
   43.80000     -6.6990928E-08
   43.86000     -6.8527456E-08
   43.92000     -6.9908680E-08
   43.98000     -7.1040368E-08
   44.04000     -7.1867063E-08
   44.10000     -7.2397945E-08
   44.16000     -7.2697979E-08
   44.22000     -7.2849041E-08
   44.28000     -7.2903006E-08
   44.34000     -7.2853481E-08
   44.40000     -7.2641164E-08
   44.46000     -7.2187767E-08
   44.52000     -7.1437597E-08
   44.58000     -7.0383273E-08
   44.64000     -6.9064420E-08
   44.70000     -6.7546225E-08
   44.76000     -6.5896010E-08
   44.82000     -6.4173790E-08
   44.88000     -6.2438858E-08
   44.94000     -6.0759618E-08
   45.00000     -5.9209366E-08
   45.06000     -5.7840925E-08
   45.12000     -5.6650954E-08
   45.18000     -5.5557987E-08
   45.24000     -5.4415729E-08
   45.30000     -5.3064426E-08
   45.36000     -5.1399113E-08
   45.42000     -4.9419562E-08
   45.48000     -4.7233179E-08
   45.54000     -4.5006495E-08
   45.60000     -4.2889425E-08
   45.66000     -4.0951782E-08
   45.72000     -3.9164156E-08
   45.78000     -3.7429739E-08
   45.84000     -3.5645410E-08
   45.90000     -3.3756496E-08
   45.96000     -3.1777482E-08
   46.02000     -2.9774098E-08
   46.08000     -2.7825301E-08
   46.14000     -2.5991913E-08
   46.20000     -2.4308337E-08
   46.26000     -2.2793849E-08
   46.32000     -2.1465146E-08
   46.38000     -2.0333049E-08
   46.44000     -1.9381842E-08
   46.50000     -1.8548006E-08
   46.56000     -1.7721476E-08
   46.62000     -1.6780753E-08
   46.68000     -1.5650059E-08
   46.74000     -1.4347710E-08
   46.80000     -1.2994014E-08
   46.86000     -1.1767217E-08
   46.92000     -1.0825630E-08
   46.98000     -1.0235303E-08
   47.04000     -9.9412878E-09
   47.10000     -9.7970023E-09
   47.16000     -9.6342720E-09
   47.22000     -9.3355164E-09
   47.28000     -8.8715950E-09
   47.34000     -8.2915967E-09
   47.40000     -7.6793976E-09
   47.46000     -7.1082726E-09
   47.52000     -6.6200552E-09
   47.58000     -6.2344476E-09
   47.64000     -5.9723071E-09
   47.70000     -5.8689213E-09
   47.76000     -5.9638867E-09
   47.82000     -6.2745333E-09
   47.88000     -6.7746369E-09
   47.94000     -7.3982900E-09
   48.00000     -8.0712015E-09
   48.06000     -8.7508383E-09
   48.12000     -9.4479935E-09
   48.18000     -1.0212706E-08
   48.24000     -1.1090977E-08
   48.30000     -1.2079461E-08
   48.36000     -1.3108846E-08
   48.42000     -1.4069516E-08
   48.48000     -1.4865956E-08
   48.54000     -1.5467254E-08
   48.60000     -1.5922573E-08
   48.66000     -1.6332391E-08
   48.72000     -1.6794033E-08
   48.78000     -1.7355765E-08
   48.84000     -1.8006984E-08
   48.90000     -1.8707865E-08
   48.96000     -1.9436335E-08
   49.02000     -2.0220339E-08
   49.08000     -2.1135195E-08
   49.14000     -2.2270406E-08
   49.20000     -2.3690907E-08
   49.26000     -2.5420110E-08
   49.32000     -2.7455595E-08
   49.38000     -2.9804728E-08
   49.44000     -3.2513690E-08
   49.50000     -3.5668947E-08
   49.56000     -3.9371020E-08
   49.62000     -4.3701455E-08
   49.68000     -4.8710518E-08
   49.74000     -5.4439926E-08
   49.80000     -6.0971125E-08
   49.86000     -6.8471337E-08
   49.92000     -7.7209720E-08
   49.98000     -8.7534815E-08
   50.04000     -9.9829478E-08
   50.10000     -1.1447456E-07
   50.16000     -1.3184696E-07
   50.22000     -1.5235636E-07
   50.28000     -1.7650039E-07
   50.34000     -2.0490785E-07
   50.40000     -2.3834906E-07
   50.46000     -2.7771526E-07
   50.52000     -3.2398984E-07
   50.58000     -3.7824051E-07
   50.64000     -4.4164690E-07
   50.70000     -5.1555634E-07
   50.76000     -6.0154252E-07
   50.82000     -7.0144188E-07
   50.88000     -8.1735789E-07
   50.94000     -9.5164808E-07
   51.00000     -1.1069192E-06
   51.06000     -1.2860532E-06
   51.12000     -1.4922680E-06
   51.18000     -1.7291900E-06
   51.24000     -2.0009159E-06
   51.30000     -2.3120399E-06
   51.36000     -2.6676521E-06
   51.42000     -3.0733333E-06
   51.48000     -3.5351741E-06
   51.54000     -4.0598288E-06
   51.60000     -4.6545974E-06
   51.66000     -5.3275094E-06
   51.72000     -6.0873695E-06
   51.78000     -6.9437765E-06
   51.84000     -7.9071133E-06
   51.90000     -8.9885471E-06
   51.96000     -1.0200070E-05
   52.02000     -1.1554562E-05
   52.08000     -1.3065861E-05
   52.14000     -1.4748822E-05
   52.20000     -1.6619311E-05
   52.26000     -1.8694174E-05
   52.32000     -2.0991181E-05
   52.38000     -2.3528994E-05
   52.44000     -2.6327158E-05
   52.50000     -2.9406112E-05
   52.56000     -3.2787168E-05
   52.62000     -3.6492500E-05
   52.68000     -4.0545023E-05
   52.74000     -4.4968325E-05
   52.80000     -4.9786544E-05
   52.86000     -5.5024288E-05
   52.92000     -6.0706498E-05
   52.98000     -6.6858360E-05
   53.04000     -7.3505114E-05
   53.10000     -8.0671867E-05
   53.16000     -8.8383349E-05
   53.22000     -9.6663724E-05
   53.28000     -1.0553635E-04
   53.34000     -1.1502366E-04
   53.40000     -1.2514691E-04
   53.46000     -1.3592598E-04
   53.52000     -1.4737918E-04
   53.58000     -1.5952287E-04
   53.64000     -1.7237123E-04
   53.70000     -1.8593601E-04
   53.76000     -2.0022615E-04
   53.82000     -2.1524765E-04
   53.88000     -2.3100348E-04
   53.94000     -2.4749321E-04
   54.00000     -2.6471310E-04
   54.06000     -2.8265550E-04
   54.12000     -3.0130884E-04
   54.18000     -3.2065753E-04
   54.24000     -3.4068170E-04
   54.30000     -3.6135729E-04
   54.36000     -3.8265612E-04
   54.42000     -4.0454566E-04
   54.48000     -4.2698937E-04
   54.54000     -4.4994647E-04
   54.60000     -4.7337209E-04
   54.66000     -4.9721746E-04
   54.72000     -5.2143022E-04
   54.78000     -5.4595456E-04
   54.84000     -5.7073182E-04
   54.90000     -5.9570069E-04
   54.96000     -6.2079757E-04
   55.02000     -6.4595666E-04
   55.08000     -6.7111087E-04
   55.14000     -6.9619203E-04
   55.20000     -7.2113128E-04
   55.26000     -7.4586010E-04
   55.32000     -7.7031070E-04
   55.38000     -7.9441612E-04
   55.44000     -8.1811147E-04
   55.50000     -8.4133405E-04
   55.56000     -8.6402398E-04