  -2.400000      0.0000000E+00
  -2.340000      0.0000000E+00
  -2.280000      0.0000000E+00
  -2.220000      0.0000000E+00
  -2.160000      0.0000000E+00
  -2.100000     -1.8943916E-20
  -2.040000     -1.4022971E-19
  -1.980000     -4.9313365E-19
  -1.920000     -9.8313880E-19
  -1.860000     -7.4519828E-19
  -1.800000      2.1596828E-18
  -1.740000      9.7711347E-18
  -1.680000      2.1379467E-17
  -1.620000      3.0080853E-17
  -1.560000      2.2285975E-17
  -1.500000     -1.6194529E-17
  -1.440000     -8.7963491E-17
  -1.380000     -1.7300447E-16
  -1.320000     -2.2991891E-16
  -1.260000     -2.1547123E-16
  -1.200000     -1.1421936E-16
  -1.140000      4.4517620E-17
  -1.080000      2.0591814E-16
  -1.020000      3.4740474E-16
 -0.9600000      5.4078999E-16
 -0.9000000      9.5641444E-16
 -0.8400000      1.7540919E-15
 -0.7800000      2.8623355E-15
 -0.7200000      3.7395611E-15
 -0.6600000      3.2951797E-15
 -0.6000000      1.6407581E-16
 -0.5400000     -6.5768826E-15
 -0.4800000     -1.6395592E-14
 -0.4200000     -2.6436164E-14
 -0.3600000     -3.1444059E-14
 -0.3000000     -2.5060862E-14
 -0.2400000     -2.5826761E-15
 -0.1800000      3.5547601E-14
 -0.1200000      8.1074700E-14
 -5.9999999E-02  1.1796944E-13
  0.0000000E+00  1.2640490E-13
  5.9999999E-02  9.0266926E-14
  0.1200000      5.7444593E-15
  0.1800000     -1.1286283E-13
  0.2400000     -2.3372287E-13
  0.3000000     -3.1577724E-13
  0.3600000     -3.2260737E-13
  0.4200000     -2.3660745E-13
  0.4800000     -6.7320200E-14
  0.5400000      1.5006071E-13
  0.6000000      3.6560243E-13
  0.6600000      5.3004010E-13
  0.7200000      6.0767689E-13
  0.7800000      5.8147958E-13
  0.8400000      4.4983353E-13
  0.9000000      2.1957424E-13
  0.9600000     -9.7719955E-14
   1.020000     -4.8144377E-13
   1.080000     -8.9097512E-13
   1.140000     -1.2556670E-12
   1.200000     -1.4761561E-12
   1.260000     -1.4437433E-12
   1.320000     -1.0757830E-12
   1.380000     -3.5526061E-13
   1.440000      6.4244270E-13
   1.500000      1.7496854E-12
   1.560000      2.7373388E-12
   1.620000      3.3671022E-12
   1.680000      3.4475148E-12
   1.740000      2.8757316E-12
   1.800000      1.6554371E-12
   1.860000     -1.0701344E-13
   1.920000     -2.2178650E-12
   1.980000     -4.4120220E-12
   2.040000     -6.3665141E-12
   2.100000     -7.7173970E-12
   2.160000     -8.0910860E-12
   2.220000     -7.1578481E-12
   2.280000     -4.7051954E-12
   2.340000     -7.1813979E-13
   2.400000      4.5524231E-12
   2.460000      1.0550329E-11
   2.520000      1.6415364E-11
   2.580000      2.1032974E-11
   2.640000      2.3141560E-11
   2.700000      2.1509202E-11
   2.760000      1.5186647E-11
   2.820000      3.8216509E-12
   2.880000     -1.2018254E-11
   2.940000     -3.0608779E-11
   3.000000     -4.9032143E-11
   3.060000     -6.3432322E-11
   3.120000     -6.9581729E-11
   3.180000     -6.3674732E-11
   3.240000     -4.3166189E-11
   3.300000     -7.4255723E-12
   3.360000      4.1993173E-11
   3.420000      1.0156454E-10
   3.480000      1.6644511E-10
   3.540000      2.3139944E-10
   3.600000      2.9175790E-10
   3.660000      3.4417250E-10
   3.720000      3.8700879E-10
   3.780000      4.2032033E-10
   3.840000      4.4546131E-10
   3.900000      4.6447377E-10
   3.960000      4.7942367E-10
   4.020000      4.9185223E-10
   4.080000      5.0246846E-10
   4.140000      5.1114390E-10
   4.200000      5.1719540E-10
   4.260000      5.1987398E-10
   4.320000      5.1892124E-10
   4.380000      5.1502536E-10
   4.440000      5.1001214E-10
   4.500000      5.0665272E-10
   4.560000      5.0806437E-10
   4.620000      5.1681293E-10
   4.680000      5.3395699E-10
   4.740000      5.5835869E-10
   4.800000      5.8656385E-10
   4.860000      6.1340782E-10
   4.920000      6.3326039E-10
   4.980000      6.4157901E-10
   5.040000      6.3628691E-10
   5.100000      6.1851180E-10
   5.160000      5.9241767E-10
   5.220000      5.6415145E-10
   5.280000      5.4020494E-10
   5.340000      5.2566135E-10
   5.400000      5.2280430E-10
   5.460000      5.3044008E-10
   5.520000      5.4407601E-10
   5.580000      5.5687605E-10
   5.640000      5.6112975E-10
   5.700000      5.4986743E-10
   5.760000      5.1823495E-10
   5.820000      4.6432982E-10
   5.880000      3.8934375E-10
   5.940000      2.9703981E-10
   6.000000      1.9274657E-10
   6.060000      8.2152389E-11
   6.120000     -2.9782538E-11
   6.180000     -1.3950578E-10
   6.240000     -2.4494420E-10
   6.300000     -3.4493525E-10
   6.360000     -4.3822107E-10
   6.420000     -5.2244792E-10
   6.480000     -5.9373007E-10
   6.540000     -6.4720218E-10
   6.600000     -6.7857536E-10
   6.660000     -6.8616096E-10
   6.720000     -6.7243444E-10
   6.780000     -6.4424388E-10
   6.840000     -6.1130029E-10
   6.900000     -5.8340671E-10
   6.960000     -5.6757027E-10
   7.020000     -5.6627497E-10
   7.080000     -5.7769567E-10
   7.140000     -5.9772143E-10
   7.200000     -6.2285033E-10
   7.260000     -6.5272593E-10
   7.320000     -6.9141409E-10
   7.380000     -7.4723971E-10
   7.440000     -8.3165114E-10
   7.500000     -9.5785024E-10
   7.560000     -1.1397309E-09
   7.620000     -1.3912448E-09
   7.680000     -1.7259481E-09
   7.740000     -2.1563775E-09
   7.800000     -2.6930664E-09
   7.860000     -3.3432739E-09
   7.920000     -4.1097321E-09
   7.980000     -4.9898117E-09
   8.040000     -5.9754424E-09
   8.100000     -7.0539179E-09
   8.160000     -8.2094394E-09
   8.220000     -9.4249319E-09
   8.280000     -1.0683514E-08
   8.340000     -1.1969074E-08
   8.400000     -1.3265820E-08
   8.460000     -1.4557161E-08
   8.520000     -1.5824691E-08
   8.580000     -1.7047936E-08
   8.640000     -1.8205045E-08
   8.700000     -1.9273951E-08
   8.760000     -2.0233117E-08
   8.820000     -2.1061213E-08
   8.880000     -2.1735833E-08
   8.940000     -2.2232149E-08
   9.000000     -2.2522832E-08
   9.060000     -2.2580245E-08
   9.120000     -2.2380929E-08
   9.180000     -2.1911459E-08
   9.240000     -2.1174049E-08
   9.300000     -2.0190273E-08
   9.360000     -1.9001858E-08
   9.420000     -1.7668201E-08
   9.480000     -1.6261009E-08
   9.540000     -1.4856822E-08
   9.600000     -1.3528629E-08
   9.660000     -1.2337822E-08
   9.720000     -1.1327842E-08
   9.780000     -1.0520591E-08
   9.840000     -9.9162047E-09
   9.900000     -9.4960999E-09
   9.960000     -9.2285877E-09
   10.02000     -9.0759702E-09
   10.08000     -9.0018730E-09
   10.14000     -8.9776213E-09
   10.20000     -8.9866159E-09
   10.26000     -9.0258929E-09
   10.32000     -9.1045740E-09
   10.38000     -9.2395940E-09
   10.44000     -9.4499164E-09
   10.50000     -9.7508961E-09
   10.56000     -1.0150290E-08
   10.62000     -1.0646575E-08
   10.68000     -1.1229177E-08
   10.74000     -1.1879441E-08
   10.80000     -1.2571346E-08
   10.86000     -1.3271668E-08
   10.92000     -1.3940436E-08
   10.98000     -1.4532874E-08
   11.04000     -1.5003657E-08
   11.10000     -1.5313121E-08
   11.16000     -1.5433901E-08
   11.22000     -1.5355923E-08
   11.28000     -1.5088196E-08
   11.34000     -1.4656854E-08
   11.40000     -1.4100125E-08
   11.46000     -1.3461533E-08
   11.52000     -1.2782720E-08
   11.58000     -1.2096976E-08
   11.64000     -1.1424309E-08
   11.70000     -1.0768728E-08
   11.76000     -1.0118339E-08
   11.82000     -9.4484678E-09
   11.88000     -8.7273477E-09
   11.94000     -7.9231448E-09
   12.00000     -7.0106076E-09
   12.06000     -5.9758056E-09
   12.12000     -4.8182245E-09
   12.18000     -3.5503500E-09
   12.24000     -2.1955149E-09
   12.30000     -7.8480789E-10
   12.36000      6.4648514E-10
   12.42000      2.0627460E-09
   12.48000      3.4319647E-09
   12.54000      4.7291624E-09
   12.60000      5.9383924E-09
   12.66000      7.0526429E-09
   12.72000      8.0717406E-09
   12.78000      8.9993319E-09
   12.84000      9.8405293E-09
   12.90000      1.0601371E-08
   12.96000      1.1290088E-08
   13.02000      1.1918858E-08
   13.08000      1.2504245E-08
   13.14000      1.3065100E-08
   13.20000      1.3618213E-08
   13.26000      1.4173388E-08
   13.32000      1.4730204E-08
   13.38000      1.5277962E-08
   13.44000      1.5798872E-08
   13.50000      1.6273084E-08
   13.56000      1.6683613E-08
   13.62000      1.7019563E-08
   13.68000      1.7277083E-08
   13.74000      1.7458264E-08
   13.80000      1.7568720E-08
   13.86000      1.7614465E-08
   13.92000      1.7598753E-08
   13.98000      1.7519669E-08
   14.04000      1.7369489E-08
   14.10000      1.7136704E-08
   14.16000      1.6810736E-08
   14.22000      1.6388087E-08
   14.28000      1.5877495E-08
   14.34000      1.5301488E-08
   14.40000      1.4692909E-08
   14.46000      1.4087022E-08
   14.52000      1.3511803E-08
   14.58000      1.2979931E-08
   14.64000      1.2485364E-08
   14.70000      1.2005636E-08
   14.76000      1.1508973E-08
   14.82000      1.0963852E-08
   14.88000      1.0348173E-08
   14.94000      9.6556052E-09
   15.00000      8.8974987E-09
   15.06000      8.0998817E-09
   15.12000      7.2961579E-09
   15.18000      6.5173178E-09
   15.24000      5.7823879E-09
   15.30000      5.0921165E-09
   15.36000      4.4281783E-09
   15.42000      3.7584380E-09
   15.48000      3.0467047E-09
   15.54000      2.2637761E-09
   15.60000      1.3962009E-09
   15.66000      4.5015064E-10
   15.72000     -5.5040189E-10
   15.78000     -1.5702153E-09
   15.84000     -2.5719007E-09
   15.90000     -3.5251677E-09
   15.96000     -4.4139559E-09
   16.02000     -5.2396811E-09
   16.08000     -6.0195187E-09
   16.14000     -6.7796768E-09
   16.20000     -7.5450552E-09
   16.26000     -8.3281808E-09
   16.32000     -9.1211403E-09
   16.38000     -9.8937463E-09
   16.44000     -1.0599181E-08
   16.50000     -1.1185682E-08
   16.56000     -1.1610451E-08
   16.62000     -1.1851189E-08
   16.68000     -1.1911528E-08
   16.74000     -1.1818976E-08
   16.80000     -1.1616421E-08
   16.86000     -1.1350086E-08
   16.92000     -1.1057483E-08
   16.98000     -1.0758558E-08
   17.04000     -1.0452192E-08
   17.10000     -1.0118757E-08
   17.16000     -9.7279136E-09
   17.22000     -9.2492520E-09
   17.28000     -8.6624832E-09
   17.34000     -7.9638980E-09
   17.40000     -7.1670962E-09
   17.46000     -6.2981949E-09
   17.52000     -5.3877995E-09
   17.58000     -4.4631756E-09
   17.64000     -3.5435852E-09
   17.70000     -2.6401197E-09
   17.76000     -1.7593859E-09
   17.82000     -9.0908869E-10
   17.88000     -1.0329133E-10
   17.94000      6.3433281E-10
   18.00000      1.2701684E-09
   18.06000      1.7635567E-09
   18.12000      2.0727136E-09
   18.18000      2.1627502E-09
   18.24000      2.0138899E-09
   18.30000      1.6271551E-09
   18.36000      1.0248593E-09
   18.42000      2.4467570E-10
   18.48000     -6.7146672E-10
   18.54000     -1.6900045E-09
   18.60000     -2.7952114E-09
   18.66000     -3.9919201E-09
   18.72000     -5.3005840E-09
   18.78000     -6.7468258E-09
   18.84000     -8.3495060E-09
   18.90000     -1.0111414E-08
   18.96000     -1.2015169E-08
   19.02000     -1.4024851E-08
   19.08000     -1.6092141E-08
   19.14000     -1.8164966E-08
   19.20000     -2.0196364E-08
   19.26000     -2.2151532E-08
   19.32000     -2.4011294E-08
   19.38000     -2.5771005E-08
   19.44000     -2.7435041E-08
   19.50000     -2.9008577E-08
   19.56000     -3.0489499E-08
   19.62000     -3.1863525E-08
   19.68000     -3.3104474E-08
   19.74000     -3.4179688E-08
   19.80000     -3.5058569E-08
   19.86000     -3.5721200E-08
   19.92000     -3.6164234E-08
   19.98000     -3.6402415E-08
   20.04000     -3.6465497E-08
   20.10000     -3.6391711E-08
   20.16000     -3.6219475E-08
   20.22000     -3.5979518E-08
   20.28000     -3.5689339E-08
   20.34000     -3.5351785E-08
   20.40000     -3.4958145E-08
   20.46000     -3.4495013E-08
   20.52000     -3.3952542E-08
   20.58000     -3.3330945E-08
   20.64000     -3.2642728E-08
   20.70000     -3.1909739E-08
   20.76000     -3.1156340E-08
   20.82000     -3.0401392E-08
   20.88000     -2.9652188E-08
   20.94000     -2.8902209E-08
   21.00000     -2.8133051E-08
   21.06000     -2.7319430E-08
   21.12000     -2.6435568E-08
   21.18000     -2.5461460E-08
   21.24000     -2.4388044E-08
   21.30000     -2.3220592E-08
   21.36000     -2.1979805E-08
   21.42000     -2.0700151E-08
   21.48000     -1.9425404E-08
   21.54000     -1.8202091E-08
   21.60000     -1.7072377E-08
   21.66000     -1.6068423E-08
   21.72000     -1.5209945E-08
   21.78000     -1.4505780E-08
   21.84000     -1.3958856E-08
   21.90000     -1.3572833E-08
   21.96000     -1.3358005E-08
   22.02000     -1.3334317E-08
   22.08000     -1.3530136E-08
   22.14000     -1.3976769E-08
   22.20000     -1.4699938E-08
   22.26000     -1.5710416E-08
   22.32000     -1.6996326E-08
   22.38000     -1.8519309E-08
   22.44000     -2.0215854E-08
   22.50000     -2.2003922E-08
   22.56000     -2.3793760E-08
   22.62000     -2.5500889E-08
   22.68000     -2.7058556E-08
   22.74000     -2.8426980E-08
   22.80000     -2.9597128E-08
   22.86000     -3.0588041E-08
   22.92000     -3.1438315E-08
   22.98000     -3.2193984E-08
   23.04000     -3.2896164E-08
   23.10000     -3.3571663E-08
   23.16000     -3.4228730E-08
   23.22000     -3.4858253E-08
   23.28000     -3.5438891E-08
   23.34000     -3.5943899E-08
   23.40000     -3.6347497E-08
   23.46000     -3.6629444E-08
   23.52000     -3.6777436E-08
   23.58000     -3.6787519E-08
   23.64000     -3.6662829E-08
   23.70000     -3.6411112E-08
   23.76000     -3.6041460E-08
   23.82000     -3.5561385E-08
   23.88000     -3.4975233E-08
   23.94000     -3.4284827E-08
   24.00000     -3.3492295E-08
   24.06000     -3.2603850E-08
   24.12000     -3.1632787E-08
   24.18000     -3.0599896E-08
   24.24000     -2.9530645E-08
   24.30000     -2.8449623E-08
   24.36000     -2.7373947E-08
   24.42000     -2.6307685E-08
   24.48000     -2.5239103E-08
   24.54000     -2.4141816E-08
   24.60000     -2.2979947E-08
   24.66000     -2.1716467E-08
   24.72000     -2.0322872E-08
   24.78000     -1.8787869E-08
   24.84000     -1.7122614E-08
   24.90000     -1.5360847E-08
   24.96000     -1.3553613E-08
   25.02000     -1.1760010E-08
   25.08000     -1.0036521E-08
   25.14000     -8.4278673E-09
   25.20000     -6.9615287E-09
   25.26000     -5.6467324E-09
   25.32000     -4.4773252E-09
   25.38000     -3.4370575E-09
   25.44000     -2.5055651E-09
   25.50000     -1.6635909E-09
   25.56000     -8.9648472E-10
   25.62000     -1.9551838E-10
   25.68000      4.4292855E-10
   25.74000      1.0197727E-09
   25.80000      1.5362629E-09
   25.86000      1.9964739E-09
   25.92000      2.4082305E-09
   25.98000      2.7819398E-09
   26.04000      3.1275529E-09
   26.10000      3.4505656E-09
   26.16000      3.7483896E-09
   26.22000      4.0084069E-09
   26.28000      4.2085913E-09
   26.34000      4.3208113E-09
   26.40000      4.3161061E-09
   26.46000      4.1705568E-09
   26.52000      3.8701278E-09
   26.58000      3.4132357E-09
   26.64000      2.8105525E-09
   26.70000      2.0825091E-09
   26.76000      1.2555358E-09
   26.82000      3.5813730E-10
   26.88000     -5.8254956E-10
   26.94000     -1.5436058E-09
   27.00000     -2.5087499E-09
   27.06000     -3.4702967E-09
   27.12000     -4.4302340E-09
   27.18000     -5.3997904E-09
   27.24000     -6.3971575E-09
   27.30000     -7.4436701E-09
   27.36000     -8.5593808E-09
   27.42000     -9.7591171E-09
   27.48000     -1.1049739E-08
   27.54000     -1.2428737E-08
   27.60000     -1.3883922E-08
   27.66000     -1.5394063E-08
   27.72000     -1.6930624E-08
   27.78000     -1.8460870E-08
   27.84000     -1.9952141E-08
   27.90000     -2.1376405E-08
   27.96000     -2.2713547E-08
   28.02000     -2.3952216E-08
   28.08000     -2.5088022E-08
   28.14000     -2.6120400E-08
   28.20000     -2.7050115E-08
   28.26000     -2.7879009E-08
   28.32000     -2.8612071E-08
   28.38000     -2.9260260E-08
   28.44000     -2.9841686E-08
   28.50000     -3.0379287E-08
   28.56000     -3.0894853E-08
   28.62000     -3.1401253E-08
   28.68000     -3.1895723E-08
   28.74000     -3.2357026E-08
   28.80000     -3.2747952E-08
   28.86000     -3.3022772E-08
   28.92000     -3.3137635E-08
   28.98000     -3.3061195E-08
   29.04000     -3.2782605E-08
   29.10000     -3.2314905E-08
   29.16000     -3.1693062E-08
   29.22000     -3.0967168E-08
   29.28000     -3.0192439E-08
   29.34000     -2.9418384E-08
   29.40000     -2.8679423E-08
   29.46000     -2.7988939E-08
   29.52000     -2.7337979E-08
   29.58000     -2.6698999E-08
   29.64000     -2.6034169E-08
   29.70000     -2.5306653E-08
   29.76000     -2.4492348E-08
   29.82000     -2.3588907E-08
   29.88000     -2.2619245E-08
   29.94000     -2.1628026E-08
   30.00000     -2.0672092E-08
   30.06000     -1.9807839E-08
   30.12000     -1.9079776E-08
   30.18000     -1.8513688E-08
   30.24000     -1.8115800E-08
   30.30000     -1.7876907E-08
   30.36000     -1.7778895E-08
   30.42000     -1.7801156E-08
   30.48000     -1.7925442E-08
   30.54000     -1.8139096E-08
   30.60000     -1.8437014E-08
   30.66000     -1.8822515E-08
   30.72000     -1.9306698E-08
   30.78000     -1.9905821E-08
   30.84000     -2.0637057E-08
   30.90000     -2.1513841E-08
   30.96000     -2.2542599E-08
   31.02000     -2.3721951E-08
   31.08000     -2.5044233E-08
   31.14000     -2.6498022E-08
   31.20000     -2.8070051E-08
   31.26000     -2.9745873E-08
   31.32000     -3.1509579E-08
   31.38000     -3.3343809E-08
   31.44000     -3.5230723E-08
   31.50000     -3.7153796E-08
   31.56000     -3.9099351E-08
   31.62000     -4.1056808E-08
   31.68000     -4.3017291E-08
   31.74000     -4.4971500E-08
   31.80000     -4.6907989E-08
   31.86000     -4.8812893E-08
   31.92000     -5.0671218E-08
   31.98000     -5.2468980E-08
   32.04000     -5.4195311E-08
   32.10000     -5.5843969E-08
   32.16000     -5.7414006E-08
   32.22000     -5.8909613E-08
   32.28000     -6.0339062E-08
   32.34000     -6.1712491E-08
   32.40000     -6.3038549E-08
   32.46000     -6.4320425E-08
   32.52000     -6.5552349E-08
   32.58000     -6.6717966E-08
   32.64000     -6.7791483E-08
   32.70000     -6.8741691E-08
   32.76000     -6.9538011E-08
   32.82000     -7.0157050E-08
   32.88000     -7.0587994E-08
   32.94000     -7.0835377E-08
   33.00000     -7.0918446E-08
   33.06000     -7.0867316E-08
   33.12000     -7.0716759E-08
   33.18000     -7.0499532E-08
   33.24000     -7.0240787E-08
   33.30000     -6.9954957E-08
   33.36000     -6.9645267E-08
   33.42000     -6.9305209E-08
   33.48000     -6.8920926E-08
   33.54000     -6.8473661E-08
   33.60000     -6.7942352E-08
   33.66000     -6.7306665E-08
   33.72000     -6.6550591E-08
   33.78000     -6.5665930E-08
   33.84000     -6.4654436E-08
   33.90000     -6.3527480E-08
   33.96000     -6.2303137E-08
   34.02000     -6.1002027E-08
   34.08000     -5.9643888E-08
   34.14000     -5.8246361E-08
   34.20000     -5.6826046E-08
   34.26000     -5.5400477E-08
   34.32000     -5.3989009E-08
   34.38000     -5.2611355E-08
   34.44000     -5.1283994E-08
   34.50000     -5.0015956E-08
   34.56000     -4.8805958E-08
   34.62000     -4.7642299E-08
   34.68000     -4.6505708E-08
   34.74000     -4.5374506E-08
   34.80000     -4.4230749E-08
   34.86000     -4.3065956E-08
   34.92000     -4.1885087E-08
   34.98000     -4.0707516E-08
   35.04000     -3.9564203E-08
   35.10000     -3.8491120E-08
   35.16000     -3.7520238E-08
   35.22000     -3.6670677E-08
   35.28000     -3.5942886E-08
   35.34000     -3.5318042E-08
   35.40000     -3.4763168E-08
   35.46000     -3.4240340E-08
   35.52000     -3.3717122E-08
   35.58000     -3.3174931E-08
   35.64000     -3.2613038E-08
   35.70000     -3.2047272E-08
   35.76000     -3.1504197E-08
   35.82000     -3.1012718E-08
   35.88000     -3.0595640E-08
   35.94000     -3.0263656E-08
   36.00000     -3.0013389E-08
   36.06000     -2.9829909E-08
   36.12000     -2.9692618E-08
   36.18000     -2.9582313E-08
   36.24000     -2.9486955E-08
   36.30000     -2.9404184E-08
   36.36000     -2.9340029E-08
   36.42000     -2.9304692E-08
   36.48000     -2.9307341E-08
   36.54000     -2.9352091E-08
   36.60000     -2.9436720E-08
   36.66000     -2.9554604E-08
   36.72000     -2.9699054E-08
   36.78000     -2.9868382E-08
   36.84000     -3.0069607E-08
   36.90000     -3.0319036E-08
   36.96000     -3.0638997E-08
   37.02000     -3.1051258E-08
   37.08000     -3.1569062E-08
   37.14000     -3.2190357E-08
   37.20000     -3.2894565E-08
   37.26000     -3.3644252E-08
   37.32000     -3.4391419E-08
   37.38000     -3.5086668E-08
   37.44000     -3.5688725E-08
   37.50000     -3.6171688E-08
   37.56000     -3.6528185E-08
   37.62000     -3.6767609E-08
   37.68000     -3.6910048E-08
   37.74000     -3.6977699E-08
   37.80000     -3.6986314E-08
   37.86000     -3.6939461E-08
   37.92000     -3.6827551E-08
   37.98000     -3.6632020E-08
   38.04000     -3.6333166E-08
   38.10000     -3.5918557E-08
   38.16000     -3.5388751E-08
   38.22000     -3.4758116E-08
   38.28000     -3.4050597E-08
   38.34000     -3.3292306E-08
   38.40000     -3.2503873E-08
   38.46000     -3.1695301E-08
   38.52000     -3.0864953E-08
   38.58000     -3.0002631E-08
   38.64000     -2.9095645E-08
   38.70000     -2.8136014E-08
   38.76000     -2.7126887E-08
   38.82000     -2.6086251E-08
   38.88000     -2.5046573E-08
   38.94000     -2.4049800E-08
   39.00000     -2.3138599E-08
   39.06000     -2.2346160E-08
   39.12000     -2.1687976E-08
   39.18000     -2.1158725E-08
   39.24000     -2.0735818E-08
   39.30000     -2.0388818E-08
   39.36000     -2.0091608E-08
   39.42000     -1.9833278E-08
   39.48000     -1.9624071E-08
   39.54000     -1.9494632E-08
   39.60000     -1.9488938E-08
   39.66000     -1.9653227E-08
   39.72000     -2.0024286E-08
   39.78000     -2.0620440E-08
   39.84000     -2.1437806E-08
   39.90000     -2.2452683E-08
   39.96000     -2.3629111E-08
   40.02000     -2.4928944E-08
   40.08000     -2.6320942E-08
   40.14000     -2.7785852E-08
   40.20000     -2.9316075E-08
   40.26000     -3.0910606E-08
   40.32000     -3.2567606E-08
   40.38000     -3.4277416E-08
   40.44000     -3.6018289E-08
   40.50000     -3.7755850E-08
   40.56000     -3.9446181E-08
   40.62000     -4.1041698E-08
   40.68000     -4.2498471E-08
   40.74000     -4.3783277E-08
   40.80000     -4.4878124E-08
   40.86000     -4.5780286E-08
   40.92000     -4.6497011E-08
   40.98000     -4.7036366E-08
   41.04000     -4.7397819E-08
   41.10000     -4.7567248E-08
   41.16000     -4.7519649E-08
   41.22000     -4.7229449E-08
   41.28000     -4.6684711E-08
   41.34000     -4.5899139E-08
   41.40000     -4.4916604E-08
   41.46000     -4.3805716E-08
   41.52000     -4.2646160E-08
   41.58000     -4.1511171E-08
   41.64000     -4.0451692E-08
   41.70000     -3.9486387E-08
   41.76000     -3.8599900E-08
   41.82000     -3.7749398E-08
   41.88000     -3.6878021E-08
   41.94000     -3.5932196E-08
   42.00000     -3.4878802E-08
   42.06000     -3.3717491E-08
   42.12000     -3.2484191E-08
   42.18000     -3.1244049E-08
   42.24000     -3.0075419E-08
   42.30000     -2.9049772E-08
   42.36000     -2.8213918E-08
   42.42000     -2.7580148E-08
   42.48000     -2.7127131E-08
   42.54000     -2.6810620E-08
   42.60000     -2.6580096E-08
   42.66000     -2.6395979E-08
   42.72000     -2.6242203E-08
   42.78000     -2.6130600E-08
   42.84000     -2.6095810E-08
   42.90000     -2.6182283E-08
   42.96000     -2.6427383E-08
   43.02000     -2.6846278E-08
   43.08000     -2.7424091E-08
   43.14000     -2.8118684E-08
   43.20000     -2.8873577E-08
   43.26000     -2.9636551E-08
   43.32000     -3.0376970E-08
   43.38000     -3.1095130E-08
   43.44000     -3.1819873E-08
   43.50000     -3.2595267E-08
   43.56000     -3.3461163E-08
   43.62000     -3.4434660E-08
   43.68000     -3.5498854E-08
   43.74000     -3.6602685E-08
   43.80000     -3.7671693E-08
   43.86000     -3.8626322E-08
   43.92000     -3.9402067E-08
   43.98000     -3.9965538E-08
   44.04000     -4.0321908E-08
   44.10000     -4.0511832E-08
   44.16000     -4.0598955E-08
   44.22000     -4.0651717E-08
   44.28000     -4.0724654E-08
   44.34000     -4.0844348E-08
   44.40000     -4.1003712E-08
   44.46000     -4.1166004E-08
   44.52000     -4.1277140E-08
   44.58000     -4.1282746E-08
   44.64000     -4.1144915E-08
   44.70000     -4.0853759E-08
   44.76000     -4.0430340E-08
   44.82000     -3.9920202E-08
   44.88000     -3.9379866E-08
   44.94000     -3.8860847E-08
   45.00000     -3.8396568E-08
   45.06000     -3.7996138E-08
   45.12000     -3.7646348E-08
   45.18000     -3.7320003E-08
   45.24000     -3.6986972E-08
   45.30000     -3.6623867E-08
   45.36000     -3.6219689E-08
   45.42000     -3.5776871E-08
   45.48000     -3.5308684E-08
   45.54000     -3.4834990E-08
   45.60000     -3.4377827E-08
   45.66000     -3.3957757E-08
   45.72000     -3.3591096E-08
   45.78000     -3.3288057E-08
   45.84000     -3.3051712E-08
   45.90000     -3.2878191E-08
   45.96000     -3.2758280E-08
   46.02000     -3.2680369E-08
   46.08000     -3.2634119E-08
   46.14000     -3.2613670E-08
   46.20000     -3.2618978E-08
   46.26000     -3.2654359E-08
   46.32000     -3.2724319E-08
   46.38000     -3.2827835E-08
   46.44000     -3.2953334E-08
   46.50000     -3.3076553E-08
   46.56000     -3.3162543E-08
   46.62000     -3.3171585E-08
   46.68000     -3.3067018E-08
   46.74000     -3.2822449E-08
   46.80000     -3.2426016E-08
   46.86000     -3.1880752E-08
   46.92000     -3.1201527E-08
   46.98000     -3.0409979E-08
   47.04000     -2.9528994E-08
   47.10000     -2.8577853E-08
   47.16000     -2.7568664E-08
   47.22000     -2.6504461E-08
   47.28000     -2.5379403E-08
   47.34000     -2.4181407E-08
   47.40000     -2.2897154E-08
   47.46000     -2.1518535E-08
   47.52000     -2.0048800E-08
   47.58000     -1.8506435E-08
   47.64000     -1.6925279E-08
   47.70000     -1.5350690E-08
   47.76000     -1.3832908E-08
   47.82000     -1.2419628E-08
   47.88000     -1.1149853E-08
   47.94000     -1.0050392E-08
   48.00000     -9.1352650E-09
   48.06000     -8.4074578E-09
   48.12000     -7.8620035E-09
   48.18000     -7.4894766E-09
   48.24000     -7.2793198E-09
   48.30000     -7.2226238E-09
   48.36000     -7.3140236E-09
   48.42000     -7.5522042E-09
   48.48000     -7.9385680E-09
   48.54000     -8.4741094E-09
   48.60000     -9.1554204E-09
   48.66000     -9.9715693E-09
   48.72000     -1.0903730E-08
   48.78000     -1.1928525E-08
   48.84000     -1.3024320E-08
   48.90000     -1.4178061E-08
   48.96000     -1.5389654E-08
   49.02000     -1.6671930E-08
   49.08000     -1.8046423E-08
   49.14000     -1.9537341E-08
   49.20000     -2.1167084E-08
   49.26000     -2.2955767E-08
   49.32000     -2.4925159E-08
   49.38000     -2.7105264E-08
   49.44000     -2.9540809E-08
   49.50000     -3.2295361E-08
   49.56000     -3.5452157E-08
   49.62000     -3.9112361E-08
   49.68000     -4.3392273E-08
   49.74000     -4.8421175E-08
   49.80000     -5.4341200E-08
   49.86000     -6.1309905E-08
   49.92000     -6.9505568E-08
   49.98000     -7.9134445E-08
   50.04000     -9.0438924E-08
   50.10000     -1.0370529E-07
   50.16000     -1.1927096E-07
   50.22000     -1.3753197E-07
   50.28000     -1.5895185E-07
   50.34000     -1.8407331E-07
   50.40000     -2.1353168E-07
   50.46000     -2.4806849E-07
   50.52000     -2.8854302E-07
   50.58000     -3.3594176E-07
   50.64000     -3.9138689E-07
   50.70000     -4.5614763E-07
   50.76000     -5.3165661E-07
   50.82000     -6.1953131E-07
   50.88000     -7.2159850E-07
   50.94000     -8.3991961E-07
   51.00000     -9.7681652E-07
   51.06000     -1.1348994E-06
   51.12000     -1.3170986E-06
   51.18000     -1.5267002E-06
   51.24000     -1.7673835E-06
   51.30000     -2.0432551E-06
   51.36000     -2.3588777E-06
   51.42000     -2.7192943E-06
   51.48000     -3.1300563E-06
   51.54000     -3.5972548E-06
   51.60000     -4.1275644E-06
   51.66000     -4.7282856E-06
   51.72000     -5.4073898E-06
   51.78000     -6.1735509E-06
   51.84000     -7.0361821E-06
   51.90000     -8.0054588E-06
   51.96000     -9.0923568E-06
   52.02000     -1.0308680E-05
   52.08000     -1.1667094E-05
   52.14000     -1.3181143E-05
   52.20000     -1.4865262E-05
   52.26000     -1.6734764E-05
   52.32000     -1.8805858E-05
   52.38000     -2.1095624E-05
   52.44000     -2.3622013E-05
   52.50000     -2.6403832E-05
   52.56000     -2.9460687E-05
   52.62000     -3.2812943E-05
   52.68000     -3.6481644E-05
   52.74000     -4.0488441E-05
   52.80000     -4.4855504E-05
   52.86000     -4.9605424E-05
   52.92000     -5.4761102E-05
   52.98000     -6.0345599E-05
   53.04000     -6.6381966E-05
   53.10000     -7.2893119E-05
   53.16000     -7.9901612E-05
   53.22000     -8.7429478E-05
   53.28000     -9.5498050E-05
   53.34000     -1.0412771E-04
   53.40000     -1.1333768E-04
   53.46000     -1.2314580E-04
   53.52000     -1.3356829E-04
   53.58000     -1.4461944E-04
   53.64000     -1.5631143E-04
   53.70000     -1.6865409E-04
   53.76000     -1.8165453E-04
   53.82000     -1.9531701E-04
   53.88000     -2.0964262E-04
   53.94000     -2.2462908E-04
   54.00000     -2.4027062E-04
   54.06000     -2.5655763E-04
   54.12000     -2.7347667E-04
   54.18000     -2.9101025E-04
   54.24000     -3.0913673E-04
   54.30000     -3.2783009E-04
   54.36000     -3.4706012E-04
   54.42000     -3.6679229E-04
   54.48000     -3.8698770E-04
   54.54000     -4.0760319E-04
   54.60000     -4.2859153E-04
   54.66000     -4.4990121E-04
   54.72000     -4.7147708E-04
   54.78000     -4.9326028E-04
   54.84000     -5.1518861E-04
   54.90000     -5.3719705E-04
   54.96000     -5.5921759E-04
   55.02000     -5.8118004E-04
   55.08000     -6.0301198E-04
   55.14000     -6.2463991E-04
   55.20000     -6.4598914E-04
   55.26000     -6.6698488E-04
   55.32000     -6.8755232E-04
   55.38000     -7.0761709E-04
   55.44000     -7.2710612E-04
   55.50000     -7.4594776E-04
   55.56000     -7.6407281E-04