  -2.400000      0.0000000E+00
  -2.340000      0.0000000E+00
  -2.280000      0.0000000E+00
  -2.220000      0.0000000E+00
  -2.160000      0.0000000E+00
  -2.100000     -2.2506189E-18
  -2.040000     -1.6362185E-17
  -1.980000     -5.6951134E-17
  -1.920000     -1.1458975E-16
  -1.860000     -9.9372549E-17
  -1.800000      1.8809623E-16
  -1.740000      9.5215037E-16
  -1.680000      2.0966623E-15
  -1.620000      2.8390836E-15
  -1.560000      1.6275219E-15
  -1.500000     -3.1570057E-15
  -1.440000     -1.1578024E-14
  -1.380000     -2.0303780E-14
  -1.320000     -2.2152714E-14
  -1.260000     -8.7476370E-15
  -1.200000      2.3393747E-14
  -1.140000      6.5790194E-14
  -1.080000      9.5127614E-14
  -1.020000      8.0051478E-14
 -0.9600000     -8.9884098E-16
 -0.9000000     -1.3645722E-13
 -0.8400000     -2.6881963E-13
 -0.7800000     -3.0453033E-13
 -0.7200000     -1.5700498E-13
 -0.6600000      1.9082827E-13
 -0.6000000      6.3532149E-13
 -0.5400000      9.5234291E-13
 -0.4800000      8.7462112E-13
 -0.4200000      2.3397061E-13
 -0.3600000     -8.9062178E-13
 -0.3000000     -2.1071987E-12
 -0.2400000     -2.8012191E-12
 -0.1800000     -2.3905051E-12
 -0.1200000     -6.5790098E-13
 -5.9999999E-02  2.0022759E-12
  0.0000000E+00  4.5937351E-12
  5.9999999E-02  5.8608053E-12
  0.1200000      4.8742065E-12
  0.1800000      1.6046618E-12
  0.2400000     -2.8370221E-12
  0.3000000     -6.5148264E-12
  0.3600000     -7.5056636E-12
  0.4200000     -4.9287475E-12
  0.4800000      3.5338139E-13
  0.5400000      5.8226093E-12
  0.6000000      8.3127550E-12
  0.6600000      5.5931319E-12
  0.7200000     -2.2018539E-12
  0.7800000     -1.2093590E-11
  0.8400000     -1.9176008E-11
  0.9000000     -1.8719474E-11
  0.9600000     -8.5964890E-12
   1.020000      9.1449799E-12
   1.080000      2.8480274E-11
   1.140000      4.1535646E-11
   1.200000      4.1861892E-11
   1.260000      2.7419287E-11
   1.320000      1.8398557E-12
   1.380000     -2.6751320E-11
   1.440000     -4.8945105E-11
   1.500000     -5.7873165E-11
   1.560000     -5.1871250E-11
   1.620000     -3.4704614E-11
   1.680000     -1.3243084E-11
   1.740000      6.2505669E-12
   1.800000      2.1303809E-11
   1.860000      3.4155800E-11
   1.920000      4.9759735E-11
   1.980000      7.1694213E-11
   2.040000      9.7992135E-11
   2.100000      1.1916965E-10
   2.160000      1.1991348E-10
   2.220000      8.4285162E-11
   2.280000      2.6331775E-12
   2.340000     -1.2256346E-10
   2.400000     -2.7448616E-10
   2.460000     -4.2462381E-10
   2.520000     -5.3957483E-10
   2.580000     -5.8962729E-10
   2.640000     -5.5604293E-10
   2.700000     -4.3455270E-10
   2.760000     -2.3417271E-10
   2.820000      2.7636216E-11
   2.880000      3.3106337E-10
   2.940000      6.5863592E-10
   3.000000      9.9677910E-10
   3.060000      1.3342107E-09
   3.120000      1.6587435E-09
   3.180000      1.9548811E-09
   3.240000      2.2042095E-09
   3.300000      2.3892064E-09
   3.360000      2.4993441E-09
   3.420000      2.5370555E-09
   3.480000      2.5208691E-09
   3.540000      2.4839484E-09
   3.600000      2.4679854E-09
   3.660000      2.5142255E-09
   3.720000      2.6545541E-09
   3.780000      2.9056226E-09
   3.840000      3.2679051E-09
   3.900000      3.7298031E-09
   3.960000      4.2751189E-09
   4.020000      4.8910636E-09
   4.080000      5.5738547E-09
   4.140000      6.3299268E-09
   4.200000      7.1724160E-09
   4.260000      8.1143501E-09
   4.320000      9.1612149E-09
   4.380000      1.0305774E-08
   4.440000      1.1527216E-08
   4.500000      1.2795039E-08
   4.560000      1.4076252E-08
   4.620000      1.5343170E-08
   4.680000      1.6578758E-08
   4.740000      1.7777500E-08
   4.800000      1.8941501E-08
   4.860000      2.0073603E-08
   4.920000      2.1170571E-08
   4.980000      2.2219503E-08
   5.040000      2.3199293E-08
   5.100000      2.4086772E-08
   5.160000      2.4865003E-08
   5.220000      2.5530097E-08
   5.280000      2.6093289E-08
   5.340000      2.6577032E-08
   5.400000      2.7006479E-08
   5.460000      2.7399921E-08
   5.520000      2.7762429E-08
   5.580000      2.8085799E-08
   5.640000      2.8355222E-08
   5.700000      2.8560187E-08
   5.760000      2.8705253E-08
   5.820000      2.8816309E-08
   5.880000      2.8939860E-08
   5.940000      2.9135832E-08
   6.000000      2.9466982E-08
   6.060000      2.9989017E-08
   6.120000      3.0744697E-08
   6.180000      3.1762774E-08
   6.240000      3.3060175E-08
   6.300000      3.4644295E-08
   6.360000      3.6512596E-08
   6.420000      3.8648555E-08
   6.480000      4.1015497E-08
   6.540000      4.3551474E-08
   6.600000      4.6168658E-08
   6.660000      4.8759169E-08
   6.720000      5.1206680E-08
   6.780000      5.3400861E-08
   6.840000      5.5250474E-08
   6.900000      5.6691423E-08
   6.960000      5.7688069E-08
   7.020000      5.8228562E-08
   7.080000      5.8316953E-08
   7.140000      5.7965615E-08
   7.200000      5.7190714E-08
   7.260000      5.6011693E-08
   7.320000      5.4453864E-08
   7.380000      5.2551822E-08
   7.440000      5.0351520E-08
   7.500000      4.7909644E-08
   7.560000      4.5290488E-08
   7.620000      4.2561506E-08
   7.680000      3.9788951E-08
   7.740000      3.7034347E-08
   7.800000      3.4351689E-08
   7.860000      3.1784833E-08
   7.920000      2.9364809E-08
   7.980000      2.7107813E-08
   8.040000      2.5015421E-08
   8.100000      2.3078293E-08
   8.160000      2.1283368E-08
   8.220000      1.9622520E-08
   8.280000      1.8099122E-08
   8.340000      1.6729103E-08
   8.400000      1.5534990E-08
   8.460000      1.4534531E-08
   8.520000      1.3728235E-08
   8.580000      1.3091082E-08
   8.640000      1.2572246E-08
   8.700000      1.2103440E-08
   8.760000      1.1612951E-08
   8.820000      1.1040290E-08
   8.880000      1.0346373E-08
   8.940000      9.5162092E-09
   9.000000      8.5541876E-09
   9.060000      7.4747124E-09
   9.120000      6.2923546E-09
   9.180000      5.0153108E-09
   9.240000      3.6442729E-09
   9.300000      2.1764421E-09
   9.360000      6.1228350E-10
   9.420000     -1.0385355E-09
   9.480000     -2.7553075E-09
   9.540000     -4.5100905E-09
   9.600000     -6.2760983E-09
   9.660000     -8.0372242E-09
   9.720000     -9.7942197E-09
   9.780000     -1.1564107E-08
   9.840000     -1.3372251E-08
   9.900000     -1.5239989E-08
   9.960000     -1.7173027E-08
   10.02000     -1.9155797E-08
   10.08000     -2.1154403E-08
   10.14000     -2.3127042E-08
   10.20000     -2.5037483E-08
   10.26000     -2.6866042E-08
   10.32000     -2.8613952E-08
   10.38000     -3.0299965E-08
   10.44000     -3.1951259E-08
   10.50000     -3.3592524E-08
   10.56000     -3.5237161E-08
   10.62000     -3.6882952E-08
   10.68000     -3.8512841E-08
   10.74000     -4.0099621E-08
   10.80000     -4.1612644E-08
   10.86000     -4.3024350E-08
   10.92000     -4.4314845E-08
   10.98000     -4.5473417E-08
   11.04000     -4.6496844E-08
   11.10000     -4.7385644E-08
   11.16000     -4.8140198E-08
   11.22000     -4.8758970E-08
   11.28000     -4.9240075E-08
   11.34000     -4.9585765E-08
   11.40000     -4.9807547E-08
   11.46000     -4.9928786E-08
   11.52000     -4.9982319E-08
   11.58000     -5.0002630E-08
   11.64000     -5.0014929E-08
   11.70000     -5.0025285E-08
   11.76000     -5.0016389E-08
   11.82000     -4.9951581E-08
   11.88000     -4.9786578E-08
   11.94000     -4.9485021E-08
   12.00000     -4.9031804E-08
   12.06000     -4.8438512E-08
   12.12000     -4.7738187E-08
   12.18000     -4.6970978E-08
   12.24000     -4.6166388E-08
   12.30000     -4.5329873E-08
   12.36000     -4.4440007E-08
   12.42000     -4.3458058E-08
   12.48000     -4.2346048E-08
   12.54000     -4.1085126E-08
   12.60000     -3.9685712E-08
   12.66000     -3.8184705E-08
   12.72000     -3.6631324E-08
   12.78000     -3.5069103E-08
   12.84000     -3.3523470E-08
   12.90000     -3.2001541E-08
   12.96000     -3.0504310E-08
   13.02000     -2.9044660E-08
   13.08000     -2.7661219E-08
   13.14000     -2.6419894E-08
   13.20000     -2.5400819E-08
   13.26000     -2.4675826E-08
   13.32000     -2.4286155E-08
   13.38000     -2.4230166E-08
   13.44000     -2.4465995E-08
   13.50000     -2.4927308E-08
   13.56000     -2.5544637E-08
   13.62000     -2.6263066E-08
   13.68000     -2.7049703E-08
   13.74000     -2.7889859E-08
   13.80000     -2.8776238E-08
   13.86000     -2.9698070E-08
   13.92000     -3.0635974E-08
   13.98000     -3.1564298E-08
   14.04000     -3.2458079E-08
   14.10000     -3.3299195E-08
   14.16000     -3.4077139E-08
   14.22000     -3.4783422E-08
   14.28000     -3.5402920E-08
   14.34000     -3.5907949E-08
   14.40000     -3.6259738E-08
   14.46000     -3.6418026E-08
   14.52000     -3.6354738E-08
   14.58000     -3.6064886E-08
   14.64000     -3.5568743E-08
   14.70000     -3.4903653E-08
   14.76000     -3.4109053E-08
   14.82000     -3.3211837E-08
   14.88000     -3.2218797E-08
   14.94000     -3.1119409E-08
   15.00000     -2.9896867E-08
   15.06000     -2.8541693E-08
   15.12000     -2.7061576E-08
   15.18000     -2.5483601E-08
   15.24000     -2.3849022E-08
   15.30000     -2.2203903E-08
   15.36000     -2.0590051E-08
   15.42000     -1.9039467E-08
   15.48000     -1.7573118E-08
   15.54000     -1.6202859E-08
   15.60000     -1.4934352E-08
   15.66000     -1.3769258E-08
   15.72000     -1.2705981E-08
   15.78000     -1.1739203E-08
   15.84000     -1.0859014E-08
   15.90000     -1.0050563E-08
   15.96000     -9.2949142E-09
   16.02000     -8.5715124E-09
   16.08000     -7.8620852E-09
   16.14000     -7.1552622E-09
   16.20000     -6.4505463E-09
   16.26000     -5.7600391E-09
   16.32000     -5.1065934E-09
   16.38000     -4.5180135E-09
   16.44000     -4.0182115E-09
   16.50000     -3.6174592E-09
   16.56000     -3.3045489E-09
   16.62000     -3.0435250E-09
   16.68000     -2.7766121E-09
   16.74000     -2.4332576E-09
   16.80000     -1.9432573E-09
   16.86000     -1.2503663E-09
   16.92000     -3.2223949E-10
   16.98000      8.4653262E-10
   17.04000      2.2392088E-09
   17.10000      3.8273749E-09
   17.16000      5.5825229E-09
   17.22000      7.4834414E-09
   17.28000      9.5158352E-09
   17.34000      1.1664138E-08
   17.40000      1.3899366E-08
   17.46000      1.6169153E-08
   17.52000      1.8395657E-08
   17.58000      2.0483819E-08
   17.64000      2.2338046E-08
   17.70000      2.3881736E-08
   17.76000      2.5072902E-08
   17.82000      2.5910975E-08
   17.88000      2.6433501E-08
   17.94000      2.6705356E-08
   18.00000      2.6805244E-08
   18.06000      2.6814112E-08
   18.12000      2.6807975E-08
   18.18000      2.6854782E-08
   18.24000      2.7013083E-08
   18.30000      2.7329914E-08
   18.36000      2.7836766E-08
   18.42000      2.8544594E-08
   18.48000      2.9440404E-08
   18.54000      3.0488071E-08
   18.60000      3.1634645E-08
   18.66000      3.2820989E-08
   18.72000      3.3993533E-08
   18.78000      3.5113274E-08
   18.84000      3.6159044E-08
   18.90000      3.7124558E-08
   18.96000      3.8011130E-08
   19.02000      3.8819618E-08
   19.08000      3.9544791E-08
   19.14000      4.0173983E-08
   19.20000      4.0689461E-08
   19.26000      4.1072528E-08
   19.32000      4.1306997E-08
   19.38000      4.1380538E-08
   19.44000      4.1284125E-08
   19.50000      4.1010850E-08
   19.56000      4.0555932E-08
   19.62000      3.9918817E-08
   19.68000      3.9107032E-08
   19.74000      3.8140286E-08
   19.80000      3.7052519E-08
   19.86000      3.5890295E-08
   19.92000      3.4707014E-08
   19.98000      3.3554194E-08
   20.04000      3.2472336E-08
   20.10000      3.1484522E-08
   20.16000      3.0595096E-08
   20.22000      2.9793972E-08
   20.28000      2.9064978E-08
   20.34000      2.8394844E-08
   20.40000      2.7779231E-08
   20.46000      2.7223404E-08
   20.52000      2.6737625E-08
   20.58000      2.6329765E-08
   20.64000      2.5998833E-08
   20.70000      2.5732602E-08
   20.76000      2.5510285E-08
   20.82000      2.5308756E-08
   20.88000      2.5108932E-08
   20.94000      2.4899011E-08
   21.00000      2.4672858E-08
   21.06000      2.4424294E-08
   21.12000      2.4140245E-08
   21.18000      2.3796298E-08
   21.24000      2.3357375E-08
   21.30000      2.2783977E-08
   21.36000      2.2042032E-08
   21.42000      2.1112598E-08
   21.48000      1.9997566E-08
   21.54000      1.8718881E-08
   21.60000      1.7311246E-08
   21.66000      1.5811015E-08
   21.72000      1.4245424E-08
   21.78000      1.2626288E-08
   21.84000      1.0950338E-08
   21.90000      9.2055918E-09
   21.96000      7.3806583E-09
   22.02000      5.4728737E-09
   22.08000      3.4921606E-09
   22.14000      1.4597744E-09
   22.20000     -5.9645905E-10
   22.26000     -2.6475153E-09
   22.32000     -4.6666764E-09
   22.38000     -6.6303922E-09
   22.44000     -8.5175813E-09
   22.50000     -1.0309321E-08
   22.56000     -1.1990329E-08
   22.62000     -1.3552055E-08
   22.68000     -1.4995711E-08
   22.74000     -1.6333058E-08
   22.80000     -1.7583654E-08
   22.86000     -1.8768960E-08
   22.92000     -1.9905302E-08
   22.98000     -2.0998325E-08
   23.04000     -2.2040851E-08
   23.10000     -2.3014596E-08
   23.16000     -2.3894684E-08
   23.22000     -2.4655071E-08
   23.28000     -2.5273257E-08
   23.34000     -2.5733398E-08
   23.40000     -2.6027935E-08
   23.46000     -2.6158299E-08
   23.52000     -2.6135043E-08
   23.58000     -2.5977361E-08
   23.64000     -2.5711557E-08
   23.70000     -2.5368287E-08
   23.76000     -2.4979009E-08
   23.82000     -2.4572785E-08
   23.88000     -2.4174746E-08
   23.94000     -2.3806766E-08
   24.00000     -2.3489646E-08
   24.06000     -2.3244718E-08
   24.12000     -2.3092685E-08
   24.18000     -2.3048512E-08
   24.24000     -2.3113657E-08
   24.30000     -2.3269150E-08
   24.36000     -2.3473943E-08
   24.42000     -2.3671593E-08
   24.48000     -2.3804875E-08
   24.54000     -2.3833776E-08
   24.60000     -2.3749756E-08
   24.66000     -2.3579513E-08
   24.72000     -2.3375355E-08
   24.78000     -2.3194831E-08
   24.84000     -2.3077272E-08
   24.90000     -2.3026741E-08
   24.96000     -2.3008441E-08
   25.02000     -2.2960068E-08
   25.08000     -2.2813211E-08
   25.14000     -2.2515803E-08
   25.20000     -2.2046709E-08
   25.26000     -2.1417470E-08
   25.32000     -2.0662270E-08
   25.38000     -1.9822105E-08
   25.44000     -1.8930907E-08
   25.50000     -1.8009388E-08
   25.56000     -1.7067832E-08
   25.62000     -1.6114690E-08
   25.68000     -1.5165529E-08
   25.74000     -1.4247655E-08
   25.80000     -1.3398702E-08
   25.86000     -1.2660803E-08
   25.92000     -1.2073751E-08
   25.98000     -1.1670193E-08
   26.04000     -1.1473788E-08
   26.10000     -1.1499115E-08
   26.16000     -1.1751161E-08
   26.22000     -1.2223156E-08
   26.28000     -1.2893548E-08
   26.34000     -1.3724656E-08
   26.40000     -1.4665728E-08
   26.46000     -1.5661348E-08
   26.52000     -1.6663261E-08
   26.58000     -1.7641257E-08
   26.64000     -1.8588217E-08
   26.70000     -1.9516364E-08
   26.76000     -2.0445365E-08
   26.82000     -2.1386603E-08
   26.88000     -2.2329944E-08
   26.94000     -2.3238565E-08
   27.00000     -2.4054373E-08
   27.06000     -2.4712357E-08
   27.12000     -2.5158796E-08
   27.18000     -2.5366946E-08
   27.24000     -2.5344931E-08
   27.30000     -2.5133552E-08
   27.36000     -2.4795266E-08
   27.42000     -2.4398277E-08
   27.48000     -2.4000895E-08
   27.54000     -2.3640636E-08
   27.60000     -2.3330637E-08
   27.66000     -2.3063544E-08
   27.72000     -2.2820700E-08
   27.78000     -2.2582961E-08
   27.84000     -2.2339174E-08
   27.90000     -2.2089214E-08
   27.96000     -2.1840597E-08
   28.02000     -2.1600110E-08
   28.08000     -2.1364190E-08
   28.14000     -2.1112566E-08
   28.20000     -2.0808747E-08
   28.26000     -2.0408255E-08
   28.32000     -1.9872072E-08
   28.38000     -1.9180154E-08
   28.44000     -1.8339332E-08
   28.50000     -1.7381941E-08
   28.56000     -1.6355372E-08
   28.62000     -1.5306767E-08
   28.68000     -1.4269286E-08
   28.74000     -1.3255630E-08
   28.80000     -1.2261117E-08
   28.86000     -1.1274056E-08
   28.92000     -1.0287716E-08
   28.98000     -9.3075814E-09
   29.04000     -8.3500922E-09
   29.10000     -7.4336088E-09
   29.16000     -6.5664310E-09
   29.22000     -5.7384986E-09
   29.28000     -4.9216951E-09
   29.34000     -4.0794434E-09
   29.40000     -3.1814755E-09
   29.46000     -2.2168287E-09
   29.52000     -1.1986692E-09
   29.58000     -1.5839867E-10
   29.64000      8.6823010E-10
   29.70000      1.8561704E-09
   29.76000      2.7996985E-09
   29.82000      3.7100478E-09
   29.88000      4.6030508E-09
   29.94000      5.4831180E-09
   30.00000      6.3322867E-09
   30.06000      7.1111508E-09
   30.12000      7.7729476E-09
   30.18000      8.2853964E-09
   30.24000      8.6504164E-09
   30.30000      8.9118348E-09
   30.36000      9.1460066E-09
   30.42000      9.4378478E-09
   30.48000      9.8516475E-09
   30.54000      1.0408864E-08
   30.60000      1.1082437E-08
   30.66000      1.1809973E-08
   30.72000      1.2519776E-08
   30.78000      1.3157974E-08
   30.84000      1.3704597E-08
   30.90000      1.4171833E-08
   30.96000      1.4586135E-08
   31.02000      1.4963510E-08
   31.08000      1.5290599E-08
   31.14000      1.5521326E-08
   31.20000      1.5591489E-08
   31.26000      1.5445060E-08
   31.32000      1.5060367E-08
   31.38000      1.4464150E-08
   31.44000      1.3726965E-08
   31.50000      1.2941582E-08
   31.56000      1.2193285E-08
   31.62000      1.1534028E-08
   31.68000      1.0970141E-08
   31.74000      1.0467147E-08
   31.80000      9.9682307E-09
   31.86000      9.4180663E-09
   31.92000      8.7828091E-09
   31.98000      8.0598301E-09
   32.04000      7.2755317E-09
   32.10000      6.4740595E-09
   32.16000      5.7022089E-09
   32.22000      4.9959401E-09
   32.28000      4.3721253E-09
   32.34000      3.8267194E-09
   32.40000      3.3384180E-09
   32.46000      2.8756673E-09
   32.52000      2.4045992E-09
   32.58000      1.8959048E-09
   32.64000      1.3294013E-09
   32.70000      6.9590461E-10
   32.76000     -3.2665663E-12
   32.82000     -7.5839762E-10
   32.88000     -1.5542502E-09
   32.94000     -2.3731050E-09
   33.00000     -3.1977356E-09
   33.06000     -4.0142654E-09
   33.12000     -4.8147228E-09
   33.18000     -5.5986895E-09
   33.24000     -6.3731136E-09
   33.30000     -7.1495561E-09
   33.36000     -7.9390317E-09
   33.42000     -8.7459666E-09
   33.48000     -9.5638377E-09
   33.54000     -1.0375056E-08
   33.60000     -1.1156183E-08
   33.66000     -1.1887037E-08
   33.72000     -1.2559910E-08
   33.78000     -1.3184120E-08
   33.84000     -1.3782582E-08
   33.90000     -1.4380411E-08
   33.96000     -1.4989560E-08
   34.02000     -1.5596104E-08
   34.08000     -1.6156585E-08
   34.14000     -1.6606512E-08
   34.20000     -1.6879120E-08
   34.26000     -1.6927773E-08
   34.32000     -1.6743430E-08
   34.38000     -1.6360033E-08
   34.44000     -1.5845366E-08
   34.50000     -1.5280515E-08
   34.56000     -1.4735606E-08
   34.62000     -1.4250726E-08
   34.68000     -1.3828798E-08
   34.74000     -1.3442343E-08
   34.80000     -1.3050783E-08
   34.86000     -1.2621109E-08
   34.92000     -1.2143934E-08
   34.98000     -1.1639200E-08
   35.04000     -1.1150160E-08
   35.10000     -1.0728883E-08
   35.16000     -1.0419626E-08
   35.22000     -1.0246902E-08
   35.28000     -1.0212736E-08
   35.34000     -1.0303591E-08
   35.40000     -1.0503346E-08
   35.46000     -1.0806117E-08
   35.52000     -1.1222861E-08
   35.58000     -1.1778354E-08
   35.64000     -1.2499410E-08
   35.70000     -1.3399176E-08
   35.76000     -1.4464448E-08
   35.82000     -1.5652081E-08
   35.88000     -1.6896937E-08
   35.94000     -1.8128933E-08
   36.00000     -1.9292596E-08
   36.06000     -2.0361087E-08
   36.12000     -2.1338664E-08
   36.18000     -2.2250408E-08
   36.24000     -2.3123572E-08
   36.30000     -2.3968745E-08
   36.36000     -2.4769161E-08
   36.42000     -2.5482956E-08
   36.48000     -2.6057229E-08
   36.54000     -2.6447438E-08
   36.60000     -2.6633273E-08
   36.66000     -2.6623956E-08
   36.72000     -2.6451081E-08
   36.78000     -2.6153035E-08
   36.84000     -2.5758853E-08
   36.90000     -2.5279299E-08
   36.96000     -2.4708980E-08
   37.02000     -2.4037544E-08
   37.08000     -2.3263421E-08
   37.14000     -2.2402386E-08
   37.20000     -2.1486112E-08
   37.26000     -2.0551202E-08
   37.32000     -1.9624199E-08
   37.38000     -1.8710420E-08
   37.44000     -1.7792598E-08
   37.50000     -1.6840682E-08
   37.56000     -1.5828585E-08
   37.62000     -1.4750225E-08
   37.68000     -1.3627435E-08
   37.74000     -1.2505814E-08
   37.80000     -1.1440101E-08
   37.86000     -1.0475170E-08
   37.92000     -9.6306136E-09
   37.98000     -8.8951806E-09
   38.04000     -8.2329885E-09
   38.10000     -7.5984241E-09
   38.16000     -6.9530932E-09
   38.22000     -6.2776486E-09
   38.28000     -5.5739258E-09
   38.34000     -4.8573479E-09
   38.40000     -4.1440509E-09
   38.46000     -3.4395267E-09
   38.52000     -2.7347393E-09
   38.58000     -2.0119229E-09
   38.64000     -1.2573552E-09
   38.70000     -4.7467158E-10
   38.76000      3.0837816E-10
   38.82000      1.0439467E-09
   38.88000      1.6779500E-09
   38.94000      2.1679281E-09
   39.00000      2.4968556E-09
   39.06000      2.6765734E-09
   39.12000      2.7393772E-09
   39.18000      2.7219655E-09
   39.24000      2.6495286E-09
   39.30000      2.5274858E-09
   39.36000      2.3443805E-09
   39.42000      2.0837798E-09
   39.48000      1.7385526E-09
   39.54000      1.3198772E-09
   39.60000      8.5615492E-10
   39.66000      3.8218614E-10
   39.72000     -7.6150017E-11
   39.78000     -5.1429083E-10
   39.84000     -9.5250141E-10
   39.90000     -1.4287931E-09
   39.96000     -1.9843887E-09
   40.02000     -2.6480351E-09
   40.08000     -3.4255969E-09
   40.14000     -4.2987001E-09
   40.20000     -5.2321885E-09
   40.26000     -6.1866916E-09
   40.32000     -7.1310837E-09
   40.38000     -8.0503106E-09
   40.44000     -8.9463512E-09
   40.50000     -9.8327693E-09
   40.56000     -1.0725358E-08
   40.62000     -1.1632328E-08
   40.68000     -1.2547302E-08
   40.74000     -1.3447393E-08
   40.80000     -1.4297127E-08
   40.86000     -1.5057328E-08
   40.92000     -1.5696399E-08
   40.98000     -1.6200410E-08
   41.04000     -1.6578309E-08
   41.10000     -1.6859950E-08
   41.16000     -1.7087174E-08
   41.22000     -1.7300975E-08
   41.28000     -1.7529761E-08
   41.34000     -1.7783581E-08
   41.40000     -1.8056760E-08
   41.46000     -1.8337564E-08
   41.52000     -1.8620083E-08
   41.58000     -1.8912077E-08
   41.64000     -1.9234379E-08
   41.70000     -1.9611523E-08
   41.76000     -2.0057973E-08
   41.82000     -2.0566993E-08
   41.88000     -2.1108388E-08
   41.94000     -2.1637245E-08
   42.00000     -2.2110214E-08
   42.06000     -2.2501821E-08
   42.12000     -2.2812902E-08
   42.18000     -2.3066907E-08
   42.24000     -2.3295780E-08
   42.30000     -2.3522292E-08
   42.36000     -2.3747484E-08
   42.42000     -2.3949136E-08
   42.48000     -2.4091616E-08
   42.54000     -2.4141663E-08
   42.60000     -2.4081974E-08
   42.66000     -2.3915897E-08
   42.72000     -2.3661427E-08
   42.78000     -2.3338266E-08
   42.84000     -2.2955174E-08
   42.90000     -2.2504299E-08
   42.96000     -2.1965539E-08
   43.02000     -2.1318689E-08
   43.08000     -2.0557394E-08
   43.14000     -1.9698199E-08
   43.20000     -1.8780435E-08
   43.26000     -1.7857031E-08
   43.32000     -1.6980369E-08
   43.38000     -1.6189212E-08
   43.44000     -1.5501959E-08
   43.50000     -1.4918339E-08
   43.56000     -1.4427994E-08
   43.62000     -1.4021402E-08
   43.68000     -1.3697948E-08
   43.74000     -1.3467342E-08
   43.80000     -1.3343779E-08
   43.86000     -1.3335502E-08
   43.92000     -1.3434581E-08
   43.98000     -1.3611663E-08
   44.04000     -1.3818362E-08
   44.10000     -1.3996627E-08
   44.16000     -1.4091498E-08
   44.22000     -1.4062291E-08
   44.28000     -1.3888113E-08
   44.34000     -1.3566082E-08
   44.40000     -1.3103580E-08
   44.46000     -1.2507908E-08
   44.52000     -1.1777128E-08
   44.58000     -1.0894687E-08
   44.64000     -9.8286197E-09
   44.70000     -8.5344318E-09
   44.76000     -6.9600694E-09
   44.82000     -5.0513091E-09
   44.88000     -2.7561946E-09
   44.94000     -2.7197843E-11
   45.00000      3.1803804E-09
   45.06000      6.9151724E-09
   45.12000      1.1242152E-08
   45.18000      1.6259316E-08
   45.24000      2.2114977E-08
   45.30000      2.9020722E-08
   45.36000      3.7255713E-08
   45.42000      4.7161116E-08
   45.48000      5.9128119E-08
   45.54000      7.3586769E-08
   45.60000      9.1004267E-08
   45.66000      1.1189850E-07
   45.72000      1.3686696E-07
   45.78000      1.6662500E-07
   45.84000      2.0204355E-07
   45.90000      2.4417733E-07
   45.96000      2.9427980E-07
   46.02000      3.5380847E-07
   46.08000      4.2442900E-07
   46.14000      5.0802834E-07
   46.20000      6.0674290E-07
   46.26000      7.2300128E-07
   46.32000      8.5957646E-07
   46.38000      1.0196396E-06
   46.44000      1.2068111E-06
   46.50000      1.4252106E-06
   46.56000      1.6795091E-06
   46.62000      1.9749900E-06
   46.68000      2.3176233E-06
   46.74000      2.7141486E-06
   46.80000      3.1721645E-06
   46.86000      3.7002146E-06
   46.92000      4.3078721E-06
   46.98000      5.0058220E-06
   47.04000      5.8059431E-06
   47.10000      6.7214064E-06
   47.16000      7.7667773E-06
   47.22000      8.9581326E-06
   47.28000      1.0313181E-05
   47.34000      1.1851378E-05
   47.40000      1.3594035E-05
   47.46000      1.5564417E-05
   47.52000      1.7787843E-05
   47.58000      2.0291756E-05
   47.64000      2.3105842E-05
   47.70000      2.6262105E-05
   47.76000      2.9794954E-05
   47.82000      3.3741275E-05
   47.88000      3.8140483E-05
   47.94000      4.3034539E-05
   48.00000      4.8467973E-05
   48.06000      5.4487846E-05
   48.12000      6.1143735E-05
   48.18000      6.8487658E-05
   48.24000      7.6573975E-05
   48.30000      8.5459258E-05
   48.36000      9.5202122E-05
   48.42000      1.0586304E-04
   48.48000      1.1750405E-04
   48.54000      1.3018856E-04
   48.60000      1.4398094E-04
   48.66000      1.5894619E-04
   48.72000      1.7514954E-04
   48.78000      1.9265604E-04
   48.84000      2.1152991E-04
   48.90000      2.3183417E-04
   48.96000      2.5362999E-04
   49.02000      2.7697592E-04
   49.08000      3.0192765E-04
   49.14000      3.2853713E-04
   49.20000      3.5685187E-04
   49.26000      3.8691427E-04
   49.32000      4.1876096E-04
   49.38000      4.5242210E-04
   49.44000      4.8792071E-04
   49.50000      5.2527187E-04
   49.56000      5.6448224E-04
   49.62000      6.0554926E-04
   49.68000      6.4846082E-04
   49.74000      6.9319463E-04
   49.80000      7.3971797E-04
   49.86000      7.8798708E-04
   49.92000      8.3794701E-04
   49.98000      8.8953151E-04
   50.04000      9.4266294E-04
   50.10000      9.9725230E-04
   50.16000      1.0531993E-03
   50.22000      1.1103929E-03
   50.28000      1.1687113E-03
   50.34000      1.2280234E-03
   50.40000      1.2881885E-03
   50.46000      1.3490572E-03
   50.52000      1.4104729E-03
   50.58000      1.4722724E-03
   50.64000      1.5342875E-03
   50.70000      1.5963453E-03
   50.76000      1.6582713E-03
   50.82000      1.7198888E-03
   50.88000      1.7810221E-03
   50.94000      1.8414971E-03
   51.00000      1.9011430E-03
   51.06000      1.9597940E-03
   51.12000      2.0172910E-03
   51.18000      2.0734824E-03
   51.24000      2.1282267E-03
   51.30000      2.1813931E-03
   51.36000      2.2328633E-03
   51.42000      2.2825326E-03
   51.48000      2.3303109E-03
   51.54000      2.3761240E-03
   51.60000      2.4199137E-03
   51.66000      2.4616390E-03
   51.72000      2.5012766E-03
   51.78000      2.5388198E-03
   51.84000      2.5742808E-03
   51.90000      2.6076883E-03
   51.96000      2.6390881E-03
   52.02000      2.6685426E-03
   52.08000      2.6961295E-03
   52.14000      2.7219416E-03
   52.20000      2.7460847E-03
   52.26000      2.7686758E-03
   52.32000      2.7898431E-03
   52.38000      2.8097222E-03
   52.44000      2.8284569E-03
   52.50000      2.8461947E-03
   52.56000      2.8630858E-03
   52.62000      2.8792825E-03
   52.68000      2.8949352E-03
   52.74000      2.9101910E-03
   52.80000      2.9251927E-03
   52.86000      2.9400750E-03
   52.92000      2.9549638E-03
   52.98000      2.9699744E-03
   53.04000      2.9852102E-03
   53.10000      3.0007602E-03
   53.16000      3.0167000E-03
   53.22000      3.0330885E-03
   53.28000      3.0499692E-03
   53.34000      3.0673682E-03
   53.40000      3.0852936E-03
   53.46000      3.1037366E-03
   53.52000      3.1226710E-03
   53.58000      3.1420542E-03
   53.64000      3.1618283E-03
   53.70000      3.1819204E-03
   53.76000      3.2022432E-03
   53.82000      3.2226974E-03
   53.88000      3.2431721E-03
   53.94000      3.2635464E-03
   54.00000      3.2836921E-03
   54.06000      3.3034745E-03
   54.12000      3.3227564E-03
   54.18000      3.3413982E-03
   54.24000      3.3592607E-03
   54.30000      3.3762064E-03
   54.36000      3.3921017E-03
   54.42000      3.4068190E-03
   54.48000      3.4202382E-03
   54.54000      3.4322487E-03
   54.60000      3.4427505E-03
   54.66000      3.4516561E-03
   54.72000      3.4588906E-03
   54.78000      3.4643945E-03
   54.84000      3.4681219E-03
   54.90000      3.4700430E-03
   54.96000      3.4701442E-03
   55.02000      3.4684264E-03
   55.08000      3.4649062E-03
   55.14000      3.4596159E-03
   55.20000      3.4526014E-03
   55.26000      3.4439221E-03
   55.32000      3.4336506E-03
   55.38000      3.4218710E-03
   55.44000      3.4086774E-03
   55.50000      3.3941723E-03
   55.56000      3.3784653E-03