  -2.400000      0.0000000E+00
  -2.340000      0.0000000E+00
  -2.280000      0.0000000E+00
  -2.220000      0.0000000E+00
  -2.160000      0.0000000E+00
  -2.100000     -6.2804856E-19
  -2.040000     -2.8980155E-18
  -1.980000     -1.9798076E-18
  -1.920000      2.3628049E-17
  -1.860000      1.0437198E-16
  -1.800000      2.1899580E-16
  -1.740000      1.9217761E-16
  -1.680000     -3.3103302E-16
  -1.620000     -1.6423759E-15
  -1.560000     -3.3902642E-15
  -1.500000     -3.9774291E-15
  -1.440000     -6.8630532E-16
  -1.380000      8.7084381E-15
  -1.320000      2.2917149E-14
  -1.260000      3.4327288E-14
  -1.200000      2.9334479E-14
  -1.140000     -5.6422436E-15
  -1.080000     -7.2855648E-14
  -1.020000     -1.5175304E-13
 -0.9600000     -1.9620166E-13
 -0.9000000     -1.4852257E-13
 -0.8400000      2.8876417E-14
 -0.7800000      3.1552503E-13
 -0.7200000      6.1048432E-13
 -0.6600000      7.4865168E-13
 -0.6000000      5.6547177E-13
 -0.5400000     -6.1903781E-15
 -0.4800000     -8.5055319E-13
 -0.4200000     -1.6505340E-12
 -0.3600000     -1.9758299E-12
 -0.3000000     -1.4706423E-12
 -0.2400000     -7.4388514E-14
 -0.1800000      1.8348558E-12
 -0.1200000      3.4809805E-12
 -5.9999999E-02  3.9566605E-12
  0.0000000E+00  2.6487794E-12
  5.9999999E-02 -3.5308892E-13
  0.1200000     -4.0862526E-12
  0.1800000     -6.9427923E-12
  0.2400000     -7.2909387E-12
  0.3000000     -4.2764811E-12
  0.3600000      1.5599469E-12
  0.4200000      8.2099475E-12
  0.4800000      1.2833957E-11
  0.5400000      1.2944913E-11
  0.6000000      7.6606672E-12
  0.6600000     -1.5870386E-12
  0.7200000     -1.1342898E-11
  0.7800000     -1.7451740E-11
  0.8400000     -1.6933378E-11
  0.9000000     -9.5672905E-12
  0.9600000      1.6439441E-12
   1.020000      1.1530083E-11
   1.080000      1.5026043E-11
   1.140000      9.7123394E-12
   1.200000     -2.5905979E-12
   1.260000     -1.6086504E-11
   1.320000     -2.3252409E-11
   1.380000     -1.8260145E-11
   1.440000     -1.0436781E-13
   1.500000      2.6054308E-11
   1.560000      5.0152583E-11
   1.620000      6.0809517E-11
   1.680000      4.9889357E-11
   1.740000      1.6176433E-11
   1.800000     -3.3421085E-11
   1.860000     -8.5728293E-11
   1.920000     -1.2552802E-10
   1.980000     -1.4045347E-10
   2.040000     -1.2457481E-10
   2.100000     -7.9290026E-11
   2.160000     -1.1317527E-11
   2.220000      7.1154270E-11
   2.280000      1.6233859E-10
   2.340000      2.6098540E-10
   2.400000      3.6987638E-10
   2.460000      4.9302451E-10
   2.520000      6.3200134E-10
   2.580000      7.8324175E-10
   2.640000      9.3777142E-10
   2.700000      1.0837611E-09
   2.760000      1.2110964E-09
   2.820000      1.3162740E-09
   2.880000      1.4057580E-09
   2.940000      1.4964795E-09
   3.000000      1.6131968E-09
   3.060000      1.7835236E-09
   3.120000      2.0321826E-09
   3.180000      2.3762108E-09
   3.240000      2.8224241E-09
   3.300000      3.3676419E-09
   3.360000      4.0012615E-09
   3.420000      4.7090514E-09
   3.480000      5.4767195E-09
   3.540000      6.2919825E-09
   3.600000      7.1444766E-09
   3.660000      8.0236893E-09
   3.720000      8.9159107E-09
   3.780000      9.8016866E-09
   3.840000      1.0655133E-08
   3.900000      1.1445873E-08
   3.960000      1.2143254E-08
   4.020000      1.2721558E-08
   4.080000      1.3164361E-08
   4.140000      1.3466396E-08
   4.200000      1.3632284E-08
   4.260000      1.3672760E-08
   4.320000      1.3600156E-08
   4.380000      1.3425275E-08
   4.440000      1.3157133E-08
   4.500000      1.2805621E-08
   4.560000      1.2385623E-08
   4.620000      1.1920025E-08
   4.680000      1.1439306E-08
   4.740000      1.0976644E-08
   4.800000      1.0559640E-08
   4.860000      1.0201483E-08
   4.920000      9.8952899E-09
   4.980000      9.6144559E-09
   5.040000      9.3197823E-09
   5.100000      8.9714822E-09
   5.160000      8.5420986E-09
   5.220000      8.0258200E-09
   5.280000      7.4408710E-09
   5.340000      6.8241341E-09
   5.400000      6.2199228E-09
   5.460000      5.6668319E-09
   5.520000      5.1870619E-09
   5.580000      4.7815347E-09
   5.640000      4.4319921E-09
   5.700000      4.1089074E-09
   5.760000      3.7822554E-09
   5.820000      3.4314975E-09
   5.880000      3.0516079E-09
   5.940000      2.6534053E-09
   6.000000      2.2583944E-09
   6.060000      1.8901856E-09
   6.120000      1.5658104E-09
   6.180000      1.2903834E-09
   6.240000      1.0574593E-09
   6.300000      8.5529550E-10
   6.360000      6.7679873E-10
   6.420000      5.2913696E-10
   6.480000      4.3870255E-10
   6.540000      4.4861087E-10
   6.600000      6.0877520E-10
   6.660000      9.6168185E-10
   6.720000      1.5289721E-09
   6.780000      2.3038964E-09
   6.840000      3.2525387E-09
   6.900000      4.3232906E-09
   6.960000      5.4608220E-09
   7.020000      6.6191759E-09
   7.080000      7.7692732E-09
   7.140000      8.8987413E-09
   7.200000      1.0005378E-08
   7.260000      1.1088162E-08
   7.320000      1.2140312E-08
   7.380000      1.3147325E-08
   7.440000      1.4089998E-08
   7.500000      1.4949665E-08
   7.560000      1.5711837E-08
   7.620000      1.6365565E-08
   7.680000      1.6898705E-08
   7.740000      1.7292125E-08
   7.800000      1.7517173E-08
   7.860000      1.7539383E-08
   7.920000      1.7328118E-08
   7.980000      1.6868219E-08
   8.040000      1.6167947E-08
   8.100000      1.5258706E-08
   8.160000      1.4185768E-08
   8.220000      1.2993647E-08
   8.280000      1.1712543E-08
   8.340000      1.0351795E-08
   8.400000      8.9028855E-09
   8.460000      7.3500055E-09
   8.520000      5.6828853E-09
   8.580000      3.9061132E-09
   8.640000      2.0415081E-09
   8.700000      1.2369362E-10
   8.760000     -1.8080862E-09
   8.820000     -3.7180985E-09
   8.880000     -5.5796536E-09
   8.940000     -7.3776052E-09
   9.000000     -9.1089341E-09
   9.060000     -1.0782649E-08
   9.120000     -1.2419203E-08
   9.180000     -1.4048485E-08
   9.240000     -1.5705131E-08
   9.300000     -1.7420902E-08
   9.360000     -1.9215561E-08
   9.420000     -2.1089093E-08
   9.480000     -2.3018353E-08
   9.540000     -2.4960036E-08
   9.600000     -2.6859716E-08
   9.660000     -2.8664589E-08
   9.720000     -3.0336167E-08
   9.780000     -3.1859219E-08
   9.840000     -3.3244458E-08
   9.900000     -3.4524408E-08
   9.960000     -3.5743838E-08
   10.02000     -3.6947419E-08
   10.08000     -3.8167872E-08
   10.14000     -3.9417259E-08
   10.20000     -4.0683222E-08
   10.26000     -4.1930722E-08
   10.32000     -4.3108720E-08
   10.38000     -4.4160494E-08
   10.44000     -4.5035385E-08
   10.50000     -4.5699430E-08
   10.56000     -4.6142109E-08
   10.62000     -4.6377071E-08
   10.68000     -4.6436266E-08
   10.74000     -4.6359023E-08
   10.80000     -4.6179689E-08
   10.86000     -4.5918380E-08
   10.92000     -4.5578201E-08
   10.98000     -4.5149704E-08
   11.04000     -4.4619810E-08
   11.10000     -4.3980428E-08
   11.16000     -4.3232088E-08
   11.22000     -4.2380719E-08
   11.28000     -4.1429473E-08
   11.34000     -4.0370409E-08
   11.40000     -3.9181099E-08
   11.46000     -3.7828826E-08
   11.52000     -3.6280895E-08
   11.58000     -3.4516376E-08
   11.64000     -3.2533869E-08
   11.70000     -3.0351892E-08
   11.76000     -2.8002360E-08
   11.82000     -2.5520933E-08
   11.88000     -2.2939224E-08
   11.94000     -2.0282375E-08
   12.00000     -1.7572246E-08
   12.06000     -1.4833347E-08
   12.12000     -1.2097298E-08
   12.18000     -9.4024726E-09
   12.24000     -6.7882002E-09
   12.30000     -4.2858121E-09
   12.36000     -1.9105795E-09
   12.42000      3.4167535E-10
   12.48000      2.4914744E-09
   12.54000      4.5670649E-09
   12.60000      6.5934902E-09
   12.66000      8.5833518E-09
   12.72000      1.0532399E-08
   12.78000      1.2421038E-08
   12.84000      1.4220669E-08
   12.90000      1.5902314E-08
   12.96000      1.7444703E-08
   13.02000      1.8839808E-08
   13.08000      2.0095049E-08
   13.14000      2.1232450E-08
   13.20000      2.2285498E-08
   13.26000      2.3294495E-08
   13.32000      2.4301086E-08
   13.38000      2.5342629E-08
   13.44000      2.6447315E-08
   13.50000      2.7631064E-08
   13.56000      2.8897000E-08
   13.62000      3.0237700E-08
   13.68000      3.1639438E-08
   13.74000      3.3087083E-08
   13.80000      3.4568050E-08
   13.86000      3.6074137E-08
   13.92000      3.7600923E-08
   13.98000      3.9145014E-08
   14.04000      4.0700186E-08
   14.10000      4.2253514E-08
   14.16000      4.3782801E-08
   14.22000      4.5256204E-08
   14.28000      4.6634508E-08
   14.34000      4.7875847E-08
   14.40000      4.8941683E-08
   14.46000      4.9802590E-08
   14.52000      5.0442232E-08
   14.58000      5.0858649E-08
   14.64000      5.1062830E-08
   14.70000      5.1075450E-08
   14.76000      5.0922772E-08
   14.82000      5.0632650E-08
   14.88000      5.0230977E-08
   14.94000      4.9738585E-08
   15.00000      4.9168879E-08
   15.06000      4.8526317E-08
   15.12000      4.7806306E-08
   15.18000      4.6996600E-08
   15.24000      4.6079922E-08
   15.30000      4.5037250E-08
   15.36000      4.3851099E-08
   15.42000      4.2508706E-08
   15.48000      4.1005038E-08
   15.54000      3.9345622E-08
   15.60000      3.7548425E-08
   15.66000      3.5643595E-08
   15.72000      3.3669824E-08
   15.78000      3.1667291E-08
   15.84000      2.9668710E-08
   15.90000      2.7691581E-08
   15.96000      2.5734689E-08
   16.02000      2.3780734E-08
   16.08000      2.1804382E-08
   16.14000      1.9782856E-08
   16.20000      1.7705199E-08
   16.26000      1.5577115E-08
   16.32000      1.3420406E-08
   16.38000      1.1268201E-08
   16.44000      9.1585619E-09
   16.50000      7.1289978E-09
   16.56000      5.2132298E-09
   16.62000      3.4400651E-09
   16.68000      1.8331595E-09
   16.74000      4.1027959E-10
   16.80000     -8.1861068E-10
   16.86000     -1.8540244E-09
   16.92000     -2.7090266E-09
   16.98000     -3.4090690E-09
   17.04000     -3.9885344E-09
   17.10000     -4.4842188E-09
   17.16000     -4.9274522E-09
   17.22000     -5.3374811E-09
   17.28000     -5.7185874E-09
   17.34000     -6.0620398E-09
   17.40000     -6.3519612E-09
   17.46000     -6.5724639E-09
   17.52000     -6.7129413E-09
   17.58000     -6.7695058E-09
   17.64000     -6.7426988E-09
   17.70000     -6.6336225E-09
   17.76000     -6.4413475E-09
   17.82000     -6.1634875E-09
   17.88000     -5.7997305E-09
   17.94000     -5.3561426E-09
   18.00000     -4.8474766E-09
   18.06000     -4.2958006E-09
   18.12000     -3.7259080E-09
   18.18000     -3.1598864E-09
   18.24000     -2.6136882E-09
   18.30000     -2.0973943E-09
   18.36000     -1.6187287E-09
   18.42000     -1.1875603E-09
   18.48000     -8.1861029E-10
   18.54000     -5.3060972E-10
   18.60000     -3.4202591E-10
   18.66000     -2.6519775E-10
   18.72000     -3.0141881E-10
   18.78000     -4.3899420E-10
   18.84000     -6.5500844E-10
   18.90000     -9.2012192E-10
   18.96000     -1.2047514E-09
   19.02000     -1.4846782E-09
   19.08000     -1.7444136E-09
   19.14000     -1.9773920E-09
   19.20000     -2.1830637E-09
   19.26000     -2.3620288E-09
   19.32000     -2.5111857E-09
   19.38000     -2.6210512E-09
   19.44000     -2.6767155E-09
   19.50000     -2.6624338E-09
   19.56000     -2.5682301E-09
   19.62000     -2.3958759E-09
   19.68000     -2.1618018E-09
   19.74000     -1.8958519E-09
   19.80000     -1.6366364E-09
   19.86000     -1.4255708E-09
   19.92000     -1.3018905E-09
   19.98000     -1.2999551E-09
   20.04000     -1.4487019E-09
   20.10000     -1.7720373E-09
   20.16000     -2.2888171E-09
   20.22000     -3.0117580E-09
   20.28000     -3.9455994E-09
   20.34000     -5.0854525E-09
   20.40000     -6.4162289E-09
   20.46000     -7.9135640E-09
   20.52000     -9.5460884E-09
   20.58000     -1.1278591E-08
   20.64000     -1.3075564E-08
   20.70000     -1.4904623E-08
   20.76000     -1.6739223E-08
   20.82000     -1.8559978E-08
   20.88000     -2.0354152E-08
   20.94000     -2.2113364E-08
   21.00000     -2.3830422E-08
   21.06000     -2.5496668E-08
   21.12000     -2.7101203E-08
   21.18000     -2.8632401E-08
   21.24000     -3.0081097E-08
   21.30000     -3.1443925E-08
   21.36000     -3.2725477E-08
   21.42000     -3.3938711E-08
   21.48000     -3.5103948E-08
   21.54000     -3.6247496E-08
   21.60000     -3.7400209E-08
   21.66000     -3.8595800E-08
   21.72000     -3.9867640E-08
   21.78000     -4.1243435E-08
   21.84000     -4.2738051E-08
   21.90000     -4.4346500E-08
   21.96000     -4.6039769E-08
   22.02000     -4.7765930E-08
   22.08000     -4.9456940E-08
   22.14000     -5.1039518E-08
   22.20000     -5.2446900E-08
   22.26000     -5.3627939E-08
   22.32000     -5.4551631E-08
   22.38000     -5.5206716E-08
   22.44000     -5.5598047E-08
   22.50000     -5.5741570E-08
   22.56000     -5.5659473E-08
   22.62000     -5.5375878E-08
   22.68000     -5.4912586E-08
   22.74000     -5.4284676E-08
   22.80000     -5.3496382E-08
   22.86000     -5.2538727E-08
   22.92000     -5.1390632E-08
   22.98000     -5.0024401E-08
   23.04000     -4.8414659E-08
   23.10000     -4.6548227E-08
   23.16000     -4.4431410E-08
   23.22000     -4.2091898E-08
   23.28000     -3.9574395E-08
   23.34000     -3.6931489E-08
   23.40000     -3.4212931E-08
   23.46000     -3.1456853E-08
   23.52000     -2.8685344E-08
   23.58000     -2.5904745E-08
   23.64000     -2.3109630E-08
   23.70000     -2.0288436E-08
   23.76000     -1.7429153E-08
   23.82000     -1.4524177E-08
   23.88000     -1.1574040E-08
   23.94000     -8.5897884E-09
   24.00000     -5.5934657E-09
   24.06000     -2.6159950E-09
   24.12000      3.0770744E-10
   24.18000      3.1454246E-09
   24.24000      5.8739360E-09
   24.30000      8.4822842E-09
   24.36000      1.0970188E-08
   24.42000      1.3341739E-08
   24.48000      1.5596662E-08
   24.54000      1.7722748E-08
   24.60000      1.9692768E-08
   24.66000      2.1467377E-08
   24.72000      2.3003080E-08
   24.78000      2.4262354E-08
   24.84000      2.5222374E-08
   24.90000      2.5879604E-08
   24.96000      2.6249252E-08
   25.02000      2.6360329E-08
   25.08000      2.6248275E-08
   25.14000      2.5947264E-08
   25.20000      2.5484006E-08
   25.26000      2.4874014E-08
   25.32000      2.4120672E-08
   25.38000      2.3216845E-08
   25.44000      2.2148390E-08
   25.50000      2.0898543E-08
   25.56000      1.9452072E-08
   25.62000      1.7798103E-08
   25.68000      1.5931027E-08
   25.74000      1.3849470E-08
   25.80000      1.1554021E-08
   25.86000      9.0447774E-09
   25.92000      6.3198602E-09
   25.98000      3.3756562E-09
   26.04000      2.0901021E-10
   26.10000     -3.1790564E-09
   26.16000     -6.7790062E-09
   26.22000     -1.0569024E-08
   26.28000     -1.4513014E-08
   26.34000     -1.8561220E-08
   26.40000     -2.2653689E-08
   26.46000     -2.6726008E-08
   26.52000     -3.0715963E-08
   26.58000     -3.4569418E-08
   26.64000     -3.8243837E-08
   26.70000     -4.1708756E-08
   26.76000     -4.4943448E-08
   26.82000     -4.7933025E-08
   26.88000     -5.0664479E-08
   26.94000     -5.3123980E-08
   27.00000     -5.5295729E-08
   27.06000     -5.7162080E-08
   27.12000     -5.8704067E-08
   27.18000     -5.9901886E-08
   27.24000     -6.0735431E-08
   27.30000     -6.1185553E-08
   27.36000     -6.1236889E-08
   27.42000     -6.0882186E-08
   27.48000     -6.0127242E-08
   27.54000     -5.8994782E-08
   27.60000     -5.7525188E-08
   27.66000     -5.5773171E-08
   27.72000     -5.3800555E-08
   27.78000     -5.1666984E-08
   27.84000     -4.9421004E-08
   27.90000     -4.7094012E-08
   27.96000     -4.4698353E-08
   28.02000     -4.2229747E-08
   28.08000     -3.9672884E-08
   28.14000     -3.7008515E-08
   28.20000     -3.4220339E-08
   28.26000     -3.1300342E-08
   28.32000     -2.8252085E-08
   28.38000     -2.5091692E-08
   28.44000     -2.1846962E-08
   28.50000     -1.8554951E-08
   28.56000     -1.5258658E-08
   28.62000     -1.2003199E-08
   28.68000     -8.8319556E-09
   28.74000     -5.7830065E-09
   28.80000     -2.8862002E-09
   28.86000     -1.6117319E-10
   28.92000      2.3834681E-09
   28.98000      4.7496864E-09
   29.04000      6.9483761E-09
   29.10000      8.9967855E-09
   29.16000      1.0915315E-08
   29.22000      1.2723960E-08
   29.28000      1.4438638E-08
   29.34000      1.6067704E-08
   29.40000      1.7609139E-08
   29.46000      1.9049125E-08
   29.52000      2.0362704E-08
   29.58000      2.1516799E-08
   29.64000      2.2475144E-08
   29.70000      2.3203924E-08
   29.76000      2.3676533E-08
   29.82000      2.3876137E-08
   29.88000      2.3795698E-08
   29.94000      2.3436037E-08
   30.00000      2.2803301E-08
   30.06000      2.1907086E-08
   30.12000      2.0759789E-08
   30.18000      1.9376930E-08
   30.24000      1.7777621E-08
   30.30000      1.5984405E-08
   30.36000      1.4022285E-08
   30.42000      1.1917247E-08
   30.48000      9.6949746E-09
   30.54000      7.3801782E-09
   30.60000      4.9965685E-09
   30.66000      2.5671658E-09
   30.72000      1.1456819E-10
   30.78000     -2.3389592E-09
   30.84000     -4.7714841E-09
   30.90000     -7.1613848E-09
   30.96000     -9.4874135E-09
   31.02000     -1.1729183E-08
   31.08000     -1.3868361E-08
   31.14000     -1.5890420E-08
   31.20000     -1.7786181E-08
   31.26000     -1.9552012E-08
   31.32000     -2.1187782E-08
   31.38000     -2.2692657E-08
   31.44000     -2.4060014E-08
   31.50000     -2.5273645E-08
   31.56000     -2.6307420E-08
   31.62000     -2.7129468E-08
   31.68000     -2.7710200E-08
   31.74000     -2.8031788E-08
   31.80000     -2.8095995E-08
   31.86000     -2.7927619E-08
   31.92000     -2.7572426E-08
   31.98000     -2.7090335E-08
   32.04000     -2.6546209E-08
   32.10000     -2.6001160E-08
   32.16000     -2.5506651E-08
   32.22000     -2.5102436E-08
   32.28000     -2.4817796E-08
   32.34000     -2.4674607E-08
   32.40000     -2.4690493E-08
   32.46000     -2.4880682E-08
   32.52000     -2.5257995E-08
   32.58000     -2.5831133E-08
   32.64000     -2.6601979E-08
   32.70000     -2.7562930E-08
   32.76000     -2.8695272E-08
   32.82000     -2.9969463E-08
   32.88000     -3.1347742E-08
   32.94000     -3.2788769E-08
   33.00000     -3.4253180E-08
   33.06000     -3.5708307E-08
   33.12000     -3.7130196E-08
   33.18000     -3.8501760E-08
   33.24000     -3.9807407E-08
   33.30000     -4.1025967E-08
   33.36000     -4.2124785E-08
   33.42000     -4.3057877E-08
   33.48000     -4.3769550E-08
   33.54000     -4.4203016E-08
   33.60000     -4.4311399E-08
   33.66000     -4.4067622E-08
   33.72000     -4.3469999E-08
   33.78000     -4.2541888E-08
   33.84000     -4.1325801E-08
   33.90000     -3.9874219E-08
   33.96000     -3.8239836E-08
   34.02000     -3.6468006E-08
   34.08000     -3.4592780E-08
   34.14000     -3.2636891E-08
   34.20000     -3.0614878E-08
   34.26000     -2.8538194E-08
   34.32000     -2.6420834E-08
   34.38000     -2.4284104E-08
   34.44000     -2.2159277E-08
   34.50000     -2.0087020E-08
   34.56000     -1.8113187E-08
   34.62000     -1.6281632E-08
   34.68000     -1.4625867E-08
   34.74000     -1.3162405E-08
   34.80000     -1.1888483E-08
   34.86000     -1.0785591E-08
   34.92000     -9.8280477E-09
   34.98000     -8.9936281E-09
   35.04000     -8.2721341E-09
   35.10000     -7.6683886E-09
   35.16000     -7.1983450E-09
   35.22000     -6.8798625E-09
   35.28000     -6.7219479E-09
   35.34000     -6.7167822E-09
   35.40000     -6.8375883E-09
   35.46000     -7.0428676E-09
   35.52000     -7.2851005E-09
   35.58000     -7.5205575E-09
   35.64000     -7.7169764E-09
   35.70000     -7.8571443E-09
   35.76000     -7.9381550E-09
   35.82000     -7.9675644E-09
   35.88000     -7.9582971E-09
   35.94000     -7.9240978E-09
   36.00000     -7.8767108E-09
   36.06000     -7.8252054E-09
   36.12000     -7.7771141E-09
   36.18000     -7.7405300E-09
   36.24000     -7.7260802E-09
   36.30000     -7.7478086E-09
   36.36000     -7.8224467E-09
   36.42000     -7.9671620E-09
   36.48000     -8.1964036E-09
   36.54000     -8.5186587E-09
   36.60000     -8.9338776E-09
   36.66000     -9.4320214E-09
   36.72000     -9.9929212E-09
   36.78000     -1.0587575E-08
   36.84000     -1.1180877E-08
   36.90000     -1.1735647E-08
   36.96000     -1.2217429E-08
   37.02000     -1.2599081E-08
   37.08000     -1.2864013E-08
   37.14000     -1.3007173E-08
   37.20000     -1.3033679E-08
   37.26000     -1.2955763E-08
   37.32000     -1.2789251E-08
   37.38000     -1.2550581E-08
   37.44000     -1.2254824E-08
   37.50000     -1.1914516E-08
   37.56000     -1.1539004E-08
   37.62000     -1.1134293E-08
   37.68000     -1.0703930E-08
   37.74000     -1.0251521E-08
   37.80000     -9.7848813E-09
   37.86000     -9.3207158E-09
   37.92000     -8.8877954E-09
   37.98000     -8.5265466E-09
   38.04000     -8.2840899E-09
   38.10000     -8.2055589E-09
   38.16000     -8.3242471E-09
   38.22000     -8.6537719E-09
   38.28000     -9.1848049E-09
   38.34000     -9.8872137E-09
   38.40000     -1.0716625E-08
   38.46000     -1.1623142E-08
   38.52000     -1.2559736E-08
   38.58000     -1.3488509E-08
   38.64000     -1.4384050E-08
   38.70000     -1.5234120E-08
   38.76000     -1.6038349E-08
   38.82000     -1.6805753E-08
   38.88000     -1.7551715E-08
   38.94000     -1.8294925E-08
   39.00000     -1.9054623E-08
   39.06000     -1.9848423E-08
   39.12000     -2.0690930E-08
   39.18000     -2.1593204E-08
   39.24000     -2.2562883E-08
   39.30000     -2.3604624E-08
   39.36000     -2.4720357E-08
   39.42000     -2.5908985E-08
   39.48000     -2.7165374E-08
   39.54000     -2.8478908E-08
   39.60000     -2.9832332E-08
   39.66000     -3.1201733E-08
   39.72000     -3.2558383E-08
   39.78000     -3.3872485E-08
   39.84000     -3.5118095E-08
   39.90000     -3.6277719E-08
   39.96000     -3.7344989E-08
   40.02000     -3.8324178E-08
   40.08000     -3.9226382E-08
   40.14000     -4.0063338E-08
   40.20000     -4.0840721E-08
   40.26000     -4.1553072E-08
   40.32000     -4.2182037E-08
   40.38000     -4.2698726E-08
   40.44000     -4.3069758E-08
   40.50000     -4.3265544E-08
   40.56000     -4.3268638E-08
   40.62000     -4.3079684E-08
   40.68000     -4.2719112E-08
   40.74000     -4.2223636E-08
   40.80000     -4.1638312E-08
   40.86000     -4.1006327E-08
   40.92000     -4.0359609E-08
   40.98000     -3.9713292E-08
   41.04000     -3.9065515E-08
   41.10000     -3.8402273E-08
   41.16000     -3.7704929E-08
   41.22000     -3.6957285E-08
   41.28000     -3.6149647E-08
   41.34000     -3.5278955E-08
   41.40000     -3.4346108E-08
   41.46000     -3.3352773E-08
   41.52000     -3.2299983E-08
   41.58000     -3.1189494E-08
   41.64000     -3.0027230E-08
   41.70000     -2.8826898E-08
   41.76000     -2.7611605E-08
   41.82000     -2.6412435E-08
   41.88000     -2.5264111E-08
   41.94000     -2.4199261E-08
   42.00000     -2.3242990E-08
   42.06000     -2.2409285E-08
   42.12000     -2.1699858E-08
   42.18000     -2.1105384E-08
   42.24000     -2.0608676E-08
   42.30000     -2.0189141E-08
   42.36000     -1.9827816E-08
   42.42000     -1.9511948E-08
   42.48000     -1.9237984E-08
   42.54000     -1.9011768E-08
   42.60000     -1.8845535E-08
   42.66000     -1.8752294E-08
   42.72000     -1.8739447E-08
   42.78000     -1.8804062E-08
   42.84000     -1.8931875E-08
   42.90000     -1.9100685E-08
   42.96000     -1.9287112E-08
   43.02000     -1.9474234E-08
   43.08000     -1.9657334E-08
   43.14000     -1.9845825E-08
   43.20000     -2.0060993E-08
   43.26000     -2.0330720E-08
   43.32000     -2.0683229E-08
   43.38000     -2.1141700E-08
   43.44000     -2.1720858E-08
   43.50000     -2.2425638E-08
   43.56000     -2.3251431E-08
   43.62000     -2.4185391E-08
   43.68000     -2.5208493E-08
   43.74000     -2.6298242E-08
   43.80000     -2.7431895E-08
   43.86000     -2.8589630E-08
   43.92000     -2.9756794E-08
   43.98000     -3.0924269E-08
   44.04000     -3.2086604E-08
   44.10000     -3.3238354E-08
   44.16000     -3.4370007E-08
   44.22000     -3.5465341E-08
   44.28000     -3.6501692E-08
   44.34000     -3.7453827E-08
   44.40000     -3.8300595E-08
   44.46000     -3.9032521E-08
   44.52000     -3.9657685E-08
   44.58000     -4.0203521E-08
   44.64000     -4.0713239E-08
   44.70000     -4.1237190E-08
   44.76000     -4.1821398E-08
   44.82000     -4.2496527E-08
   44.88000     -4.3270859E-08
   44.94000     -4.4129660E-08
   45.00000     -4.5041325E-08
   45.06000     -4.5968648E-08
   45.12000     -4.6881812E-08
   45.18000     -4.7769596E-08
   45.24000     -4.8646069E-08
   45.30000     -4.9551854E-08
   45.36000     -5.0550753E-08
   45.42000     -5.1723557E-08
   45.48000     -5.3161330E-08
   45.54000     -5.4959816E-08
   45.60000     -5.7216063E-08
   45.66000     -6.0027645E-08
   45.72000     -6.3494305E-08
   45.78000     -6.7721558E-08
   45.84000     -7.2825493E-08
   45.90000     -7.8938157E-08
   45.96000     -8.6212594E-08
   46.02000     -9.4827854E-08
   46.08000     -1.0499394E-07
   46.14000     -1.1695738E-07
   46.20000     -1.3100795E-07
   46.26000     -1.4748645E-07
   46.32000     -1.6679289E-07
   46.38000     -1.8939457E-07
   46.44000     -2.1583321E-07
   46.50000     -2.4673136E-07
   46.56000     -2.8279808E-07
   46.62000     -3.2483456E-07
   46.68000     -3.7373951E-07
   46.74000     -4.3051514E-07
   46.80000     -4.9627448E-07
   46.86000     -5.7225009E-07
   46.92000     -6.5980674E-07
   46.98000     -7.6045654E-07
   47.04000     -8.7587807E-07
   47.10000     -1.0079359E-06
   47.16000     -1.1586992E-06
   47.22000     -1.3304594E-06
   47.28000     -1.5257441E-06
   47.34000     -1.7473313E-06
   47.40000     -1.9982638E-06
   47.46000     -2.2818631E-06
   47.52000     -2.6017440E-06
   47.58000     -2.9618282E-06
   47.64000     -3.3663543E-06
   47.70000     -3.8198873E-06
   47.76000     -4.3273258E-06
   47.82000     -4.8939119E-06
   47.88000     -5.5252394E-06
   47.94000     -6.2272638E-06
   48.00000     -7.0063015E-06
   48.06000     -7.8690291E-06
   48.12000     -8.8224733E-06
   48.18000     -9.8739947E-06
   48.24000     -1.1031273E-05
   48.30000     -1.2302276E-05
   48.36000     -1.3695249E-05
   48.42000     -1.5218672E-05
   48.48000     -1.6881244E-05
   48.54000     -1.8691841E-05
   48.60000     -2.0659465E-05
   48.66000     -2.2793207E-05
   48.72000     -2.5102165E-05
   48.78000     -2.7595386E-05
   48.84000     -3.0281792E-05
   48.90000     -3.3170094E-05
   48.96000     -3.6268702E-05
   49.02000     -3.9585655E-05
   49.08000     -4.3128508E-05
   49.14000     -4.6904242E-05
   49.20000     -5.0919181E-05
   49.26000     -5.5178858E-05
   49.32000     -5.9687965E-05
   49.38000     -6.4450236E-05
   49.44000     -6.9468340E-05
   49.50000     -7.4743817E-05
   49.56000     -8.0276957E-05
   49.62000     -8.6066662E-05
   49.68000     -9.2110451E-05
   49.74000     -9.8404322E-05
   49.80000     -1.0494277E-04
   49.86000     -1.1171874E-04
   49.92000     -1.1872360E-04
   49.98000     -1.2594703E-04
   50.04000     -1.3337712E-04
   50.10000     -1.4100026E-04
   50.16000     -1.4880128E-04
   50.22000     -1.5676350E-04
   50.28000     -1.6486872E-04
   50.34000     -1.7309740E-04
   50.40000     -1.8142867E-04
   50.46000     -1.8984046E-04
   50.52000     -1.9830967E-04
   50.58000     -2.0681231E-04
   50.64000     -2.1532367E-04
   50.70000     -2.2381860E-04
   50.76000     -2.3227162E-04
   50.82000     -2.4065729E-04
   50.88000     -2.4895027E-04
   50.94000     -2.5712553E-04
   51.00000     -2.6515865E-04
   51.06000     -2.7302594E-04
   51.12000     -2.8070490E-04
   51.18000     -2.8817446E-04
   51.24000     -2.9541506E-04
   51.30000     -3.0240897E-04
   51.36000     -3.0914045E-04
   51.42000     -3.1559583E-04
   51.48000     -3.2176374E-04
   51.54000     -3.2763532E-04
   51.60000     -3.3320431E-04
   51.66000     -3.3846719E-04
   51.72000     -3.4342328E-04
   51.78000     -3.4807462E-04
   51.84000     -3.5242611E-04
   51.90000     -3.5648537E-04
   51.96000     -3.6026261E-04
   52.02000     -3.6377081E-04
   52.08000     -3.6702544E-04
   52.14000     -3.7004432E-04
   52.20000     -3.7284734E-04
   52.26000     -3.7545623E-04
   52.32000     -3.7789447E-04
   52.38000     -3.8018680E-04
   52.44000     -3.8235914E-04
   52.50000     -3.8443811E-04
   52.56000     -3.8645091E-04
   52.62000     -3.8842481E-04
   52.68000     -3.9038691E-04
   52.74000     -3.9236393E-04
   52.80000     -3.9438179E-04
   52.86000     -3.9646524E-04
   52.92000     -3.9863749E-04
   52.98000     -4.0091999E-04
   53.04000     -4.0333203E-04
   53.10000     -4.0589078E-04
   53.16000     -4.0861091E-04
   53.22000     -4.1150453E-04
   53.28000     -4.1458092E-04
   53.34000     -4.1784643E-04
   53.40000     -4.2130428E-04
   53.46000     -4.2495457E-04
   53.52000     -4.2879445E-04
   53.58000     -4.3281817E-04
   53.64000     -4.3701706E-04
   53.70000     -4.4137987E-04
   53.76000     -4.4589260E-04
   53.82000     -4.5053873E-04
   53.88000     -4.5529977E-04
   53.94000     -4.6015528E-04
   54.00000     -4.6508334E-04
   54.06000     -4.7006080E-04
   54.12000     -4.7506328E-04
   54.18000     -4.8006562E-04
   54.24000     -4.8504211E-04
   54.30000     -4.8996706E-04
   54.36000     -4.9481512E-04
   54.42000     -4.9956166E-04
   54.48000     -5.0418335E-04
   54.54000     -5.0865795E-04
   54.60000     -5.1296473E-04
   54.66000     -5.1708473E-04
   54.72000     -5.2100042E-04
   54.78000     -5.2469689E-04
   54.84000     -5.2816136E-04
   54.90000     -5.3138362E-04
   54.96000     -5.3435616E-04
   55.02000     -5.3707388E-04
   55.08000     -5.3953426E-04
   55.14000     -5.4173713E-04
   55.20000     -5.4368470E-04
   55.26000     -5.4538151E-04
   55.32000     -5.4683437E-04
   55.38000     -5.4805196E-04
   55.44000     -5.4904504E-04
   55.50000     -5.4982590E-04
   55.56000     -5.5040786E-04