  -2.400000      0.0000000E+00
  -2.340000      0.0000000E+00
  -2.280000      0.0000000E+00
  -2.220000      0.0000000E+00
  -2.160000      0.0000000E+00
  -2.100000     -1.5345533E-20
  -2.040000     -1.5457926E-19
  -1.980000     -7.8607615E-19
  -1.920000     -2.6279929E-18
  -1.860000     -6.2482940E-18
  -1.800000     -1.0323758E-17
  -1.740000     -8.7246495E-18
  -1.680000      1.1596364E-17
  -1.620000      6.7651258E-17
  -1.560000      1.6780043E-16
  -1.500000      2.8921111E-16
  -1.440000      3.5481514E-16
  -1.380000      2.3028354E-16
  -1.320000     -2.3474134E-16
  -1.260000     -1.1102184E-15
  -1.200000     -2.2565117E-15
  -1.140000     -3.2275892E-15
  -1.080000     -3.2987688E-15
  -1.020000     -1.6926348E-15
 -0.9600000      2.0031080E-15
 -0.9000000      7.3563278E-15
 -0.8400000      1.2793919E-14
 -0.7800000      1.5759416E-14
 -0.7200000      1.3478781E-14
 -0.6600000      4.2289789E-15
 -0.6000000     -1.1310781E-14
 -0.5400000     -2.9264389E-14
 -0.4800000     -4.2931651E-14
 -0.4200000     -4.4595139E-14
 -0.3600000     -2.8444308E-14
 -0.3000000      6.3015728E-15
 -0.2400000      5.3326084E-14
 -0.1800000      9.9312980E-14
 -0.1200000      1.2666733E-13
 -5.9999999E-02  1.1837773E-13
  0.0000000E+00  6.3681529E-14
  5.9999999E-02 -3.7197015E-14
  0.1200000     -1.7070648E-13
  0.1800000     -3.1070077E-13
  0.2400000     -4.2196381E-13
  0.3000000     -4.6559572E-13
  0.3600000     -4.0528366E-13
  0.4200000     -2.1399244E-13
  0.4800000      1.1874564E-13
  0.5400000      5.7857939E-13
  0.6000000      1.1175162E-12
  0.6600000      1.6466160E-12
  0.7200000      2.0343464E-12
  0.7800000      2.1160864E-12
  0.8400000      1.7197019E-12
  0.9000000      7.0888819E-13
  0.9600000     -9.5985709E-13
   1.020000     -3.1779820E-12
   1.080000     -5.6411169E-12
   1.140000     -7.8415772E-12
   1.200000     -9.1151817E-12
   1.260000     -8.7508906E-12
   1.320000     -6.1562647E-12
   1.380000     -1.0532764E-12
   1.440000      6.3377350E-12
   1.500000      1.5177668E-11
   1.560000      2.4001377E-11
   1.620000      3.0857063E-11
   1.680000      3.3597760E-11
   1.740000      3.0294947E-11
   1.800000      1.9709925E-11
   1.860000      1.7335620E-12
   1.920000     -2.2303603E-11
   1.980000     -4.9537208E-11
   2.040000     -7.5746312E-11
   2.100000     -9.5812608E-11
   2.160000     -1.0442096E-10
   2.220000     -9.6913595E-11
   2.280000     -7.0175483E-11
   2.340000     -2.3414146E-11
   2.400000      4.1293677E-11
   2.460000      1.1878226E-10
   2.520000      2.0094638E-10
   2.580000      2.7724043E-10
   2.640000      3.3545031E-10
   2.700000      3.6262010E-10
   2.760000      3.4600062E-10
   2.820000      2.7390012E-10
   2.880000      1.3635540E-10
   2.940000     -7.4411630E-11
   3.000000     -3.6374190E-10
   3.060000     -7.3445217E-10
   3.120000     -1.1868593E-09
   3.180000     -1.7188657E-09
   3.240000     -2.3260596E-09
   3.300000     -3.0017859E-09
   3.360000     -3.7371506E-09
   3.420000     -4.5209236E-09
   3.480000     -5.3393401E-09
   3.540000     -6.1758456E-09
   3.600000     -7.0109043E-09
   3.660000     -7.8220372E-09
   3.720000     -8.5842995E-09
   3.780000     -9.2713330E-09
   3.840000     -9.8570148E-09
   3.900000     -1.0317578E-08
   3.960000     -1.0633864E-08
   4.020000     -1.0793307E-08
   4.080000     -1.0791243E-08
   4.140000     -1.0631253E-08
   4.200000     -1.0324527E-08
   4.260000     -9.8884003E-09
   4.320000     -9.3444514E-09
   4.380000     -8.7165697E-09
   4.440000     -8.0293194E-09
   4.500000     -7.3067197E-09
   4.560000     -6.5713617E-09
   4.620000     -5.8436482E-09
   4.680000     -5.1409033E-09
   4.740000     -4.4762247E-09
   4.800000     -3.8571506E-09
   4.860000     -3.2844187E-09
   4.920000     -2.7512135E-09
   4.980000     -2.2433069E-09
   5.040000     -1.7403461E-09
   5.100000     -1.2183143E-09
   5.160000     -6.5291345E-10
   5.220000     -2.3373118E-11
   5.280000      6.8395084E-10
   5.340000      1.4728707E-09
   5.400000      2.3361371E-09
   5.460000      3.2560570E-09
   5.520000      4.2070130E-09
   5.580000      5.1595626E-09
   5.640000      6.0854153E-09
   5.700000      6.9623165E-09
   5.760000      7.7777624E-09
   5.820000      8.5306455E-09
   5.880000      9.2303765E-09
   5.940000      9.8936388E-09
   6.000000      1.0539577E-08
   6.060000      1.1184711E-08
   6.120000      1.1838978E-08
   6.180000      1.2503965E-08
   6.240000      1.3173795E-08
   6.300000      1.3838275E-08
   6.360000      1.4487259E-08
   6.420000      1.5114818E-08
   6.480000      1.5721929E-08
   6.540000      1.6316909E-08
   6.600000      1.6913512E-08
   6.660000      1.7527272E-08
   6.720000      1.8171107E-08
   6.780000      1.8851283E-08
   6.840000      1.9564613E-08
   6.900000      2.0297476E-08
   6.960000      2.1026766E-08
   7.020000      2.1722702E-08
   7.080000      2.2353028E-08
   7.140000      2.2888109E-08
   7.200000      2.3306102E-08
   7.260000      2.3597241E-08
   7.320000      2.3766196E-08
   7.380000      2.3831612E-08
   7.440000      2.3822414E-08
   7.500000      2.3771115E-08
   7.560000      2.3705379E-08
   7.620000      2.3639682E-08
   7.680000      2.3569431E-08
   7.740000      2.3469479E-08
   7.800000      2.3298178E-08
   7.860000      2.3006656E-08
   7.920000      2.2551562E-08
   7.980000      2.1908271E-08
   8.040000      2.1081142E-08
   8.100000      2.0107853E-08
   8.160000      1.9056168E-08
   8.220000      1.8013404E-08
   8.280000      1.7070763E-08
   8.340000      1.6306092E-08
   8.400000      1.5769208E-08
   8.460000      1.5473249E-08
   8.520000      1.5394127E-08
   8.580000      1.5478124E-08
   8.640000      1.5655752E-08
   8.700000      1.5858566E-08
   8.760000      1.6035006E-08
   8.820000      1.6161717E-08
   8.880000      1.6247927E-08
   8.940000      1.6332008E-08
   9.000000      1.6471207E-08
   9.060000      1.6726927E-08
   9.120000      1.7148981E-08
   9.180000      1.7762453E-08
   9.240000      1.8560254E-08
   9.300000      1.9503123E-08
   9.360000      2.0527111E-08
   9.420000      2.1556666E-08
   9.480000      2.2520023E-08
   9.540000      2.3362904E-08
   9.600000      2.4056996E-08
   9.660000      2.4601073E-08
   9.720000      2.5014748E-08
   9.780000      2.5327001E-08
   9.840000      2.5563176E-08
   9.900000      2.5734584E-08
   9.960000      2.5834035E-08
   10.02000      2.5838697E-08
   10.08000      2.5719300E-08
   10.14000      2.5452660E-08
   10.20000      2.5033282E-08
   10.26000      2.4480128E-08
   10.32000      2.3835998E-08
   10.38000      2.3159391E-08
   10.44000      2.2511012E-08
   10.50000      2.1938835E-08
   10.56000      2.1466077E-08
   10.62000      2.1085681E-08
   10.68000      2.0762892E-08
   10.74000      2.0445205E-08
   10.80000      2.0076778E-08
   10.86000      1.9613209E-08
   10.92000      1.9032445E-08
   10.98000      1.8338785E-08
   11.04000      1.7558950E-08
   11.10000      1.6731443E-08
   11.16000      1.5892445E-08
   11.22000      1.5062547E-08
   11.28000      1.4238459E-08
   11.34000      1.3392487E-08
   11.40000      1.2480275E-08
   11.46000      1.1454833E-08
   11.52000      1.0282736E-08
   11.58000      8.9575707E-09
   11.64000      7.5062374E-09
   11.70000      5.9857421E-09
   11.76000      4.4709494E-09
   11.82000      3.0365124E-09
   11.88000      1.7380561E-09
   11.94000      5.9797101E-10
   12.00000     -4.0014941E-10
   12.06000     -1.3068973E-09
   12.12000     -2.1936395E-09
   12.18000     -3.1340612E-09
   12.24000     -4.1856238E-09
   12.30000     -5.3756835E-09
   12.36000     -6.6955286E-09
   12.42000     -8.1033926E-09
   12.48000     -9.5351886E-09
   12.54000     -1.0919917E-08
   12.60000     -1.2195770E-08
   12.66000     -1.3323080E-08
   12.72000     -1.4291253E-08
   12.78000     -1.5118427E-08
   12.84000     -1.5844476E-08
   12.90000     -1.6519408E-08
   12.96000     -1.7190324E-08
   13.02000     -1.7890136E-08
   13.08000     -1.8630624E-08
   13.14000     -1.9401197E-08
   13.20000     -2.0173099E-08
   13.26000     -2.0907608E-08
   13.32000     -2.1565718E-08
   13.38000     -2.2116838E-08
   13.44000     -2.2544315E-08
   13.50000     -2.2846777E-08
   13.56000     -2.3035374E-08
   13.62000     -2.3128115E-08
   13.68000     -2.3143148E-08
   13.74000     -2.3093017E-08
   13.80000     -2.2981473E-08
   13.86000     -2.2803592E-08
   13.92000     -2.2548932E-08
   13.98000     -2.2206544E-08
   14.04000     -2.1770104E-08
   14.10000     -2.1241442E-08
   14.16000     -2.0631289E-08
   14.22000     -1.9957032E-08
   14.28000     -1.9238344E-08
   14.34000     -1.8492361E-08
   14.40000     -1.7730281E-08
   14.46000     -1.6956875E-08
   14.52000     -1.6173258E-08
   14.58000     -1.5381987E-08
   14.64000     -1.4592541E-08
   14.70000     -1.3824747E-08
   14.76000     -1.3108314E-08
   14.82000     -1.2477911E-08
   14.88000     -1.1964852E-08
   14.94000     -1.1587888E-08
   15.00000     -1.1346221E-08
   15.06000     -1.1217376E-08
   15.12000     -1.1161182E-08
   15.18000     -1.1129177E-08
   15.24000     -1.1076999E-08
   15.30000     -1.0976271E-08
   15.36000     -1.0822521E-08
   15.42000     -1.0636691E-08
   15.48000     -1.0459632E-08
   15.54000     -1.0340845E-08
   15.60000     -1.0324408E-08
   15.66000     -1.0435826E-08
   15.72000     -1.0673403E-08
   15.78000     -1.1006586E-08
   15.84000     -1.1381988E-08
   15.90000     -1.1735652E-08
   15.96000     -1.2008420E-08
   16.02000     -1.2160273E-08
   16.08000     -1.2179708E-08
   16.14000     -1.2085538E-08
   16.20000     -1.1920632E-08
   16.26000     -1.1739401E-08
   16.32000     -1.1592646E-08
   16.38000     -1.1513976E-08
   16.44000     -1.1511528E-08
   16.50000     -1.1566947E-08
   16.56000     -1.1641579E-08
   16.62000     -1.1687757E-08
   16.68000     -1.1661904E-08
   16.74000     -1.1535877E-08
   16.80000     -1.1303681E-08
   16.86000     -1.0982057E-08
   16.92000     -1.0605063E-08
   16.98000     -1.0214278E-08
   17.04000     -9.8473798E-09
   17.10000     -9.5281427E-09
   17.16000     -9.2606163E-09
   17.22000     -9.0290442E-09
   17.28000     -8.8035286E-09
   17.34000     -8.5497911E-09
   17.40000     -8.2401410E-09
   17.46000     -7.8623854E-09
   17.52000     -7.4240827E-09
   17.58000     -6.9509567E-09
   17.64000     -6.4801524E-09
   17.70000     -6.0505645E-09
   17.76000     -5.6932610E-09
   17.82000     -5.4247895E-09
   17.88000     -5.2450826E-09
   17.94000     -5.1400906E-09
   18.00000     -5.0878364E-09
   18.06000     -5.0656399E-09
   18.12000     -5.0561342E-09
   18.18000     -5.0503082E-09
   18.24000     -5.0469033E-09
   18.30000     -5.0487690E-09
   18.36000     -5.0577760E-09
   18.42000     -5.0703752E-09
   18.48000     -5.0757198E-09
   18.54000     -5.0574012E-09
   18.60000     -4.9986015E-09
   18.66000     -4.8891104E-09
   18.72000     -4.7317319E-09
   18.78000     -4.5454067E-09
   18.84000     -4.3631623E-09
   18.90000     -4.2245802E-09
   18.96000     -4.1643697E-09
   19.02000     -4.2002806E-09
   19.08000     -4.3242521E-09
   19.14000     -4.5001021E-09
   19.20000     -4.6692623E-09
   19.26000     -4.7635718E-09
   19.32000     -4.7217950E-09
   19.38000     -4.5051070E-09
   19.44000     -4.1068429E-09
   19.50000     -3.5533700E-09
   19.56000     -2.8955378E-09
   19.62000     -2.1929942E-09
   19.68000     -1.4958562E-09
   19.74000     -8.2906948E-10
   19.80000     -1.8409366E-10
   19.86000      4.7952498E-10
   19.92000      1.2229432E-09
   19.98000      2.1101805E-09
   20.04000      3.1885967E-09
   20.10000      4.4732018E-09
   20.16000      5.9393819E-09
   20.22000      7.5263769E-09
   20.28000      9.1509191E-09
   20.34000      1.0727600E-08
   20.40000      1.2190569E-08
   20.46000      1.3510639E-08
   20.52000      1.4703056E-08
   20.58000      1.5823604E-08
   20.64000      1.6953933E-08
   20.70000      1.8179856E-08
   20.76000      1.9568274E-08
   20.82000      2.1148695E-08
   20.88000      2.2903942E-08
   20.94000      2.4772289E-08
   21.00000      2.6660180E-08
   21.06000      2.8462210E-08
   21.12000      3.0083271E-08
   21.18000      3.1457567E-08
   21.24000      3.2560127E-08
   21.30000      3.3408316E-08
   21.36000      3.4053514E-08
   21.42000      3.4565161E-08
   21.48000      3.5011443E-08
   21.54000      3.5441314E-08
   21.60000      3.5872318E-08
   21.66000      3.6287044E-08
   21.72000      3.6638795E-08
   21.78000      3.6864655E-08
   21.84000      3.6902257E-08
   21.90000      3.6705533E-08
   21.96000      3.6255162E-08
   22.02000      3.5560944E-08
   22.08000      3.4655706E-08
   22.14000      3.3582783E-08
   22.20000      3.2380996E-08
   22.26000      3.1071700E-08
   22.32000      2.9651950E-08
   22.38000      2.8095744E-08
   22.44000      2.6362940E-08
   22.50000      2.4412881E-08
   22.56000      2.2218373E-08
   22.62000      1.9775451E-08
   22.68000      1.7105757E-08
   22.74000      1.4250816E-08
   22.80000      1.1260123E-08
   22.86000      8.1770253E-09
   22.92000      5.0270552E-09
   22.98000      1.8125270E-09
   23.04000     -1.4848912E-09
   23.10000     -4.8945559E-09
   23.16000     -8.4433101E-09
   23.22000     -1.2142350E-08
   23.28000     -1.5978552E-08
   23.34000     -1.9912854E-08
   23.40000     -2.3886138E-08
   23.46000     -2.7830804E-08
   23.52000     -3.1684667E-08
   23.58000     -3.5403215E-08
   23.64000     -3.8966693E-08
   23.70000     -4.2380041E-08
   23.76000     -4.5665676E-08
   23.82000     -4.8851216E-08
   23.88000     -5.1955748E-08
   23.94000     -5.4978841E-08
   24.00000     -5.7895818E-08
   24.06000     -6.0660923E-08
   24.12000     -6.3217755E-08
   24.18000     -6.5513809E-08
   24.24000     -6.7514847E-08
   24.30000     -6.9214330E-08
   24.36000     -7.0635075E-08
   24.42000     -7.1822377E-08
   24.48000     -7.2830503E-08
   24.54000     -7.3706609E-08
   24.60000     -7.4476702E-08
   24.66000     -7.5137507E-08
   24.72000     -7.5656459E-08
   24.78000     -7.5979351E-08
   24.84000     -7.6043570E-08
   24.90000     -7.5793054E-08
   24.96000     -7.5191444E-08
   25.02000     -7.4230194E-08
   25.08000     -7.2930128E-08
   25.14000     -7.1336565E-08
   25.20000     -6.9509632E-08
   25.26000     -6.7512310E-08
   25.32000     -6.5399426E-08
   25.38000     -6.3209967E-08
   25.44000     -6.0964496E-08
   25.50000     -5.8667940E-08
   25.56000     -5.6316392E-08
   25.62000     -5.3905882E-08
   25.68000     -5.1440313E-08
   25.74000     -4.8936354E-08
   25.80000     -4.6424020E-08
   25.86000     -4.3943075E-08
   25.92000     -4.1536566E-08
   25.98000     -3.9243673E-08
   26.04000     -3.7093873E-08
   26.10000     -3.5103909E-08
   26.16000     -3.3277935E-08
   26.22000     -3.1610259E-08
   26.28000     -3.0089389E-08
   26.34000     -2.8701967E-08
   26.40000     -2.7435579E-08
   26.46000     -2.6279999E-08
   26.52000     -2.5227118E-08
   26.58000     -2.4270298E-08
   26.64000     -2.3403944E-08
   26.70000     -2.2623890E-08
   26.76000     -2.1928811E-08
   26.82000     -2.1322304E-08
   26.88000     -2.0814962E-08
   26.94000     -2.0425583E-08
   27.00000     -2.0180813E-08
   27.06000     -2.0112971E-08
   27.12000     -2.0256298E-08
   27.18000     -2.0642425E-08
   27.24000     -2.1296064E-08
   27.30000     -2.2231898E-08
   27.36000     -2.3453216E-08
   27.42000     -2.4952270E-08
   27.48000     -2.6711872E-08
   27.54000     -2.8707454E-08
   27.60000     -3.0908925E-08
   27.66000     -3.3282102E-08
   27.72000     -3.5789796E-08
   27.78000     -3.8393065E-08
   27.84000     -4.1053031E-08
   27.90000     -4.3733412E-08
   27.96000     -4.6403340E-08
   28.02000     -4.9039798E-08
   28.08000     -5.1628646E-08
   28.14000     -5.4163781E-08
   28.20000     -5.6644200E-08
   28.26000     -5.9069716E-08
   28.32000     -6.1436445E-08
   28.38000     -6.3733459E-08
   28.44000     -6.5941748E-08
   28.50000     -6.8035980E-08
   28.56000     -6.9988609E-08
   28.62000     -7.1775133E-08
   28.68000     -7.3378928E-08
   28.74000     -7.4793952E-08
   28.80000     -7.6024506E-08
   28.86000     -7.7082035E-08
   28.92000     -7.7979934E-08
   28.98000     -7.8728007E-08
   29.04000     -7.9328238E-08
   29.10000     -7.9773017E-08
   29.16000     -8.0046064E-08
   29.22000     -8.0125467E-08
   29.28000     -7.9987736E-08
   29.34000     -7.9611674E-08
   29.40000     -7.8981301E-08
   29.46000     -7.8087439E-08
   29.52000     -7.6928188E-08
   29.58000     -7.5508474E-08
   29.64000     -7.3838891E-08
   29.70000     -7.1933904E-08
   29.76000     -6.9809630E-08
   29.82000     -6.7481466E-08
   29.88000     -6.4962258E-08
   29.94000     -6.2261854E-08
   30.00000     -5.9388562E-08
   30.06000     -5.6352388E-08
   30.12000     -5.3169053E-08
   30.18000     -4.9863285E-08
   30.24000     -4.6469570E-08
   30.30000     -4.3029370E-08
   30.36000     -3.9585057E-08
   30.42000     -3.6171919E-08
   30.48000     -3.2810764E-08
   30.54000     -2.9503521E-08
   30.60000     -2.6233542E-08
   30.66000     -2.2970768E-08
   30.72000     -1.9680554E-08
   30.78000     -1.6333793E-08
   30.84000     -1.2915753E-08
   30.90000     -9.4315693E-09
   30.96000     -5.9073710E-09
   31.02000     -2.3871554E-09
   31.08000      1.0735525E-09
   31.14000      4.4157478E-09
   31.20000      7.5851156E-09
   31.26000      1.0538929E-08
   31.32000      1.3250613E-08
   31.38000      1.5711331E-08
   31.44000      1.7928437E-08
   31.50000      1.9921229E-08
   31.56000      2.1715024E-08
   31.62000      2.3335021E-08
   31.68000      2.4801434E-08
   31.74000      2.6127100E-08
   31.80000      2.7317814E-08
   31.86000      2.8374870E-08
   31.92000      2.9298485E-08
   31.98000      3.0090664E-08
   32.04000      3.0756382E-08
   32.10000      3.1302797E-08
   32.16000      3.1737034E-08
   32.22000      3.2063674E-08
   32.28000      3.2283058E-08
   32.34000      3.2391164E-08
   32.40000      3.2381166E-08
   32.46000      3.2246085E-08
   32.52000      3.1981568E-08
   32.58000      3.1587842E-08
   32.64000      3.1070119E-08
   32.70000      3.0437292E-08
   32.76000      2.9699205E-08
   32.82000      2.8863349E-08
   32.88000      2.7932074E-08
   32.94000      2.6901347E-08
   33.00000      2.5761866E-08
   33.06000      2.4502580E-08
   33.12000      2.3115897E-08
   33.18000      2.1603112E-08
   33.24000      1.9978181E-08
   33.30000      1.8268253E-08
   33.36000      1.6510141E-08
   33.42000      1.4743230E-08
   33.48000      1.3000525E-08
   33.54000      1.1300402E-08
   33.60000      9.6416182E-09
   33.66000      8.0033127E-09
   33.72000      6.3503145E-09
   33.78000      4.6424500E-09
   33.84000      2.8453466E-09
   33.90000      9.3975527E-10
   33.96000     -1.0731118E-09
   34.02000     -3.1715521E-09
   34.08000     -5.3184239E-09
   34.14000     -7.4696782E-09
   34.20000     -9.5839425E-09
   34.26000     -1.1630678E-08
   34.32000     -1.3595057E-08
   34.38000     -1.5478774E-08
   34.44000     -1.7297131E-08
   34.50000     -1.9073566E-08
   34.56000     -2.0833234E-08
   34.62000     -2.2597227E-08
   34.68000     -2.4378618E-08
   34.74000     -2.6181084E-08
   34.80000     -2.8000137E-08
   34.86000     -2.9826552E-08
   34.92000     -3.1650956E-08
   34.98000     -3.3468250E-08
   35.04000     -3.5280372E-08
   35.10000     -3.7096207E-08
   35.16000     -3.8928256E-08
   35.22000     -4.0786567E-08
   35.28000     -4.2671559E-08
   35.34000     -4.4567905E-08
   35.40000     -4.6441620E-08
   35.46000     -4.8241610E-08
   35.52000     -4.9905623E-08
   35.58000     -5.1369241E-08
   35.64000     -5.2575579E-08
   35.70000     -5.3483255E-08
   35.76000     -5.4070984E-08
   35.82000     -5.4337992E-08
   35.88000     -5.4300820E-08
   35.94000     -5.3987588E-08
   36.00000     -5.3431169E-08
   36.06000     -5.2662507E-08
   36.12000     -5.1705015E-08
   36.18000     -5.0570907E-08
   36.24000     -4.9259985E-08
   36.30000     -4.7761350E-08
   36.36000     -4.6058020E-08
   36.42000     -4.4133714E-08
   36.48000     -4.1980481E-08
   36.54000     -3.9605137E-08
   36.60000     -3.7032752E-08
   36.66000     -3.4306076E-08
   36.72000     -3.1480958E-08
   36.78000     -2.8619175E-08
   36.84000     -2.5780551E-08
   36.90000     -2.3016600E-08
   36.96000     -2.0366954E-08
   37.02000     -1.7858943E-08
   37.08000     -1.5509713E-08
   37.14000     -1.3329683E-08
   37.20000     -1.1326168E-08
   37.26000     -9.5062163E-09
   37.32000     -7.8782119E-09
   37.38000     -6.4520096E-09
   37.44000     -5.2376157E-09
   37.50000     -4.2425619E-09
   37.56000     -3.4684207E-09
   37.62000     -2.9073053E-09
   37.68000     -2.5395321E-09
   37.74000     -2.3336721E-09
   37.80000     -2.2497406E-09
   37.86000     -2.2453701E-09
   37.92000     -2.2836997E-09
   37.98000     -2.3409121E-09
   38.04000     -2.4111806E-09
   38.10000     -2.5074345E-09
   38.16000     -2.6575961E-09
   38.22000     -2.8973284E-09
   38.28000     -3.2613567E-09
   38.34000     -3.7757015E-09
   38.40000     -4.4526871E-09
   38.46000     -5.2895568E-09
   38.52000     -6.2704046E-09
   38.58000     -7.3702906E-09
   38.64000     -8.5600718E-09
   38.70000     -9.8106678E-09
   38.76000     -1.1095985E-08
   38.82000     -1.2394343E-08
   38.88000     -1.3688718E-08
   38.94000     -1.4966405E-08
   39.00000     -1.6218696E-08
   39.06000     -1.7440994E-08
   39.12000     -1.8633452E-08
   39.18000     -1.9801805E-08
   39.24000     -2.0957810E-08
   39.30000     -2.2118526E-08
   39.36000     -2.3303913E-08
   39.42000     -2.4532664E-08
   39.48000     -2.5816943E-08
   39.54000     -2.7157292E-08
   39.60000     -2.8539294E-08
   39.66000     -2.9933329E-08
   39.72000     -3.1297915E-08
   39.78000     -3.2586122E-08
   39.84000     -3.3753476E-08
   39.90000     -3.4765353E-08
   39.96000     -3.5602032E-08
   40.02000     -3.6260399E-08
   40.08000     -3.6752329E-08
   40.14000     -3.7100769E-08
   40.20000     -3.7334821E-08
   40.26000     -3.7485158E-08
   40.32000     -3.7580445E-08
   40.38000     -3.7645009E-08
   40.44000     -3.7697621E-08
   40.50000     -3.7751171E-08
   40.56000     -3.7813081E-08
   40.62000     -3.7886540E-08
   40.68000     -3.7972310E-08
   40.74000     -3.8070798E-08
   40.80000     -3.8183778E-08
   40.86000     -3.8315157E-08
   40.92000     -3.8470461E-08
   40.98000     -3.8655273E-08
   41.04000     -3.8873267E-08
   41.10000     -3.9124672E-08
   41.16000     -3.9405773E-08
   41.22000     -3.9709548E-08
   41.28000     -4.0026876E-08
   41.34000     -4.0347651E-08
   41.40000     -4.0661245E-08
   41.46000     -4.0956252E-08
   41.52000     -4.1220076E-08
   41.58000     -4.1439165E-08
   41.64000     -4.1600440E-08
   41.70000     -4.1693870E-08
   41.76000     -4.1715367E-08
   41.82000     -4.1668777E-08
   41.88000     -4.1565741E-08
   41.94000     -4.1422965E-08
   42.00000     -4.1257312E-08
   42.06000     -4.1080042E-08
   42.12000     -4.0891791E-08
   42.18000     -4.0679868E-08
   42.24000     -4.0418442E-08
   42.30000     -4.0071541E-08
   42.36000     -3.9597918E-08
   42.42000     -3.8956667E-08
   42.48000     -3.8112493E-08
   42.54000     -3.7040056E-08
   42.60000     -3.5727098E-08
   42.66000     -3.4176253E-08
   42.72000     -3.2405563E-08
   42.78000     -3.0447421E-08
   42.84000     -2.8345898E-08
   42.90000     -2.6152458E-08
   42.96000     -2.3920663E-08
   43.02000     -2.1700702E-08
   43.08000     -1.9534951E-08
   43.14000     -1.7455386E-08
   43.20000     -1.5483316E-08
   43.26000     -1.3631068E-08
   43.32000     -1.1904803E-08
   43.38000     -1.0307408E-08
   43.44000     -8.8405470E-09
   43.50000     -7.5054780E-09
   43.56000     -6.3026753E-09
   43.62000     -5.2306910E-09
   43.68000     -4.2848223E-09
   43.74000     -3.4561423E-09
   43.80000     -2.7313525E-09
   43.86000     -2.0938213E-09
   43.92000     -1.5260277E-09
   43.98000     -1.0133402E-09
   44.04000     -5.4861909E-10
   44.10000     -1.3657793E-10
   44.16000      2.0355519E-10
   44.22000      4.3853302E-10
   44.28000      5.2558802E-10
   44.34000      4.2065615E-10
   44.40000      8.8734006E-11
   44.46000     -4.8623000E-10
   44.52000     -1.2947677E-09
   44.58000     -2.3008184E-09
   44.64000     -3.4468643E-09
   44.70000     -4.6642357E-09
   44.76000     -5.8860583E-09
   44.82000     -7.0596005E-09
   44.88000     -8.1549905E-09
   44.94000     -9.1683168E-09
   45.00000     -1.0118617E-08
   45.06000     -1.1039746E-08
   45.12000     -1.1969282E-08
   45.18000     -1.2937176E-08
   45.24000     -1.3956755E-08
   45.30000     -1.5020118E-08
   45.36000     -1.6098822E-08
   45.42000     -1.7149551E-08
   45.48000     -1.8123259E-08
   45.54000     -1.8975392E-08
   45.60000     -1.9674543E-08
   45.66000     -2.0207398E-08
   45.72000     -2.0578867E-08
   45.78000     -2.0807821E-08
   45.84000     -2.0920147E-08
   45.90000     -2.0941586E-08
   45.96000     -2.0892744E-08
   46.02000     -2.0787704E-08
   46.08000     -2.0636250E-08
   46.14000     -2.0448372E-08
   46.20000     -2.0238934E-08
   46.26000     -2.0030512E-08
   46.32000     -1.9853308E-08
   46.38000     -1.9742316E-08
   46.44000     -1.9733116E-08
   46.50000     -1.9858160E-08
   46.56000     -2.0145155E-08
   46.62000     -2.0618282E-08
   46.68000     -2.1301801E-08
   46.74000     -2.2224807E-08
   46.80000     -2.3425496E-08
   46.86000     -2.4953794E-08
   46.92000     -2.6871865E-08
   46.98000     -2.9252993E-08
   47.04000     -3.2179937E-08
   47.10000     -3.5744112E-08
   47.16000     -4.0046807E-08
   47.22000     -4.5203016E-08
   47.28000     -5.1347921E-08
   47.34000     -5.8645281E-08
   47.40000     -6.7296412E-08
   47.46000     -7.7548229E-08
   47.52000     -8.9698617E-08
   47.58000     -1.0409835E-07
   47.64000     -1.2114950E-07
   47.70000     -1.4130191E-07
   47.76000     -1.6505037E-07
   47.82000     -1.9293573E-07
   47.88000     -2.2555278E-07
   47.94000     -2.6356560E-07
   48.00000     -3.0772978E-07
   48.06000     -3.5891767E-07
   48.12000     -4.1814317E-07
   48.18000     -4.8658126E-07
   48.24000     -5.6558116E-07
   48.30000     -6.5667359E-07
   48.36000     -7.6157517E-07
   48.42000     -8.8219309E-07
   48.48000     -1.0206362E-06
   48.54000     -1.1792308E-06
   48.60000     -1.3605439E-06
   48.66000     -1.5674087E-06
   48.72000     -1.8029517E-06
   48.78000     -2.0706168E-06
   48.84000     -2.3741870E-06
   48.90000     -2.7178039E-06
   48.96000     -3.1059876E-06
   49.02000     -3.5436556E-06
   49.08000     -4.0361438E-06
   49.14000     -4.5892311E-06
   49.20000     -5.2091586E-06
   49.26000     -5.9026493E-06
   49.32000     -6.6769198E-06
   49.38000     -7.5396906E-06
   49.44000     -8.4991862E-06
   49.50000     -9.5641344E-06
   49.56000     -1.0743758E-05
   49.62000     -1.2047764E-05
   49.68000     -1.3486333E-05
   49.74000     -1.5070103E-05
   49.80000     -1.6810158E-05
   49.86000     -1.8717998E-05
   49.92000     -2.0805532E-05
   49.98000     -2.3085026E-05
   50.04000     -2.5569061E-05
   50.10000     -2.8270471E-05
   50.16000     -3.1202268E-05
   50.22000     -3.4377546E-05
   50.28000     -3.7809405E-05
   50.34000     -4.1510830E-05
   50.40000     -4.5494638E-05
   50.46000     -4.9773349E-05
   50.52000     -5.4359127E-05
   50.58000     -5.9263675E-05
   50.64000     -6.4498134E-05
   50.70000     -7.0073009E-05
   50.76000     -7.5997996E-05
   50.82000     -8.2281862E-05
   50.88000     -8.8932364E-05
   50.94000     -9.5956013E-05
   51.00000     -1.0335803E-04
   51.06000     -1.1114219E-04
   51.12000     -1.1931071E-04
   51.18000     -1.2786423E-04
   51.24000     -1.3680171E-04
   51.30000     -1.4612032E-04
   51.36000     -1.5581553E-04
   51.42000     -1.6588096E-04
   51.48000     -1.7630841E-04
   51.54000     -1.8708776E-04
   51.60000     -1.9820708E-04
   51.66000     -2.0965257E-04
   51.72000     -2.2140860E-04
   51.78000     -2.3345780E-04
   51.84000     -2.4578115E-04
   51.90000     -2.5835802E-04
   51.96000     -2.7116647E-04
   52.02000     -2.8418333E-04
   52.08000     -2.9738434E-04
   52.14000     -3.1074445E-04
   52.20000     -3.2423780E-04
   52.26000     -3.3783831E-04
   52.32000     -3.5151956E-04
   52.38000     -3.6525514E-04
   52.44000     -3.7901886E-04
   52.50000     -3.9278506E-04
   52.56000     -4.0652882E-04
   52.62000     -4.2022619E-04
   52.68000     -4.3385444E-04
   52.74000     -4.4739220E-04
   52.80000     -4.6081981E-04
   52.86000     -4.7411944E-04
   52.92000     -4.8727516E-04
   52.98000     -5.0027331E-04
   53.04000     -5.1310251E-04
   53.10000     -5.2575371E-04
   53.16000     -5.3822028E-04
   53.22000     -5.5049808E-04
   53.28000     -5.6258537E-04
   53.34000     -5.7448295E-04
   53.40000     -5.8619381E-04
   53.46000     -5.9772318E-04
   53.52000     -6.0907850E-04
   53.58000     -6.2026904E-04
   53.64000     -6.3130568E-04
   53.70000     -6.4220099E-04
   53.76000     -6.5296871E-04
   53.82000     -6.6362356E-04
   53.88000     -6.7418098E-04
   53.94000     -6.8465667E-04
   54.00000     -6.9506682E-04
   54.06000     -7.0542679E-04
   54.12000     -7.1575172E-04
   54.18000     -7.2605576E-04
   54.24000     -7.3635194E-04
   54.30000     -7.4665184E-04
   54.36000     -7.5696519E-04
   54.42000     -7.6729979E-04
   54.48000     -7.7766116E-04
   54.54000     -7.8805251E-04
   54.60000     -7.9847430E-04
   54.66000     -8.0892455E-04
   54.72000     -8.1939844E-04
   54.78000     -8.2988827E-04
   54.84000     -8.4038364E-04
   54.90000     -8.5087150E-04
   54.96000     -8.6133584E-04
   55.02000     -8.7175844E-04
   55.08000     -8.8211859E-04
   55.14000     -8.9239347E-04
   55.20000     -9.0255850E-04
   55.26000     -9.1258745E-04
   55.32000     -9.2245295E-04
   55.38000     -9.3212666E-04
   55.44000     -9.4157958E-04
   55.50000     -9.5078262E-04
   55.56000     -9.5970649E-04