  -2.400000      0.0000000E+00
  -2.340000      0.0000000E+00
  -2.280000      0.0000000E+00
  -2.220000      0.0000000E+00
  -2.160000      0.0000000E+00
  -2.100000      6.3429728E-21
  -2.040000      5.3463565E-20
  -1.980000      2.2931202E-19
  -1.920000      6.4592487E-19
  -1.860000      1.2644344E-18
  -1.800000      1.5418500E-18
  -1.740000      6.4135093E-20
  -1.680000     -5.3990199E-18
  -1.620000     -1.6853395E-17
  -1.560000     -3.3775948E-17
  -1.500000     -5.0092013E-17
  -1.440000     -5.2094227E-17
  -1.380000     -1.9741737E-17
  -1.320000      6.6543769E-17
  -1.260000      2.1334191E-16
  -1.200000      3.9889023E-16
  -1.140000      5.6130904E-16
  -1.080000      5.9892911E-16
  -1.020000      3.9056345E-16
 -0.9600000     -1.6105151E-16
 -0.9000000     -1.0680759E-15
 -0.8400000     -2.1954476E-15
 -0.7800000     -3.2254189E-15
 -0.7200000     -3.6811777E-15
 -0.6600000     -3.0344358E-15
 -0.6000000     -8.9738260E-16
 -0.5400000      2.7403695E-15
 -0.4800000      7.3127565E-15
 -0.4200000      1.1625324E-14
 -0.3600000      1.4044763E-14
 -0.3000000      1.2954854E-14
 -0.2400000      7.3896281E-15
 -0.1800000     -2.3647288E-15
 -0.1200000     -1.4472288E-14
 -5.9999999E-02 -2.5782424E-14
  0.0000000E+00 -3.2654699E-14
  5.9999999E-02 -3.2177772E-14
  0.1200000     -2.3353859E-14
  0.1800000     -7.7313034E-15
  0.2400000      1.0892803E-14
  0.3000000      2.7722048E-14
  0.3600000      3.8739089E-14
  0.4200000      4.2258308E-14
  0.4800000      3.9476428E-14
  0.5400000      3.3607709E-14
  0.6000000      2.7835322E-14
  0.6600000      2.2968205E-14
  0.7200000      1.6032687E-14
  0.7800000      8.2338199E-16
  0.8400000     -2.9311843E-14
  0.9000000     -7.7204031E-14
  0.9600000     -1.3772832E-13
   1.020000     -1.9571298E-13
   1.080000     -2.2734257E-13
   1.140000     -2.0543670E-13
   1.200000     -1.0771070E-13
   1.260000      7.3886528E-14
   1.320000      3.2512336E-13
   1.380000      6.0500568E-13
   1.440000      8.4675555E-13
   1.500000      9.6565258E-13
   1.560000      8.7454523E-13
   1.620000      5.0675198E-13
   1.680000     -1.5596599E-13
   1.740000     -1.0557791E-12
   1.800000     -2.0404032E-12
   1.860000     -2.8650843E-12
   1.920000     -3.2250255E-12
   1.980000     -2.8224057E-12
   2.040000     -1.4613519E-12
   2.100000      8.4909429E-13
   2.160000      3.8154696E-12
   2.220000      6.8397224E-12
   2.280000      9.0874582E-12
   2.340000      9.6545350E-12
   2.400000      7.8134539E-12
   2.460000      3.2901373E-12
   2.520000     -3.5022900E-12
   2.580000     -1.1354372E-11
   2.640000     -1.8344342E-11
   2.700000     -2.2148660E-11
   2.760000     -2.0560924E-11
   2.820000     -1.2143488E-11
   2.880000      3.1139934E-12
   2.940000      2.3284185E-11
   3.000000      4.4293891E-11
   3.060000      6.0135959E-11
   3.120000      6.3550852E-11
   3.180000      4.7137072E-11
   3.240000      4.7520195E-12
   3.300000     -6.7020195E-11
   3.360000     -1.6761155E-10
   3.420000     -2.9170855E-10
   3.480000     -4.2922299E-10
   3.540000     -5.6612870E-10
   3.600000     -6.8615397E-10
   3.660000     -7.7315493E-10
   3.720000     -8.1384649E-10
   3.780000     -8.0046042E-10
   3.840000     -7.3287076E-10
   3.900000     -6.1978495E-10
   3.960000     -4.7874060E-10
   4.020000     -3.3485598E-10
   4.080000     -2.1851046E-10
   4.140000     -1.6233009E-10
   4.200000     -1.9798226E-10
   4.260000     -3.5329714E-10
   4.320000     -6.5013606E-10
   4.380000     -1.1032230E-09
   4.440000     -1.7199093E-09
   4.500000     -2.5006142E-09
   4.560000     -3.4395415E-09
   4.620000     -4.5252784E-09
   4.680000     -5.7410232E-09
   4.740000     -7.0644557E-09
   4.800000     -8.4675218E-09
   4.860000     -9.9166106E-09
   4.920000     -1.1373587E-08
   4.980000     -1.2797956E-08
   5.040000     -1.4150055E-08
   5.100000     -1.5394729E-08
   5.160000     -1.6504693E-08
   5.220000     -1.7462652E-08
   5.280000     -1.8261591E-08
   5.340000     -1.8903091E-08
   5.400000     -1.9394124E-08
   5.460000     -1.9743354E-08
   5.520000     -1.9957993E-08
   5.580000     -2.0042268E-08
   5.640000     -1.9997872E-08
   5.700000     -1.9826260E-08
   5.760000     -1.9531955E-08
   5.820000     -1.9125750E-08
   5.880000     -1.8626613E-08
   5.940000     -1.8061536E-08
   6.000000     -1.7463034E-08
   6.060000     -1.6864705E-08
   6.120000     -1.6295818E-08
   6.180000     -1.5776187E-08
   6.240000     -1.5312722E-08
   6.300000     -1.4898630E-08
   6.360000     -1.4515790E-08
   6.420000     -1.4139955E-08
   6.480000     -1.3747740E-08
   6.540000     -1.3323847E-08
   6.600000     -1.2866750E-08
   6.660000     -1.2391493E-08
   6.720000     -1.1928868E-08
   6.780000     -1.1521242E-08
   6.840000     -1.1216102E-08
   6.900000     -1.1058952E-08
   6.960000     -1.1087252E-08
   7.020000     -1.1326666E-08
   7.080000     -1.1790145E-08
   7.140000     -1.2479493E-08
   7.200000     -1.3388392E-08
   7.260000     -1.4505475E-08
   7.320000     -1.5816171E-08
   7.380000     -1.7302575E-08
   7.440000     -1.8941396E-08
   7.500000     -2.0700874E-08
   7.560000     -2.2538174E-08
   7.620000     -2.4398856E-08
   7.680000     -2.6219594E-08
   7.740000     -2.7934353E-08
   7.800000     -2.9483175E-08
   7.860000     -3.0821592E-08
   7.920000     -3.1928295E-08
   7.980000     -3.2808849E-08
   8.040000     -3.3494103E-08
   8.100000     -3.4033381E-08
   8.160000     -3.4483772E-08
   8.220000     -3.4897987E-08
   8.280000     -3.5313466E-08
   8.340000     -3.5745195E-08
   8.400000     -3.6183614E-08
   8.460000     -3.6597882E-08
   8.520000     -3.6943561E-08
   8.580000     -3.7172690E-08
   8.640000     -3.7244025E-08
   8.700000     -3.7131027E-08
   8.760000     -3.6825849E-08
   8.820000     -3.6338392E-08
   8.880000     -3.5690679E-08
   8.940000     -3.4907831E-08
   9.000000     -3.4007932E-08
   9.060000     -3.2993366E-08
   9.120000     -3.1846110E-08
   9.180000     -3.0528604E-08
   9.240000     -2.8990376E-08
   9.300000     -2.7179155E-08
   9.360000     -2.5053861E-08
   9.420000     -2.2596145E-08
   9.480000     -1.9817369E-08
   9.540000     -1.6758962E-08
   9.600000     -1.3485766E-08
   9.660000     -1.0073832E-08
   9.720000     -6.5956978E-09
   9.780000     -3.1068992E-09
   9.840000      3.6273801E-10
   9.900000      3.8106744E-09
   9.960000      7.2555881E-09
   10.02000      1.0725186E-08
   10.08000      1.4241134E-08
   10.14000      1.7805201E-08
   10.20000      2.1390564E-08
   10.26000      2.4940922E-08
   10.32000      2.8378000E-08
   10.38000      3.1615691E-08
   10.44000      3.4577120E-08
   10.50000      3.7209968E-08
   10.56000      3.9495678E-08
   10.62000      4.1449862E-08
   10.68000      4.3113772E-08
   10.74000      4.4539174E-08
   10.80000      4.5771092E-08
   10.86000      4.6833428E-08
   10.92000      4.7721574E-08
   10.98000      4.8404125E-08
   11.04000      4.8832959E-08
   11.10000      4.8958480E-08
   11.16000      4.8745367E-08
   11.22000      4.8184020E-08
   11.28000      4.7294204E-08
   11.34000      4.6119897E-08
   11.40000      4.4716870E-08
   11.46000      4.3136861E-08
   11.52000      4.1413184E-08
   11.58000      3.9552368E-08
   11.64000      3.7534448E-08
   11.70000      3.5322074E-08
   11.76000      3.2875640E-08
   11.82000      3.0169819E-08
   11.88000      2.7206273E-08
   11.94000      2.4018414E-08
   12.00000      2.0666686E-08
   12.06000      1.7225858E-08
   12.12000      1.3768399E-08
   12.18000      1.0349266E-08
   12.24000      6.9969004E-09
   12.30000      3.7129717E-09
   12.36000      4.8050575E-10
   12.42000     -2.7228173E-09
   12.48000     -5.9109810E-09
   12.54000     -9.0802414E-09
   12.60000     -1.2206994E-08
   12.66000     -1.5253219E-08
   12.72000     -1.8177223E-08
   12.78000     -2.0945679E-08
   12.84000     -2.3542748E-08
   12.90000     -2.5973277E-08
   12.96000     -2.8259180E-08
   13.02000     -3.0430503E-08
   13.08000     -3.2514254E-08
   13.14000     -3.4524742E-08
   13.20000     -3.6458392E-08
   13.26000     -3.8294370E-08
   13.32000     -4.0000582E-08
   13.38000     -4.1542688E-08
   13.44000     -4.2893276E-08
   13.50000     -4.4038305E-08
   13.56000     -4.4979039E-08
   13.62000     -4.5729159E-08
   13.68000     -4.6308134E-08
   13.74000     -4.6733110E-08
   13.80000     -4.7011678E-08
   13.86000     -4.7137899E-08
   13.92000     -4.7092740E-08
   13.98000     -4.6849149E-08
   14.04000     -4.6380570E-08
   14.10000     -4.5670866E-08
   14.16000     -4.4722931E-08
   14.22000     -4.3563603E-08
   14.28000     -4.2243176E-08
   14.34000     -4.0829146E-08
   14.40000     -3.9395452E-08
   14.46000     -3.8009645E-08
   14.52000     -3.6721193E-08
   14.58000     -3.5553885E-08
   14.64000     -3.4504172E-08
   14.70000     -3.3545781E-08
   14.76000     -3.2639189E-08
   14.82000     -3.1743294E-08
   14.88000     -3.0826222E-08
   14.94000     -2.9872634E-08
   15.00000     -2.8886046E-08
   15.06000     -2.7886145E-08
   15.12000     -2.6902386E-08
   15.18000     -2.5965971E-08
   15.24000     -2.5102407E-08
   15.30000     -2.4326436E-08
   15.36000     -2.3640117E-08
   15.42000     -2.3034046E-08
   15.48000     -2.2490831E-08
   15.54000     -2.1989672E-08
   15.60000     -2.1510797E-08
   15.66000     -2.1038794E-08
   15.72000     -2.0564302E-08
   15.78000     -2.0083824E-08
   15.84000     -1.9597882E-08
   15.90000     -1.9107993E-08
   15.96000     -1.8613244E-08
   16.02000     -1.8107487E-08
   16.08000     -1.7578037E-08
   16.14000     -1.7006508E-08
   16.20000     -1.6371747E-08
   16.26000     -1.5654146E-08
   16.32000     -1.4840053E-08
   16.38000     -1.3924901E-08
   16.44000     -1.2914171E-08
   16.50000     -1.1822087E-08
   16.56000     -1.0668861E-08
   16.62000     -9.4777066E-09
   16.68000     -8.2727176E-09
   16.74000     -7.0780390E-09
   16.80000     -5.9178764E-09
   16.86000     -4.8164019E-09
   16.92000     -3.7966594E-09
   16.98000     -2.8782634E-09
   17.04000     -2.0745390E-09
   17.10000     -1.3903746E-09
   17.16000     -8.2201840E-10
   17.22000     -3.5934405E-10
   17.28000      9.9582113E-12
   17.34000      2.9571753E-10
   17.40000      5.0192778E-10
   17.46000      6.2609112E-10
   17.52000      6.6170414E-10
   17.58000      6.0324445E-10
   17.64000      4.5220125E-10
   17.70000      2.2237452E-10
   17.76000     -5.7142617E-11
   17.82000     -3.4232825E-10
   17.88000     -5.7826832E-10
   17.94000     -7.0645523E-10
   18.00000     -6.7426015E-10
   18.06000     -4.4493989E-10
   18.12000     -6.1990738E-12
   18.18000      6.2462041E-10
   18.24000      1.4001328E-09
   18.30000      2.2477153E-09
   18.36000      3.0787508E-09
   18.42000      3.8004653E-09
   18.48000      4.3279376E-09
   18.54000      4.5940025E-09
   18.60000      4.5555391E-09
   18.66000      4.1957717E-09
   18.72000      3.5232557E-09
   18.78000      2.5688658E-09
   18.84000      1.3821517E-09
   18.90000      2.7971266E-11
   18.96000     -1.4164028E-09
   19.02000     -2.8641856E-09
   19.08000     -4.2228518E-09
   19.14000     -5.3995906E-09
   19.20000     -6.3087877E-09
   19.26000     -6.8811188E-09
   19.32000     -7.0729915E-09
   19.38000     -6.8744415E-09
   19.44000     -6.3133725E-09
   19.50000     -5.4544498E-09
   19.56000     -4.3919619E-09
   19.62000     -3.2373479E-09
   19.68000     -2.1034778E-09
   19.74000     -1.0886917E-09
   19.80000     -2.6374614E-10
   19.86000      3.3593917E-10
   19.92000      7.1172224E-10
   19.98000      8.9745134E-10
   20.04000      9.5128994E-10
   20.10000      9.4603936E-10
   20.16000      9.6008668E-10
   20.22000      1.0702266E-09
   20.28000      1.3465483E-09
   20.34000      1.8487450E-09
   20.40000      2.6229079E-09
   20.46000      3.6981376E-09
   20.52000      5.0829625E-09
   20.58000      6.7622663E-09
   20.64000      8.6959071E-09
   20.70000      1.0820211E-08
   20.76000      1.3053063E-08
   20.82000      1.5302566E-08
   20.88000      1.7478275E-08
   20.94000      1.9503231E-08
   21.00000      2.1324603E-08
   21.06000      2.2920689E-08
   21.12000      2.4302571E-08
   21.18000      2.5509578E-08
   21.24000      2.6599109E-08
   21.30000      2.7632444E-08
   21.36000      2.8659393E-08
   21.42000      2.9704928E-08
   21.48000      3.0760802E-08
   21.54000      3.1784062E-08
   21.60000      3.2702811E-08
   21.66000      3.3427906E-08
   21.72000      3.3867956E-08
   21.78000      3.3944264E-08
   21.84000      3.3602607E-08
   21.90000      3.2819642E-08
   21.96000      3.1603211E-08
   22.02000      2.9987032E-08
   22.08000      2.8021551E-08
   22.14000      2.5763192E-08
   22.20000      2.3264255E-08
   22.26000      2.0565436E-08
   22.32000      1.7692113E-08
   22.38000      1.4654806E-08
   22.44000      1.1453343E-08
   22.50000      8.0834619E-09
   22.56000      4.5441078E-09
   22.62000      8.4344071E-10
   22.68000     -2.9981082E-09
   22.74000     -6.9486656E-09
   22.80000     -1.0969509E-08
   22.86000     -1.5022202E-08
   22.92000     -1.9076261E-08
   22.98000     -2.3115078E-08
   23.04000     -2.7138274E-08
   23.10000     -3.1159637E-08
   23.16000     -3.5201008E-08
   23.22000     -3.9283748E-08
   23.28000     -4.3420012E-08
   23.34000     -4.7606285E-08
   23.40000     -5.1820852E-08
   23.46000     -5.6025961E-08
   23.52000     -6.0174109E-08
   23.58000     -6.4216906E-08
   23.64000     -6.8114232E-08
   23.70000     -7.1841605E-08
   23.76000     -7.5393977E-08
   23.82000     -7.8785263E-08
   23.88000     -8.2043634E-08
   23.94000     -8.5203823E-08
   24.00000     -8.8297760E-08
   24.06000     -9.1345562E-08
   24.12000     -9.4348465E-08
   24.18000     -9.7285152E-08
   24.24000     -1.0011213E-07
   24.30000     -1.0276845E-07
   24.36000     -1.0518363E-07
   24.42000     -1.0728762E-07
   24.48000     -1.0902028E-07
   24.54000     -1.1033872E-07
   24.60000     -1.1122059E-07
   24.66000     -1.1166301E-07
   24.72000     -1.1167769E-07
   24.78000     -1.1128409E-07
   24.84000     -1.1050280E-07
   24.90000     -1.0935099E-07
   24.96000     -1.0784132E-07
   25.02000     -1.0598395E-07
   25.08000     -1.0379077E-07
   25.14000     -1.0128001E-07
   25.20000     -9.8479624E-08
   25.26000     -9.5428135E-08
   25.32000     -9.2172733E-08
   25.38000     -8.8764864E-08
   25.44000     -8.5254399E-08
   25.50000     -8.1683623E-08
   25.56000     -7.8082394E-08
   25.62000     -7.4465625E-08
   25.68000     -7.0833856E-08
   25.74000     -6.7177176E-08
   25.80000     -6.3481949E-08
   25.86000     -5.9739001E-08
   25.92000     -5.5951332E-08
   25.98000     -5.2139214E-08
   26.04000     -4.8340922E-08
   26.10000     -4.4608669E-08
   26.16000     -4.1000430E-08
   26.22000     -3.7570061E-08
   26.28000     -3.4358518E-08
   26.34000     -3.1388804E-08
   26.40000     -2.8666060E-08
   26.46000     -2.6182466E-08
   26.52000     -2.3925027E-08
   26.58000     -2.1883464E-08
   26.64000     -2.0055687E-08
   26.70000     -1.8449366E-08
   26.76000     -1.7079770E-08
   26.82000     -1.5965249E-08
   26.88000     -1.5122380E-08
   26.94000     -1.4562507E-08
   27.00000     -1.4290454E-08
   27.06000     -1.4305212E-08
   27.12000     -1.4601668E-08
   27.18000     -1.5172370E-08
   27.24000     -1.6008638E-08
   27.30000     -1.7100927E-08
   27.36000     -1.8438588E-08
   27.42000     -2.0009324E-08
   27.48000     -2.1798360E-08
   27.54000     -2.3787189E-08
   27.60000     -2.5951929E-08
   27.66000     -2.8261624E-08
   27.72000     -3.0677413E-08
   27.78000     -3.3153597E-08
   27.84000     -3.5641364E-08
   27.90000     -3.8094932E-08
   27.96000     -4.0478788E-08
   28.02000     -4.2773738E-08
   28.08000     -4.4979487E-08
   28.14000     -4.7112376E-08
   28.20000     -4.9198349E-08
   28.26000     -5.1263132E-08
   28.32000     -5.3322584E-08
   28.38000     -5.5376297E-08
   28.44000     -5.7406385E-08
   28.50000     -5.9381588E-08
   28.56000     -6.1265069E-08
   28.62000     -6.3023165E-08
   28.68000     -6.4632147E-08
   28.74000     -6.6081263E-08
   28.80000     -6.7371445E-08
   28.86000     -6.8510857E-08
   28.92000     -6.9508999E-08
   28.98000     -7.0371279E-08
   29.04000     -7.1095513E-08
   29.10000     -7.1670748E-08
   29.16000     -7.2078343E-08
   29.22000     -7.2294768E-08
   29.28000     -7.2295357E-08
   29.34000     -7.2058640E-08
   29.40000     -7.1570440E-08
   29.46000     -7.0827269E-08
   29.52000     -6.9838073E-08
   29.58000     -6.8623791E-08
   29.64000     -6.7214131E-08
   29.70000     -6.5642126E-08
   29.76000     -6.3937485E-08
   29.82000     -6.2120449E-08
   29.88000     -6.0198005E-08
   29.94000     -5.8163650E-08
   30.00000     -5.6000999E-08
   30.06000     -5.3690364E-08
   30.12000     -5.1216613E-08
   30.18000     -4.8576201E-08
   30.24000     -4.5781803E-08
   30.30000     -4.2863437E-08
   30.36000     -3.9866055E-08
   30.42000     -3.6844288E-08
   30.48000     -3.3855375E-08
   30.54000     -3.0951519E-08
   30.60000     -2.8172927E-08
   30.66000     -2.5542624E-08
   30.72000     -2.3064054E-08
   30.78000     -2.0722188E-08
   30.84000     -1.8488379E-08
   30.90000     -1.6328242E-08
   30.96000     -1.4211025E-08
   31.02000     -1.2118054E-08
   31.08000     -1.0047755E-08
   31.14000     -8.0155464E-09
   31.20000     -6.0483507E-09
   31.26000     -4.1753734E-09
   31.32000     -2.4182092E-09
   31.38000     -7.8379309E-10
   31.44000      7.3720624E-10
   31.50000      2.1658721E-09
   31.56000      3.5260133E-09
   31.62000      4.8339550E-09
   31.68000      6.0909233E-09
   31.74000      7.2808222E-09
   31.80000      8.3741565E-09
   31.86000      9.3366044E-09
   31.92000      1.0139131E-08
   31.98000      1.0766139E-08
   32.04000      1.1219064E-08
   32.10000      1.1514542E-08
   32.16000      1.1678175E-08
   32.22000      1.1736229E-08
   32.28000      1.1708071E-08
   32.34000      1.1601604E-08
   32.40000      1.1412877E-08
   32.46000      1.1129637E-08
   32.52000      1.0737510E-08
   32.58000      1.0226751E-08
   32.64000      9.5974526E-09
   32.70000      8.8615852E-09
   32.76000      8.0411739E-09
   32.82000      7.1631150E-09
   32.88000      6.2522010E-09
   32.94000      5.3245954E-09
   33.00000      4.3839461E-09
   33.06000      3.4215213E-09
   33.12000      2.4203857E-09
   33.18000      1.3621708E-09
   33.24000      2.3397631E-10
   33.30000     -9.6717812E-10
   33.36000     -2.2340563E-09
   33.42000     -3.5531744E-09
   33.48000     -4.9114433E-09
   33.54000     -6.3027357E-09
   33.60000     -7.7315496E-09
   33.66000     -9.2119583E-09
   33.72000     -1.0761861E-08
   33.78000     -1.2394388E-08
   33.84000     -1.4109604E-08
   33.90000     -1.5889672E-08
   33.96000     -1.7699564E-08
   34.02000     -1.9493427E-08
   34.08000     -2.1224732E-08
   34.14000     -2.2856891E-08
   34.20000     -2.4370909E-08
   34.26000     -2.5767626E-08
   34.32000     -2.7064061E-08
   34.38000     -2.8285411E-08
   34.44000     -2.9455673E-08
   34.50000     -3.0590218E-08
   34.56000     -3.1692732E-08
   34.62000     -3.2757285E-08
   34.68000     -3.3774260E-08
   34.74000     -3.4737734E-08
   34.80000     -3.5651301E-08
   34.86000     -3.6530164E-08
   34.92000     -3.7398589E-08
   34.98000     -3.8283492E-08
   35.04000     -3.9206189E-08
   35.10000     -4.0174847E-08
   35.16000     -4.1179987E-08
   35.22000     -4.2194504E-08
   35.28000     -4.3178339E-08
   35.34000     -4.4086764E-08
   35.40000     -4.4880228E-08
   35.46000     -4.5533167E-08
   35.52000     -4.6039482E-08
   35.58000     -4.6413025E-08
   35.64000     -4.6682800E-08
   35.70000     -4.6884040E-08
   35.76000     -4.7047564E-08
   35.82000     -4.7190479E-08
   35.88000     -4.7311026E-08
   35.94000     -4.7389143E-08
   36.00000     -4.7392621E-08
   36.06000     -4.7286846E-08
   36.12000     -4.7044946E-08
   36.18000     -4.6655057E-08
   36.24000     -4.6122491E-08
   36.30000     -4.5466329E-08
   36.36000     -4.4712003E-08
   36.42000     -4.3882856E-08
   36.48000     -4.2993797E-08
   36.54000     -4.2049365E-08
   36.60000     -4.1046732E-08
   36.66000     -3.9982194E-08
   36.72000     -3.8858531E-08
   36.78000     -3.7690310E-08
   36.84000     -3.6504954E-08
   36.90000     -3.5339106E-08
   36.96000     -3.4231437E-08
   37.02000     -3.3214217E-08
   37.08000     -3.2306406E-08
   37.14000     -3.1510346E-08
   37.20000     -3.0812998E-08
   37.26000     -3.0191266E-08
   37.32000     -2.9619944E-08
   37.38000     -2.9080025E-08
   37.44000     -2.8565363E-08
   37.50000     -2.8085923E-08
   37.56000     -2.7666818E-08
   37.62000     -2.7343189E-08
   37.68000     -2.7151970E-08
   37.74000     -2.7122351E-08
   37.80000     -2.7267200E-08
   37.86000     -2.7577732E-08
   37.92000     -2.8023091E-08
   37.98000     -2.8555402E-08
   38.04000     -2.9119315E-08
   38.10000     -2.9663823E-08
   38.16000     -3.0153156E-08
   38.22000     -3.0573716E-08
   38.28000     -3.0934963E-08
   38.34000     -3.1263941E-08
   38.40000     -3.1594965E-08
   38.46000     -3.1957537E-08
   38.52000     -3.2366039E-08
   38.58000     -3.2814228E-08
   38.64000     -3.3276034E-08
   38.70000     -3.3712247E-08
   38.76000     -3.4080941E-08
   38.82000     -3.4348513E-08
   38.88000     -3.4498175E-08
   38.94000     -3.4533699E-08
   39.00000     -3.4477665E-08
   39.06000     -3.4365069E-08
   39.12000     -3.4234262E-08
   39.18000     -3.4117726E-08
   39.24000     -3.4034962E-08
   39.30000     -3.3989192E-08
   39.36000     -3.3968483E-08
   39.42000     -3.3951093E-08
   39.48000     -3.3913839E-08
   39.54000     -3.3841712E-08
   39.60000     -3.3736420E-08
   39.66000     -3.3621578E-08
   39.72000     -3.3542506E-08
   39.78000     -3.3559893E-08
   39.84000     -3.3737948E-08
   39.90000     -3.4129556E-08
   39.96000     -3.4762401E-08
   40.02000     -3.5630212E-08
   40.08000     -3.6692459E-08
   40.14000     -3.7883492E-08
   40.20000     -3.9129059E-08
   40.26000     -4.0365734E-08
   40.32000     -4.1557485E-08
   40.38000     -4.2704201E-08
   40.44000     -4.3839705E-08
   40.50000     -4.5019924E-08
   40.56000     -4.6305178E-08
   40.62000     -4.7742180E-08
   40.68000     -4.9351044E-08
   40.74000     -5.1120587E-08
   40.80000     -5.3012240E-08
   40.86000     -5.4970105E-08
   40.92000     -5.6933327E-08
   40.98000     -5.8846908E-08
   41.04000     -6.0668420E-08
   41.10000     -6.2370120E-08
   41.16000     -6.3937307E-08
   41.22000     -6.5364794E-08
   41.28000     -6.6652980E-08
   41.34000     -6.7804471E-08
   41.40000     -6.8821649E-08
   41.46000     -6.9704853E-08
   41.52000     -7.0451435E-08
   41.58000     -7.1055609E-08
   41.64000     -7.1509454E-08
   41.70000     -7.1804905E-08
   41.76000     -7.1935993E-08
   41.82000     -7.1900303E-08
   41.88000     -7.1698629E-08
   41.94000     -7.1332408E-08
   42.00000     -7.0799864E-08
   42.06000     -7.0092611E-08
   42.12000     -6.9194854E-08
   42.18000     -6.8086443E-08
   42.24000     -6.6749706E-08
   42.30000     -6.5177929E-08
   42.36000     -6.3382416E-08
   42.42000     -6.1395035E-08
   42.48000     -5.9264753E-08
   42.54000     -5.7048663E-08
   42.60000     -5.4800367E-08
   42.66000     -5.2559606E-08
   42.72000     -5.0346568E-08
   42.78000     -4.8162640E-08
   42.84000     -4.5996874E-08
   42.90000     -4.3835417E-08
   42.96000     -4.1670265E-08
   43.02000     -3.9504201E-08
   43.08000     -3.7350688E-08
   43.14000     -3.5229323E-08
   43.20000     -3.3159353E-08
   43.26000     -3.1154066E-08
   43.32000     -2.9218377E-08
   43.38000     -2.7350300E-08
   43.44000     -2.5545452E-08
   43.50000     -2.3802627E-08
   43.56000     -2.2128249E-08
   43.62000     -2.0538186E-08
   43.68000     -1.9056584E-08
   43.74000     -1.7712441E-08
   43.80000     -1.6535269E-08
   43.86000     -1.5551135E-08
   43.92000     -1.4779882E-08
   43.98000     -1.4233628E-08
   44.04000     -1.3916281E-08
   44.10000     -1.3823730E-08
   44.16000     -1.3944632E-08
   44.22000     -1.4262048E-08
   44.28000     -1.4756139E-08
   44.34000     -1.5407780E-08
   44.40000     -1.6202334E-08
   44.46000     -1.7132287E-08
   44.52000     -1.8197428E-08
   44.58000     -1.9401899E-08
   44.64000     -2.0748519E-08
   44.70000     -2.2231974E-08
   44.76000     -2.3833172E-08
   44.82000     -2.5516851E-08
   44.88000     -2.7233527E-08
   44.94000     -2.8925335E-08
   45.00000     -3.0533993E-08
   45.06000     -3.2008476E-08
   45.12000     -3.3310322E-08
   45.18000     -3.4415674E-08
   45.24000     -3.5314319E-08
   45.30000     -3.6007293E-08
   45.36000     -3.6504478E-08
   45.42000     -3.6823341E-08
   45.48000     -3.6988723E-08
   45.54000     -3.7032876E-08
   45.60000     -3.6994447E-08
   45.66000     -3.6915544E-08
   45.72000     -3.6836930E-08
   45.78000     -3.6792304E-08
   45.84000     -3.6803222E-08
   45.90000     -3.6876337E-08
   45.96000     -3.7003808E-08
   46.02000     -3.7167112E-08
   46.08000     -3.7343327E-08
   46.14000     -3.7512518E-08
   46.20000     -3.7664780E-08
   46.26000     -3.7805478E-08
   46.32000     -3.7957932E-08
   46.38000     -3.8163062E-08
   46.44000     -3.8476109E-08
   46.50000     -3.8960895E-08
   46.56000     -3.9682639E-08
   46.62000     -4.0700755E-08
   46.68000     -4.2063434E-08
   46.74000     -4.3805763E-08
   46.80000     -4.5952660E-08
   46.86000     -4.8526871E-08
   46.92000     -5.1560697E-08
   46.98000     -5.5109123E-08
   47.04000     -5.9260906E-08
   47.10000     -6.4144949E-08
   47.16000     -6.9930309E-08
   47.22000     -7.6820619E-08
   47.28000     -8.5045535E-08
   47.34000     -9.4853419E-08
   47.40000     -1.0650901E-07
   47.46000     -1.2029874E-07
   47.52000     -1.3654351E-07
   47.58000     -1.5561702E-07
   47.64000     -1.7796528E-07
   47.70000     -2.0412368E-07
   47.76000     -2.3472904E-07
   47.82000     -2.7052570E-07
   47.88000     -3.1236766E-07
   47.94000     -3.6121901E-07
   48.00000     -4.1815667E-07
   48.06000     -4.8437710E-07
   48.12000     -5.6120888E-07
   48.18000     -6.5013222E-07
   48.24000     -7.5280292E-07
   48.30000     -8.7108219E-07
   48.36000     -1.0070680E-06
   48.42000     -1.1631275E-06
   48.48000     -1.3419253E-06
   48.54000     -1.5464491E-06
   48.60000     -1.7800263E-06
   48.66000     -2.0463385E-06
   48.72000     -2.3494288E-06
   48.78000     -2.6937141E-06
   48.84000     -3.0839994E-06
   48.90000     -3.5255025E-06
   48.96000     -4.0238860E-06
   49.02000     -4.5852958E-06
   49.08000     -5.2163969E-06
   49.14000     -5.9244071E-06
   49.20000     -6.7171204E-06
   49.26000     -7.6029196E-06
   49.32000     -8.5907786E-06
   49.38000     -9.6902613E-06
   49.44000     -1.0911518E-05
   49.50000     -1.2265278E-05
   49.56000     -1.3762849E-05
   49.62000     -1.5416108E-05
   49.68000     -1.7237495E-05
   49.74000     -1.9239991E-05
   49.80000     -2.1437088E-05
   49.86000     -2.3842756E-05
   49.92000     -2.6471371E-05
   49.98000     -2.9337671E-05
   50.04000     -3.2456668E-05
   50.10000     -3.5843568E-05
   50.16000     -3.9513696E-05
   50.22000     -4.3482374E-05
   50.28000     -4.7764835E-05
   50.34000     -5.2376101E-05
   50.40000     -5.7330857E-05
   50.46000     -6.2643339E-05
   50.52000     -6.8327157E-05
   50.58000     -7.4395197E-05
   50.64000     -8.0859412E-05
   50.70000     -8.7730696E-05
   50.76000     -9.5018710E-05
   50.82000     -1.0273172E-04
   50.88000     -1.1087643E-04
   50.94000     -1.1945789E-04
   51.00000     -1.2847928E-04
   51.06000     -1.3794182E-04
   51.12000     -1.4784466E-04
   51.18000     -1.5818472E-04
   51.24000     -1.6895655E-04
   51.30000     -1.8015232E-04
   51.36000     -1.9176170E-04
   51.42000     -2.0377190E-04
   51.48000     -2.1616746E-04
   51.54000     -2.2893041E-04
   51.60000     -2.4204026E-04
   51.66000     -2.5547401E-04
   51.72000     -2.6920624E-04
   51.78000     -2.8320937E-04
   51.84000     -2.9745355E-04
   51.90000     -3.1190694E-04
   51.96000     -3.2653587E-04
   52.02000     -3.4130507E-04
   52.08000     -3.5617792E-04
   52.14000     -3.7111665E-04
   52.20000     -3.8608268E-04
   52.26000     -4.0103702E-04
   52.32000     -4.1594048E-04
   52.38000     -4.3075389E-04
   52.44000     -4.4543875E-04
   52.50000     -4.5995729E-04
   52.56000     -4.7427282E-04
   52.62000     -4.8835028E-04
   52.68000     -5.0215627E-04
   52.74000     -5.1565963E-04
   52.80000     -5.2883162E-04
   52.86000     -5.4164609E-04
   52.92000     -5.5408000E-04
   52.98000     -5.6611339E-04
   53.04000     -5.7772972E-04
   53.10000     -5.8891589E-04
   53.16000     -5.9966237E-04
   53.22000     -6.0996338E-04
   53.28000     -6.1981700E-04
   53.34000     -6.2922458E-04
   53.40000     -6.3819153E-04
   53.46000     -6.4672658E-04
   53.52000     -6.5484172E-04
   53.58000     -6.6255213E-04
   53.64000     -6.6987582E-04
   53.70000     -6.7683338E-04
   53.76000     -6.8344764E-04
   53.82000     -6.8974349E-04
   53.88000     -6.9574721E-04
   53.94000     -7.0148654E-04
   54.00000     -7.0698955E-04
   54.06000     -7.1228470E-04
   54.12000     -7.1740040E-04
   54.18000     -7.2236423E-04
   54.24000     -7.2720298E-04
   54.30000     -7.3194207E-04
   54.36000     -7.3660508E-04
   54.42000     -7.4121373E-04
   54.48000     -7.4578711E-04
   54.54000     -7.5034151E-04
   54.60000     -7.5489038E-04
   54.66000     -7.5944379E-04
   54.72000     -7.6400861E-04
   54.78000     -7.6858816E-04
   54.84000     -7.7318226E-04
   54.90000     -7.7778712E-04
   54.96000     -7.8239560E-04
   55.02000     -7.8699738E-04
   55.08000     -7.9157896E-04
   55.14000     -7.9612393E-04
   55.20000     -8.0061337E-04
   55.26000     -8.0502604E-04
   55.32000     -8.0933858E-04
   55.38000     -8.1352604E-04
   55.44000     -8.1756251E-04
   55.50000     -8.2142121E-04
   55.56000     -8.2507520E-04