  -2.400000      0.0000000E+00
  -2.340000      0.0000000E+00
  -2.280000      0.0000000E+00
  -2.220000      0.0000000E+00
  -2.160000      0.0000000E+00
  -2.100000     -9.3651832E-20
  -2.040000     -7.4723619E-19
  -1.980000     -3.0137350E-18
  -1.920000     -7.9362769E-18
  -1.860000     -1.4456023E-17
  -1.800000     -1.6396902E-17
  -1.740000     -1.2158224E-18
  -1.680000      4.5509909E-17
  -1.620000      1.2765901E-16
  -1.560000      2.2172992E-16
  -1.500000      2.6661468E-16
  -1.440000      1.7499853E-16
  -1.380000     -1.2398291E-16
  -1.320000     -6.1806618E-16
  -1.260000     -1.1514165E-15
  -1.200000     -1.4170055E-15
  -1.140000     -1.0430116E-15
  -1.080000      2.2083155E-16
  -1.020000      2.2689834E-15
 -0.9600000      4.4663573E-15
 -0.9000000      5.6647933E-15
 -0.8400000      4.4994551E-15
 -0.7800000     -4.8223799E-17
 -0.7200000     -7.9699981E-15
 -0.6600000     -1.7694113E-14
 -0.6000000     -2.5985223E-14
 -0.5400000     -2.8490214E-14
 -0.4800000     -2.0949908E-14
 -0.4200000     -8.5320401E-16
 -0.3600000      3.0912129E-14
 -0.3000000      6.8984864E-14
 -0.2400000      1.0358574E-13
 -0.1800000      1.2206688E-13
 -0.1200000      1.1196588E-13
 -5.9999999E-02  6.5092713E-14
  0.0000000E+00 -1.8343464E-14
  5.9999999E-02 -1.2696539E-13
  0.1200000     -2.3828308E-13
  0.1800000     -3.2255462E-13
  0.2400000     -3.5031301E-13
  0.3000000     -3.0185839E-13
  0.3600000     -1.7554786E-13
  0.4200000      8.8735188E-15
  0.4800000      2.1466510E-13
  0.5400000      4.0020249E-13
  0.6000000      5.3493858E-13
  0.6600000      6.1196854E-13
  0.7200000      6.4909173E-13
  0.7800000      6.7347077E-13
  0.8400000      6.9229681E-13
  0.9000000      6.6112122E-13
  0.9600000      4.6863669E-13
   1.020000     -4.3034336E-14
   1.080000     -1.0131514E-12
   1.140000     -2.4618736E-12
   1.200000     -4.1869173E-12
   1.260000     -5.7069622E-12
   1.320000     -6.3026138E-12
   1.380000     -5.1841639E-12
   1.440000     -1.7724223E-12
   1.500000      3.9743391E-12
   1.560000      1.1298417E-11
   1.620000      1.8570468E-11
   1.680000      2.3500358E-11
   1.740000      2.3647440E-11
   1.800000      1.7142605E-11
   1.860000      3.4366661E-12
   1.920000     -1.6163149E-11
   1.980000     -3.8385510E-11
   2.040000     -5.8431558E-11
   2.100000     -7.0912949E-11
   2.160000     -7.1083084E-11
   2.220000     -5.6038649E-11
   2.280000     -2.5554031E-11
   2.340000      1.7690084E-11
   2.400000      6.8535316E-11
   2.460000      1.2027165E-10
   2.520000      1.6574429E-10
   2.580000      1.9828550E-10
   2.640000      2.1221616E-10
   2.700000      2.0286792E-10
   2.760000      1.6630698E-10
   2.820000      9.9097834E-11
   2.880000     -1.5506435E-12
   2.940000     -1.3707879E-10
   3.000000     -3.0641722E-10
   3.060000     -5.0477383E-10
   3.120000     -7.2293593E-10
   3.180000     -9.4760821E-10
   3.240000     -1.1630253E-09
   3.300000     -1.3536361E-09
   3.360000     -1.5072192E-09
   3.420000     -1.6175131E-09
   3.480000     -1.6854750E-09
   3.540000     -1.7186292E-09
   3.600000     -1.7285360E-09
   3.660000     -1.7270124E-09
   3.720000     -1.7221562E-09
   3.780000     -1.7152882E-09
   3.840000     -1.6996297E-09
   3.900000     -1.6609393E-09
   3.960000     -1.5797034E-09
   4.020000     -1.4339971E-09
   4.080000     -1.2020271E-09
   4.140000     -8.6363983E-10
   4.200000     -4.0062256E-10
   4.260000      2.0377035E-10
   4.320000      9.6523944E-10
   4.380000      1.8979489E-09
   4.440000      3.0126293E-09
   4.500000      4.3134230E-09
   4.560000      5.7942859E-09
   4.620000      7.4361899E-09
   4.680000      9.2063619E-09
   4.740000      1.1060341E-08
   4.800000      1.2946809E-08
   4.860000      1.4814282E-08
   4.920000      1.6618095E-08
   4.980000      1.8325904E-08
   5.040000      1.9920286E-08
   5.100000      2.1397828E-08
   5.160000      2.2765102E-08
   5.220000      2.4032813E-08
   5.280000      2.5209873E-08
   5.340000      2.6299114E-08
   5.400000      2.7295794E-08
   5.460000      2.8189085E-08
   5.520000      2.8965866E-08
   5.580000      2.9615398E-08
   5.640000      3.0133329E-08
   5.700000      3.0523697E-08
   5.760000      3.0798361E-08
   5.820000      3.0974139E-08
   5.880000      3.1068694E-08
   5.940000      3.1096597E-08
   6.000000      3.1066964E-08
   6.060000      3.0983486E-08
   6.120000      3.0846795E-08
   6.180000      3.0658310E-08
   6.240000      3.0424040E-08
   6.300000      3.0156908E-08
   6.360000      2.9876475E-08
   6.420000      2.9605991E-08
   6.480000      2.9367795E-08
   6.540000      2.9178642E-08
   6.600000      2.9046770E-08
   6.660000      2.8971948E-08
   6.720000      2.8948554E-08
   6.780000      2.8970637E-08
   6.840000      2.9037048E-08
   6.900000      2.9154656E-08
   6.960000      2.9338437E-08
   7.020000      2.9608346E-08
   7.080000      2.9984214E-08
   7.140000      3.0480567E-08
   7.200000      3.1103237E-08
   7.260000      3.1848803E-08
   7.320000      3.2706655E-08
   7.380000      3.3662428E-08
   7.440000      3.4701028E-08
   7.500000      3.5807840E-08
   7.560000      3.6967542E-08
   7.620000      3.8161264E-08
   7.680000      3.9363677E-08
   7.740000      4.0541750E-08
   7.800000      4.1656531E-08
   7.860000      4.2668056E-08
   7.920000      4.3542293E-08
   7.980000      4.4257987E-08
   8.040000      4.4811177E-08
   8.100000      4.5215533E-08
   8.160000      4.5498155E-08
   8.220000      4.5691596E-08
   8.280000      4.5824478E-08
   8.340000      4.5913300E-08
   8.400000      4.5957901E-08
   8.460000      4.5941984E-08
   8.520000      4.5838451E-08
   8.580000      4.5618016E-08
   8.640000      4.5258552E-08
   8.700000      4.4752561E-08
   8.760000      4.4110795E-08
   8.820000      4.3361311E-08
   8.880000      4.2544535E-08
   8.940000      4.1705896E-08
   9.000000      4.0888107E-08
   9.060000      4.0124974E-08
   9.120000      3.9437957E-08
   9.180000      3.8836042E-08
   9.240000      3.8318486E-08
   9.300000      3.7879623E-08
   9.360000      3.7514255E-08
   9.420000      3.7222161E-08
   9.480000      3.7010327E-08
   9.540000      3.6891919E-08
   9.600000      3.6881893E-08
   9.660000      3.6990112E-08
   9.720000      3.7213667E-08
   9.780000      3.7530782E-08
   9.840000      3.7898307E-08
   9.900000      3.8253948E-08
   9.960000      3.8522920E-08
   10.02000      3.8627334E-08
   10.08000      3.8495681E-08
   10.14000      3.8069874E-08
   10.20000      3.7308180E-08
   10.26000      3.6183767E-08
   10.32000      3.4680117E-08
   10.38000      3.2785490E-08
   10.44000      3.0488760E-08
   10.50000      2.7778322E-08
   10.56000      2.4644677E-08
   10.62000      2.1085967E-08
   10.68000      1.7114649E-08
   10.74000      1.2763018E-08
   10.80000      8.0852720E-09
   10.86000      3.1547347E-09
   10.92000     -1.9439057E-09
   10.98000     -7.1258293E-09
   11.04000     -1.2317957E-08
   11.10000     -1.7467986E-08
   11.16000     -2.2547583E-08
   11.22000     -2.7548278E-08
   11.28000     -3.2470894E-08
   11.34000     -3.7311526E-08
   11.40000     -4.2048512E-08
   11.46000     -4.6634668E-08
   11.52000     -5.0997524E-08
   11.58000     -5.5047778E-08
   11.64000     -5.8693573E-08
   11.70000     -6.1856461E-08
   11.76000     -6.4484581E-08
   11.82000     -6.6559807E-08
   11.88000     -6.8097542E-08
   11.94000     -6.9140128E-08
   12.00000     -6.9746655E-08
   12.06000     -6.9982200E-08
   12.12000     -6.9909575E-08
   12.18000     -6.9585155E-08
   12.24000     -6.9058750E-08
   12.30000     -6.8376572E-08
   12.36000     -6.7585049E-08
   12.42000     -6.6733257E-08
   12.48000     -6.5872463E-08
   12.54000     -6.5052156E-08
   12.60000     -6.4313376E-08
   12.66000     -6.3681469E-08
   12.72000     -6.3160634E-08
   12.78000     -6.2732646E-08
   12.84000     -6.2360797E-08
   12.90000     -6.1998655E-08
   12.96000     -6.1601426E-08
   13.02000     -6.1136866E-08
   13.08000     -6.0592463E-08
   13.14000     -5.9976671E-08
   13.20000     -5.9313898E-08
   13.26000     -5.8634519E-08
   13.32000     -5.7963224E-08
   13.38000     -5.7309197E-08
   13.44000     -5.6661378E-08
   13.50000     -5.5990419E-08
   13.56000     -5.5256869E-08
   13.62000     -5.4423232E-08
   13.68000     -5.3466085E-08
   13.74000     -5.2384500E-08
   13.80000     -5.1201845E-08
   13.86000     -4.9960242E-08
   13.92000     -4.8709168E-08
   13.98000     -4.7491710E-08
   14.04000     -4.6332733E-08
   14.10000     -4.5232611E-08
   14.16000     -4.4168477E-08
   14.22000     -4.3102293E-08
   14.28000     -4.1992944E-08
   14.34000     -4.0808246E-08
   14.40000     -3.9533035E-08
   14.46000     -3.8171034E-08
   14.52000     -3.6740474E-08
   14.58000     -3.5265735E-08
   14.64000     -3.3768277E-08
   14.70000     -3.2260246E-08
   14.76000     -3.0742541E-08
   14.82000     -2.9207321E-08
   14.88000     -2.7643202E-08
   14.94000     -2.6040569E-08
   15.00000     -2.4394954E-08
   15.06000     -2.2707585E-08
   15.12000     -2.0983695E-08
   15.18000     -1.9230150E-08
   15.24000     -1.7453781E-08
   15.30000     -1.5661126E-08
   15.36000     -1.3859062E-08
   15.42000     -1.2055152E-08
   15.48000     -1.0256636E-08
   15.54000     -8.4679170E-09
   15.60000     -6.6875567E-09
   15.66000     -4.9065196E-09
   15.72000     -3.1093079E-09
   15.78000     -1.2784639E-09
   15.84000      5.9859406E-10
   15.90000      2.5227176E-09
   15.96000      4.4788138E-09
   16.02000      6.4361712E-09
   16.08000      8.3536360E-09
   16.14000      1.0188219E-08
   16.20000      1.1904548E-08
   16.26000      1.3482292E-08
   16.32000      1.4919513E-08
   16.38000      1.6231208E-08
   16.44000      1.7443853E-08
   16.50000      1.8587832E-08
   16.56000      1.9690168E-08
   16.62000      2.0769555E-08
   16.68000      2.1834971E-08
   16.74000      2.2887795E-08
   16.80000      2.3926249E-08
   16.86000      2.4950191E-08
   16.92000      2.5964171E-08
   16.98000      2.6977423E-08
   17.04000      2.8000647E-08
   17.10000      2.9040921E-08
   17.16000      3.0096977E-08
   17.22000      3.1157096E-08
   17.28000      3.2200859E-08
   17.34000      3.3204454E-08
   17.40000      3.4147494E-08
   17.46000      3.5018552E-08
   17.52000      3.5817031E-08
   17.58000      3.6550428E-08
   17.64000      3.7228066E-08
   17.70000      3.7854083E-08
   17.76000      3.8422915E-08
   17.82000      3.8919673E-08
   17.88000      3.9325833E-08
   17.94000      3.9628361E-08
   18.00000      3.9828631E-08
   18.06000      3.9947334E-08
   18.12000      4.0022528E-08
   18.18000      4.0100492E-08
   18.24000      4.0221714E-08
   18.30000      4.0406153E-08
   18.36000      4.0642849E-08
   18.42000      4.0887599E-08
   18.48000      4.1070187E-08
   18.54000      4.1109601E-08
   18.60000      4.0933276E-08
   18.66000      4.0494932E-08
   18.72000      3.9786229E-08
   18.78000      3.8839168E-08
   18.84000      3.7719104E-08
   18.90000      3.6510727E-08
   18.96000      3.5301223E-08
   19.02000      3.4165080E-08
   19.08000      3.3154201E-08
   19.14000      3.2294892E-08
   19.20000      3.1591327E-08
   19.26000      3.1033252E-08
   19.32000      3.0604905E-08
   19.38000      3.0292153E-08
   19.44000      3.0085751E-08
   19.50000      2.9980189E-08
   19.56000      2.9968970E-08
   19.62000      3.0038564E-08
   19.68000      3.0163633E-08
   19.74000      3.0305927E-08
   19.80000      3.0417940E-08
   19.86000      3.0450831E-08
   19.92000      3.0364497E-08
   19.98000      3.0136569E-08
   20.04000      2.9767470E-08
   20.10000      2.9279560E-08
   20.16000      2.8710604E-08
   20.22000      2.8103614E-08
   20.28000      2.7496407E-08
   20.34000      2.6914124E-08
   20.40000      2.6366775E-08
   20.46000      2.5851744E-08
   20.52000      2.5359411E-08
   20.58000      2.4878942E-08
   20.64000      2.4401672E-08
   20.70000      2.3920945E-08
   20.76000      2.3429269E-08
   20.82000      2.2915076E-08
   20.88000      2.2361819E-08
   20.94000      2.1751047E-08
   21.00000      2.1069056E-08
   21.06000      2.0314669E-08
   21.12000      1.9504537E-08
   21.18000      1.8672727E-08
   21.24000      1.7863409E-08
   21.30000      1.7118198E-08
   21.36000      1.6462256E-08
   21.42000      1.5894132E-08
   21.48000      1.5383547E-08
   21.54000      1.4878381E-08
   21.60000      1.4318890E-08
   21.66000      1.3654225E-08
   21.72000      1.2855466E-08
   21.78000      1.1920566E-08
   21.84000      1.0869719E-08
   21.90000      9.7332871E-09
   21.96000      8.5372305E-09
   22.02000      7.2918160E-09
   22.08000      5.9879008E-09
   22.14000      4.6019362E-09
   22.20000      3.1073208E-09
   22.26000      1.4872297E-09
   22.32000     -2.5639840E-10
   22.38000     -2.1012863E-09
   22.44000     -4.0110777E-09
   22.50000     -5.9466099E-09
   22.56000     -7.8773938E-09
   22.62000     -9.7885895E-09
   22.68000     -1.1680807E-08
   22.74000     -1.3563156E-08
   22.80000     -1.5442760E-08
   22.86000     -1.7315323E-08
   22.92000     -1.9160705E-08
   22.98000     -2.0945246E-08
   23.04000     -2.2629758E-08
   23.10000     -2.4179888E-08
   23.16000     -2.5574860E-08
   23.22000     -2.6811518E-08
   23.28000     -2.7902724E-08
   23.34000     -2.8871410E-08
   23.40000     -2.9743099E-08
   23.46000     -3.0539887E-08
   23.52000     -3.1277906E-08
   23.58000     -3.1968540E-08
   23.64000     -3.2622108E-08
   23.70000     -3.3251801E-08
   23.76000     -3.3875853E-08
   23.82000     -3.4516660E-08
   23.88000     -3.5197051E-08
   23.94000     -3.5934836E-08
   24.00000     -3.6737529E-08
   24.06000     -3.7598952E-08
   24.12000     -3.8498833E-08
   24.18000     -3.9405538E-08
   24.24000     -4.0281154E-08
   24.30000     -4.1087546E-08
   24.36000     -4.1791722E-08
   24.42000     -4.2369290E-08
   24.48000     -4.2805205E-08
   24.54000     -4.3092093E-08
   24.60000     -4.3226947E-08
   24.66000     -4.3207692E-08
   24.72000     -4.3030973E-08
   24.78000     -4.2692204E-08
   24.84000     -4.2188038E-08
   24.90000     -4.1520348E-08
   24.96000     -4.0700119E-08
   25.02000     -3.9749285E-08
   25.08000     -3.8699159E-08
   25.14000     -3.7585195E-08
   25.20000     -3.6439385E-08
   25.26000     -3.5282877E-08
   25.32000     -3.4121712E-08
   25.38000     -3.2947785E-08
   25.44000     -3.1745337E-08
   25.50000     -3.0500868E-08
   25.56000     -2.9212909E-08
   25.62000     -2.7897620E-08
   25.68000     -2.6587655E-08
   25.74000     -2.5324344E-08
   25.80000     -2.4145997E-08
   25.86000     -2.3076925E-08
   25.92000     -2.2121609E-08
   25.98000     -2.1266397E-08
   26.04000     -2.0488056E-08
   26.10000     -1.9765572E-08
   26.16000     -1.9090388E-08
   26.22000     -1.8471004E-08
   26.28000     -1.7930432E-08
   26.34000     -1.7498150E-08
   26.40000     -1.7200497E-08
   26.46000     -1.7053873E-08
   26.52000     -1.7063599E-08
   26.58000     -1.7228411E-08
   26.64000     -1.7547823E-08
   26.70000     -1.8028206E-08
   26.76000     -1.8684034E-08
   26.82000     -1.9532992E-08
   26.88000     -2.0586656E-08
   26.94000     -2.1840545E-08
   27.00000     -2.3267903E-08
   27.06000     -2.4819984E-08
   27.12000     -2.6432950E-08
   27.18000     -2.8038698E-08
   27.24000     -2.9575439E-08
   27.30000     -3.0994340E-08
   27.36000     -3.2260445E-08
   27.42000     -3.3349000E-08
   27.48000     -3.4240131E-08
   27.54000     -3.4915534E-08
   27.60000     -3.5359324E-08
   27.66000     -3.5562909E-08
   27.72000     -3.5531340E-08
   27.78000     -3.5287606E-08
   27.84000     -3.4871899E-08
   27.90000     -3.4335070E-08
   27.96000     -3.3728156E-08
   28.02000     -3.3091684E-08
   28.08000     -3.2448778E-08
   28.14000     -3.1804685E-08
   28.20000     -3.1152698E-08
   28.26000     -3.0483811E-08
   28.32000     -2.9796077E-08
   28.38000     -2.9099636E-08
   28.44000     -2.8415277E-08
   28.50000     -2.7767014E-08
   28.56000     -2.7171616E-08
   28.62000     -2.6629266E-08
   28.68000     -2.6119153E-08
   28.74000     -2.5601958E-08
   28.80000     -2.5028552E-08
   28.86000     -2.4352026E-08
   28.92000     -2.3538931E-08
   28.98000     -2.2575989E-08
   29.04000     -2.1470447E-08
   29.10000     -2.0244430E-08
   29.16000     -1.8925995E-08
   29.22000     -1.7540431E-08
   29.28000     -1.6105043E-08
   29.34000     -1.4629002E-08
   29.40000     -1.3117685E-08
   29.46000     -1.1579128E-08
   29.52000     -1.0029512E-08
   29.58000     -8.4951104E-09
   29.64000     -7.0096795E-09
   29.70000     -5.6082188E-09
   29.76000     -4.3194133E-09
   29.82000     -3.1595617E-09
   29.88000     -2.1300710E-09
   29.94000     -1.2191304E-09
   30.00000     -4.0656081E-10
   30.06000      3.3025105E-10
   30.12000      1.0115447E-09
   30.18000      1.6529133E-09
   30.24000      2.2656561E-09
   30.30000      2.8586353E-09
   30.36000      3.4399470E-09
   30.42000      4.0170436E-09
   30.48000      4.5949484E-09
   30.54000      5.1733768E-09
   30.60000      5.7443490E-09
   30.66000      6.2918568E-09
   30.72000      6.7943389E-09
   30.78000      7.2295041E-09
   30.84000      7.5799989E-09
   30.90000      7.8379783E-09
   30.96000      8.0070368E-09
   31.02000      8.1009102E-09
   31.08000      8.1395575E-09
   31.14000      8.1440490E-09
   31.20000      8.1319849E-09
   31.26000      8.1148492E-09
   31.32000      8.0979614E-09
   31.38000      8.0828695E-09
   31.44000      8.0712912E-09
   31.50000      8.0692431E-09
   31.56000      8.0898621E-09
   31.62000      8.1536671E-09
   31.68000      8.2856015E-09
   31.74000      8.5091312E-09
   31.80000      8.8386969E-09
   31.86000      9.2726236E-09
   31.92000      9.7887956E-09
   31.98000      1.0344819E-08
   32.04000      1.0883121E-08
   32.10000      1.1339854E-08
   32.16000      1.1655277E-08
   32.22000      1.1782871E-08
   32.28000      1.1695058E-08
   32.34000      1.1384710E-08
   32.40000      1.0863035E-08
   32.46000      1.0155424E-08
   32.52000      9.2969508E-09
   32.58000      8.3286675E-09
   32.64000      7.2949757E-09
   32.70000      6.2416619E-09
   32.76000      5.2140412E-09
   32.82000      4.2549244E-09
   32.88000      3.4025833E-09
   32.94000      2.6891329E-09
   33.00000      2.1395994E-09
   33.06000      1.7715075E-09
   33.12000      1.5943921E-09
   33.18000      1.6085727E-09
   33.24000      1.8029417E-09
   33.30000      2.1522255E-09
   33.36000      2.6148563E-09
   33.42000      3.1327954E-09
   33.48000      3.6342518E-09
   33.54000      4.0393413E-09
   33.60000      4.2677204E-09
   33.66000      4.2465551E-09
   33.72000      3.9171075E-09
   33.78000      3.2387615E-09
   33.84000      2.1901789E-09
   33.90000      7.6811629E-10
   33.96000     -1.0150860E-09
   34.02000     -3.1342906E-09
   34.08000     -5.5538725E-09
   34.14000     -8.2292324E-09
   34.20000     -1.1107573E-08
   34.26000     -1.4128255E-08
   34.32000     -1.7223165E-08
   34.38000     -2.0317716E-08
   34.44000     -2.3333069E-08
   34.50000     -2.6190170E-08
   34.56000     -2.8815608E-08
   34.62000     -3.1148687E-08
   34.68000     -3.3148151E-08
   34.74000     -3.4796351E-08
   34.80000     -3.6098886E-08
   34.86000     -3.7078671E-08
   34.92000     -3.7765364E-08
   34.98000     -3.8182961E-08
   35.04000     -3.8339593E-08
   35.10000     -3.8223465E-08
   35.16000     -3.7806966E-08
   35.22000     -3.7058179E-08
   35.28000     -3.5956020E-08
   35.34000     -3.4503685E-08
   35.40000     -3.2735223E-08
   35.46000     -3.0712542E-08
   35.52000     -2.8513634E-08
   35.58000     -2.6216135E-08
   35.64000     -2.3882231E-08
   35.70000     -2.1550338E-08
   35.76000     -1.9236387E-08
   35.82000     -1.6943806E-08
   35.88000     -1.4678012E-08
   35.94000     -1.2459462E-08
   36.00000     -1.0330115E-08
   36.06000     -8.3506340E-09
   36.12000     -6.5892234E-09
   36.18000     -5.1059836E-09
   36.24000     -3.9381578E-09
   36.30000     -3.0910772E-09
   36.36000     -2.5374594E-09
   36.42000     -2.2247939E-09
   36.48000     -2.0879789E-09
   36.54000     -2.0629787E-09
   36.60000     -2.0973707E-09
   36.66000     -2.1550581E-09
   36.72000     -2.2145381E-09
   36.78000     -2.2622484E-09
   36.84000     -2.2839921E-09
   36.90000     -2.2579332E-09
   36.96000     -2.1520272E-09
   37.02000     -1.9272273E-09
   37.08000     -1.5457907E-09
   37.14000     -9.8209940E-10
   37.20000     -2.3221415E-10
   37.26000      6.8160505E-10
   37.32000      1.7138180E-09
   37.38000      2.8059275E-09
   37.44000      3.9014396E-09
   37.50000      4.9606581E-09
   37.56000      5.9700866E-09
   37.62000      6.9427273E-09
   37.68000      7.9087430E-09
   37.74000      8.8995797E-09
   37.80000      9.9313899E-09
   37.86000      1.0994198E-08
   37.92000      1.2051350E-08
   37.98000      1.3049906E-08
   38.04000      1.3938380E-08
   38.10000      1.4685164E-08
   38.16000      1.5290528E-08
   38.22000      1.5787469E-08
   38.28000      1.6230974E-08
   38.34000      1.6679714E-08
   38.40000      1.7177099E-08
   38.46000      1.7738600E-08
   38.52000      1.8349608E-08
   38.58000      1.8973781E-08
   38.64000      1.9567747E-08
   38.70000      2.0095927E-08
   38.76000      2.0539657E-08
   38.82000      2.0897772E-08
   38.88000      2.1179595E-08
   38.94000      2.1394436E-08
   39.00000      2.1542858E-08
   39.06000      2.1613610E-08
   39.12000      2.1587274E-08
   39.18000      2.1444352E-08
   39.24000      2.1173662E-08
   39.30000      2.0776783E-08
   39.36000      2.0266459E-08
   39.42000      1.9659741E-08
   39.48000      1.8969146E-08
   39.54000      1.8196154E-08
   39.60000      1.7330196E-08
   39.66000      1.6353871E-08
   39.72000      1.5252217E-08
   39.78000      1.4022011E-08
   39.84000      1.2676932E-08
   39.90000      1.1246168E-08
   39.96000      9.7667572E-09
   40.02000      8.2726173E-09
   40.08000      6.7845454E-09
   40.14000      5.3050875E-09
   40.20000      3.8201686E-09
   40.26000      2.3067050E-09
   40.32000      7.4314255E-10
   40.38000     -8.8108854E-10
   40.44000     -2.5605491E-09
   40.50000     -4.2746486E-09
   40.56000     -5.9935235E-09
   40.62000     -7.6863165E-09
   40.68000     -9.3286312E-09
   40.74000     -1.0906628E-08
   40.80000     -1.2416747E-08
   40.86000     -1.3861707E-08
   40.92000     -1.5244648E-08
   40.98000     -1.6563567E-08
   41.04000     -1.7807773E-08
   41.10000     -1.8957239E-08
   41.16000     -1.9984732E-08
   41.22000     -2.0860073E-08
   41.28000     -2.1555536E-08
   41.34000     -2.2051303E-08
   41.40000     -2.2339902E-08
   41.46000     -2.2428676E-08
   41.52000     -2.2339385E-08
   41.58000     -2.2104649E-08
   41.64000     -2.1761641E-08
   41.70000     -2.1344428E-08
   41.76000     -2.0877080E-08
   41.82000     -2.0369830E-08
   41.88000     -1.9819826E-08
   41.94000     -1.9216506E-08
   42.00000     -1.8549938E-08
   42.06000     -1.7819048E-08
   42.12000     -1.7036456E-08
   42.18000     -1.6227668E-08
   42.24000     -1.5424433E-08
   42.30000     -1.4654461E-08
   42.36000     -1.3931422E-08
   42.42000     -1.3249352E-08
   42.48000     -1.2584147E-08
   42.54000     -1.1902206E-08
   42.60000     -1.1173371E-08
   42.66000     -1.0383371E-08
   42.72000     -9.5409023E-09
   42.78000     -8.6762464E-09
   42.84000     -7.8315523E-09
   42.90000     -7.0461872E-09
   42.96000     -6.3426007E-09
   43.02000     -5.7181757E-09
   43.08000     -5.1463451E-09
   43.14000     -4.5867452E-09
   43.20000     -4.0007202E-09
   43.26000     -3.3664072E-09
   43.32000     -2.6877971E-09
   43.38000     -1.9944704E-09
   43.44000     -1.3322119E-09
   43.50000     -7.4805584E-10
   43.56000     -2.7519406E-10
   43.62000      7.7023145E-11
   43.68000      3.2486949E-10
   43.74000      5.0375976E-10
   43.80000      6.5629624E-10
   43.86000      8.1924140E-10
   43.92000      1.0137244E-09
   43.98000      1.2414616E-09
   44.04000      1.4874890E-09
   44.10000      1.7277739E-09
   44.16000      1.9387212E-09
   44.22000      2.1053579E-09
   44.28000      2.2257161E-09
   44.34000      2.3102944E-09
   44.40000      2.3769908E-09
   44.46000      2.4431641E-09
   44.52000      2.5172273E-09
   44.58000      2.5922957E-09
   44.64000      2.6438474E-09
   44.70000      2.6322891E-09
   44.76000      2.5099269E-09
   44.82000      2.2305391E-09
   44.88000      1.7588706E-09
   44.94000      1.0772968E-09
   45.00000      1.8769111E-10
   45.06000     -8.9196855E-10
   45.12000     -2.1349948E-09
   45.18000     -3.5147598E-09
   45.24000     -5.0117230E-09
   45.30000     -6.6162076E-09
   45.36000     -8.3259568E-09
   45.42000     -1.0139416E-08
   45.48000     -1.2047328E-08
   45.54000     -1.4025909E-08
   45.60000     -1.6034425E-08
   45.66000     -1.8018426E-08
   45.72000     -1.9917840E-08
   45.78000     -2.1677343E-08
   45.84000     -2.3255422E-08
   45.90000     -2.4628944E-08
   45.96000     -2.5791470E-08
   46.02000     -2.6745697E-08
   46.08000     -2.7492492E-08
   46.14000     -2.8020116E-08
   46.20000     -2.8297121E-08
   46.26000     -2.8271067E-08
   46.32000     -2.7872918E-08
   46.38000     -2.7024800E-08
   46.44000     -2.5647381E-08
   46.50000     -2.3663013E-08
   46.56000     -2.0992212E-08
   46.62000     -1.7543208E-08
   46.68000     -1.3196842E-08
   46.74000     -7.7905575E-09
   46.80000     -1.1054525E-09
   46.86000      7.1410415E-09
   46.92000      1.7296726E-08
   46.98000      2.9772776E-08
   47.04000      4.5042555E-08
   47.10000      6.3645167E-08
   47.16000      8.6196486E-08
   47.22000      1.1340775E-07
   47.28000      1.4610967E-07
   47.34000      1.8527824E-07
   47.40000      2.3205905E-07
   47.46000      2.8778817E-07
   47.52000      3.5401021E-07
   47.58000      4.3249645E-07
   47.64000      5.2526696E-07
   47.70000      6.3462056E-07
   47.76000      7.6317497E-07
   47.82000      9.1391689E-07
   47.88000      1.0902609E-06
   47.94000      1.2961125E-06
   48.00000      1.5359333E-06
   48.06000      1.8148038E-06
   48.12000      2.1384858E-06
   48.18000      2.5134827E-06
   48.24000      2.9471046E-06
   48.30000      3.4475370E-06
   48.36000      4.0239215E-06
   48.42000      4.6864493E-06
   48.48000      5.4464649E-06
   48.54000      6.3165785E-06
   48.60000      7.3107835E-06
   48.66000      8.4445683E-06
   48.72000      9.7350312E-06
   48.78000      1.1200981E-05
   48.84000      1.2863032E-05
   48.90000      1.4743704E-05
   48.96000      1.6867527E-05
   49.02000      1.9261133E-05
   49.08000      2.1953381E-05
   49.14000      2.4975458E-05
   49.20000      2.8360964E-05
   49.26000      3.2146021E-05
   49.32000      3.6369307E-05
   49.38000      4.1072104E-05
   49.44000      4.6298304E-05
   49.50000      5.2094387E-05
   49.56000      5.8509388E-05
   49.62000      6.5594868E-05
   49.68000      7.3404801E-05
   49.74000      8.1995538E-05
   49.80000      9.1425616E-05
   49.86000      1.0175564E-04
   49.92000      1.1304803E-04
   49.98000      1.2536680E-04
   50.04000      1.3877725E-04
   50.10000      1.5334555E-04
   50.16000      1.6913841E-04
   50.22000      1.8622266E-04
   50.28000      2.0466477E-04
   50.34000      2.2453035E-04
   50.40000      2.4588360E-04
   50.46000      2.6878685E-04
   50.52000      2.9329979E-04
   50.58000      3.1947880E-04
   50.64000      3.4737660E-04
   50.70000      3.7704120E-04
   50.76000      4.0851539E-04
   50.82000      4.4183605E-04
   50.88000      4.7703338E-04
   50.94000      5.1413034E-04
   51.00000      5.5314205E-04
   51.06000      5.9407495E-04
   51.12000      6.3692662E-04
   51.18000      6.8168482E-04
   51.24000      7.2832737E-04
   51.30000      7.7682163E-04
   51.36000      8.2712423E-04
   51.42000      8.7918097E-04
   51.48000      9.3292649E-04
   51.54000      9.8828436E-04
   51.60000      1.0451677E-03
   51.66000      1.1034781E-03
   51.72000      1.1631079E-03
   51.78000      1.2239390E-03
   51.84000      1.2858442E-03
   51.90000      1.3486880E-03
   51.96000      1.4123274E-03
   52.02000      1.4766125E-03
   52.08000      1.5413885E-03
   52.14000      1.6064952E-03
   52.20000      1.6717704E-03
   52.26000      1.7370494E-03
   52.32000      1.8021679E-03
   52.38000      1.8669624E-03
   52.44000      1.9312727E-03
   52.50000      1.9949428E-03
   52.56000      2.0578222E-03
   52.62000      2.1197679E-03
   52.68000      2.1806455E-03
   52.74000      2.2403304E-03
   52.80000      2.2987099E-03
   52.86000      2.3556831E-03
   52.92000      2.4111629E-03
   52.98000      2.4650767E-03
   53.04000      2.5173672E-03
   53.10000      2.5679921E-03
   53.16000      2.6169256E-03
   53.22000      2.6641588E-03
   53.28000      2.7096977E-03
   53.34000      2.7535651E-03
   53.40000      2.7957985E-03
   53.46000      2.8364500E-03
   53.52000      2.8755858E-03
   53.58000      2.9132843E-03
   53.64000      2.9496357E-03
   53.70000      2.9847391E-03
   53.76000      3.0187026E-03
   53.82000      3.0516407E-03
   53.88000      3.0836731E-03
   53.94000      3.1149217E-03
   54.00000      3.1455094E-03
   54.06000      3.1755576E-03
   54.12000      3.2051837E-03
   54.18000      3.2345003E-03
   54.24000      3.2636125E-03
   54.30000      3.2926169E-03
   54.36000      3.3215985E-03
   54.42000      3.3506311E-03
   54.48000      3.3797736E-03
   54.54000      3.4090707E-03
   54.60000      3.4385507E-03
   54.66000      3.4682262E-03
   54.72000      3.4980911E-03
   54.78000      3.5281228E-03
   54.84000      3.5582813E-03
   54.90000      3.5885097E-03
   54.96000      3.6187340E-03
   55.02000      3.6488650E-03
   55.08000      3.6787994E-03
   55.14000      3.7084196E-03
   55.20000      3.7375968E-03
   55.26000      3.7661924E-03
   55.32000      3.7940594E-03
   55.38000      3.8210449E-03
   55.44000      3.8469920E-03
   55.50000      3.8717424E-03
   55.56000      3.8951375E-03