  -2.400000      0.0000000E+00
  -2.340000      0.0000000E+00
  -2.280000      0.0000000E+00
  -2.220000      0.0000000E+00
  -2.160000      0.0000000E+00
  -2.100000      7.2285246E-21
  -2.040000      7.0389703E-20
  -1.980000      3.3503051E-19
  -1.920000      9.9518544E-19
  -1.860000      1.8938290E-18
  -1.800000      1.7115202E-18
  -1.740000     -2.5834298E-18
  -1.680000     -1.4479408E-17
  -1.620000     -3.3528631E-17
  -1.560000     -4.8901035E-17
  -1.500000     -3.5983763E-17
  -1.440000      3.6405787E-17
  -1.380000      1.8382212E-16
  -1.320000      3.7489594E-16
  -1.260000      5.0966184E-16
  -1.200000      4.3210835E-16
  -1.140000     -8.2331677E-18
  -1.080000     -8.5650675E-16
  -1.020000     -1.9553135E-15
 -0.9600000     -2.9065751E-15
 -0.9000000     -3.1371218E-15
 -0.8400000     -2.0747530E-15
 -0.7800000      6.0506824E-16
 -0.7200000      4.7352488E-15
 -0.6600000      9.4980727E-15
 -0.6000000      1.3422694E-14
 -0.5400000      1.4592960E-14
 -0.4800000      1.1097318E-14
 -0.4200000      1.7089191E-15
 -0.3600000     -1.3305806E-14
 -0.3000000     -3.1487433E-14
 -0.2400000     -4.7958419E-14
 -0.1800000     -5.6058541E-14
 -0.1200000     -4.9042621E-14
 -5.9999999E-02 -2.2637171E-14
  0.0000000E+00  2.2254723E-14
  5.9999999E-02  7.7788965E-14
  0.1200000      1.2944749E-13
  0.1800000      1.5893213E-13
  0.2400000      1.4938449E-13
  0.3000000      9.1640203E-14
  0.3600000     -1.0469143E-14
  0.4200000     -1.3784331E-13
  0.4800000     -2.5833995E-13
  0.5400000     -3.3379544E-13
  0.6000000     -3.3068136E-13
  0.6600000     -2.3185132E-13
  0.7200000     -4.5866539E-14
  0.7800000      1.8978414E-13
  0.8400000      4.1429075E-13
  0.9000000      5.5840337E-13
  0.9600000      5.6573940E-13
   1.020000      4.1428869E-13
   1.080000      1.2994442E-13
   1.140000     -2.1509887E-13
   1.200000     -5.2164577E-13
   1.260000     -6.9595160E-13
   1.320000     -6.8395262E-13
   1.380000     -4.9293067E-13
   1.440000     -1.8966828E-13
   1.500000      1.2636714E-13
   1.560000      3.6439002E-13
   1.620000      4.7933082E-13
   1.680000      4.8573965E-13
   1.740000      4.3981412E-13
   1.800000      3.9700936E-13
   1.860000      3.6718808E-13
   1.920000      2.9393450E-13
   1.980000      7.5436334E-14
   2.040000     -3.7577035E-13
   2.100000     -1.0587583E-12
   2.160000     -1.8328479E-12
   2.220000     -2.4212555E-12
   2.280000     -2.4809178E-12
   2.340000     -1.7206747E-12
   2.400000     -2.6549045E-14
   2.460000      2.4536820E-12
   2.520000      5.3002719E-12
   2.580000      7.8902692E-12
   2.640000      9.5187183E-12
   2.700000      9.5264742E-12
   2.760000      7.3896774E-12
   2.820000      2.7468266E-12
   2.880000     -4.6294353E-12
   2.940000     -1.4880645E-11
   3.000000     -2.8083317E-11
   3.060000     -4.4203766E-11
   3.120000     -6.2976867E-11
   3.180000     -8.3735990E-11
   3.240000     -1.0525415E-10
   3.300000     -1.2567203E-10
   3.360000     -1.4257816E-10
   3.420000     -1.5327034E-10
   3.480000     -1.5517365E-10
   3.540000     -1.4633353E-10
   3.600000     -1.2586486E-10
   3.660000     -9.4234003E-11
   3.720000     -5.3291094E-11
   3.780000     -6.0443339E-12
   3.840000      4.3748422E-11
   3.900000      9.2035803E-11
   3.960000      1.3483752E-10
   4.020000      1.6843459E-10
   4.080000      1.8940136E-10
   4.140000      1.9458851E-10
   4.200000      1.8120534E-10
   4.260000      1.4710790E-10
   4.320000      9.1287013E-11
   4.380000      1.4422563E-11
   4.440000     -8.0709717E-11
   4.500000     -1.8917748E-10
   4.560000     -3.0426345E-10
   4.620000     -4.1820225E-10
   4.680000     -5.2308941E-10
   4.740000     -6.1173921E-10
   4.800000     -6.7833644E-10
   4.860000     -7.1885109E-10
   4.920000     -7.3128958E-10
   4.980000     -7.1586959E-10
   5.040000     -6.7512812E-10
   5.100000     -6.1385280E-10
   5.160000     -5.3865634E-10
   5.220000     -4.5706225E-10
   5.280000     -3.7615427E-10
   5.340000     -3.0107974E-10
   5.400000     -2.3386881E-10
   5.460000     -1.7303298E-10
   5.520000     -1.1418848E-10
   5.580000     -5.1594649E-11
   5.640000      1.9852909E-11
   5.700000      1.0281810E-10
   5.760000      1.9648148E-10
   5.820000      2.9653502E-10
   5.880000      3.9610870E-10
   5.940000      4.8722526E-10
   6.000000      5.6228511E-10
   6.060000      6.1520128E-10
   6.120000      6.4202710E-10
   6.180000      6.4112132E-10
   6.240000      6.1298577E-10
   6.300000      5.5989408E-10
   6.360000      4.8539667E-10
   6.420000      3.9380252E-10
   6.480000      2.8981600E-10
   6.540000      1.7855868E-10
   6.600000      6.6140947E-11
   6.660000     -3.9284548E-11
   6.720000     -1.2635384E-10
   6.780000     -1.7977217E-10
   6.840000     -1.8054494E-10
   6.900000     -1.0732001E-10
   6.960000      6.1481785E-11
   7.020000      3.4542535E-10
   7.080000      7.6044027E-10
   7.140000      1.3182382E-09
   7.200000      2.0267061E-09
   7.260000      2.8908118E-09
   7.320000      3.9134176E-09
   7.380000      5.0955746E-09
   7.440000      6.4361876E-09
   7.500000      7.9312406E-09
   7.560000      9.5728598E-09
   7.620000      1.1348471E-08
   7.680000      1.3240169E-08
   7.740000      1.5224400E-08
   7.800000      1.7272050E-08
   7.860000      1.9349057E-08
   7.920000      2.1417620E-08
   7.980000      2.3437851E-08
   8.040000      2.5369644E-08
   8.100000      2.7174384E-08
   8.160000      2.8816210E-08
   8.220000      3.0262832E-08
   8.280000      3.1485925E-08
   8.340000      3.2461344E-08
   8.400000      3.3169144E-08
   8.460000      3.3593526E-08
   8.520000      3.3722653E-08
   8.580000      3.3548510E-08
   8.640000      3.3067092E-08
   8.700000      3.2279182E-08
   8.760000      3.1191647E-08
   8.820000      2.9818871E-08
   8.880000      2.8183640E-08
   8.940000      2.6316759E-08
   9.000000      2.4255279E-08
   9.060000      2.2039695E-08
   9.120000      1.9711033E-08
   9.180000      1.7308738E-08
   9.240000      1.4869805E-08
   9.300000      1.2428927E-08
   9.360000      1.0018831E-08
   9.420000      7.6699465E-09
   9.480000      5.4089244E-09
   9.540000      3.2561844E-09
   9.600000      1.2232421E-09
   9.660000     -6.8936057E-10
   9.720000     -2.4929552E-09
   9.780000     -4.2104276E-09
   9.840000     -5.8749468E-09
   9.900000     -7.5280457E-09
   9.960000     -9.2170778E-09
   10.02000     -1.0991810E-08
   10.08000     -1.2899901E-08
   10.14000     -1.4981390E-08
   10.20000     -1.7262916E-08
   10.26000     -1.9752825E-08
   10.32000     -2.2438330E-08
   10.38000     -2.5285374E-08
   10.44000     -2.8240921E-08
   10.50000     -3.1236794E-08
   10.56000     -3.4193803E-08
   10.62000     -3.7025416E-08
   10.68000     -3.9640906E-08
   10.74000     -4.1948717E-08
   10.80000     -4.3860972E-08
   10.86000     -4.5299590E-08
   10.92000     -4.6203731E-08
   10.98000     -4.6537227E-08
   11.04000     -4.6294357E-08
   11.10000     -4.5502304E-08
   11.16000     -4.4219547E-08
   11.22000     -4.2530303E-08
   11.28000     -4.0536037E-08
   11.34000     -3.8345508E-08
   11.40000     -3.6064872E-08
   11.46000     -3.3788940E-08
   11.52000     -3.1594478E-08
   11.58000     -2.9535954E-08
   11.64000     -2.7644004E-08
   11.70000     -2.5926624E-08
   11.76000     -2.4372939E-08
   11.82000     -2.2959020E-08
   11.88000     -2.1654740E-08
   11.94000     -2.0430450E-08
   12.00000     -1.9262085E-08
   12.06000     -1.8133852E-08
   12.12000     -1.7038262E-08
   12.18000     -1.5974249E-08
   12.24000     -1.4944597E-08
   12.30000     -1.3953918E-08
   12.36000     -1.3007738E-08
   12.42000     -1.2112348E-08
   12.48000     -1.1274346E-08
   12.54000     -1.0498792E-08
   12.60000     -9.7856665E-09
   12.66000     -9.1254488E-09
   12.72000     -8.4955882E-09
   12.78000     -7.8596987E-09
   12.84000     -7.1705561E-09
   12.90000     -6.3765522E-09
   12.96000     -5.4300235E-09
   13.02000     -4.2952739E-09
   13.08000     -2.9543910E-09
   13.14000     -1.4098410E-09
   13.20000      3.1621208E-10
   13.26000      2.1852438E-09
   13.32000      4.1475201E-09
   13.38000      6.1482273E-09
   13.44000      8.1337674E-09
   13.50000      1.0057316E-08
   13.56000      1.1882665E-08
   13.62000      1.3585597E-08
   13.68000      1.5152571E-08
   13.74000      1.6577378E-08
   13.80000      1.7857177E-08
   13.86000      1.8989581E-08
   13.92000      1.9972207E-08
   13.98000      2.0805004E-08
   14.04000      2.1494664E-08
   14.10000      2.2059234E-08
   14.16000      2.2530754E-08
   14.22000      2.2953952E-08
   14.28000      2.3380172E-08
   14.34000      2.3857133E-08
   14.40000      2.4416737E-08
   14.46000      2.5064248E-08
   14.52000      2.5772202E-08
   14.58000      2.6481647E-08
   14.64000      2.7111255E-08
   14.70000      2.7572774E-08
   14.76000      2.7789264E-08
   14.82000      2.7711707E-08
   14.88000      2.7329836E-08
   14.94000      2.6674572E-08
   15.00000      2.5811465E-08
   15.06000      2.4826871E-08
   15.12000      2.3810287E-08
   15.18000      2.2837227E-08
   15.24000      2.1956890E-08
   15.30000      2.1187683E-08
   15.36000      2.0521464E-08
   15.42000      1.9934896E-08
   15.48000      1.9403988E-08
   15.54000      1.8916682E-08
   15.60000      1.8478950E-08
   15.66000      1.8111855E-08
   15.72000      1.7840287E-08
   15.78000      1.7677205E-08
   15.84000      1.7609134E-08
   15.90000      1.7588668E-08
   15.96000      1.7537797E-08
   16.02000      1.7362520E-08
   16.08000      1.6975617E-08
   16.14000      1.6321575E-08
   16.20000      1.5396406E-08
   16.26000      1.4255821E-08
   16.32000      1.3008021E-08
   16.38000      1.1791356E-08
   16.44000      1.0741738E-08
   16.50000      9.9581818E-09
   16.56000      9.4763166E-09
   16.62000      9.2581400E-09
   16.68000      9.2019281E-09
   16.74000      9.1702557E-09
   16.80000      9.0283372E-09
   16.86000      8.6815692E-09
   16.92000      8.1011864E-09
   16.98000      7.3306401E-09
   17.04000      6.4712395E-09
   17.10000      5.6518394E-09
   17.16000      4.9919424E-09
   17.22000      4.5692006E-09
   17.28000      4.4006399E-09
   17.34000      4.4426796E-09
   17.40000      4.6094328E-09
   17.46000      4.8034399E-09
   17.52000      4.9493143E-09
   17.58000      5.0198414E-09
   17.64000      5.0462341E-09
   17.70000      5.1089963E-09
   17.76000      5.3119042E-09
   17.82000      5.7470082E-09
   17.88000      6.4616108E-09
   17.94000      7.4376540E-09
   18.00000      8.5901801E-09
   18.06000      9.7855724E-09
   18.12000      1.0874326E-08
   18.18000      1.1728851E-08
   18.24000      1.2275512E-08
   18.30000      1.2511964E-08
   18.36000      1.2504985E-08
   18.42000      1.2369417E-08
   18.48000      1.2233922E-08
   18.54000      1.2202960E-08
   18.60000      1.2325635E-08
   18.66000      1.2580446E-08
   18.72000      1.2880598E-08
   18.78000      1.3098616E-08
   18.84000      1.3102987E-08
   18.90000      1.2795743E-08
   18.96000      1.2139372E-08
   19.02000      1.1164898E-08
   19.08000      9.9590451E-09
   19.14000      8.6351832E-09
   19.20000      7.2978414E-09
   19.26000      6.0122427E-09
   19.32000      4.7882081E-09
   19.38000      3.5826433E-09
   19.44000      2.3186746E-09
   19.50000      9.1422958E-10
   19.56000     -6.8979317E-10
   19.62000     -2.5109692E-09
   19.68000     -4.5220019E-09
   19.74000     -6.6628481E-09
   19.80000     -8.8633136E-09
   19.86000     -1.1067673E-08
   19.92000     -1.3252424E-08
   19.98000     -1.5430965E-08
   20.04000     -1.7643856E-08
   20.10000     -1.9938618E-08
   20.16000     -2.2346869E-08
   20.22000     -2.4867518E-08
   20.28000     -2.7462509E-08
   20.34000     -3.0067074E-08
   20.40000     -3.2611108E-08
   20.46000     -3.5044213E-08
   20.52000     -3.7355406E-08
   20.58000     -3.9580101E-08
   20.64000     -4.1791161E-08
   20.70000     -4.4076092E-08
   20.76000     -4.6507310E-08
   20.82000     -4.9114867E-08
   20.88000     -5.1870366E-08
   20.94000     -5.4687412E-08
   21.00000     -5.7438459E-08
   21.06000     -5.9982760E-08
   21.12000     -6.2196797E-08
   21.18000     -6.3998172E-08
   21.24000     -6.5356630E-08
   21.30000     -6.6290298E-08
   21.36000     -6.6849957E-08
   21.42000     -6.7097403E-08
   21.48000     -6.7084997E-08
   21.54000     -6.6841864E-08
   21.60000     -6.6369680E-08
   21.66000     -6.5647569E-08
   21.72000     -6.4643650E-08
   21.78000     -6.3329097E-08
   21.84000     -6.1691317E-08
   21.90000     -5.9743115E-08
   21.96000     -5.7526396E-08
   22.02000     -5.5109705E-08
   22.08000     -5.2580187E-08
   22.14000     -5.0031272E-08
   22.20000     -4.7548294E-08
   22.26000     -4.5194870E-08
   22.32000     -4.3003261E-08
   22.38000     -4.0971365E-08
   22.44000     -3.9067768E-08
   22.50000     -3.7244305E-08
   22.56000     -3.5453233E-08
   22.62000     -3.3664438E-08
   22.68000     -3.1877665E-08
   22.74000     -3.0125598E-08
   22.80000     -2.8466379E-08
   22.86000     -2.6967189E-08
   22.92000     -2.5683645E-08
   22.98000     -2.4641418E-08
   23.04000     -2.3826301E-08
   23.10000     -2.3186741E-08
   23.16000     -2.2649132E-08
   23.22000     -2.2142153E-08
   23.28000     -2.1623121E-08
   23.34000     -2.1098064E-08
   23.40000     -2.0628448E-08
   23.46000     -2.0321158E-08
   23.52000     -2.0303416E-08
   23.58000     -2.0689399E-08
   23.64000     -2.1548448E-08
   23.70000     -2.2885017E-08
   23.76000     -2.4637094E-08
   23.82000     -2.6694181E-08
   23.88000     -2.8929323E-08
   23.94000     -3.1234986E-08
   24.00000     -3.3551146E-08
   24.06000     -3.5876528E-08
   24.12000     -3.8259682E-08
   24.18000     -4.0773426E-08
   24.24000     -4.3481563E-08
   24.30000     -4.6409184E-08
   24.36000     -4.9526182E-08
   24.42000     -5.2749073E-08
   24.48000     -5.5960090E-08
   24.54000     -5.9037195E-08
   24.60000     -6.1885530E-08
   24.66000     -6.4460814E-08
   24.72000     -6.6777879E-08
   24.78000     -6.8902111E-08
   24.84000     -7.0926482E-08
   24.90000     -7.2941035E-08
   24.96000     -7.5003534E-08
   25.02000     -7.7119850E-08
   25.08000     -7.9239513E-08
   25.14000     -8.1267807E-08
   25.20000     -8.3090590E-08
   25.26000     -8.4604480E-08
   25.32000     -8.5743466E-08
   25.38000     -8.6493685E-08
   25.44000     -8.6892264E-08
   25.50000     -8.7010740E-08
   25.56000     -8.6928786E-08
   25.62000     -8.6706869E-08
   25.68000     -8.6367152E-08
   25.74000     -8.5889042E-08
   25.80000     -8.5220940E-08
   25.86000     -8.4304524E-08
   25.92000     -8.3102925E-08
   25.98000     -8.1623163E-08
   26.04000     -7.9924561E-08
   26.10000     -7.8109458E-08
   26.16000     -7.6298527E-08
   26.22000     -7.4598290E-08
   26.28000     -7.3071242E-08
   26.34000     -7.1718560E-08
   26.40000     -7.0481590E-08
   26.46000     -6.9262008E-08
   26.52000     -6.7954673E-08
   26.58000     -6.6482663E-08
   26.64000     -6.4823126E-08
   26.70000     -6.3015278E-08
   26.76000     -6.1147794E-08
   26.82000     -5.9329736E-08
   26.88000     -5.7654781E-08
   26.94000     -5.6170840E-08
   27.00000     -5.4865286E-08
   27.06000     -5.3670597E-08
   27.12000     -5.2488026E-08
   27.18000     -5.1220834E-08
   27.24000     -4.9805490E-08
   27.30000     -4.8230618E-08
   27.36000     -4.6538030E-08
   27.42000     -4.4806729E-08
   27.48000     -4.3126420E-08
   27.54000     -4.1569933E-08
   27.60000     -4.0173504E-08
   27.66000     -3.8930246E-08
   27.72000     -3.7797207E-08
   27.78000     -3.6711914E-08
   27.84000     -3.5611816E-08
   27.90000     -3.4449876E-08
   27.96000     -3.3202042E-08
   28.02000     -3.1865717E-08
   28.08000     -3.0451641E-08
   28.14000     -2.8973618E-08
   28.20000     -2.7440519E-08
   28.26000     -2.5853279E-08
   28.32000     -2.4206944E-08
   28.38000     -2.2495549E-08
   28.44000     -2.0716570E-08
   28.50000     -1.8872347E-08
   28.56000     -1.6967888E-08
   28.62000     -1.5006659E-08
   28.68000     -1.2987269E-08
   28.74000     -1.0903689E-08
   28.80000     -8.7497343E-09
   28.86000     -6.5261738E-09
   28.92000     -4.2470036E-09
   28.98000     -1.9412842E-09
   29.04000      3.5128930E-10
   29.10000      2.5900799E-09
   29.16000      4.7447797E-09
   29.22000      6.8034312E-09
   29.28000      8.7733705E-09
   29.34000      1.0674089E-08
   29.40000      1.2524433E-08
   29.46000      1.4329082E-08
   29.52000      1.6069828E-08
   29.58000      1.7705394E-08
   29.64000      1.9180327E-08
   29.70000      2.0439941E-08
   29.76000      2.1446118E-08
   29.82000      2.2188321E-08
   29.88000      2.2686109E-08
   29.94000      2.2982318E-08
   30.00000      2.3129230E-08
   30.06000      2.3172266E-08
   30.12000      2.3136232E-08
   30.18000      2.3018163E-08
   30.24000      2.2788667E-08
   30.30000      2.2401181E-08
   30.36000      2.1806388E-08
   30.42000      2.0967711E-08
   30.48000      1.9873598E-08
   30.54000      1.8543103E-08
   30.60000      1.7023012E-08
   30.66000      1.5376916E-08
   30.72000      1.3668969E-08
   30.78000      1.1946732E-08
   30.84000      1.0228098E-08
   30.90000      8.4965244E-09
   30.96000      6.7065140E-09
   31.02000      4.7982800E-09
   31.08000      2.7175135E-09
   31.14000      4.3437470E-10
   31.20000     -2.0442181E-09
   31.26000     -4.6729394E-09
   31.32000     -7.3776816E-09
   31.38000     -1.0073511E-08
   31.44000     -1.2685382E-08
   31.50000     -1.5165204E-08
   31.56000     -1.7500069E-08
   31.62000     -1.9709256E-08
   31.68000     -2.1831180E-08
   31.74000     -2.3904592E-08
   31.80000     -2.5950293E-08
   31.86000     -2.7959580E-08
   31.92000     -2.9893709E-08
   31.98000     -3.1695102E-08
   32.04000     -3.3306961E-08
   32.10000     -3.4694562E-08
   32.16000     -3.5860307E-08
   32.22000     -3.6846153E-08
   32.28000     -3.7721275E-08
   32.34000     -3.8558277E-08
   32.40000     -3.9406036E-08
   32.46000     -4.0269153E-08
   32.52000     -4.1102041E-08
   32.58000     -4.1820556E-08
   32.64000     -4.2327446E-08
   32.70000     -4.2542709E-08
   32.76000     -4.2428145E-08
   32.82000     -4.1997708E-08
   32.88000     -4.1310816E-08
   32.94000     -4.0451976E-08
   33.00000     -3.9504805E-08
   33.06000     -3.8529773E-08
   33.12000     -3.7552841E-08
   33.18000     -3.6567592E-08
   33.24000     -3.5548297E-08
   33.30000     -3.4468083E-08
   33.36000     -3.3314965E-08
   33.42000     -3.2100207E-08
   33.48000     -3.0856672E-08
   33.54000     -2.9628396E-08
   33.60000     -2.8455732E-08
   33.66000     -2.7361496E-08
   33.72000     -2.6343056E-08
   33.78000     -2.5373112E-08
   33.84000     -2.4408903E-08
   33.90000     -2.3406926E-08
   33.96000     -2.2338483E-08
   34.02000     -2.1201245E-08
   34.08000     -2.0023327E-08
   34.14000     -1.8858698E-08
   34.20000     -1.7775310E-08
   34.26000     -1.6839421E-08
   34.32000     -1.6100485E-08
   34.38000     -1.5580717E-08
   34.44000     -1.5271912E-08
   34.50000     -1.5139971E-08
   34.56000     -1.5135464E-08
   34.62000     -1.5206929E-08
   34.68000     -1.5313175E-08
   34.74000     -1.5431494E-08
   34.80000     -1.5560184E-08
   34.86000     -1.5715619E-08
   34.92000     -1.5925433E-08
   34.98000     -1.6220147E-08
   35.04000     -1.6625249E-08
   35.10000     -1.7155280E-08
   35.16000     -1.7810660E-08
   35.22000     -1.8577595E-08
   35.28000     -1.9431063E-08
   35.34000     -2.0340480E-08
   35.40000     -2.1277003E-08
   35.46000     -2.2220648E-08
   35.52000     -2.3164882E-08
   35.58000     -2.4116781E-08
   35.64000     -2.5092064E-08
   35.70000     -2.6106248E-08
   35.76000     -2.7164917E-08
   35.82000     -2.8256640E-08
   35.88000     -2.9351330E-08
   35.94000     -3.0404973E-08
   36.00000     -3.1369272E-08
   36.06000     -3.2203300E-08
   36.12000     -3.2883818E-08
   36.18000     -3.3411453E-08
   36.24000     -3.3811357E-08
   36.30000     -3.4128146E-08
   36.36000     -3.4416043E-08
   36.42000     -3.4726000E-08
   36.48000     -3.5092405E-08
   36.54000     -3.5522557E-08
   36.60000     -3.5992340E-08
   36.66000     -3.6450405E-08
   36.72000     -3.6831132E-08
   36.78000     -3.7073551E-08
   36.84000     -3.7140847E-08
   36.90000     -3.7033882E-08
   36.96000     -3.6793548E-08
   37.02000     -3.6490178E-08
   37.08000     -3.6202877E-08
   37.14000     -3.5995509E-08
   37.20000     -3.5897564E-08
   37.26000     -3.5896861E-08
   37.32000     -3.5946833E-08
   37.38000     -3.5986023E-08
   37.44000     -3.5962934E-08
   37.50000     -3.5857340E-08
   37.56000     -3.5690377E-08
   37.62000     -3.5519580E-08
   37.68000     -3.5420499E-08
   37.74000     -3.5461245E-08
   37.80000     -3.5678983E-08
   37.86000     -3.6066655E-08
   37.92000     -3.6574598E-08
   37.98000     -3.7126522E-08
   38.04000     -3.7644185E-08
   38.10000     -3.8072276E-08
   38.16000     -3.8395044E-08
   38.22000     -3.8639236E-08
   38.28000     -3.8862744E-08
   38.34000     -3.9132907E-08
   38.40000     -3.9501899E-08
   38.46000     -3.9987267E-08
   38.52000     -4.0563791E-08
   38.58000     -4.1169365E-08
   38.64000     -4.1723005E-08
   38.70000     -4.2149264E-08
   38.76000     -4.2401386E-08
   38.82000     -4.2475598E-08
   38.88000     -4.2411649E-08
   38.94000     -4.2279069E-08
   39.00000     -4.2153289E-08
   39.06000     -4.2089205E-08
   39.12000     -4.2100950E-08
   39.18000     -4.2154568E-08
   39.24000     -4.2176211E-08
   39.30000     -4.2073200E-08
   39.36000     -4.1761162E-08
   39.42000     -4.1188628E-08
   39.48000     -4.0351487E-08
   39.54000     -3.9293223E-08
   39.60000     -3.8091358E-08
   39.66000     -3.6834695E-08
   39.72000     -3.5598521E-08
   39.78000     -3.4425145E-08
   39.84000     -3.3315462E-08
   39.90000     -3.2233675E-08
   39.96000     -3.1123452E-08
   40.02000     -2.9930117E-08
   40.08000     -2.8621630E-08
   40.14000     -2.7201370E-08
   40.20000     -2.5708335E-08
   40.26000     -2.4204757E-08
   40.32000     -2.2755540E-08
   40.38000     -2.1407015E-08
   40.44000     -2.0172850E-08
   40.50000     -1.9032184E-08
   40.56000     -1.7940543E-08
   40.62000     -1.6849089E-08
   40.68000     -1.5724659E-08
   40.74000     -1.4562998E-08
   40.80000     -1.3390349E-08
   40.86000     -1.2253352E-08
   40.92000     -1.1201553E-08
   40.98000     -1.0269535E-08
   41.04000     -9.4653725E-09
   41.10000     -8.7693177E-09
   41.16000     -8.1426190E-09
   41.22000     -7.5425710E-09
   41.28000     -6.9380119E-09
   41.34000     -6.3197922E-09
   41.40000     -5.7029808E-09
   41.46000     -5.1207740E-09
   41.52000     -4.6128541E-09
   41.58000     -4.2124864E-09
   41.64000     -3.9366221E-09
   41.70000     -3.7818575E-09
   41.76000     -3.7270818E-09
   41.82000     -3.7415919E-09
   41.88000     -3.7960164E-09
   41.94000     -3.8727190E-09
   42.00000     -3.9725720E-09
   42.06000     -4.1159178E-09
   42.12000     -4.3370512E-09
   42.18000     -4.6733883E-09
   42.24000     -5.1521840E-09
   42.30000     -5.7788512E-09
   42.36000     -6.5309420E-09
   42.42000     -7.3606121E-09
   42.48000     -8.2059062E-09
   42.54000     -9.0082564E-09
   42.60000     -9.7311519E-09
   42.66000     -1.0373959E-08
   42.72000     -1.0975973E-08
   42.78000     -1.1608678E-08
   42.84000     -1.2358012E-08
   42.90000     -1.3301853E-08
   42.96000     -1.4489673E-08
   43.02000     -1.5930731E-08
   43.08000     -1.7594543E-08
   43.14000     -1.9423512E-08
   43.20000     -2.1353852E-08
   43.26000     -2.3338517E-08
   43.32000     -2.5365454E-08
   43.38000     -2.7466067E-08
   43.44000     -2.9711924E-08
   43.50000     -3.2201410E-08
   43.56000     -3.5041218E-08
   43.62000     -3.8329198E-08
   43.68000     -4.2144617E-08
   43.74000     -4.6549442E-08
   43.80000     -5.1600257E-08
   43.86000     -5.7366528E-08
   43.92000     -6.3948733E-08
   43.98000     -7.1489900E-08
   44.04000     -8.0177166E-08
   44.10000     -9.0234600E-08
   44.16000     -1.0191239E-07
   44.22000     -1.1548001E-07
   44.28000     -1.3122920E-07
   44.34000     -1.4948905E-07
   44.40000     -1.7065005E-07
   44.46000     -1.9519022E-07
   44.52000     -2.2369541E-07
   44.58000     -2.5686830E-07
   44.64000     -2.9552493E-07
   44.70000     -3.4058323E-07
   44.76000     -3.9305220E-07
   44.82000     -4.5402936E-07
   44.88000     -5.2471364E-07
   44.94000     -6.0643555E-07
   45.00000     -7.0070058E-07
   45.06000     -8.0923735E-07
   45.12000     -9.3404191E-07
   45.18000     -1.0774089E-06
   45.24000     -1.2419447E-06
   45.30000     -1.4305657E-06
   45.36000     -1.6464865E-06
   45.42000     -1.8932113E-06
   45.48000     -2.1745391E-06
   45.54000     -2.4945859E-06
   45.60000     -2.8578329E-06
   45.66000     -3.2691855E-06
   45.72000     -3.7340374E-06
   45.78000     -4.2583265E-06
   45.84000     -4.8485731E-06
   45.90000     -5.5118940E-06
   45.96000     -6.2559948E-06
   46.02000     -7.0891583E-06
   46.08000     -8.0202226E-06
   46.14000     -9.0585727E-06
   46.20000     -1.0214143E-05
   46.26000     -1.1497440E-05
   46.32000     -1.2919561E-05
   46.38000     -1.4492226E-05
   46.44000     -1.6227785E-05
   46.50000     -1.8139217E-05
   46.56000     -2.0240079E-05
   46.62000     -2.2544467E-05
   46.68000     -2.5066933E-05
   46.74000     -2.7822402E-05
   46.80000     -3.0826101E-05
   46.86000     -3.4093471E-05
   46.92000     -3.7640108E-05
   46.98000     -4.1481679E-05
   47.04000     -4.5633846E-05
   47.10000     -5.0112179E-05
   47.16000     -5.4932032E-05
   47.22000     -6.0108403E-05
   47.28000     -6.5655790E-05
   47.34000     -7.1588009E-05
   47.40000     -7.7918026E-05
   47.46000     -8.4657804E-05
   47.52000     -9.1818118E-05
   47.58000     -9.9408433E-05
   47.64000     -1.0743680E-04
   47.70000     -1.1590966E-04
   47.76000     -1.2483168E-04
   47.82000     -1.3420568E-04
   47.88000     -1.4403234E-04
   47.94000     -1.5431017E-04
   48.00000     -1.6503529E-04
   48.06000     -1.7620141E-04
   48.12000     -1.8779964E-04
   48.18000     -1.9981859E-04
   48.24000     -2.1224427E-04
   48.30000     -2.2506010E-04
   48.36000     -2.3824690E-04
   48.42000     -2.5178294E-04
   48.48000     -2.6564393E-04
   48.54000     -2.7980315E-04
   48.60000     -2.9423146E-04
   48.66000     -3.0889761E-04
   48.72000     -3.2376827E-04
   48.78000     -3.3880831E-04
   48.84000     -3.5398107E-04
   48.90000     -3.6924868E-04
   48.96000     -3.8457225E-04
   49.02000     -3.9991230E-04
   49.08000     -4.1522883E-04
   49.14000     -4.3048194E-04
   49.20000     -4.4563203E-04
   49.26000     -4.6064006E-04
   49.32000     -4.7546800E-04
   49.38000     -4.9007917E-04
   49.44000     -5.0443847E-04
   49.50000     -5.1851309E-04
   49.56000     -5.3227245E-04
   49.62000     -5.4568885E-04
   49.68000     -5.5873761E-04
   49.74000     -5.7139707E-04
   49.80000     -5.8364932E-04
   49.86000     -5.9547991E-04
   49.92000     -6.0687802E-04
   49.98000     -6.1783695E-04
   50.04000     -6.2835350E-04
   50.10000     -6.3842844E-04
   50.16000     -6.4806646E-04
   50.22000     -6.5727608E-04
   50.28000     -6.6606939E-04
   50.34000     -6.7446212E-04
   50.40000     -6.8247324E-04
   50.46000     -6.9012475E-04
   50.52000     -6.9744111E-04
   50.58000     -7.0444919E-04
   50.64000     -7.1117748E-04
   50.70000     -7.1765610E-04
   50.76000     -7.2391622E-04
   50.82000     -7.2998944E-04
   50.88000     -7.3590764E-04
   50.94000     -7.4170233E-04
   51.00000     -7.4740441E-04
   51.06000     -7.5304351E-04
   51.12000     -7.5864769E-04
   51.18000     -7.6424296E-04
   51.24000     -7.6985313E-04
   51.30000     -7.7549898E-04
   51.36000     -7.8119850E-04
   51.42000     -7.8696589E-04
   51.48000     -7.9281221E-04
   51.54000     -7.9874438E-04
   51.60000     -8.0476573E-04
   51.66000     -8.1087573E-04
   51.72000     -8.1707019E-04
   51.78000     -8.2334119E-04
   51.84000     -8.2967704E-04
   51.90000     -8.3606265E-04
   51.96000     -8.4247987E-04
   52.02000     -8.4890716E-04
   52.08000     -8.5532060E-04
   52.14000     -8.6169393E-04
   52.20000     -8.6799893E-04
   52.26000     -8.7420607E-04
   52.32000     -8.8028476E-04
   52.38000     -8.8620407E-04
   52.44000     -8.9193310E-04
   52.50000     -8.9744088E-04
   52.56000     -9.0269750E-04
   52.62000     -9.0767391E-04
   52.68000     -9.1234298E-04
   52.74000     -9.1667980E-04
   52.80000     -9.2066202E-04
   52.86000     -9.2427031E-04
   52.92000     -9.2748849E-04
   52.98000     -9.3030353E-04
   53.04000     -9.3270571E-04
   53.10000     -9.3468890E-04
   53.16000     -9.3625032E-04
   53.22000     -9.3739096E-04
   53.28000     -9.3811564E-04
   53.34000     -9.3843276E-04
   53.40000     -9.3835406E-04
   53.46000     -9.3789457E-04
   53.52000     -9.3707192E-04
   53.58000     -9.3590614E-04
   53.64000     -9.3441957E-04
   53.70000     -9.3263644E-04
   53.76000     -9.3058252E-04
   53.82000     -9.2828489E-04
   53.88000     -9.2577108E-04
   53.94000     -9.2306879E-04
   54.00000     -9.2020526E-04
   54.06000     -9.1720693E-04
   54.12000     -9.1409910E-04
   54.18000     -9.1090571E-04
   54.24000     -9.0764888E-04
   54.30000     -9.0434885E-04
   54.36000     -9.0102339E-04
   54.42000     -8.9768780E-04
   54.48000     -8.9435419E-04
   54.54000     -8.9103164E-04
   54.60000     -8.8772608E-04
   54.66000     -8.8444044E-04
   54.72000     -8.8117452E-04
   54.78000     -8.7792525E-04
   54.84000     -8.7468646E-04
   54.90000     -8.7144919E-04
   54.96000     -8.6820201E-04
   55.02000     -8.6493121E-04
   55.08000     -8.6162123E-04
   55.14000     -8.5825514E-04
   55.20000     -8.5481443E-04
   55.26000     -8.5127971E-04
   55.32000     -8.4763096E-04
   55.38000     -8.4384793E-04
   55.44000     -8.3991053E-04
   55.50000     -8.3579926E-04
   55.56000     -8.3149591E-04