  -2.400000      0.0000000E+00
  -2.340000      0.0000000E+00
  -2.280000      0.0000000E+00
  -2.220000      0.0000000E+00
  -2.160000      0.0000000E+00
  -2.100000      3.8866976E-19
  -2.040000      3.0951678E-18
  -1.980000      1.2440761E-17
  -1.920000      3.2270248E-17
  -1.860000      5.5715061E-17
  -1.800000      4.9977955E-17
  -1.740000     -4.8895821E-17
  -1.680000     -3.0640276E-16
  -1.620000     -7.1060034E-16
  -1.560000     -1.0716956E-15
  -1.500000     -9.8745227E-16
  -1.440000      1.3479059E-17
  -1.380000      2.1096980E-15
  -1.320000      4.7471042E-15
  -1.260000      6.4620605E-15
  -1.200000      5.3476214E-15
  -1.140000      2.5715857E-16
  -1.080000     -7.7449499E-15
  -1.020000     -1.4743655E-14
 -0.9600000     -1.5244108E-14
 -0.9000000     -5.5903721E-15
 -0.8400000      1.1841719E-14
 -0.7800000      2.6548859E-14
 -0.7200000      2.2895702E-14
 -0.6600000     -1.0929950E-14
 -0.6000000     -7.1117821E-14
 -0.5400000     -1.3056636E-13
 -0.4800000     -1.4318059E-13
 -0.4200000     -6.3749278E-14
 -0.3600000      1.2176164E-13
 -0.3000000      3.7008081E-13
 -0.2400000      5.7729835E-13
 -0.1800000      6.1071927E-13
 -0.1200000      3.7162545E-13
 -5.9999999E-02 -1.3593532E-13
  0.0000000E+00 -7.6837159E-13
  5.9999999E-02 -1.2707860E-12
  0.1200000     -1.3767454E-12
  0.1800000     -9.4686899E-13
  0.2400000     -8.0623720E-14
  0.3000000      8.6966567E-13
  0.3600000      1.4200739E-12
  0.4200000      1.1845789E-12
  0.4800000      1.1804240E-13
  0.5400000     -1.3560675E-12
  0.6000000     -2.4345309E-12
  0.6600000     -2.2518172E-12
  0.7200000     -3.2020960E-13
  0.7800000      3.1033865E-12
  0.8400000      6.9283212E-12
  0.9000000      9.5279002E-12
  0.9600000      9.3623928E-12
   1.020000      5.6928078E-12
   1.080000     -9.3693477E-13
   1.140000     -8.7151397E-12
   1.200000     -1.5143786E-11
   1.260000     -1.7994819E-11
   1.320000     -1.6245292E-11
   1.380000     -1.0556177E-11
   1.440000     -3.0273481E-12
   1.500000      3.7196123E-12
   1.560000      7.7470677E-12
   1.620000      8.7284459E-12
   1.680000      8.1042941E-12
   1.740000      8.3017621E-12
   1.800000      1.1302119E-11
   1.860000      1.7209215E-11
   1.920000      2.3568961E-11
   1.980000      2.5935422E-11
   2.040000      1.9650925E-11
   2.100000      2.2221242E-12
   2.160000     -2.4702972E-11
   2.220000     -5.4723812E-11
   2.280000     -7.7945782E-11
   2.340000     -8.3879917E-11
   2.400000     -6.5053650E-11
   2.460000     -2.0041118E-11
   2.520000      4.5219627E-11
   2.580000      1.1831690E-10
   2.640000      1.8309276E-10
   2.700000      2.2311643E-10
   2.760000      2.2455811E-10
   2.820000      1.7745772E-10
   2.880000      7.5185851E-11
   2.940000     -8.7198332E-11
   3.000000     -3.1438918E-10
   3.060000     -6.1080219E-10
   3.120000     -9.7847264E-10
   3.180000     -1.4133608E-09
   3.240000     -1.9015278E-09
   3.300000     -2.4170632E-09
   3.360000     -2.9232392E-09
   3.420000     -3.3772305E-09
   3.480000     -3.7372856E-09
   3.540000     -3.9701233E-09
   3.600000     -4.0560337E-09
   3.660000     -3.9899191E-09
   3.720000     -3.7780428E-09
   3.780000     -3.4319541E-09
   3.840000     -2.9621934E-09
   3.900000     -2.3744315E-09
   3.960000     -1.6696103E-09
   4.020000     -8.4785268E-10
   4.080000      8.5803489E-11
   4.140000      1.1166740E-09
   4.200000      2.2191404E-09
   4.260000      3.3597700E-09
   4.320000      4.5038497E-09
   4.380000      5.6227973E-09
   4.440000      6.6994632E-09
   4.500000      7.7291880E-09
   4.560000      8.7162650E-09
   4.620000      9.6673958E-09
   4.680000      1.0584946E-08
   4.740000      1.1462834E-08
   4.800000      1.2286657E-08
   4.860000      1.3037844E-08
   4.920000      1.3699861E-08
   4.980000      1.4263696E-08
   5.040000      1.4730213E-08
   5.100000      1.5108343E-08
   5.160000      1.5409910E-08
   5.220000      1.5643348E-08
   5.280000      1.5809109E-08
   5.340000      1.5898889E-08
   5.400000      1.5899348E-08
   5.460000      1.5799074E-08
   5.520000      1.5596237E-08
   5.580000      1.5303831E-08
   5.640000      1.4950263E-08
   5.700000      1.4574590E-08
   5.760000      1.4217746E-08
   5.820000      1.3912496E-08
   5.880000      1.3675457E-08
   5.940000      1.3503789E-08
   6.000000      1.3377511E-08
   6.060000      1.3266467E-08
   6.120000      1.3139455E-08
   6.180000      1.2972426E-08
   6.240000      1.2753266E-08
   6.300000      1.2482085E-08
   6.360000      1.2167664E-08
   6.420000      1.1822034E-08
   6.480000      1.1455587E-08
   6.540000      1.1074608E-08
   6.600000      1.0681763E-08
   6.660000      1.0278599E-08
   6.720000      9.8681259E-09
   6.780000      9.4554728E-09
   6.840000      9.0456371E-09
   6.900000      8.6390255E-09
   6.960000      8.2270866E-09
   7.020000      7.7909341E-09
   7.080000      7.3050650E-09
   7.140000      6.7460952E-09
   7.200000      6.1038126E-09
   7.260000      5.3900093E-09
   7.320000      4.6406261E-09
   7.380000      3.9089865E-09
   7.440000      3.2515575E-09
   7.500000      2.7111533E-09
   7.560000      2.3040603E-09
   7.620000      2.0163007E-09
   7.680000      1.8105576E-09
   7.740000      1.6407670E-09
   7.800000      1.4681967E-09
   7.860000      1.2724599E-09
   7.920000      1.0535766E-09
   7.980000      8.2552010E-10
   8.040000      6.0554772E-10
   8.100000      4.0511536E-10
   8.160000      2.2668863E-10
   8.220000      6.7163268E-11
   8.280000     -7.5145876E-11
   8.340000     -1.9494349E-10
   8.400000     -2.7996522E-10
   8.460000     -3.1756342E-10
   8.520000     -3.0508832E-10
   8.580000     -2.5882366E-10
   8.640000     -2.1640623E-10
   8.700000     -2.3039402E-10
   8.760000     -3.5468065E-10
   8.820000     -6.2884159E-10
   8.880000     -1.0666671E-09
   8.940000     -1.6535314E-09
   9.000000     -2.3535960E-09
   9.060000     -3.1238334E-09
   9.120000     -3.9292165E-09
   9.180000     -4.7533049E-09
   9.240000     -5.6007514E-09
   9.300000     -6.4918777E-09
   9.360000     -7.4526607E-09
   9.420000     -8.5048999E-09
   9.480000     -9.6604067E-09
   9.540000     -1.0920537E-08
   9.600000     -1.2279513E-08
   9.660000     -1.3728255E-08
   9.720000     -1.5255708E-08
   9.780000     -1.6846482E-08
   9.840000     -1.8476019E-08
   9.900000     -2.0106192E-08
   9.960000     -2.1684190E-08
   10.02000     -2.3146105E-08
   10.08000     -2.4424537E-08
   10.14000     -2.5457881E-08
   10.20000     -2.6198743E-08
   10.26000     -2.6619658E-08
   10.32000     -2.6715897E-08
   10.38000     -2.6506019E-08
   10.44000     -2.6031069E-08
   10.50000     -2.5352680E-08
   10.56000     -2.4549662E-08
   10.62000     -2.3712404E-08
   10.68000     -2.2935119E-08
   10.74000     -2.2306887E-08
   10.80000     -2.1903384E-08
   10.86000     -2.1780979E-08
   10.92000     -2.1974147E-08
   10.98000     -2.2495740E-08
   11.04000     -2.3338778E-08
   11.10000     -2.4478354E-08
   11.16000     -2.5873096E-08
   11.22000     -2.7466701E-08
   11.28000     -2.9190632E-08
   11.34000     -3.0968938E-08
   11.40000     -3.2724948E-08
   11.46000     -3.4388428E-08
   11.52000     -3.5901216E-08
   11.58000     -3.7219721E-08
   11.64000     -3.8314024E-08
   11.70000     -3.9164988E-08
   11.76000     -3.9761250E-08
   11.82000     -4.0098072E-08
   11.88000     -4.0178229E-08
   11.94000     -4.0013607E-08
   12.00000     -3.9625299E-08
   12.06000     -3.9040177E-08
   12.12000     -3.8283872E-08
   12.18000     -3.7372217E-08
   12.24000     -3.6304773E-08
   12.30000     -3.5064005E-08
   12.36000     -3.3621770E-08
   12.42000     -3.1951647E-08
   12.48000     -3.0042916E-08
   12.54000     -2.7910904E-08
   12.60000     -2.5599507E-08
   12.66000     -2.3174961E-08
   12.72000     -2.0713491E-08
   12.78000     -1.8287992E-08
   12.84000     -1.5958838E-08
   12.90000     -1.3771571E-08
   12.96000     -1.1760423E-08
   13.02000     -9.9536521E-09
   13.08000     -8.3759790E-09
   13.14000     -7.0453905E-09
   13.20000     -5.9654375E-09
   13.26000     -5.1175353E-09
   13.32000     -4.4588377E-09
   13.38000     -3.9291086E-09
   13.44000     -3.4655290E-09
   13.50000     -3.0199261E-09
   13.56000     -2.5708331E-09
   13.62000     -2.1245568E-09
   13.68000     -1.7042829E-09
   13.74000     -1.3319034E-09
   13.80000     -1.0108133E-09
   13.86000     -7.1751771E-10
   13.92000     -4.0567241E-10
   13.98000     -2.0312682E-11
   14.04000      4.8457688E-10
   14.10000      1.1330354E-09
   14.16000      1.9236974E-09
   14.22000      2.8359972E-09
   14.28000      3.8415182E-09
   14.34000      4.9142650E-09
   14.40000      6.0352430E-09
   14.46000      7.1905242E-09
   14.52000      8.3656309E-09
   14.58000      9.5407007E-09
   14.64000      1.0689791E-08
   14.70000      1.1784882E-08
   14.76000      1.2802299E-08
   14.82000      1.3728102E-08
   14.88000      1.4559769E-08
   14.94000      1.5303685E-08
   15.00000      1.5970075E-08
   15.06000      1.6567919E-08
   15.12000      1.7101968E-08
   15.18000      1.7572590E-08
   15.24000      1.7977834E-08
   15.30000      1.8316420E-08
   15.36000      1.8590480E-08
   15.42000      1.8807205E-08
   15.48000      1.8978982E-08
   15.54000      1.9121815E-08
   15.60000      1.9252081E-08
   15.66000      1.9382298E-08
   15.72000      1.9517460E-08
   15.78000      1.9653870E-08
   15.84000      1.9782167E-08
   15.90000      1.9894410E-08
   15.96000      1.9992999E-08
   16.02000      2.0097376E-08
   16.08000      2.0244364E-08
   16.14000      2.0480226E-08
   16.20000      2.0846073E-08
   16.26000      2.1361785E-08
   16.32000      2.2015145E-08
   16.38000      2.2761400E-08
   16.44000      2.3534513E-08
   16.50000      2.4266425E-08
   16.56000      2.4907218E-08
   16.62000      2.5438569E-08
   16.68000      2.5875677E-08
   16.74000      2.6257633E-08
   16.80000      2.6630817E-08
   16.86000      2.7032319E-08
   16.92000      2.7479711E-08
   16.98000      2.7970200E-08
   17.04000      2.8488008E-08
   17.10000      2.9015524E-08
   17.16000      2.9542827E-08
   17.22000      3.0071611E-08
   17.28000      3.0612522E-08
   17.34000      3.1177741E-08
   17.40000      3.1772466E-08
   17.46000      3.2388773E-08
   17.52000      3.3003982E-08
   17.58000      3.3583746E-08
   17.64000      3.4088735E-08
   17.70000      3.4482991E-08
   17.76000      3.4742186E-08
   17.82000      3.4860058E-08
   17.88000      3.4851446E-08
   17.94000      3.4750546E-08
   18.00000      3.4603524E-08
   18.06000      3.4456271E-08
   18.12000      3.4339962E-08
   18.18000      3.4258846E-08
   18.24000      3.4185199E-08
   18.30000      3.4064371E-08
   18.36000      3.3829640E-08
   18.42000      3.3422239E-08
   18.48000      3.2809503E-08
   18.54000      3.1994322E-08
   18.60000      3.1012128E-08
   18.66000      2.9916830E-08
   18.72000      2.8761409E-08
   18.78000      2.7581123E-08
   18.84000      2.6385720E-08
   18.90000      2.5163089E-08
   18.96000      2.3891852E-08
   19.02000      2.2556952E-08
   19.08000      2.1161618E-08
   19.14000      1.9731210E-08
   19.20000      1.8308288E-08
   19.26000      1.6941685E-08
   19.32000      1.5674262E-08
   19.38000      1.4533588E-08
   19.44000      1.3527776E-08
   19.50000      1.2646289E-08
   19.56000      1.1863903E-08
   19.62000      1.1145767E-08
   19.68000      1.0452253E-08
   19.74000      9.7433563E-09
   19.80000      8.9828829E-09
   19.86000      8.1423286E-09
   19.92000      7.2035293E-09
   19.98000      6.1587233E-09
   20.04000      5.0072146E-09
   20.10000      3.7493573E-09
   20.16000      2.3803770E-09
   20.22000      8.8736418E-10
   20.28000     -7.4813206E-10
   20.34000     -2.5420783E-09
   20.40000     -4.4977617E-09
   20.46000     -6.5985386E-09
   20.52000     -8.8079899E-09
   20.58000     -1.1078717E-08
   20.64000     -1.3366663E-08
   20.70000     -1.5644574E-08
   20.76000     -1.7908075E-08
   20.82000     -2.0170987E-08
   20.88000     -2.2451745E-08
   20.94000     -2.4757373E-08
   21.00000     -2.7072833E-08
   21.06000     -2.9361017E-08
   21.12000     -3.1573350E-08
   21.18000     -3.3665607E-08
   21.24000     -3.5611059E-08
   21.30000     -3.7404735E-08
   21.36000     -3.9057444E-08
   21.42000     -4.0583572E-08
   21.48000     -4.1989704E-08
   21.54000     -4.3270092E-08
   21.60000     -4.4410733E-08
   21.66000     -4.5398608E-08
   21.72000     -4.6229680E-08
   21.78000     -4.6909946E-08
   21.84000     -4.7448133E-08
   21.90000     -4.7843859E-08
   21.96000     -4.8078320E-08
   22.02000     -4.8114078E-08
   22.08000     -4.7906333E-08
   22.14000     -4.7422166E-08
   22.20000     -4.6659920E-08
   22.26000     -4.5660197E-08
   22.32000     -4.4503178E-08
   22.38000     -4.3292768E-08
   22.44000     -4.2133550E-08
   22.50000     -4.1108898E-08
   22.56000     -4.0267707E-08
   22.62000     -3.9622726E-08
   22.68000     -3.9158490E-08
   22.74000     -3.8843393E-08
   22.80000     -3.8639726E-08
   22.86000     -3.8508126E-08
   22.92000     -3.8406498E-08
   22.98000     -3.8287105E-08
   23.04000     -3.8096498E-08
   23.10000     -3.7781437E-08
   23.16000     -3.7300563E-08
   23.22000     -3.6637996E-08
   23.28000     -3.5813038E-08
   23.34000     -3.4881037E-08
   23.40000     -3.3923456E-08
   23.46000     -3.3029544E-08
   23.52000     -3.2275238E-08
   23.58000     -3.1706225E-08
   23.64000     -3.1330451E-08
   23.70000     -3.1122056E-08
   23.76000     -3.1034769E-08
   23.82000     -3.1019955E-08
   23.88000     -3.1043474E-08
   23.94000     -3.1096398E-08
   24.00000     -3.1196855E-08
   24.06000     -3.1382889E-08
   24.12000     -3.1698836E-08
   24.18000     -3.2179500E-08
   24.24000     -3.2837146E-08
   24.30000     -3.3655894E-08
   24.36000     -3.4595548E-08
   24.42000     -3.5603886E-08
   24.48000     -3.6632542E-08
   24.54000     -3.7649794E-08
   24.60000     -3.8643964E-08
   24.66000     -3.9615113E-08
   24.72000     -4.0558128E-08
   24.78000     -4.1445205E-08
   24.84000     -4.2217355E-08
   24.90000     -4.2791370E-08
   24.96000     -4.3081819E-08
   25.02000     -4.3030127E-08
   25.08000     -4.2628276E-08
   25.14000     -4.1925713E-08
   25.20000     -4.1014886E-08
   25.26000     -4.0000220E-08
   25.32000     -3.8963016E-08
   25.38000     -3.7937074E-08
   25.44000     -3.6905345E-08
   25.50000     -3.5818534E-08
   25.56000     -3.4627121E-08
   25.62000     -3.3312176E-08
   25.68000     -3.1901681E-08
   25.74000     -3.0465635E-08
   25.80000     -2.9092982E-08
   25.86000     -2.7861113E-08
   25.92000     -2.6811200E-08
   25.98000     -2.5939201E-08
   26.04000     -2.5204715E-08
   26.10000     -2.4552111E-08
   26.16000     -2.3933508E-08
   26.22000     -2.3323699E-08
   26.28000     -2.2721821E-08
   26.34000     -2.2141116E-08
   26.40000     -2.1593287E-08
   26.46000     -2.1075657E-08
   26.52000     -2.0566953E-08
   26.58000     -2.0033095E-08
   26.64000     -1.9439687E-08
   26.70000     -1.8765435E-08
   26.76000     -1.8011010E-08
   26.82000     -1.7200326E-08
   26.88000     -1.6374441E-08
   26.94000     -1.5580772E-08
   27.00000     -1.4861352E-08
   27.06000     -1.4243445E-08
   27.12000     -1.3734670E-08
   27.18000     -1.3323397E-08
   27.24000     -1.2983848E-08
   27.30000     -1.2684329E-08
   27.36000     -1.2396114E-08
   27.42000     -1.2100181E-08
   27.48000     -1.1789629E-08
   27.54000     -1.1467162E-08
   27.60000     -1.1139336E-08
   27.66000     -1.0811014E-08
   27.72000     -1.0483892E-08
   27.78000     -1.0161033E-08
   27.84000     -9.8560644E-09
   27.90000     -9.6023411E-09
   27.96000     -9.4560075E-09
   28.02000     -9.4886587E-09
   28.08000     -9.7697406E-09
   28.14000     -1.0344109E-08
   28.20000     -1.1213471E-08
   28.26000     -1.2329959E-08
   28.32000     -1.3605620E-08
   28.38000     -1.4935038E-08
   28.44000     -1.6222724E-08
   28.50000     -1.7404917E-08
   28.56000     -1.8458216E-08
   28.62000     -1.9393321E-08
   28.68000     -2.0238561E-08
   28.74000     -2.1021634E-08
   28.80000     -2.1757382E-08
   28.86000     -2.2445453E-08
   28.92000     -2.3076209E-08
   28.98000     -2.3639522E-08
   29.04000     -2.4130644E-08
   29.10000     -2.4550172E-08
   29.16000     -2.4899283E-08
   29.22000     -2.5174533E-08
   29.28000     -2.5366774E-08
   29.34000     -2.5466109E-08
   29.40000     -2.5470905E-08
   29.46000     -2.5395861E-08
   29.52000     -2.5273891E-08
   29.58000     -2.5149298E-08
   29.64000     -2.5064015E-08
   29.70000     -2.5042523E-08
   29.76000     -2.5082235E-08
   29.82000     -2.5154201E-08
   29.88000     -2.5214520E-08
   29.94000     -2.5222123E-08
   30.00000     -2.5155570E-08
   30.06000     -2.5021745E-08
   30.12000     -2.4852705E-08
   30.18000     -2.4691978E-08
   30.24000     -2.4576195E-08
   30.30000     -2.4519933E-08
   30.36000     -2.4510294E-08
   30.42000     -2.4513531E-08
   30.48000     -2.4490721E-08
   30.54000     -2.4415597E-08
   30.60000     -2.4286592E-08
   30.66000     -2.4127637E-08
   30.72000     -2.3977158E-08
   30.78000     -2.3869765E-08
   30.84000     -2.3818354E-08
   30.90000     -2.3804251E-08
   30.96000     -2.3779704E-08
   31.02000     -2.3682110E-08
   31.08000     -2.3454627E-08
   31.14000     -2.3065466E-08
   31.20000     -2.2518675E-08
   31.26000     -2.1852578E-08
   31.32000     -2.1126564E-08
   31.38000     -2.0401135E-08
   31.44000     -1.9718478E-08
   31.50000     -1.9090523E-08
   31.56000     -1.8498774E-08
   31.62000     -1.7905874E-08
   31.68000     -1.7274498E-08
   31.74000     -1.6586281E-08
   31.80000     -1.5853148E-08
   31.86000     -1.5116065E-08
   31.92000     -1.4430918E-08
   31.98000     -1.3846538E-08
   32.04000     -1.3383248E-08
   32.10000     -1.3020755E-08
   32.16000     -1.2700883E-08
   32.22000     -1.2344993E-08
   32.28000     -1.1880147E-08
   32.34000     -1.1264439E-08
   32.40000     -1.0502170E-08
   32.46000     -9.6433004E-09
   32.52000     -8.7676240E-09
   32.58000     -7.9597440E-09
   32.64000     -7.2840360E-09
   32.70000     -6.7683219E-09
   32.76000     -6.4012484E-09
   32.82000     -6.1430336E-09
   32.88000     -5.9444241E-09
   32.94000     -5.7661995E-09
   33.00000     -5.5920810E-09
   33.06000     -5.4310689E-09
   33.12000     -5.3095830E-09
   33.18000     -5.2575477E-09
   33.24000     -5.2943974E-09
   33.30000     -5.4203282E-09
   33.36000     -5.6155516E-09
   33.42000     -5.8470313E-09
   33.48000     -6.0795711E-09
   33.54000     -6.2870646E-09
   33.60000     -6.4603189E-09
   33.66000     -6.6094819E-09
   33.72000     -6.7609434E-09
   33.78000     -6.9499140E-09
   33.84000     -7.2106254E-09
   33.90000     -7.5663431E-09
   33.96000     -8.0215017E-09
   34.02000     -8.5581080E-09
   34.08000     -9.1379633E-09
   34.14000     -9.7108739E-09
   34.20000     -1.0227035E-08
   34.26000     -1.0649861E-08
   34.32000     -1.0964724E-08
   34.38000     -1.1180142E-08
   34.44000     -1.1320743E-08
   34.50000     -1.1414876E-08
   34.56000     -1.1482227E-08
   34.62000     -1.1527035E-08
   34.68000     -1.1540014E-08
   34.74000     -1.1507985E-08
   34.80000     -1.1426472E-08
   34.86000     -1.1308868E-08
   34.92000     -1.1187203E-08
   34.98000     -1.1103388E-08
   35.04000     -1.1094253E-08
   35.10000     -1.1176753E-08
   35.16000     -1.1339878E-08
   35.22000     -1.1547113E-08
   35.28000     -1.1748883E-08
   35.34000     -1.1900303E-08
   35.40000     -1.1977290E-08
   35.46000     -1.1984798E-08
   35.52000     -1.1954084E-08
   35.58000     -1.1930307E-08
   35.64000     -1.1955604E-08
   35.70000     -1.2054487E-08
   35.76000     -1.2227378E-08
   35.82000     -1.2454572E-08
   35.88000     -1.2708545E-08
   35.94000     -1.2968954E-08
   36.00000     -1.3233580E-08
   36.06000     -1.3520393E-08
   36.12000     -1.3859970E-08
   36.18000     -1.4281913E-08
   36.24000     -1.4801673E-08
   36.30000     -1.5413905E-08
   36.36000     -1.6095369E-08
   36.42000     -1.6815887E-08
   36.48000     -1.7552143E-08
   36.54000     -1.8297930E-08
   36.60000     -1.9066208E-08
   36.66000     -1.9882266E-08
   36.72000     -2.0771179E-08
   36.78000     -2.1745176E-08
   36.84000     -2.2796211E-08
   36.90000     -2.3896463E-08
   36.96000     -2.5006134E-08
   37.02000     -2.6084983E-08
   37.08000     -2.7103049E-08
   37.14000     -2.8046731E-08
   37.20000     -2.8918642E-08
   37.26000     -2.9731988E-08
   37.32000     -3.0502171E-08
   37.38000     -3.1238837E-08
   37.44000     -3.1941227E-08
   37.50000     -3.2598209E-08
   37.56000     -3.3192624E-08
   37.62000     -3.3708130E-08
   37.68000     -3.4135855E-08
   37.74000     -3.4478333E-08
   37.80000     -3.4749213E-08
   37.86000     -3.4968778E-08
   37.92000     -3.5156816E-08
   37.98000     -3.5325424E-08
   38.04000     -3.5474237E-08
   38.10000     -3.5589697E-08
   38.16000     -3.5648668E-08
   38.22000     -3.5625053E-08
   38.28000     -3.5497408E-08
   38.34000     -3.5255187E-08
   38.40000     -3.4901888E-08
   38.46000     -3.4454274E-08
   38.52000     -3.3938083E-08
   38.58000     -3.3381546E-08
   38.64000     -3.2808650E-08
   38.70000     -3.2234009E-08
   38.76000     -3.1660665E-08
   38.82000     -3.1081036E-08
   38.88000     -3.0480177E-08
   38.94000     -2.9839867E-08
   39.00000     -2.9142138E-08
   39.06000     -2.8371513E-08
   39.12000     -2.7516373E-08
   39.18000     -2.6570417E-08
   39.24000     -2.5534959E-08
   39.30000     -2.4421718E-08
   39.36000     -2.3254525E-08
   39.42000     -2.2067784E-08
   39.48000     -2.0900462E-08
   39.54000     -1.9786327E-08
   39.60000     -1.8743632E-08
   39.66000     -1.7768627E-08
   39.72000     -1.6836495E-08
   39.78000     -1.5910551E-08
   39.84000     -1.4956708E-08
   39.90000     -1.3957581E-08
   39.96000     -1.2920142E-08
   40.02000     -1.1873370E-08
   40.08000     -1.0856562E-08
   40.14000     -9.9031237E-09
   40.20000     -9.0267545E-09
   40.26000     -8.2160527E-09
   40.32000     -7.4400073E-09
   40.38000     -6.6622534E-09
   40.44000     -5.8582468E-09
   40.50000     -5.0281939E-09
   40.56000     -4.2002264E-09
   40.62000     -3.4221332E-09
   40.68000     -2.7445166E-09
   40.74000     -2.2017463E-09
   40.80000     -1.7981819E-09
   40.86000     -1.5053329E-09
   40.92000     -1.2715543E-09
   40.98000     -1.0409787E-09
   41.04000     -7.7458084E-10
   41.10000     -4.6514903E-10
   41.16000     -1.4010189E-10
   41.22000      1.4916232E-10
   41.28000      3.4722780E-10
   41.34000      4.1589956E-10
   41.40000      3.4811234E-10
   41.46000      1.6900889E-10
   41.52000     -7.5820066E-11
   41.58000     -3.3944705E-10
   41.64000     -5.9152855E-10
   41.70000     -8.2725932E-10
   41.76000     -1.0638121E-09
   41.82000     -1.3264855E-09
   41.88000     -1.6314754E-09
   41.94000     -1.9736586E-09
   42.00000     -2.3254025E-09
   42.06000     -2.6472671E-09
   42.12000     -2.9058966E-09
   42.18000     -3.0909448E-09
   42.24000     -3.2230760E-09
   42.30000     -3.3488965E-09
   42.36000     -3.5243648E-09
   42.42000     -3.7932937E-09
   42.48000     -4.1697104E-09
   42.54000     -4.6311723E-09
   42.60000     -5.1253943E-09
   42.66000     -5.5868679E-09
   42.72000     -5.9561072E-09
   42.78000     -6.1934289E-09
   42.84000     -6.2819492E-09
   42.90000     -6.2193402E-09
   42.96000     -6.0025345E-09
   43.02000     -5.6119371E-09
   43.08000     -5.0010609E-09
   43.14000     -4.0943515E-09
   43.20000     -2.7921836E-09
   43.26000     -9.7920450E-10
   43.32000      1.4684474E-09
   43.38000      4.6802602E-09
   43.44000      8.7937932E-09
   43.50000      1.3961485E-08
   43.56000      2.0359906E-08
   43.62000      2.8199725E-08
   43.68000      3.7735425E-08
   43.74000      4.9274483E-08
   43.80000      6.3186306E-08
   43.86000      7.9911281E-08
   43.92000      9.9970464E-08
   43.98000      1.2397673E-07
   44.04000      1.5264814E-07
   44.10000      1.8682437E-07
   44.16000      2.2748669E-07
   44.22000      2.7578096E-07
   44.28000      3.3304281E-07
   44.34000      4.0082378E-07
   44.40000      4.8091835E-07
   44.46000      5.7539131E-07
   44.52000      6.8660813E-07
   44.58000      8.1726864E-07
   44.64000      9.7044710E-07
   44.70000      1.1496397E-06
   44.76000      1.3588188E-06
   44.82000      1.6024943E-06
   44.88000      1.8857778E-06
   44.94000      2.2144518E-06
   45.00000      2.5950396E-06
   45.06000      3.0348783E-06
   45.12000      3.5421972E-06
   45.18000      4.1261978E-06
   45.24000      4.7971448E-06
   45.30000      5.5664586E-06
   45.36000      6.4468136E-06
   45.42000      7.4522409E-06
   45.48000      8.5982301E-06
   45.54000      9.9018289E-06
   45.60000      1.1381756E-05
   45.66000      1.3058502E-05
   45.72000      1.4954443E-05
   45.78000      1.7093940E-05
   45.84000      1.9503446E-05
   45.90000      2.2211594E-05
   45.96000      2.5249270E-05
   46.02000      2.8649678E-05
   46.08000      3.2448384E-05
   46.14000      3.6683366E-05
   46.20000      4.1395040E-05
   46.26000      4.6626272E-05
   46.32000      5.2422394E-05
   46.38000      5.8831174E-05
   46.44000      6.5902736E-05
   46.50000      7.3689473E-05
   46.56000      8.2245882E-05
   46.62000      9.1628419E-05
   46.68000      1.0189529E-04
   46.74000      1.1310619E-04
   46.80000      1.2532207E-04
   46.86000      1.3860488E-04
   46.92000      1.5301710E-04
   46.98000      1.6862153E-04
   47.04000      1.8548065E-04
   47.10000      2.0365628E-04
   47.16000      2.2320889E-04
   47.22000      2.4419717E-04
   47.28000      2.6667732E-04
   47.34000      2.9070253E-04
   47.40000      3.1632217E-04
   47.46000      3.4358134E-04
   47.52000      3.7252015E-04
   47.58000      4.0317295E-04
   47.64000      4.3556775E-04
   47.70000      4.6972546E-04
   47.76000      5.0565938E-04
   47.82000      5.4337434E-04
   47.88000      5.8286643E-04
   47.94000      6.2412204E-04
   48.00000      6.6711771E-04
   48.06000      7.1181945E-04
   48.12000      7.5818272E-04
   48.18000      8.0615195E-04
   48.24000      8.5566047E-04
   48.30000      9.0663054E-04
   48.36000      9.5897343E-04
   48.42000      1.0125892E-03
   48.48000      1.0673677E-03
   48.54000      1.1231883E-03
   48.60000      1.1799206E-03
   48.66000      1.2374256E-03
   48.72000      1.2955557E-03
   48.78000      1.3541565E-03
   48.84000      1.4130671E-03
   48.90000      1.4721218E-03
   48.96000      1.5311511E-03
   49.02000      1.5899831E-03
   49.08000      1.6484449E-03
   49.14000      1.7063641E-03
   49.20000      1.7635702E-03
   49.26000      1.8198963E-03
   49.32000      1.8751808E-03
   49.38000      1.9292685E-03
   49.44000      1.9820128E-03
   49.50000      2.0332772E-03
   49.56000      2.0829355E-03
   49.62000      2.1308749E-03
   49.68000      2.1769954E-03
   49.74000      2.2212118E-03
   49.80000      2.2634550E-03
   49.86000      2.3036723E-03
   49.92000      2.3418281E-03
   49.98000      2.3779043E-03
   50.04000      2.4119006E-03
   50.10000      2.4438337E-03
   50.16000      2.4737380E-03
   50.22000      2.5016649E-03
   50.28000      2.5276812E-03
   50.34000      2.5518704E-03
   50.40000      2.5743295E-03
   50.46000      2.5951692E-03
   50.52000      2.6145121E-03
   50.58000      2.6324906E-03
   50.64000      2.6492449E-03
   50.70000      2.6649223E-03
   50.76000      2.6796742E-03
   50.82000      2.6936554E-03
   50.88000      2.7070213E-03
   50.94000      2.7199264E-03
   51.00000      2.7325207E-03
   51.06000      2.7449490E-03
   51.12000      2.7573491E-03
   51.18000      2.7698495E-03
   51.24000      2.7825672E-03
   51.30000      2.7956078E-03
   51.36000      2.8090631E-03
   51.42000      2.8230099E-03
   51.48000      2.8375096E-03
   51.54000      2.8526071E-03
   51.60000      2.8683292E-03
   51.66000      2.8846869E-03
   51.72000      2.9016731E-03
   51.78000      2.9192651E-03
   51.84000      2.9374221E-03
   51.90000      2.9560891E-03
   51.96000      2.9751956E-03
   52.02000      2.9946580E-03
   52.08000      3.0143801E-03
   52.14000      3.0342552E-03
   52.20000      3.0541690E-03
   52.26000      3.0739985E-03
   52.32000      3.0936163E-03
   52.38000      3.1128919E-03
   52.44000      3.1316930E-03
   52.50000      3.1498887E-03
   52.56000      3.1673498E-03
   52.62000      3.1839535E-03
   52.68000      3.1995825E-03
   52.74000      3.2141281E-03
   52.80000      3.2274916E-03
   52.86000      3.2395856E-03
   52.92000      3.2503339E-03
   52.98000      3.2596751E-03
   53.04000      3.2675616E-03
   53.10000      3.2739602E-03
   53.16000      3.2788543E-03
   53.22000      3.2822415E-03
   53.28000      3.2841351E-03
   53.34000      3.2845626E-03
   53.40000      3.2835654E-03
   53.46000      3.2811984E-03
   53.52000      3.2775293E-03
   53.58000      3.2726363E-03
   53.64000      3.2666072E-03
   53.70000      3.2595387E-03
   53.76000      3.2515333E-03
   53.82000      3.2426985E-03
   53.88000      3.2331445E-03
   53.94000      3.2229829E-03
   54.00000      3.2123239E-03
   54.06000      3.2012754E-03
   54.12000      3.1899409E-03
   54.18000      3.1784186E-03
   54.24000      3.1667983E-03
   54.30000      3.1551619E-03
   54.36000      3.1435797E-03
   54.42000      3.1321114E-03
   54.48000      3.1208037E-03
   54.54000      3.1096905E-03
   54.60000      3.0987924E-03
   54.66000      3.0881159E-03
   54.72000      3.0776549E-03
   54.78000      3.0673884E-03
   54.84000      3.0572827E-03
   54.90000      3.0472910E-03
   54.96000      3.0373542E-03
   55.02000      3.0274028E-03
   55.08000      3.0173571E-03
   55.14000      3.0071286E-03
   55.20000      2.9966231E-03
   55.26000      2.9857398E-03
   55.32000      2.9743747E-03
   55.38000      2.9624209E-03
   55.44000      2.9497708E-03
   55.50000      2.9363181E-03
   55.56000      2.9219592E-03