  -2.400000      0.0000000E+00
  -2.340000      0.0000000E+00
  -2.280000      0.0000000E+00
  -2.220000      0.0000000E+00
  -2.160000      0.0000000E+00
  -2.100000      2.7194155E-19
  -2.040000      1.7892855E-18
  -1.980000      5.3793714E-18
  -1.920000      8.2011186E-18
  -1.860000      9.4559707E-20
  -1.800000     -3.2173564E-17
  -1.740000     -8.6189030E-17
  -1.680000     -1.1921162E-16
  -1.620000     -4.7737609E-17
  -1.560000      1.9408782E-16
  -1.500000      5.3974432E-16
  -1.440000      6.9580517E-16
  -1.380000      2.0327946E-16
  -1.320000     -1.2433932E-15
  -1.260000     -3.2884455E-15
  -1.200000     -4.5356522E-15
  -1.140000     -2.7695635E-15
  -1.080000      3.8987936E-15
  -1.020000      1.5168082E-14
 -0.9600000      2.6900081E-14
 -0.9000000      3.1101393E-14
 -0.8400000      1.8653009E-14
 -0.7800000     -1.5372252E-14
 -0.7200000     -6.5852482E-14
 -0.6600000     -1.1476581E-13
 -0.6000000     -1.3478903E-13
 -0.5400000     -1.0038609E-13
 -0.4800000     -3.2285112E-15
 -0.4200000      1.3532629E-13
 -0.3600000      2.6339423E-13
 -0.3000000      3.1479433E-13
 -0.2400000      2.3994145E-13
 -0.1800000      3.9491454E-14
 -0.1200000     -2.1734888E-13
 -5.9999999E-02 -4.0596739E-13
  0.0000000E+00 -3.9519925E-13
  5.9999999E-02 -1.1772136E-13
  0.1200000      3.6895668E-13
  0.1800000      8.6711118E-13
  0.2400000      1.0924566E-12
  0.3000000      7.9092429E-13
  0.3600000     -1.2225561E-13
  0.4200000     -1.4653914E-12
  0.4800000     -2.7956637E-12
  0.5400000     -3.5416236E-12
  0.6000000     -3.2298897E-12
  0.6600000     -1.7182156E-12
  0.7200000      6.7617873E-13
  0.7800000      3.2367809E-12
  0.8400000      5.1050674E-12
  0.9000000      5.6482891E-12
  0.9600000      4.7794494E-12
   1.020000      3.0633428E-12
   1.080000      1.5147148E-12
   1.140000      1.1264546E-12
   1.200000      2.3040883E-12
   1.260000      4.4625579E-12
   1.320000      6.0148310E-12
   1.380000      4.8449330E-12
   1.440000     -8.4296329E-13
   1.500000     -1.1590603E-11
   1.560000     -2.6039245E-11
   1.620000     -4.0876039E-11
   1.680000     -5.1477739E-11
   1.740000     -5.3097332E-11
   1.800000     -4.2226878E-11
   1.860000     -1.7695895E-11
   1.920000      1.8836915E-11
   1.980000      6.3108505E-11
   2.040000      1.0903648E-10
   2.100000      1.4972223E-10
   2.160000      1.7830915E-10
   2.220000      1.8848430E-10
   2.280000      1.7466788E-10
   2.340000      1.3217392E-10
   2.400000      5.7729550E-11
   2.460000     -4.9358413E-11
   2.520000     -1.8538100E-10
   2.580000     -3.4010417E-10
   2.640000     -4.9500215E-10
   2.700000     -6.2261490E-10
   2.760000     -6.8765282E-10
   2.820000     -6.5008576E-10
   2.880000     -4.6994919E-10
   2.940000     -1.1310682E-10
   3.000000      4.4310672E-10
   3.060000      1.2054919E-09
   3.120000      2.1627298E-09
   3.180000      3.2857035E-09
   3.240000      4.5302637E-09
   3.300000      5.8418088E-09
   3.360000      7.1607178E-09
   3.420000      8.4276417E-09
   3.480000      9.5879003E-09
   3.540000      1.0594621E-08
   3.600000      1.1410741E-08
   3.660000      1.2010259E-08
   3.720000      1.2379174E-08
   3.780000      1.2516312E-08
   3.840000      1.2433830E-08
   3.900000      1.2156899E-08
   3.960000      1.1721921E-08
   4.020000      1.1172986E-08
   4.080000      1.0556795E-08
   4.140000      9.9169144E-09
   4.200000      9.2886383E-09
   4.260000      8.6956939E-09
   4.320000      8.1495104E-09
   4.380000      7.6509634E-09
   4.440000      7.1937452E-09
   4.500000      6.7680834E-09
   4.560000      6.3636594E-09
   4.620000      5.9711809E-09
   4.680000      5.5828169E-09
   4.740000      5.1922915E-09
   4.800000      4.7955400E-09
   4.860000      4.3923767E-09
   4.920000      3.9888755E-09
   4.980000      3.5994396E-09
   5.040000      3.2472400E-09
   5.100000      2.9620579E-09
   5.160000      2.7754115E-09
   5.220000      2.7139329E-09
   5.280000      2.7927745E-09
   5.340000      3.0110463E-09
   5.400000      3.3508005E-09
   5.460000      3.7800327E-09
   5.520000      4.2589581E-09
   5.580000      4.7478621E-09
   5.640000      5.2144520E-09
   5.700000      5.6388969E-09
   5.760000      6.0155902E-09
   5.820000      6.3516916E-09
   5.880000      6.6634223E-09
   5.940000      6.9715926E-09
   6.000000      7.2977349E-09
   6.060000      7.6616846E-09
   6.120000      8.0806037E-09
   6.180000      8.5687359E-09
   6.240000      9.1368388E-09
   6.300000      9.7905088E-09
   6.360000      1.0527263E-08
   6.420000      1.1333209E-08
   6.480000      1.2180728E-08
   6.540000      1.3028714E-08
   6.600000      1.3826389E-08
   6.660000      1.4520559E-08
   6.720000      1.5064998E-08
   6.780000      1.5429638E-08
   6.840000      1.5606975E-08
   6.900000      1.5613514E-08
   6.960000      1.5485368E-08
   7.020000      1.5268657E-08
   7.080000      1.5007087E-08
   7.140000      1.4730026E-08
   7.200000      1.4444648E-08
   7.260000      1.4134604E-08
   7.320000      1.3765736E-08
   7.380000      1.3297057E-08
   7.440000      1.2693421E-08
   7.500000      1.1935736E-08
   7.560000      1.1025556E-08
   7.620000      9.9830473E-09
   7.680000      8.8397627E-09
   7.740000      7.6294029E-09
   7.800000      6.3800423E-09
   7.860000      5.1101385E-09
   7.920000      3.8287666E-09
   7.980000      2.5387354E-09
   8.040000      1.2404864E-09
   8.100000     -6.4956263E-11
   8.160000     -1.3746021E-09
   8.220000     -2.6832070E-09
   8.280000     -3.9831329E-09
   8.340000     -5.2637636E-09
   8.400000     -6.5107089E-09
   8.460000     -7.7056788E-09
   8.520000     -8.8279677E-09
   8.580000     -9.8578425E-09
   8.640000     -1.0781073E-08
   8.700000     -1.1593055E-08
   8.760000     -1.2300814E-08
   8.820000     -1.2921823E-08
   8.880000     -1.3479743E-08
   8.940000     -1.3998314E-08
   9.000000     -1.4495322E-08
   9.060000     -1.4978431E-08
   9.120000     -1.5443891E-08
   9.180000     -1.5878166E-08
   9.240000     -1.6261549E-08
   9.300000     -1.6572617E-08
   9.360000     -1.6792413E-08
   9.420000     -1.6907840E-08
   9.480000     -1.6914207E-08
   9.540000     -1.6816990E-08
   9.600000     -1.6632693E-08
   9.660000     -1.6388219E-08
   9.720000     -1.6118110E-08
   9.780000     -1.5859264E-08
   9.840000     -1.5643657E-08
   9.900000     -1.5490647E-08
   9.960000     -1.5401202E-08
   10.02000     -1.5356299E-08
   10.08000     -1.5320653E-08
   10.14000     -1.5251135E-08
   10.20000     -1.5107499E-08
   10.26000     -1.4861984E-08
   10.32000     -1.4504664E-08
   10.38000     -1.4042944E-08
   10.44000     -1.3495782E-08
   10.50000     -1.2885153E-08
   10.56000     -1.2228109E-08
   10.62000     -1.1532224E-08
   10.68000     -1.0795541E-08
   10.74000     -1.0010161E-08
   10.80000     -9.1672909E-09
   10.86000     -8.2614573E-09
   10.92000     -7.2924813E-09
   10.98000     -6.2652967E-09
   11.04000     -5.1886331E-09
   11.10000     -4.0737649E-09
   11.16000     -2.9337774E-09
   11.22000     -1.7829225E-09
   11.28000     -6.3524414E-10
   11.34000      4.9785831E-10
   11.40000      1.6104181E-09
   11.46000      2.7034905E-09
   11.52000      3.7840744E-09
   11.58000      4.8610675E-09
   11.64000      5.9396541E-09
   11.70000      7.0167019E-09
   11.76000      8.0796534E-09
   11.82000      9.1098675E-09
   11.88000      1.0089193E-08
   11.94000      1.1006891E-08
   12.00000      1.1863800E-08
   12.06000      1.2672022E-08
   12.12000      1.3450583E-08
   12.18000      1.4219419E-08
   12.24000      1.4994557E-08
   12.30000      1.5786435E-08
   12.36000      1.6601417E-08
   12.42000      1.7444766E-08
   12.48000      1.8322725E-08
   12.54000      1.9241996E-08
   12.60000      2.0206613E-08
   12.66000      2.1213889E-08
   12.72000      2.2252074E-08
   12.78000      2.3301668E-08
   12.84000      2.4340721E-08
   12.90000      2.5352303E-08
   12.96000      2.6330847E-08
   13.02000      2.7284264E-08
   13.08000      2.8230291E-08
   13.14000      2.9188339E-08
   13.20000      3.0170202E-08
   13.26000      3.1173755E-08
   13.32000      3.2182502E-08
   13.38000      3.3170998E-08
   13.44000      3.4113540E-08
   13.50000      3.4991988E-08
   13.56000      3.5799655E-08
   13.62000      3.6540150E-08
   13.68000      3.7223028E-08
   13.74000      3.7859120E-08
   13.80000      3.8458008E-08
   13.86000      3.9028059E-08
   13.92000      3.9577486E-08
   13.98000      4.0114205E-08
   14.04000      4.0643293E-08
   14.10000      4.1162806E-08
   14.16000      4.1660488E-08
   14.22000      4.2113818E-08
   14.28000      4.2494523E-08
   14.34000      4.2776179E-08
   14.40000      4.2941839E-08
   14.46000      4.2988354E-08
   14.52000      4.2925720E-08
   14.58000      4.2771887E-08
   14.64000      4.2545558E-08
   14.70000      4.2259899E-08
   14.76000      4.1919385E-08
   14.82000      4.1520291E-08
   14.88000      4.1053806E-08
   14.94000      4.0510084E-08
   15.00000      3.9881627E-08
   15.06000      3.9165265E-08
   15.12000      3.8362639E-08
   15.18000      3.7479690E-08
   15.24000      3.6525549E-08
   15.30000      3.5511182E-08
   15.36000      3.4447918E-08
   15.42000      3.3345984E-08
   15.48000      3.2213407E-08
   15.54000      3.1055670E-08
   15.60000      2.9876432E-08
   15.66000      2.8679208E-08
   15.72000      2.7469468E-08
   15.78000      2.6256050E-08
   15.84000      2.5051047E-08
   15.90000      2.3867782E-08
   15.96000      2.2717428E-08
   16.02000      2.1605752E-08
   16.08000      2.0531623E-08
   16.14000      1.9488329E-08
   16.20000      1.8467535E-08
   16.26000      1.7464322E-08
   16.32000      1.6481106E-08
   16.38000      1.5528620E-08
   16.44000      1.4623486E-08
   16.50000      1.3783435E-08
   16.56000      1.3022336E-08
   16.62000      1.2347010E-08
   16.68000      1.1756773E-08
   16.74000      1.1245230E-08
   16.80000      1.0802846E-08
   16.86000      1.0418943E-08
   16.92000      1.0082569E-08
   16.98000      9.7828137E-09
   17.04000      9.5095931E-09
   17.10000      9.2555537E-09
   17.16000      9.0186019E-09
   17.22000      8.8036591E-09
   17.28000      8.6220329E-09
   17.34000      8.4877341E-09
   17.40000      8.4116678E-09
   17.46000      8.3959844E-09
   17.52000      8.4312068E-09
   17.58000      8.4977572E-09
   17.64000      8.5715612E-09
   17.70000      8.6315080E-09
   17.76000      8.6656282E-09
   17.82000      8.6733447E-09
   17.88000      8.6628491E-09
   17.94000      8.6447658E-09
   18.00000      8.6247773E-09
   18.06000      8.5982039E-09
   18.12000      8.5485992E-09
   18.18000      8.4507521E-09
   18.24000      8.2768254E-09
   18.30000      8.0033837E-09
   18.36000      7.6170545E-09
   18.42000      7.1173094E-09
   18.48000      6.5159682E-09
   18.54000      5.8339951E-09
   18.60000      5.0966862E-09
   18.66000      4.3284087E-09
   18.72000      3.5478422E-09
   18.78000      2.7644185E-09
   18.84000      1.9764623E-09
   18.90000      1.1714155E-09
   18.96000      3.2828584E-10
   19.02000     -5.7796601E-10
   19.08000     -1.5709553E-09
   19.14000     -2.6676690E-09
   19.20000     -3.8749786E-09
   19.26000     -5.1888853E-09
   19.32000     -6.5966295E-09
   19.38000     -8.0808462E-09
   19.44000     -9.6243644E-09
   19.50000     -1.1214257E-08
   19.56000     -1.2844340E-08
   19.62000     -1.4515999E-08
   19.68000     -1.6237738E-08
   19.74000     -1.8023805E-08
   19.80000     -1.9892042E-08
   19.86000     -2.1860947E-08
   19.92000     -2.3946207E-08
   19.98000     -2.6157533E-08
   20.04000     -2.8497084E-08
   20.10000     -3.0960507E-08
   20.16000     -3.3540573E-08
   20.22000     -3.6231874E-08
   20.28000     -3.9033935E-08
   20.34000     -4.1950393E-08
   20.40000     -4.4983487E-08
   20.46000     -4.8125628E-08
   20.52000     -5.1351691E-08
   20.58000     -5.4616059E-08
   20.64000     -5.7856568E-08
   20.70000     -6.1004563E-08
   20.76000     -6.3997362E-08
   20.82000     -6.6788260E-08
   20.88000     -6.9350264E-08
   20.94000     -7.1672787E-08
   21.00000     -7.3753071E-08
   21.06000     -7.5586641E-08
   21.12000     -7.7160223E-08
   21.18000     -7.8449425E-08
   21.24000     -7.9420431E-08
   21.30000     -8.0034049E-08
   21.36000     -8.0249720E-08
   21.42000     -8.0028634E-08
   21.48000     -7.9336232E-08
   21.54000     -7.8145504E-08
   21.60000     -7.6441779E-08
   21.66000     -7.4228836E-08
   21.72000     -7.1534224E-08
   21.78000     -6.8411289E-08
   21.84000     -6.4935968E-08
   21.90000     -6.1197788E-08
   21.96000     -5.7287270E-08
   22.02000     -5.3282960E-08
   22.08000     -4.9242136E-08
   22.14000     -4.5197694E-08
   22.20000     -4.1161915E-08
   22.26000     -3.7135326E-08
   22.32000     -3.3117477E-08
   22.38000     -2.9116148E-08
   22.44000     -2.5152515E-08
   22.50000     -2.1261407E-08
   22.56000     -1.7487409E-08
   22.62000     -1.3878529E-08
   22.68000     -1.0479337E-08
   22.74000     -7.3250361E-09
   22.80000     -4.4373998E-09
   22.86000     -1.8229882E-09
   22.92000      5.2607829E-10
   22.98000      2.6287612E-09
   23.04000      4.5095208E-09
   23.10000      6.1915548E-09
   23.16000      7.6905717E-09
   23.22000      9.0110222E-09
   23.28000      1.0146145E-08
   23.34000      1.1081828E-08
   23.40000      1.1802688E-08
   23.46000      1.2297747E-08
   23.52000      1.2563129E-08
   23.58000      1.2600524E-08
   23.64000      1.2412209E-08
   23.70000      1.1995121E-08
   23.76000      1.1337137E-08
   23.82000      1.0417809E-08
   23.88000      9.2139230E-09
   23.94000      7.7081186E-09
   24.00000      5.8975074E-09
   24.06000      3.7992813E-09
   24.12000      1.4515646E-09
   24.18000     -1.0904748E-09
   24.24000     -3.7617287E-09
   24.30000     -6.4953589E-09
   24.36000     -9.2302948E-09
   24.42000     -1.1917036E-08
   24.48000     -1.4521454E-08
   24.54000     -1.7026558E-08
   24.60000     -1.9431976E-08
   24.66000     -2.1750649E-08
   24.72000     -2.4002420E-08
   24.78000     -2.6205024E-08
   24.84000     -2.8364248E-08
   24.90000     -3.0466044E-08
   24.96000     -3.2473579E-08
   25.02000     -3.4331077E-08
   25.08000     -3.5974150E-08
   25.14000     -3.7344005E-08
   25.20000     -3.8401229E-08
   25.26000     -3.9134946E-08
   25.32000     -3.9564593E-08
   25.38000     -3.9734289E-08
   25.44000     -3.9702268E-08
   25.50000     -3.9529169E-08
   25.56000     -3.9268855E-08
   25.62000     -3.8963787E-08
   25.68000     -3.8644789E-08
   25.74000     -3.8333411E-08
   25.80000     -3.8044394E-08
   25.86000     -3.7786279E-08
   25.92000     -3.7559612E-08
   25.98000     -3.7353619E-08
   26.04000     -3.7143181E-08
   26.10000     -3.6887982E-08
   26.16000     -3.6535234E-08
   26.22000     -3.6026037E-08
   26.28000     -3.5304549E-08
   26.34000     -3.4328014E-08
   26.40000     -3.3075683E-08
   26.46000     -3.1554702E-08
   26.52000     -2.9801807E-08
   26.58000     -2.7880523E-08
   26.64000     -2.5874394E-08
   26.70000     -2.3877362E-08
   26.76000     -2.1982778E-08
   26.82000     -2.0272553E-08
   26.88000     -1.8807988E-08
   26.94000     -1.7623440E-08
   27.00000     -1.6723678E-08
   27.06000     -1.6085087E-08
   27.12000     -1.5660245E-08
   27.18000     -1.5384796E-08
   27.24000     -1.5185252E-08
   27.30000     -1.4986592E-08
   27.36000     -1.4718939E-08
   27.42000     -1.4323257E-08
   27.48000     -1.3756058E-08
   27.54000     -1.2993076E-08
   27.60000     -1.2031309E-08
   27.66000     -1.0888527E-08
   27.72000     -9.5995825E-09
   27.78000     -8.2097333E-09
   27.84000     -6.7662755E-09
   27.90000     -5.3106946E-09
   27.96000     -3.8735544E-09
   28.02000     -2.4733500E-09
   28.08000     -1.1190118E-09
   28.14000      1.8569818E-10
   28.20000      1.4382130E-09
   28.26000      2.6353313E-09
   28.32000      3.7738119E-09
   28.38000      4.8521556E-09
   28.44000      5.8715672E-09
   28.50000      6.8345081E-09
   28.56000      7.7406330E-09
   28.62000      8.5815541E-09
   28.68000      9.3368788E-09
   28.74000      9.9737729E-09
   28.80000      1.0451010E-08
   28.86000      1.0726646E-08
   28.92000      1.0767057E-08
   28.98000      1.0554679E-08
   29.04000      1.0092567E-08
   29.10000      9.4052028E-09
   29.16000      8.5363210E-09
   29.22000      7.5450153E-09
   29.28000      6.5011259E-09
   29.34000      5.4801452E-09
   29.40000      4.5572635E-09
   29.46000      3.8002166E-09
   29.52000      3.2612928E-09
   29.58000      2.9698524E-09
   29.64000      2.9273615E-09
   29.70000      3.1067773E-09
   29.76000      3.4570624E-09
   29.82000      3.9120347E-09
   29.88000      4.4013402E-09
   29.94000      4.8606874E-09
   30.00000      5.2388285E-09
   30.06000      5.5000346E-09
   30.12000      5.6223750E-09
   30.18000      5.5934213E-09
   30.24000      5.4055271E-09
   30.30000      5.0525473E-09
   30.36000      4.5288933E-09
   30.42000      3.8307704E-09
   30.48000      2.9586333E-09
   30.54000      1.9196433E-09
   30.60000      7.2912143E-10
   30.66000     -5.8955218E-10
   30.72000     -2.0067199E-09
   30.78000     -3.4897087E-09
   30.84000     -5.0071147E-09
   30.90000     -6.5333250E-09
   30.96000     -8.0521376E-09
   31.02000     -9.5581791E-09
   31.08000     -1.1055107E-08
   31.14000     -1.2550563E-08
   31.20000     -1.4049137E-08
   31.26000     -1.5545760E-08
   31.32000     -1.7022153E-08
   31.38000     -1.8448045E-08
   31.44000     -1.9786940E-08
   31.50000     -2.1004409E-08
   31.56000     -2.2075774E-08
   31.62000     -2.2990681E-08
   31.68000     -2.3753621E-08
   31.74000     -2.4381434E-08
   31.80000     -2.4899894E-08
   31.86000     -2.5341173E-08
   31.92000     -2.5742599E-08
   31.98000     -2.6145640E-08
   32.04000     -2.6593476E-08
   32.10000     -2.7126285E-08
   32.16000     -2.7774982E-08
   32.22000     -2.8555499E-08
   32.28000     -2.9466028E-08
   32.34000     -3.0488387E-08
   32.40000     -3.1592805E-08
   32.46000     -3.2743884E-08
   32.52000     -3.3905138E-08
   32.58000     -3.5040738E-08
   32.64000     -3.6114741E-08
   32.70000     -3.7089556E-08
   32.76000     -3.7925513E-08
   32.82000     -3.8582684E-08
   32.88000     -3.9024467E-08
   32.94000     -3.9221767E-08
   33.00000     -3.9156479E-08
   33.06000     -3.8823632E-08
   33.12000     -3.8232521E-08
   33.18000     -3.7407080E-08
   33.24000     -3.6385565E-08
   33.30000     -3.5218765E-08
   33.36000     -3.3965808E-08
   33.42000     -3.2687410E-08
   33.48000     -3.1437626E-08
   33.54000     -3.0256537E-08
   33.60000     -2.9166348E-08
   33.66000     -2.8172602E-08
   33.72000     -2.7269980E-08
   33.78000     -2.6450511E-08
   33.84000     -2.5711016E-08
   33.90000     -2.5057204E-08
   33.96000     -2.4503404E-08
   34.02000     -2.4068719E-08
   34.08000     -2.3771557E-08
   34.14000     -2.3624500E-08
   34.20000     -2.3630722E-08
   34.26000     -2.3782212E-08
   34.32000     -2.4059361E-08
   34.38000     -2.4431621E-08
   34.44000     -2.4859267E-08
   34.50000     -2.5296705E-08
   34.56000     -2.5697549E-08
   34.62000     -2.6021018E-08
   34.68000     -2.6238274E-08
   34.74000     -2.6336892E-08
   34.80000     -2.6321894E-08
   34.86000     -2.6212829E-08
   34.92000     -2.6037892E-08
   34.98000     -2.5827191E-08
   35.04000     -2.5607518E-08
   35.10000     -2.5400233E-08
   35.16000     -2.5222269E-08
   35.22000     -2.5088879E-08
   35.28000     -2.5015892E-08
   35.34000     -2.5019792E-08
   35.40000     -2.5115188E-08
   35.46000     -2.5310866E-08
   35.52000     -2.5606489E-08
   35.58000     -2.5991710E-08
   35.64000     -2.6448253E-08
   35.70000     -2.6953872E-08
   35.76000     -2.7486280E-08
   35.82000     -2.8025338E-08
   35.88000     -2.8553121E-08
   35.94000     -2.9052915E-08
   36.00000     -2.9508863E-08
   36.06000     -2.9907508E-08
   36.12000     -3.0240948E-08
   36.18000     -3.0509845E-08
   36.24000     -3.0724191E-08
   36.30000     -3.0900445E-08
   36.36000     -3.1055780E-08
   36.42000     -3.1201708E-08
   36.48000     -3.1339933E-08
   36.54000     -3.1462299E-08
   36.60000     -3.1554585E-08
   36.66000     -3.1602081E-08
   36.72000     -3.1594183E-08
   36.78000     -3.1526021E-08
   36.84000     -3.1397160E-08
   36.90000     -3.1208902E-08
   36.96000     -3.0962539E-08
   37.02000     -3.0659891E-08
   37.08000     -3.0305991E-08
   37.14000     -2.9912087E-08
   37.20000     -2.9496885E-08
   37.26000     -2.9084818E-08
   37.32000     -2.8701812E-08
   37.38000     -2.8370593E-08
   37.44000     -2.8107863E-08
   37.50000     -2.7924663E-08
   37.56000     -2.7829445E-08
   37.62000     -2.7831630E-08
   37.68000     -2.7943077E-08
   37.74000     -2.8175867E-08
   37.80000     -2.8536883E-08
   37.86000     -2.9021637E-08
   37.92000     -2.9610602E-08
   37.98000     -3.0270368E-08
   38.04000     -3.0959789E-08
   38.10000     -3.1638979E-08
   38.16000     -3.2277704E-08
   38.22000     -3.2860058E-08
   38.28000     -3.3384222E-08
   38.34000     -3.3858175E-08
   38.40000     -3.4293688E-08
   38.46000     -3.4701046E-08
   38.52000     -3.5085712E-08
   38.58000     -3.5446980E-08
   38.64000     -3.5777727E-08
   38.70000     -3.6064975E-08
   38.76000     -3.6291560E-08
   38.82000     -3.6439864E-08
   38.88000     -3.6497791E-08
   38.94000     -3.6465828E-08
   39.00000     -3.6362163E-08
   39.06000     -3.6222630E-08
   39.12000     -3.6093493E-08
   39.18000     -3.6018204E-08
   39.24000     -3.6022385E-08
   39.30000     -3.6102701E-08
   39.36000     -3.6224531E-08
   39.42000     -3.6329791E-08
   39.48000     -3.6352382E-08
   39.54000     -3.6235537E-08
   39.60000     -3.5945082E-08
   39.66000     -3.5474585E-08
   39.72000     -3.4842106E-08
   39.78000     -3.4081364E-08
   39.84000     -3.3231501E-08
   39.90000     -3.2328973E-08
   39.96000     -3.1402948E-08
   40.02000     -3.0473633E-08
   40.08000     -2.9552098E-08
   40.14000     -2.8640638E-08
   40.20000     -2.7733970E-08
   40.26000     -2.6822201E-08
   40.32000     -2.5896149E-08
   40.38000     -2.4954081E-08
   40.44000     -2.4007399E-08
   40.50000     -2.3082261E-08
   40.56000     -2.2215277E-08
   40.62000     -2.1443897E-08
   40.68000     -2.0794817E-08
   40.74000     -2.0274996E-08
   40.80000     -1.9869153E-08
   40.86000     -1.9544872E-08
   40.92000     -1.9263229E-08
   40.98000     -1.8990539E-08
   41.04000     -1.8706627E-08
   41.10000     -1.8406970E-08
   41.16000     -1.8099023E-08
   41.22000     -1.7795514E-08
   41.28000     -1.7508240E-08
   41.34000     -1.7244851E-08
   41.40000     -1.7009000E-08
   41.46000     -1.6802355E-08
   41.52000     -1.6626421E-08
   41.58000     -1.6482891E-08
   41.64000     -1.6372837E-08
   41.70000     -1.6296042E-08
   41.76000     -1.6251862E-08
   41.82000     -1.6241779E-08
   41.88000     -1.6272342E-08
   41.94000     -1.6356458E-08
   42.00000     -1.6511562E-08
   42.06000     -1.6754786E-08
   42.12000     -1.7097131E-08
   42.18000     -1.7539413E-08
   42.24000     -1.8072129E-08
   42.30000     -1.8679414E-08
   42.36000     -1.9345119E-08
   42.42000     -2.0057881E-08
   42.48000     -2.0812601E-08
   42.54000     -2.1607722E-08
   42.60000     -2.2439973E-08
   42.66000     -2.3299823E-08
   42.72000     -2.4170461E-08
   42.78000     -2.5031371E-08
   42.84000     -2.5865056E-08
   42.90000     -2.6663757E-08
   42.96000     -2.7432966E-08
   43.02000     -2.8190170E-08
   43.08000     -2.8959686E-08
   43.14000     -2.9766415E-08
   43.20000     -3.0631679E-08
   43.26000     -3.1573101E-08
   43.32000     -3.2608177E-08
   43.38000     -3.3759225E-08
   43.44000     -3.5056974E-08
   43.50000     -3.6540868E-08
   43.56000     -3.8256310E-08
   43.62000     -4.0250786E-08
   43.68000     -4.2571369E-08
   43.74000     -4.5265356E-08
   43.80000     -4.8384024E-08
   43.86000     -5.1988028E-08
   43.92000     -5.6152377E-08
   43.98000     -6.0969874E-08
   44.04000     -6.6552964E-08
   44.10000     -7.3035324E-08
   44.16000     -8.0574402E-08
   44.22000     -8.9355574E-08
   44.28000     -9.9597194E-08
   44.34000     -1.1155543E-07
   44.40000     -1.2552798E-07
   44.46000     -1.4185693E-07
   44.52000     -1.6093242E-07
   44.58000     -1.8319830E-07
   44.64000     -2.0916107E-07
   44.70000     -2.3940095E-07
   44.76000     -2.7458302E-07
   44.82000     -3.1546617E-07
   44.88000     -3.6290857E-07
   44.94000     -4.1787069E-07
   45.00000     -4.8141851E-07
   45.06000     -5.5473089E-07
   45.12000     -6.3911290E-07
   45.18000     -7.3601592E-07
   45.24000     -8.4706187E-07
   45.30000     -9.7406951E-07
   45.36000     -1.1190773E-06
   45.42000     -1.2843647E-06
   45.48000     -1.4724668E-06
   45.54000     -1.6861867E-06
   45.60000     -1.9286051E-06
   45.66000     -2.2030877E-06
   45.72000     -2.5132933E-06
   45.78000     -2.8631821E-06
   45.84000     -3.2570254E-06
   45.90000     -3.6994170E-06
   45.96000     -4.1952912E-06
   46.02000     -4.7499393E-06
   46.08000     -5.3690273E-06
   46.14000     -6.0586103E-06
   46.20000     -6.8251361E-06
   46.26000     -7.6754477E-06
   46.32000     -8.6167711E-06
   46.38000     -9.6567010E-06
   46.44000     -1.0803185E-05
   46.50000     -1.2064501E-05
   46.56000     -1.3449238E-05
   46.62000     -1.4966271E-05
   46.68000     -1.6624723E-05
   46.74000     -1.8433931E-05
   46.80000     -2.0403406E-05
   46.86000     -2.2542768E-05
   46.92000     -2.4861700E-05
   46.98000     -2.7369884E-05
   47.04000     -3.0076933E-05
   47.10000     -3.2992310E-05
   47.16000     -3.6125239E-05
   47.22000     -3.9484610E-05
   47.28000     -4.3078875E-05
   47.34000     -4.6915953E-05
   47.40000     -5.1003117E-05
   47.46000     -5.5346929E-05
   47.52000     -5.9953101E-05
   47.58000     -6.4826439E-05
   47.64000     -6.9970680E-05
   47.70000     -7.5388445E-05
   47.76000     -8.1081133E-05
   47.82000     -8.7048793E-05
   47.88000     -9.3290095E-05
   47.94000     -9.9802215E-05
   48.00000     -1.0658074E-04
   48.06000     -1.1361966E-04
   48.12000     -1.2091127E-04
   48.18000     -1.2844621E-04
   48.24000     -1.3621329E-04
   48.30000     -1.4419973E-04
   48.36000     -1.5239099E-04
   48.42000     -1.6077093E-04
   48.48000     -1.6932182E-04
   48.54000     -1.7802448E-04
   48.60000     -1.8685832E-04
   48.66000     -1.9580146E-04
   48.72000     -2.0483094E-04
   48.78000     -2.1392273E-04
   48.84000     -2.2305209E-04
   48.90000     -2.3219360E-04
   48.96000     -2.4132153E-04
   49.02000     -2.5040982E-04
   49.08000     -2.5943253E-04
   49.14000     -2.6836398E-04
   49.20000     -2.7717883E-04
   49.26000     -2.8585253E-04
   49.32000     -2.9436150E-04
   49.38000     -3.0268362E-04
   49.44000     -3.1079803E-04
   49.50000     -3.1868572E-04
   49.56000     -3.2632943E-04
   49.62000     -3.3371407E-04
   49.68000     -3.4082684E-04
   49.74000     -3.4765733E-04
   49.80000     -3.5419775E-04
   49.86000     -3.6044302E-04
   49.92000     -3.6639083E-04
   49.98000     -3.7204163E-04
   50.04000     -3.7739865E-04
   50.10000     -3.8246776E-04
   50.16000     -3.8725755E-04
   50.22000     -3.9177921E-04
   50.28000     -3.9604632E-04
   50.34000     -4.0007493E-04
   50.40000     -4.0388320E-04
   50.46000     -4.0749126E-04
   50.52000     -4.1092088E-04
   50.58000     -4.1419515E-04
   50.64000     -4.1733819E-04
   50.70000     -4.2037474E-04
   50.76000     -4.2333029E-04
   50.82000     -4.2623043E-04
   50.88000     -4.2910065E-04
   50.94000     -4.3196592E-04
   51.00000     -4.3485023E-04
   51.06000     -4.3777615E-04
   51.12000     -4.4076482E-04
   51.18000     -4.4383566E-04
   51.24000     -4.4700611E-04
   51.30000     -4.5029150E-04
   51.36000     -4.5370471E-04
   51.42000     -4.5725581E-04
   51.48000     -4.6095191E-04
   51.54000     -4.6479708E-04
   51.60000     -4.6879254E-04
   51.66000     -4.7293663E-04
   51.72000     -4.7722491E-04
   51.78000     -4.8165018E-04
   51.84000     -4.8620245E-04
   51.90000     -4.9086910E-04
   51.96000     -4.9563491E-04
   52.02000     -5.0048257E-04
   52.08000     -5.0539261E-04
   52.14000     -5.1034399E-04
   52.20000     -5.1531458E-04
   52.26000     -5.2028080E-04
   52.32000     -5.2521855E-04
   52.38000     -5.3010328E-04
   52.44000     -5.3491048E-04
   52.50000     -5.3961563E-04
   52.56000     -5.4419489E-04
   52.62000     -5.4862554E-04
   52.68000     -5.5288617E-04
   52.74000     -5.5695692E-04
   52.80000     -5.6082016E-04
   52.86000     -5.6445994E-04
   52.92000     -5.6786282E-04
   52.98000     -5.7101744E-04
   53.04000     -5.7391491E-04
   53.10000     -5.7654898E-04
   53.16000     -5.7891576E-04
   53.22000     -5.8101432E-04
   53.28000     -5.8284635E-04
   53.34000     -5.8441574E-04
   53.40000     -5.8572908E-04
   53.46000     -5.8679498E-04
   53.52000     -5.8762409E-04
   53.58000     -5.8822887E-04
   53.64000     -5.8862346E-04
   53.70000     -5.8882328E-04
   53.76000     -5.8884453E-04
   53.82000     -5.8870425E-04
   53.88000     -5.8841950E-04
   53.94000     -5.8800733E-04
   54.00000     -5.8748445E-04
   54.06000     -5.8686716E-04
   54.12000     -5.8617070E-04
   54.18000     -5.8540946E-04
   54.24000     -5.8459601E-04
   54.30000     -5.8374106E-04
   54.36000     -5.8285356E-04
   54.42000     -5.8194029E-04
   54.48000     -5.8100605E-04
   54.54000     -5.8005360E-04
   54.60000     -5.7908328E-04
   54.66000     -5.7809305E-04
   54.72000     -5.7707849E-04
   54.78000     -5.7603262E-04
   54.84000     -5.7494635E-04
   54.90000     -5.7380879E-04
   54.96000     -5.7260739E-04
   55.02000     -5.7132798E-04
   55.08000     -5.6995504E-04
   55.14000     -5.6847167E-04
   55.20000     -5.6686014E-04
   55.26000     -5.6510197E-04
   55.32000     -5.6317856E-04
   55.38000     -5.6107144E-04
   55.44000     -5.5876246E-04
   55.50000     -5.5623433E-04
   55.56000     -5.5347063E-04