  -2.400000      0.0000000E+00
  -2.340000      0.0000000E+00
  -2.280000      0.0000000E+00
  -2.220000      0.0000000E+00
  -2.160000      0.0000000E+00
  -2.100000      0.0000000E+00
  -2.040000      0.0000000E+00
  -1.980000      2.2065556E-25
  -1.920000      1.7044582E-24
  -1.860000      4.7899050E-24
  -1.800000     -2.4372802E-24
  -1.740000     -7.0123550E-23
  -1.680000     -2.9670505E-22
  -1.620000     -7.2698165E-22
  -1.560000     -1.0248783E-21
  -1.500000     -2.7899460E-24
  -1.440000      4.4007697E-21
  -1.380000      1.3540150E-20
  -1.320000      2.3949893E-20
  -1.260000      2.1903943E-20
  -1.200000     -1.7892804E-20
  -1.140000     -1.1995958E-19
  -1.080000     -2.7420722E-19
  -1.020000     -3.8668706E-19
 -0.9600000     -2.4820247E-19
 -0.9000000      4.1768875E-19
 -0.8400000      1.7651619E-18
 -0.7800000      3.4947293E-18
 -0.7200000      4.5166651E-18
 -0.6600000      2.9139242E-18
 -0.6000000     -3.4116609E-18
 -0.5400000     -1.5197902E-17
 -0.4800000     -2.9699205E-17
 -0.4200000     -3.9077557E-17
 -0.3600000     -3.1046742E-17
 -0.3000000      6.6117150E-18
 -0.2400000      7.7481790E-17
 -0.1800000      1.6647542E-16
 -0.1200000      2.3401165E-16
 -5.9999999E-02  2.2161094E-16
  0.0000000E+00  7.3811285E-17
  5.9999999E-02 -2.2588026E-16
  0.1200000     -6.1788465E-16
  0.1800000     -9.5045683E-16
  0.2400000     -1.0079092E-15
  0.3000000     -5.9377963E-16
  0.3600000      3.4722636E-16
  0.4200000      1.6172807E-15
  0.4800000      2.7340879E-15
  0.5400000      3.0429322E-15
  0.6000000      1.9860390E-15
  0.6600000     -5.3966952E-16
  0.7200000     -3.8917835E-15
  0.7800000     -6.6562280E-15
  0.8400000     -7.0354256E-15
  0.9000000     -3.6449488E-15
  0.9600000      3.5159086E-15
   1.020000      1.2364500E-14
   1.080000      1.8818606E-14
   1.140000      1.7997482E-14
   1.200000      6.4325202E-15
   1.260000     -1.5406599E-14
   1.320000     -4.1447148E-14
   1.380000     -6.0464193E-14
   1.440000     -5.9357054E-14
   1.500000     -2.8817199E-14
   1.560000      3.0444238E-14
   1.620000      1.0377222E-13
   1.680000      1.6379943E-13
   1.740000      1.7823750E-13
   1.800000      1.2293936E-13
   1.860000     -4.0890880E-15
   1.920000     -1.7402609E-13
   1.980000     -3.2979156E-13
   2.040000     -4.0228305E-13
   2.100000     -3.3706447E-13
   2.160000     -1.2240298E-13
   2.220000      1.9373679E-13
   2.280000      5.0849245E-13
   2.340000      6.9431407E-13
   2.400000      6.4750354E-13
   2.460000      3.3789966E-13
   2.520000     -1.6208234E-13
   2.580000     -6.8651378E-13
   2.640000     -1.0272925E-12
   2.700000     -1.0139174E-12
   2.760000     -5.9240373E-13
   2.820000      1.3124190E-13
   2.880000      9.0836285E-13
   2.940000      1.4289791E-12
   3.000000      1.4427885E-12
   3.060000      8.7417595E-13
   3.120000     -1.1917277E-13
   3.180000     -1.1779169E-12
   3.240000     -1.8631151E-12
   3.300000     -1.8302074E-12
   3.360000     -9.8894471E-13
   3.420000      4.1983864E-13
   3.480000      1.8741191E-12
   3.540000      2.7438514E-12
   3.600000      2.5330185E-12
   3.660000      1.1017504E-12
   3.720000     -1.2224095E-12
   3.780000     -3.7008920E-12
   3.840000     -5.4050987E-12
   3.900000     -5.5350000E-12
   3.960000     -3.7250355E-12
   4.020000     -2.2269256E-13
   4.080000      4.1358648E-12
   4.140000      8.1586378E-12
   4.200000      1.0667980E-11
   4.260000      1.0882248E-11
   4.320000      8.6718592E-12
   4.380000      4.5917853E-12
   4.440000     -3.2979739E-13
   4.500000     -4.9768076E-12
   4.560000     -8.5646004E-12
   4.620000     -1.0930631E-11
   4.680000     -1.2570303E-11
   4.740000     -1.4379095E-11
   4.800000     -1.7172484E-11
   4.860000     -2.1150302E-11
   4.920000     -2.5515427E-11
   4.980000     -2.8426929E-11
   5.040000     -2.7368227E-11
   5.100000     -1.9870296E-11
   5.160000     -4.3958357E-12
   5.220000      1.8888566E-11
   5.280000      4.7714787E-11
   5.340000      7.7849262E-11
   5.400000      1.0375624E-10
   5.460000      1.1961063E-10
   5.520000      1.2036971E-10
   5.580000      1.0260557E-10
   5.640000      6.4907919E-11
   5.700000      7.8567040E-12
   5.760000     -6.6235101E-11
   5.820000     -1.5347770E-10
   5.880000     -2.4813288E-10
   5.940000     -3.4174541E-10
   6.000000     -4.2177978E-10
   6.060000     -4.7016024E-10
   6.120000     -4.6231860E-10
   6.180000     -3.6738040E-10
   6.240000     -1.4991824E-10
   6.300000      2.2668377E-10
   6.360000      7.9567586E-10
   6.420000      1.5820169E-09
   6.480000      2.5980811E-09
   6.540000      3.8409067E-09
   6.600000      5.2915357E-09
   6.660000      6.9164723E-09
   6.720000      8.6707859E-09
   6.780000      1.0502064E-08
   6.840000      1.2354358E-08
   6.900000      1.4171505E-08
   6.960000      1.5899570E-08
   7.020000      1.7488562E-08
   7.080000      1.8893807E-08
   7.140000      2.0077344E-08
   7.200000      2.1009484E-08
   7.260000      2.1670377E-08
   7.320000      2.2051140E-08
   7.380000      2.2154058E-08
   7.440000      2.1991518E-08
   7.500000      2.1583750E-08
   7.560000      2.0955868E-08
   7.620000      2.0134937E-08
   7.680000      1.9147922E-08
   7.740000      1.8021085E-08
   7.800000      1.6780874E-08
   7.860000      1.5455935E-08
   7.920000      1.4079305E-08
   7.980000      1.2689794E-08
   8.040000      1.1331755E-08
   8.100000      1.0052855E-08
   8.160000      8.9001659E-09
   8.220000      7.9154061E-09
   8.280000      7.1305046E-09
   8.340000      6.5646120E-09
   8.400000      6.2232690E-09
   8.460000      6.0998109E-09
   8.520000      6.1784595E-09
   8.580000      6.4381038E-09
   8.640000      6.8556809E-09
   8.700000      7.4083779E-09
   8.760000      8.0743865E-09
   8.820000      8.8325205E-09
   8.880000      9.6613926E-09
   8.940000      1.0538880E-08
   9.000000      1.1442353E-08
   9.060000      1.2349679E-08
   9.120000      1.3240616E-08
   9.180000      1.4097989E-08
   9.240000      1.4908176E-08
   9.300000      1.5660788E-08
   9.360000      1.6347812E-08
   9.420000      1.6962861E-08
   9.480000      1.7501101E-08
   9.540000      1.7960192E-08
   9.600000      1.8342112E-08
   9.660000      1.8655198E-08
   9.720000      1.8915543E-08
   9.780000      1.9146901E-08
   9.840000      1.9378648E-08
   9.900000      1.9641909E-08
   9.960000      1.9964627E-08
   10.02000      2.0366677E-08
   10.08000      2.0856271E-08
   10.14000      2.1428615E-08
   10.20000      2.2067054E-08
   10.26000      2.2746393E-08
   10.32000      2.3437343E-08
   10.38000      2.4110761E-08
   10.44000      2.4740569E-08
   10.50000      2.5304647E-08
   10.56000      2.5783869E-08
   10.62000      2.6160071E-08
   10.68000      2.6414218E-08
   10.74000      2.6525923E-08
   10.80000      2.6474918E-08
   10.86000      2.6244262E-08
   10.92000      2.5824253E-08
   10.98000      2.5215607E-08
   11.04000      2.4430575E-08
   11.10000      2.3491301E-08
   11.16000      2.2425770E-08
   11.22000      2.1262613E-08
   11.28000      2.0026558E-08
   11.34000      1.8736195E-08
   11.40000      1.7405007E-08
   11.46000      1.6045353E-08
   11.52000      1.4674033E-08
   11.58000      1.3317200E-08
   11.64000      1.2012548E-08
   11.70000      1.0807383E-08
   11.76000      9.7525890E-09
   11.82000      8.8939558E-09
   11.88000      8.2633465E-09
   11.94000      7.8724351E-09
   12.00000      7.7110460E-09
   12.06000      7.7507485E-09
   12.12000      7.9526430E-09
   12.18000      8.2769169E-09
   12.24000      8.6911491E-09
   12.30000      9.1747294E-09
   12.36000      9.7180868E-09
   12.42000      1.0317133E-08
   12.48000      1.0965023E-08
   12.54000      1.1644220E-08
   12.60000      1.2321860E-08
   12.66000      1.2950287E-08
   12.72000      1.3472951E-08
   12.78000      1.3834054E-08
   12.84000      1.3989029E-08
   12.90000      1.3912648E-08
   12.96000      1.3602263E-08
   13.02000      1.3075249E-08
   13.08000      1.2361556E-08
   13.14000      1.1493745E-08
   13.20000      1.0497669E-08
   13.26000      9.3865591E-09
   13.32000      8.1601890E-09
   13.38000      6.8090813E-09
   13.44000      5.3222800E-09
   13.50000      3.6961783E-09
   13.56000      1.9418001E-09
   13.62000      8.8548273E-11
   13.68000     -1.8164226E-09
   13.74000     -3.7128105E-09
   13.80000     -5.5343810E-09
   13.86000     -7.2169715E-09
   13.92000     -8.7055412E-09
   13.98000     -9.9590372E-09
   14.04000     -1.0952553E-08
   14.10000     -1.1676943E-08
   14.16000     -1.2136570E-08
   14.22000     -1.2346096E-08
   14.28000     -1.2327217E-08
   14.34000     -1.2106057E-08
   14.40000     -1.1711526E-08
   14.46000     -1.1174687E-08
   14.52000     -1.0528788E-08
   14.58000     -9.8094883E-09
   14.64000     -9.0547632E-09
   14.70000     -8.3040659E-09
   14.76000     -7.5966495E-09
   14.82000     -6.9691399E-09
   14.88000     -6.4528161E-09
   14.94000     -6.0711440E-09
   15.00000     -5.8381810E-09
   15.06000     -5.7583009E-09
   15.12000     -5.8274190E-09
   15.18000     -6.0355441E-09
   15.24000     -6.3701346E-09
   15.30000     -6.8194841E-09
   15.36000     -7.3753217E-09
   15.42000     -8.0339673E-09
   15.48000     -8.7957472E-09
   15.54000     -9.6628439E-09
   15.60000     -1.0636205E-08
   15.66000     -1.1712415E-08
   15.72000     -1.2881483E-08
   15.78000     -1.4126318E-08
   15.84000     -1.5424144E-08
   15.90000     -1.6749651E-08
   15.96000     -1.8079037E-08
   16.02000     -1.9393839E-08
   16.08000     -2.0683359E-08
   16.14000     -2.1944889E-08
   16.20000     -2.3181578E-08
   16.26000     -2.4398579E-08
   16.32000     -2.5598720E-08
   16.38000     -2.6779169E-08
   16.44000     -2.7930202E-08
   16.50000     -2.9036373E-08
   16.56000     -3.0079502E-08
   16.62000     -3.1042113E-08
   16.68000     -3.1909870E-08
   16.74000     -3.2672045E-08
   16.80000     -3.3319910E-08
   16.86000     -3.3844039E-08
   16.92000     -3.4231931E-08
   16.98000     -3.4467497E-08
   17.04000     -3.4533162E-08
   17.10000     -3.4414345E-08
   17.16000     -3.4105064E-08
   17.22000     -3.3612739E-08
   17.28000     -3.2960365E-08
   17.34000     -3.2184861E-08
   17.40000     -3.1331414E-08
   17.46000     -3.0445097E-08
   17.52000     -2.9561813E-08
   17.58000     -2.8701075E-08
   17.64000     -2.7862693E-08
   17.70000     -2.7028369E-08
   17.76000     -2.6167537E-08
   17.82000     -2.5245626E-08
   17.88000     -2.4231962E-08
   17.94000     -2.3104940E-08
   18.00000     -2.1853138E-08
   18.06000     -2.0472797E-08
   18.12000     -1.8963462E-08
   18.18000     -1.7324414E-08
   18.24000     -1.5553896E-08
   18.30000     -1.3651957E-08
   18.36000     -1.1625827E-08
   18.42000     -9.4955235E-09
   18.48000     -7.2969968E-09
   18.54000     -5.0809730E-09
   18.60000     -2.9072518E-09
   18.66000     -8.3599044E-10
   18.72000      1.0814198E-09
   18.78000      2.8091778E-09
   18.84000      4.3298725E-09
   18.90000      5.6430500E-09
   18.96000      6.7607839E-09
   19.02000      7.7022850E-09
   19.08000      8.4894980E-09
   19.14000      9.1448422E-09
   19.20000      9.6911208E-09
   19.26000      1.0152736E-08
   19.32000      1.0556950E-08
   19.38000      1.0934128E-08
   19.44000      1.1316476E-08
   19.50000      1.1735485E-08
   19.56000      1.2218739E-08
   19.62000      1.2786848E-08
   19.68000      1.3451193E-08
   19.74000      1.4212797E-08
   19.80000      1.5062435E-08
   19.86000      1.5981875E-08
   19.92000      1.6946062E-08
   19.98000      1.7925885E-08
   20.04000      1.8891125E-08
   20.10000      1.9813076E-08
   20.16000      2.0666290E-08
   20.22000      2.1429296E-08
   20.28000      2.2084356E-08
   20.34000      2.2616762E-08
   20.40000      2.3014307E-08
   20.46000      2.3267315E-08
   20.52000      2.3369292E-08
   20.58000      2.3317748E-08
   20.64000      2.3114563E-08
   20.70000      2.2765558E-08
   20.76000      2.2279353E-08
   20.82000      2.1666086E-08
   20.88000      2.0936758E-08
   20.94000      2.0103634E-08
   21.00000      1.9181556E-08
   21.06000      1.8189512E-08
   21.12000      1.7151606E-08
   21.18000      1.6096978E-08
   21.24000      1.5058676E-08
   21.30000      1.4072026E-08
   21.36000      1.3172976E-08
   21.42000      1.2396494E-08
   21.48000      1.1774633E-08
   21.54000      1.1333678E-08
   21.60000      1.1090306E-08
   21.66000      1.1047471E-08
   21.72000      1.1191592E-08
   21.78000      1.1492677E-08
   21.84000      1.1908312E-08
   21.90000      1.2390935E-08
   21.96000      1.2896441E-08
   22.02000      1.3391354E-08
   22.08000      1.3856262E-08
   22.14000      1.4284557E-08
   22.20000      1.4677239E-08
   22.26000      1.5035910E-08
   22.32000      1.5356493E-08
   22.38000      1.5625671E-08
   22.44000      1.5820856E-08
   22.50000      1.5913249E-08
   22.56000      1.5872704E-08
   22.62000      1.5672777E-08
   22.68000      1.5294670E-08
   22.74000      1.4729248E-08
   22.80000      1.3977007E-08
   22.86000      1.3046438E-08
   22.92000      1.1951608E-08
   22.98000      1.0709886E-08
   23.04000      9.3405630E-09
   23.10000      7.8646067E-09
   23.16000      6.3052608E-09
   23.22000      4.6887036E-09
   23.28000      3.0439478E-09
   23.34000      1.4014568E-09
   23.40000     -2.0939110E-10
   23.46000     -1.7632839E-09
   23.52000     -3.2414098E-09
   23.58000     -4.6325219E-09
   23.64000     -5.9323391E-09
   23.70000     -7.1415984E-09
   23.76000     -8.2634930E-09
   23.82000     -9.3013259E-09
   23.88000     -1.0257000E-08
   23.94000     -1.1130565E-08
   24.00000     -1.1920758E-08
   24.06000     -1.2626126E-08
   24.12000     -1.3246284E-08
   24.18000     -1.3782770E-08
   24.24000     -1.4239123E-08
   24.30000     -1.4620118E-08
   24.36000     -1.4930507E-08
   24.42000     -1.5173976E-08
   24.48000     -1.5353159E-08
   24.54000     -1.5471118E-08
   24.60000     -1.5534059E-08
   24.66000     -1.5554120E-08
   24.72000     -1.5550729E-08
   24.78000     -1.5549327E-08
   24.84000     -1.5577296E-08
   24.90000     -1.5658200E-08
   24.96000     -1.5806410E-08
   25.02000     -1.6024096E-08
   25.08000     -1.6301668E-08
   25.14000     -1.6621245E-08
   25.20000     -1.6961526E-08
   25.26000     -1.7302121E-08
   25.32000     -1.7626034E-08
   25.38000     -1.7920170E-08
   25.44000     -1.8174754E-08
   25.50000     -1.8382826E-08
   25.56000     -1.8540371E-08
   25.62000     -1.8646761E-08
   25.68000     -1.8704434E-08
   25.74000     -1.8716980E-08
   25.80000     -1.8685602E-08
   25.86000     -1.8605231E-08
   25.92000     -1.8462181E-08
   25.98000     -1.8235093E-08
   26.04000     -1.7899634E-08
   26.10000     -1.7435848E-08
   26.16000     -1.6835669E-08
   26.22000     -1.6107792E-08
   26.28000     -1.5277946E-08
   26.34000     -1.4384224E-08
   26.40000     -1.3469022E-08
   26.46000     -1.2570374E-08
   26.52000     -1.1715745E-08
   26.58000     -1.0920393E-08
   26.64000     -1.0190711E-08
   26.70000     -9.5309600E-09
   26.76000     -8.9504217E-09
   26.82000     -8.4676737E-09
   26.88000     -8.1096134E-09
   26.94000     -7.9049851E-09
   27.00000     -7.8744335E-09
   27.06000     -8.0209093E-09
   27.12000     -8.3245464E-09
   27.18000     -8.7447605E-09
   27.24000     -9.2296810E-09
   27.30000     -9.7300878E-09
   27.36000     -1.0213077E-08
   27.42000     -1.0670526E-08
   27.48000     -1.1119269E-08
   27.54000     -1.1593058E-08
   27.60000     -1.2129493E-08
   27.66000     -1.2757065E-08
   27.72000     -1.3487268E-08
   27.78000     -1.4314638E-08
   27.84000     -1.5224224E-08
   27.90000     -1.6202993E-08
   27.96000     -1.7249940E-08
   28.02000     -1.8380165E-08
   28.08000     -1.9620604E-08
   28.14000     -2.0998618E-08
   28.20000     -2.2527709E-08
   28.26000     -2.4196156E-08
   28.32000     -2.5963512E-08
   28.38000     -2.7766976E-08
   28.44000     -2.9535736E-08
   28.50000     -3.1208085E-08
   28.56000     -3.2744818E-08
   28.62000     -3.4133723E-08
   28.68000     -3.5383586E-08
   28.74000     -3.6510237E-08
   28.80000     -3.7520650E-08
   28.86000     -3.8401794E-08
   28.92000     -3.9119126E-08
   28.98000     -3.9625807E-08
   29.04000     -3.9879378E-08
   29.10000     -3.9859597E-08
   29.16000     -3.9580780E-08
   29.22000     -3.9093749E-08
   29.28000     -3.8476351E-08
   29.34000     -3.7815404E-08
   29.40000     -3.7185721E-08
   29.46000     -3.6632823E-08
   29.52000     -3.6164344E-08
   29.58000     -3.5752372E-08
   29.64000     -3.5345330E-08
   29.70000     -3.4885083E-08
   29.76000     -3.4323541E-08
   29.82000     -3.3633548E-08
   29.88000     -3.2810938E-08
   29.94000     -3.1868097E-08
   30.00000     -3.0822171E-08
   30.06000     -2.9683033E-08
   30.12000     -2.8445958E-08
   30.18000     -2.7091966E-08
   30.24000     -2.5595741E-08
   30.30000     -2.3938034E-08
   30.36000     -2.2117785E-08
   30.42000     -2.0159403E-08
   30.48000     -1.8112441E-08
   30.54000     -1.6043744E-08
   30.60000     -1.4024635E-08
   30.66000     -1.2117131E-08
   30.72000     -1.0363144E-08
   30.78000     -8.7793683E-09
   30.84000     -7.3587216E-09
   30.90000     -6.0773422E-09
   30.96000     -4.9048676E-09
   31.02000     -3.8150438E-09
   31.08000     -2.7937899E-09
   31.14000     -1.8425476E-09
   31.20000     -9.7601149E-10
   31.26000     -2.1499394E-10
   31.32000      4.2318801E-10
   31.38000      9.3335439E-10
   31.44000      1.3267237E-09
   31.50000      1.6287628E-09
   31.56000      1.8709627E-09
   31.62000      2.0793895E-09
   31.68000      2.2644260E-09
   31.74000      2.4159543E-09
   31.80000      2.5062401E-09
   31.86000      2.4997355E-09
   31.92000      2.3661861E-09
   31.98000      2.0920687E-09
   32.04000      1.6861197E-09
   32.10000      1.1771866E-09
   32.16000      6.0576349E-10
   32.22000      1.2979535E-11
   32.28000     -5.6849664E-10
   32.34000     -1.1183682E-09
   32.40000     -1.6266298E-09
   32.46000     -2.0872464E-09
   32.52000     -2.4909699E-09
   32.58000     -2.8207603E-09
   32.64000     -3.0519443E-09
   32.70000     -3.1571721E-09
   32.76000     -3.1142473E-09
   32.82000     -2.9137726E-09
   32.88000     -2.5636173E-09
   32.94000     -2.0883602E-09
   33.00000     -1.5236862E-09
   33.06000     -9.0753399E-10
   33.12000     -2.7099895E-10
   33.18000      3.6788761E-10
   33.24000      1.0054174E-09
   33.30000      1.6483164E-09
   33.36000      2.3065603E-09
   33.42000      2.9861369E-09
   33.48000      3.6850323E-09
   33.54000      4.3943325E-09
   33.60000      5.1039928E-09
   33.66000      5.8104903E-09
   33.72000      6.5224381E-09
   33.78000      7.2607969E-09
   33.84000      8.0526474E-09
   33.90000      8.9204564E-09
   33.96000      9.8711723E-09
   34.02000      1.0890033E-08
   34.08000      1.1942271E-08
   34.14000      1.2982605E-08
   34.20000      1.3968820E-08
   34.26000      1.4873764E-08
   34.32000      1.5690475E-08
   34.38000      1.6428146E-08
   34.44000      1.7100854E-08
   34.50000      1.7714411E-08
   34.56000      1.8257959E-08
   34.62000      1.8704814E-08
   34.68000      1.9022872E-08
   34.74000      1.9190150E-08
   34.80000      1.9208205E-08
   34.86000      1.9106665E-08
   34.92000      1.8935930E-08
   34.98000      1.8750505E-08
   35.04000      1.8590006E-08
   35.10000      1.8466340E-08
   35.16000      1.8363101E-08
   35.22000      1.8247860E-08
   35.28000      1.8092194E-08
   35.34000      1.7890734E-08
   35.40000      1.7670779E-08
   35.46000      1.7488107E-08
   35.52000      1.7410576E-08
   35.58000      1.7496186E-08
   35.64000      1.7774404E-08
   35.70000      1.8237785E-08
   35.76000      1.8846244E-08
   35.82000      1.9541258E-08
   35.88000      2.0263471E-08
   35.94000      2.0966722E-08
   36.00000      2.1623833E-08
   36.06000      2.2223468E-08
   36.12000      2.2761061E-08
   36.18000      2.3228846E-08
   36.24000      2.3609498E-08
   36.30000      2.3875813E-08
   36.36000      2.3995923E-08
   36.42000      2.3941377E-08
   36.48000      2.3694669E-08
   36.54000      2.3253470E-08
   36.60000      2.2630605E-08
   36.66000      2.1850468E-08
   36.72000      2.0943718E-08
   36.78000      1.9942206E-08
   36.84000      1.8875388E-08
   36.90000      1.7768423E-08
   36.96000      1.6641390E-08
   37.02000      1.5508853E-08
   37.08000      1.4379322E-08
   37.14000      1.3254842E-08
   37.20000      1.2131333E-08
   37.26000      1.1000301E-08
   37.32000      9.8519566E-09
   37.38000      8.6789678E-09
   37.44000      7.4794757E-09
   37.50000      6.2579861E-09
   37.56000      5.0234252E-09
   37.62000      3.7847872E-09
   37.68000      2.5459252E-09
   37.74000      1.3016440E-09
   37.80000      3.6937769E-11
   37.86000     -1.2698150E-09
   37.92000     -2.6404143E-09
   37.98000     -4.0891774E-09
   38.04000     -5.6166480E-09
   38.10000     -7.2068667E-09
   38.16000     -8.8291454E-09
   38.22000     -1.0443657E-08
   38.28000     -1.2008871E-08
   38.34000     -1.3488314E-08
   38.40000     -1.4854606E-08
   38.46000     -1.6090020E-08
   38.52000     -1.7184156E-08
   38.58000     -1.8130452E-08
   38.64000     -1.8923485E-08
   38.70000     -1.9558431E-08
   38.76000     -2.0032939E-08
   38.82000     -2.0350491E-08
   38.88000     -2.0523673E-08
   38.94000     -2.0575651E-08
   39.00000     -2.0538847E-08
   39.06000     -2.0450839E-08
   39.12000     -2.0348580E-08
   39.18000     -2.0262762E-08
   39.24000     -2.0214268E-08
   39.30000     -2.0214022E-08
   39.36000     -2.0266363E-08
   39.42000     -2.0374573E-08
   39.48000     -2.0546187E-08
   39.54000     -2.0795420E-08
   39.60000     -2.1141021E-08
   39.66000     -2.1599792E-08
   39.72000     -2.2178153E-08
   39.78000     -2.2865558E-08
   39.84000     -2.3633293E-08
   39.90000     -2.4440302E-08
   39.96000     -2.5244622E-08
   40.02000     -2.6016147E-08
   40.08000     -2.6745395E-08
   40.14000     -2.7444150E-08
   40.20000     -2.8137174E-08
   40.26000     -2.8848172E-08
   40.32000     -2.9585957E-08
   40.38000     -3.0336995E-08
   40.44000     -3.1067980E-08
   40.50000     -3.1737695E-08
   40.56000     -3.2313284E-08
   40.62000     -3.2783891E-08
   40.68000     -3.3165563E-08
   40.74000     -3.3494796E-08
   40.80000     -3.3813055E-08
   40.86000     -3.4148275E-08
   40.92000     -3.4500946E-08
   40.98000     -3.4840685E-08
   41.04000     -3.5115129E-08
   41.10000     -3.5268187E-08
   41.16000     -3.5260904E-08
   41.22000     -3.5087155E-08
   41.28000     -3.4778068E-08
   41.34000     -3.4393373E-08
   41.40000     -3.4002678E-08
   41.46000     -3.3663667E-08
   41.52000     -3.3405275E-08
   41.58000     -3.3222154E-08
   41.64000     -3.3082287E-08
   41.70000     -3.2944342E-08
   41.76000     -3.2777521E-08
   41.82000     -3.2575439E-08
   41.88000     -3.2358077E-08
   41.94000     -3.2160830E-08
   42.00000     -3.2015265E-08
   42.06000     -3.1930004E-08
   42.12000     -3.1880361E-08
   42.18000     -3.1812036E-08
   42.24000     -3.1658146E-08
   42.30000     -3.1363278E-08
   42.36000     -3.0905063E-08
   42.42000     -3.0304388E-08
   42.48000     -2.9620084E-08
   42.54000     -2.8929867E-08
   42.60000     -2.8304926E-08
   42.66000     -2.7787772E-08
   42.72000     -2.7381546E-08
   42.78000     -2.7054227E-08
   42.84000     -2.6755409E-08
   42.90000     -2.6438711E-08
   42.96000     -2.6081155E-08
   43.02000     -2.5692472E-08
   43.08000     -2.5311428E-08
   43.14000     -2.4991204E-08
   43.20000     -2.4779659E-08
   43.26000     -2.4701809E-08
   43.32000     -2.4750719E-08
   43.38000     -2.4889735E-08
   43.44000     -2.5064967E-08
   43.50000     -2.5223493E-08
   43.56000     -2.5330998E-08
   43.62000     -2.5382922E-08
   43.68000     -2.5405523E-08
   43.74000     -2.5446695E-08
   43.80000     -2.5559842E-08
   43.86000     -2.5786340E-08
   43.92000     -2.6142709E-08
   43.98000     -2.6616783E-08
   44.04000     -2.7174151E-08
   44.10000     -2.7772286E-08
   44.16000     -2.8376876E-08
   44.22000     -2.8973957E-08
   44.28000     -2.9572918E-08
   44.34000     -3.0199050E-08
   44.40000     -3.0878592E-08
   44.46000     -3.1622609E-08
   44.52000     -3.2416796E-08
   44.58000     -3.3222090E-08
   44.64000     -3.3986417E-08
   44.70000     -3.4662929E-08
   44.76000     -3.5226954E-08
   44.82000     -3.5684060E-08
   44.88000     -3.6065259E-08
   44.94000     -3.6411127E-08
   45.00000     -3.6751445E-08
   45.06000     -3.7089286E-08
   45.12000     -3.7396511E-08
   45.18000     -3.7622790E-08
   45.24000     -3.7714276E-08
   45.30000     -3.7633907E-08
   45.36000     -3.7374946E-08
   45.42000     -3.6962174E-08
   45.48000     -3.6440735E-08
   45.54000     -3.5857354E-08
   45.60000     -3.5241399E-08
   45.66000     -3.4592514E-08
   45.72000     -3.3878468E-08
   45.78000     -3.3042724E-08
   45.84000     -3.2017805E-08
   45.90000     -3.0739532E-08
   45.96000     -2.9157759E-08
   46.02000     -2.7241381E-08
   46.08000     -2.4977474E-08
   46.14000     -2.2366020E-08
   46.20000     -1.9412166E-08
   46.26000     -1.6117829E-08
   46.32000     -1.2473992E-08
   46.38000     -8.4545730E-09
   46.44000     -4.0123589E-09
   46.50000      9.2297486E-10
   46.56000      6.4453127E-09
   46.62000      1.2672332E-08
   46.68000      1.9747187E-08
   46.74000      2.7843202E-08
   46.80000      3.7172196E-08
   46.86000      4.7995695E-08
   46.92000      6.0636971E-08
   46.98000      7.5491556E-08
   47.04000      9.3034373E-08
   47.10000      1.1382369E-07
   47.16000      1.3850402E-07
   47.22000      1.6781171E-07
   47.28000      2.0258663E-07
   47.34000      2.4379227E-07
   47.40000      2.9254389E-07
   47.46000      3.5014170E-07
   47.52000      4.1810600E-07
   47.58000      4.9821068E-07
   47.64000      5.9251374E-07
   47.70000      7.0338712E-07
   47.76000      8.3354837E-07
   47.82000      9.8609883E-07
   47.88000      1.1645711E-06
   47.94000      1.3729878E-06
   48.00000      1.6159274E-06
   48.06000      1.8985992E-06
   48.12000      2.2269176E-06
   48.18000      2.6075772E-06
   48.24000      3.0481274E-06
   48.30000      3.5570440E-06
   48.36000      4.1438070E-06
   48.42000      4.8189818E-06
   48.48000      5.5943178E-06
   48.54000      6.4828564E-06
   48.60000      7.4990498E-06
   48.66000      8.6588898E-06
   48.72000      9.9800391E-06
   48.78000      1.1481960E-05
   48.84000      1.3186034E-05
   48.90000      1.5115672E-05
   48.96000      1.7296412E-05
   49.02000      1.9756013E-05
   49.08000      2.2524557E-05
   49.14000      2.5634534E-05
   49.20000      2.9120936E-05
   49.26000      3.3021362E-05
   49.32000      3.7376096E-05
   49.38000      4.2228156E-05
   49.44000      4.7623347E-05
   49.50000      5.3610271E-05
   49.56000      6.0240272E-05
   49.62000      6.7567402E-05
   49.68000      7.5648328E-05
   49.74000      8.4542226E-05
   49.80000      9.4310628E-05
   49.86000      1.0501728E-04
   49.92000      1.1672790E-04
   49.98000      1.2950999E-04
   50.04000      1.4343245E-04
   50.10000      1.5856528E-04
   50.16000      1.7497917E-04
   50.22000      1.9274496E-04
   50.28000      2.1193331E-04
   50.34000      2.3261404E-04
   50.40000      2.5485561E-04
   50.46000      2.7872465E-04
   50.52000      3.0428512E-04
   50.58000      3.3159781E-04
   50.64000      3.6071960E-04
   50.70000      3.9170275E-04
   50.76000      4.2459415E-04
   50.82000      4.5943467E-04
   50.88000      4.9625820E-04
   50.94000      5.3509133E-04
   51.00000      5.7595229E-04
   51.06000      6.1885064E-04
   51.12000      6.6378649E-04
   51.18000      7.1075000E-04
   51.24000      7.5972086E-04
   51.30000      8.1066799E-04
   51.36000      8.6354895E-04
   51.42000      9.1830996E-04
   51.48000      9.7488560E-04
   51.54000      1.0331990E-03
   51.60000      1.0931616E-03
   51.66000      1.1546736E-03
   51.72000      1.2176245E-03
   51.78000      1.2818931E-03
   51.84000      1.3473487E-03
   51.90000      1.4138512E-03
   51.96000      1.4812521E-03
   52.02000      1.5493961E-03
   52.08000      1.6181212E-03
   52.14000      1.6872606E-03
   52.20000      1.7566439E-03
   52.26000      1.8260983E-03
   52.32000      1.8954503E-03
   52.38000      1.9645269E-03
   52.44000      2.0331577E-03
   52.50000      2.1011755E-03
   52.56000      2.1684191E-03
   52.62000      2.2347330E-03
   52.68000      2.2999707E-03
   52.74000      2.3639952E-03
   52.80000      2.4266799E-03
   52.86000      2.4879111E-03
   52.92000      2.5475887E-03
   52.98000      2.6056266E-03
   53.04000      2.6619534E-03
   53.10000      2.7165138E-03
   53.16000      2.7692674E-03
   53.22000      2.8201900E-03
   53.28000      2.8692735E-03
   53.34000      2.9165265E-03
   53.40000      2.9619720E-03
   53.46000      3.0056494E-03
   53.52000      3.0476109E-03
   53.58000      3.0879227E-03
   53.64000      3.1266615E-03
   53.70000      3.1639149E-03
   53.76000      3.1997785E-03
   53.82000      3.2343555E-03
   53.88000      3.2677541E-03
   53.94000      3.3000861E-03
   54.00000      3.3314647E-03
   54.06000      3.3620028E-03
   54.12000      3.3918114E-03
   54.18000      3.4209960E-03
   54.24000      3.4496565E-03
   54.30000      3.4778842E-03
   54.36000      3.5057608E-03
   54.42000      3.5333573E-03
   54.48000      3.5607317E-03
   54.54000      3.5879284E-03
   54.60000      3.6149782E-03
   54.66000      3.6418953E-03
   54.72000      3.6686789E-03
   54.78000      3.6953124E-03
   54.84000      3.7217631E-03
   54.90000      3.7479827E-03
   54.96000      3.7739079E-03
   55.02000      3.7994611E-03
   55.08000      3.8245511E-03
   55.14000      3.8490754E-03
   55.20000      3.8729203E-03
   55.26000      3.8959645E-03
   55.32000      3.9180787E-03
   55.38000      3.9391299E-03
   55.44000      3.9589806E-03
   55.50000      3.9774938E-03
   55.56000      3.9945338E-03