  -2.400000      0.0000000E+00
  -2.340000      0.0000000E+00
  -2.280000      0.0000000E+00
  -2.220000      0.0000000E+00
  -2.160000      0.0000000E+00
  -2.100000      0.0000000E+00
  -2.040000      0.0000000E+00
  -1.980000      4.7127703E-26
  -1.920000      3.9307968E-25
  -1.860000      1.1844964E-24
  -1.800000     -8.0439915E-25
  -1.740000     -2.1663088E-23
  -1.680000     -1.0075147E-22
  -1.620000     -2.8156488E-22
  -1.560000     -5.0707737E-22
  -1.500000     -4.0710022E-22
  -1.440000      8.8064756E-22
  -1.380000      4.4500782E-21
  -1.320000      1.0421608E-20
  -1.260000      1.5799526E-20
  -1.200000      1.2740075E-20
  -1.140000     -9.9151151E-21
  -1.080000     -5.9105641E-20
  -1.020000     -1.2496883E-19
 -0.9600000     -1.7115600E-19
 -0.9000000     -1.4168485E-19
 -0.8400000      5.8546794E-21
 -0.7800000      2.5007040E-19
 -0.7200000      4.7658600E-19
 -0.6600000      5.2386403E-19
 -0.6000000      3.3017677E-19
 -0.5400000      1.2218731E-19
 -0.4800000      4.7494953E-19
 -0.4200000      2.0269771E-18
 -0.3600000      4.7604964E-18
 -0.3000000      7.0959366E-18
 -0.2400000      5.4793639E-18
 -0.1800000     -4.6420929E-18
 -0.1200000     -2.5923445E-17
 -5.9999999E-02 -5.4876118E-17
  0.0000000E+00 -7.8389359E-17
  5.9999999E-02 -7.4257175E-17
  0.1200000     -1.8528578E-17
  0.1800000      1.0018755E-16
  0.2400000      2.6386717E-16
  0.3000000      4.1454605E-16
  0.3600000      4.6051350E-16
  0.4200000      3.0562251E-16
  0.4800000     -1.0176044E-16
  0.5400000     -7.1644519E-16
  0.6000000     -1.3668138E-15
  0.6600000     -1.7740647E-15
  0.7200000     -1.6328281E-15
  0.7800000     -7.4018403E-16
  0.8400000      8.6863038E-16
  0.9000000      2.8384673E-15
  0.9600000      4.5238094E-15
   1.020000      5.1558400E-15
   1.080000      4.1200678E-15
   1.140000      1.2596119E-15
   1.200000     -2.9188887E-15
   1.260000     -7.2552531E-15
   1.320000     -1.0221864E-14
   1.380000     -1.0443200E-14
   1.440000     -7.2901026E-15
   1.500000     -1.3090698E-15
   1.560000      5.7502132E-15
   1.620000      1.1431980E-14
   1.680000      1.3509755E-14
   1.740000      1.1037576E-14
   1.800000      5.0396682E-15
   1.860000     -1.6055247E-15
   1.920000     -5.2597731E-15
   1.980000     -3.3189904E-15
   2.040000      4.0289965E-15
   2.100000      1.3037884E-14
   2.160000      1.7364072E-14
   2.220000      1.0803693E-14
   2.280000     -9.0900222E-15
   2.340000     -3.8177157E-14
   2.400000     -6.5482748E-14
   2.460000     -7.6524968E-14
   2.520000     -5.9630232E-14
   2.580000     -1.2876968E-14
   2.640000      5.1759659E-14
   2.700000      1.1008785E-13
   2.760000      1.3414005E-13
   2.820000      1.0513031E-13
   2.880000      2.5731358E-14
   2.940000     -7.4701794E-14
   3.000000     -1.4668635E-13
   3.060000     -1.3926894E-13
   3.120000     -2.5384849E-14
   3.180000      1.7615792E-13
   3.240000      3.9335852E-13
   3.300000      5.1605118E-13
   3.360000      4.3306659E-13
   3.420000      8.1629100E-14
   3.480000     -5.0861805E-13
   3.540000     -1.1966552E-12
   3.600000     -1.7503833E-12
   3.660000     -1.9080005E-12
   3.720000     -1.4666969E-12
   3.780000     -3.7160956E-13
   3.840000      1.2274659E-12
   3.900000      2.9783001E-12
   3.960000      4.3973531E-12
   4.020000      4.9967287E-12
   4.080000      4.4322428E-12
   4.140000      2.6259372E-12
   4.200000     -1.8013840E-13
   4.260000     -3.4624957E-12
   4.320000     -6.5406530E-12
   4.380000     -8.7506027E-12
   4.440000     -9.6113291E-12
   4.500000     -8.9289557E-12
   4.560000     -6.8048414E-12
   4.620000     -3.5500123E-12
   4.680000      4.5436712E-13
   4.740000      4.8872759E-12
   4.800000      9.5467445E-12
   4.860000      1.4302750E-11
   4.920000      1.8954774E-11
   4.980000      2.3051045E-11
   5.040000      2.5755209E-11
   5.100000      2.5843829E-11
   5.160000      2.1882458E-11
   5.220000      1.2569390E-11
   5.280000     -2.8248840E-12
   5.340000     -2.4036106E-11
   5.400000     -4.9521592E-11
   5.460000     -7.6398735E-11
   5.520000     -1.0063331E-10
   5.580000     -1.1744111E-10
   5.640000     -1.2182440E-10
   5.700000     -1.0915999E-10
   5.760000     -7.5788542E-11
   5.820000     -1.9608287E-11
   5.880000      5.9277444E-11
   5.940000      1.5779984E-10
   6.000000      2.6903366E-10
   6.060000      3.8124662E-10
   6.120000      4.7706750E-10
   6.180000      5.3303773E-10
   6.240000      5.1983434E-10
   6.300000      4.0338963E-10
   6.360000      1.4698645E-10
   6.420000     -2.8578975E-10
   6.480000     -9.2755598E-10
   6.540000     -1.8035450E-09
   6.600000     -2.9284151E-09
   6.660000     -4.3038710E-09
   6.720000     -5.9173466E-09
   6.780000     -7.7418125E-09
   6.840000     -9.7365884E-09
   6.900000     -1.1848943E-08
   6.960000     -1.4016280E-08
   7.020000     -1.6168752E-08
   7.080000     -1.8232301E-08
   7.140000     -2.0132155E-08
   7.200000     -2.1796858E-08
   7.260000     -2.3162803E-08
   7.320000     -2.4179021E-08
   7.380000     -2.4811820E-08
   7.440000     -2.5048601E-08
   7.500000     -2.4900210E-08
   7.560000     -2.4401194E-08
   7.620000     -2.3607630E-08
   7.680000     -2.2592527E-08
   7.740000     -2.1439234E-08
   7.800000     -2.0233607E-08
   7.860000     -1.9055944E-08
   7.920000     -1.7973695E-08
   7.980000     -1.7035891E-08
   8.040000     -1.6269912E-08
   8.100000     -1.5680927E-08
   8.160000     -1.5253885E-08
   8.220000     -1.4957669E-08
   8.280000     -1.4750707E-08
   8.340000     -1.4587231E-08
   8.400000     -1.4423337E-08
   8.460000     -1.4222147E-08
   8.520000     -1.3957591E-08
   8.580000     -1.3616594E-08
   8.640000     -1.3199712E-08
   8.700000     -1.2720460E-08
   8.760000     -1.2203643E-08
   8.820000     -1.1682966E-08
   8.880000     -1.1198126E-08
   8.940000     -1.0791492E-08
   9.000000     -1.0504408E-08
   9.060000     -1.0373222E-08
   9.120000     -1.0425270E-08
   9.180000     -1.0675214E-08
   9.240000     -1.1122288E-08
   9.300000     -1.1749065E-08
   9.360000     -1.2522285E-08
   9.420000     -1.3396019E-08
   9.480000     -1.4317044E-08
   9.540000     -1.5231818E-08
   9.600000     -1.6093997E-08
   9.660000     -1.6871155E-08
   9.720000     -1.7549235E-08
   9.780000     -1.8133678E-08
   9.840000     -1.8646629E-08
   9.900000     -1.9120579E-08
   9.960000     -1.9589594E-08
   10.02000     -2.0080094E-08
   10.08000     -2.0603322E-08
   10.14000     -2.1151530E-08
   10.20000     -2.1699039E-08
   10.26000     -2.2208104E-08
   10.32000     -2.2638300E-08
   10.38000     -2.2957019E-08
   10.44000     -2.3148246E-08
   10.50000     -2.3217138E-08
   10.56000     -2.3188964E-08
   10.62000     -2.3102439E-08
   10.68000     -2.2999187E-08
   10.74000     -2.2912088E-08
   10.80000     -2.2855778E-08
   10.86000     -2.2822009E-08
   10.92000     -2.2781277E-08
   10.98000     -2.2690314E-08
   11.04000     -2.2503418E-08
   11.10000     -2.2184368E-08
   11.16000     -2.1715540E-08
   11.22000     -2.1101615E-08
   11.28000     -2.0367004E-08
   11.34000     -1.9547963E-08
   11.40000     -1.8682099E-08
   11.46000     -1.7798717E-08
   11.52000     -1.6913161E-08
   11.58000     -1.6026874E-08
   11.64000     -1.5133081E-08
   11.70000     -1.4225962E-08
   11.76000     -1.3310090E-08
   11.82000     -1.2406611E-08
   11.88000     -1.1553707E-08
   11.94000     -1.0800554E-08
   12.00000     -1.0196101E-08
   12.06000     -9.7757393E-09
   12.12000     -9.5498365E-09
   12.18000     -9.4978692E-09
   12.24000     -9.5705488E-09
   12.30000     -9.7000559E-09
   12.36000     -9.8161177E-09
   12.42000     -9.8636690E-09
   12.48000     -9.8169881E-09
   12.54000     -9.6859454E-09
   12.60000     -9.5120880E-09
   12.66000     -9.3552970E-09
   12.72000     -9.2747161E-09
   12.78000     -9.3095176E-09
   12.84000     -9.4652908E-09
   12.90000     -9.7101411E-09
   12.96000     -9.9815773E-09
   13.02000     -1.0201923E-08
   13.08000     -1.0297390E-08
   13.14000     -1.0215008E-08
   13.20000     -9.9325517E-09
   13.26000     -9.4590629E-09
   13.32000     -8.8267127E-09
   13.38000     -8.0774205E-09
   13.44000     -7.2490907E-09
   13.50000     -6.3660455E-09
   13.56000     -5.4364824E-09
   13.62000     -4.4571502E-09
   13.68000     -3.4228762E-09
   13.74000     -2.3369195E-09
   13.80000     -1.2178432E-09
   13.86000     -9.9856033E-11
   13.92000      9.7417052E-10
   13.98000      1.9651765E-09
   14.04000      2.8519713E-09
   14.10000      3.6420886E-09
   14.16000      4.3753268E-09
   14.22000      5.1179225E-09
   14.28000      5.9481482E-09
   14.34000      6.9369230E-09
   14.40000      8.1287794E-09
   14.46000      9.5287582E-09
   14.52000      1.1099257E-08
   14.58000      1.2767990E-08
   14.64000      1.4445007E-08
   14.70000      1.6043982E-08
   14.76000      1.7501836E-08
   14.82000      1.8791292E-08
   14.88000      1.9923181E-08
   14.94000      2.0938355E-08
   15.00000      2.1891935E-08
   15.06000      2.2834630E-08
   15.12000      2.3796343E-08
   15.18000      2.4776305E-08
   15.24000      2.5741990E-08
   15.30000      2.6636629E-08
   15.36000      2.7393048E-08
   15.42000      2.7949950E-08
   15.48000      2.8266527E-08
   15.54000      2.8331614E-08
   15.60000      2.8165219E-08
   15.66000      2.7812002E-08
   15.72000      2.7328396E-08
   15.78000      2.6766608E-08
   15.84000      2.6159581E-08
   15.90000      2.5510765E-08
   15.96000      2.4791381E-08
   16.02000      2.3945917E-08
   16.08000      2.2904608E-08
   16.14000      2.1599844E-08
   16.20000      1.9982613E-08
   16.26000      1.8035061E-08
   16.32000      1.5776273E-08
   16.38000      1.3260053E-08
   16.44000      1.0565359E-08
   16.50000      7.7818640E-09
   16.56000      4.9942019E-09
   16.62000      2.2688158E-09
   16.68000     -3.5344933E-10
   16.74000     -2.8573961E-09
   16.80000     -5.2466178E-09
   16.86000     -7.5321314E-09
   16.92000     -9.7201509E-09
   16.98000     -1.1802856E-08
   17.04000     -1.3754991E-08
   17.10000     -1.5537330E-08
   17.16000     -1.7105949E-08
   17.22000     -1.8424531E-08
   17.28000     -1.9476104E-08
   17.34000     -2.0270843E-08
   17.40000     -2.0847638E-08
   17.46000     -2.1268878E-08
   17.52000     -2.1609466E-08
   17.58000     -2.1942618E-08
   17.64000     -2.2325750E-08
   17.70000     -2.2789742E-08
   17.76000     -2.3334236E-08
   17.82000     -2.3930149E-08
   17.88000     -2.4528882E-08
   17.94000     -2.5076124E-08
   18.00000     -2.5526917E-08
   18.06000     -2.5858474E-08
   18.12000     -2.6077817E-08
   18.18000     -2.6222734E-08
   18.24000     -2.6356085E-08
   18.30000     -2.6555000E-08
   18.36000     -2.6897329E-08
   18.42000     -2.7448030E-08
   18.48000     -2.8247994E-08
   18.54000     -2.9307177E-08
   18.60000     -3.0603118E-08
   18.66000     -3.2084998E-08
   18.72000     -3.3682188E-08
   18.78000     -3.5315324E-08
   18.84000     -3.6907153E-08
   18.90000     -3.8390535E-08
   18.96000     -3.9711836E-08
   19.02000     -4.0829441E-08
   19.08000     -4.1709043E-08
   19.14000     -4.2318312E-08
   19.20000     -4.2623871E-08
   19.26000     -4.2592397E-08
   19.32000     -4.2195879E-08
   19.38000     -4.1419433E-08
   19.44000     -4.0268947E-08
   19.50000     -3.8775944E-08
   19.56000     -3.6998120E-08
   19.62000     -3.5015333E-08
   19.68000     -3.2922124E-08
   19.74000     -3.0818462E-08
   19.80000     -2.8800319E-08
   19.86000     -2.6951247E-08
   19.92000     -2.5335806E-08
   19.98000     -2.3995243E-08
   20.04000     -2.2945889E-08
   20.10000     -2.2180512E-08
   20.16000     -2.1672625E-08
   20.22000     -2.1383180E-08
   20.28000     -2.1268484E-08
   20.34000     -2.1287835E-08
   20.40000     -2.1409274E-08
   20.46000     -2.1612378E-08
   20.52000     -2.1887686E-08
   20.58000     -2.2233138E-08
   20.64000     -2.2648580E-08
   20.70000     -2.3129800E-08
   20.76000     -2.3663590E-08
   20.82000     -2.4225161E-08
   20.88000     -2.4778766E-08
   20.94000     -2.5281677E-08
   21.00000     -2.5690783E-08
   21.06000     -2.5970397E-08
   21.12000     -2.6099354E-08
   21.18000     -2.6075565E-08
   21.24000     -2.5916790E-08
   21.30000     -2.5657400E-08
   21.36000     -2.5341972E-08
   21.42000     -2.5017336E-08
   21.48000     -2.4725002E-08
   21.54000     -2.4495609E-08
   21.60000     -2.4346322E-08
   21.66000     -2.4281315E-08
   21.72000     -2.4294712E-08
   21.78000     -2.4374907E-08
   21.84000     -2.4508987E-08
   21.90000     -2.4686138E-08
   21.96000     -2.4899277E-08
   22.02000     -2.5144590E-08
   22.08000     -2.5419300E-08
   22.14000     -2.5718432E-08
   22.20000     -2.6031682E-08
   22.26000     -2.6341569E-08
   22.32000     -2.6623681E-08
   22.38000     -2.6849262E-08
   22.44000     -2.6989738E-08
   22.50000     -2.7022013E-08
   22.56000     -2.6933197E-08
   22.62000     -2.6723420E-08
   22.68000     -2.6405884E-08
   22.74000     -2.6004159E-08
   22.80000     -2.5547441E-08
   22.86000     -2.5065098E-08
   22.92000     -2.4581919E-08
   22.98000     -2.4115156E-08
   23.04000     -2.3673772E-08
   23.10000     -2.3259570E-08
   23.16000     -2.2869466E-08
   23.22000     -2.2498014E-08
   23.28000     -2.2139629E-08
   23.34000     -2.1790274E-08
   23.40000     -2.1448681E-08
   23.46000     -2.1117225E-08
   23.52000     -2.0802355E-08
   23.58000     -2.0514333E-08
   23.64000     -2.0266077E-08
   23.70000     -2.0071093E-08
   23.76000     -1.9940993E-08
   23.82000     -1.9883318E-08
   23.88000     -1.9900387E-08
   23.94000     -1.9989548E-08
   24.00000     -2.0144620E-08
   24.06000     -2.0357801E-08
   24.12000     -2.0621204E-08
   24.18000     -2.0927285E-08
   24.24000     -2.1267933E-08
   24.30000     -2.1632534E-08
   24.36000     -2.2005764E-08
   24.42000     -2.2366137E-08
   24.48000     -2.2686251E-08
   24.54000     -2.2935399E-08
   24.60000     -2.3084496E-08
   24.66000     -2.3112378E-08
   24.72000     -2.3011685E-08
   24.78000     -2.2792046E-08
   24.84000     -2.2478646E-08
   24.90000     -2.2105597E-08
   24.96000     -2.1705397E-08
   25.02000     -2.1297707E-08
   25.08000     -2.0881531E-08
   25.14000     -2.0434282E-08
   25.20000     -1.9919009E-08
   25.26000     -1.9298149E-08
   25.32000     -1.8549455E-08
   25.38000     -1.7678691E-08
   25.44000     -1.6724412E-08
   25.50000     -1.5752811E-08
   25.56000     -1.4843792E-08
   25.62000     -1.4072476E-08
   25.68000     -1.3491703E-08
   25.74000     -1.3120814E-08
   25.80000     -1.2943976E-08
   25.86000     -1.2918482E-08
   25.92000     -1.2990527E-08
   25.98000     -1.3113850E-08
   26.04000     -1.3265907E-08
   26.10000     -1.3456889E-08
   26.16000     -1.3728974E-08
   26.22000     -1.4145911E-08
   26.28000     -1.4775826E-08
   26.34000     -1.5672047E-08
   26.40000     -1.6857376E-08
   26.46000     -1.8316149E-08
   26.52000     -1.9996230E-08
   26.58000     -2.1820242E-08
   26.64000     -2.3702761E-08
   26.70000     -2.5568811E-08
   26.76000     -2.7368788E-08
   26.82000     -2.9086296E-08
   26.88000     -3.0737382E-08
   26.94000     -3.2362006E-08
   27.00000     -3.4010423E-08
   27.06000     -3.5728249E-08
   27.12000     -3.7543845E-08
   27.18000     -3.9460922E-08
   27.24000     -4.1457568E-08
   27.30000     -4.3491365E-08
   27.36000     -4.5508823E-08
   27.42000     -4.7456510E-08
   27.48000     -4.9291206E-08
   27.54000     -5.0986937E-08
   27.60000     -5.2537644E-08
   27.66000     -5.3955315E-08
   27.72000     -5.5264376E-08
   27.78000     -5.6493743E-08
   27.84000     -5.7668430E-08
   27.90000     -5.8802463E-08
   27.96000     -5.9894766E-08
   28.02000     -6.0928976E-08
   28.08000     -6.1877245E-08
   28.14000     -6.2707315E-08
   28.20000     -6.3391063E-08
   28.26000     -6.3912402E-08
   28.32000     -6.4272449E-08
   28.38000     -6.4490600E-08
   28.44000     -6.4600989E-08
   28.50000     -6.4645192E-08
   28.56000     -6.4662807E-08
   28.62000     -6.4682013E-08
   28.68000     -6.4712424E-08
   28.74000     -6.4741862E-08
   28.80000     -6.4737876E-08
   28.86000     -6.4654017E-08
   28.92000     -6.4439675E-08
   28.98000     -6.4051228E-08
   29.04000     -6.3462309E-08
   29.10000     -6.2670374E-08
   29.16000     -6.1697918E-08
   29.22000     -6.0587638E-08
   29.28000     -5.9392551E-08
   29.34000     -5.8163224E-08
   29.40000     -5.6935360E-08
   29.46000     -5.5721014E-08
   29.52000     -5.4505989E-08
   29.58000     -5.3254389E-08
   29.64000     -5.1919454E-08
   29.70000     -5.0458013E-08
   29.76000     -4.8844569E-08
   29.82000     -4.7080995E-08
   29.88000     -4.5198778E-08
   29.94000     -4.3252857E-08
   30.00000     -4.1308652E-08
   30.06000     -3.9426087E-08
   30.12000     -3.7645478E-08
   30.18000     -3.5979742E-08
   30.24000     -3.4415212E-08
   30.30000     -3.2920543E-08
   30.36000     -3.1460555E-08
   30.42000     -3.0010035E-08
   30.48000     -2.8562903E-08
   30.54000     -2.7133682E-08
   30.60000     -2.5751071E-08
   30.66000     -2.4446040E-08
   30.72000     -2.3238835E-08
   30.78000     -2.2129457E-08
   30.84000     -2.1095131E-08
   30.90000     -2.0095866E-08
   30.96000     -1.9086693E-08
   31.02000     -1.8032772E-08
   31.08000     -1.6922606E-08
   31.14000     -1.5774836E-08
   31.20000     -1.4636008E-08
   31.26000     -1.3569412E-08
   31.32000     -1.2638057E-08
   31.38000     -1.1886914E-08
   31.44000     -1.1330121E-08
   31.50000     -1.0947427E-08
   31.56000     -1.0691276E-08
   31.62000     -1.0502397E-08
   31.68000     -1.0328845E-08
   31.74000     -1.0142136E-08
   31.80000     -9.9450181E-09
   31.86000     -9.7681836E-09
   31.92000     -9.6569552E-09
   31.98000     -9.6524664E-09
   32.04000     -9.7737978E-09
   32.10000     -1.0007329E-08
   32.16000     -1.0307216E-08
   32.22000     -1.0607204E-08
   32.28000     -1.0840098E-08
   32.34000     -1.0958516E-08
   32.40000     -1.0949998E-08
   32.46000     -1.0841281E-08
   32.52000     -1.0690109E-08
   32.58000     -1.0567138E-08
   32.64000     -1.0533700E-08
   32.70000     -1.0622519E-08
   32.76000     -1.0827287E-08
   32.82000     -1.1103936E-08
   32.88000     -1.1382589E-08
   32.94000     -1.1585957E-08
   33.00000     -1.1648435E-08
   33.06000     -1.1530594E-08
   33.12000     -1.1225846E-08
   33.18000     -1.0758708E-08
   33.24000     -1.0176416E-08
   33.30000     -9.5369481E-09
   33.36000     -8.8966861E-09
   33.42000     -8.3003400E-09
   33.48000     -7.7748128E-09
   33.54000     -7.3276607E-09
   33.60000     -6.9500765E-09
   33.66000     -6.6235493E-09
   33.72000     -6.3286989E-09
   33.78000     -6.0542131E-09
   33.84000     -5.8035576E-09
   33.90000     -5.5974514E-09
   33.96000     -5.4710907E-09
   34.02000     -5.4666178E-09
   34.08000     -5.6228870E-09
   34.14000     -5.9656227E-09
   34.20000     -6.5011507E-09
   34.26000     -7.2158168E-09
   34.32000     -8.0813720E-09
   34.38000     -9.0645438E-09
   34.44000     -1.0137581E-08
   34.50000     -1.1286230E-08
   34.56000     -1.2512571E-08
   34.62000     -1.3831989E-08
   34.68000     -1.5265654E-08
   34.74000     -1.6831295E-08
   34.80000     -1.8535461E-08
   34.86000     -2.0369614E-08
   34.92000     -2.2310882E-08
   34.98000     -2.4326740E-08
   35.04000     -2.6381693E-08
   35.10000     -2.8443900E-08
   35.16000     -3.0490092E-08
   35.22000     -3.2508005E-08
   35.28000     -3.4496278E-08
   35.34000     -3.6462382E-08
   35.40000     -3.8419213E-08
   35.46000     -4.0381046E-08
   35.52000     -4.2359627E-08
   35.58000     -4.4360867E-08
   35.64000     -4.6382915E-08
   35.70000     -4.8415703E-08
   35.76000     -5.0441855E-08
   35.82000     -5.2438445E-08
   35.88000     -5.4378877E-08
   35.94000     -5.6234430E-08
   36.00000     -5.7975583E-08
   36.06000     -5.9573647E-08
   36.12000     -6.1003327E-08
   36.18000     -6.2246457E-08
   36.24000     -6.3296049E-08
   36.30000     -6.4159181E-08
   36.36000     -6.4856891E-08
   36.42000     -6.5419883E-08
   36.48000     -6.5880478E-08
   36.54000     -6.6262977E-08
   36.60000     -6.6575552E-08
   36.66000     -6.6807011E-08
   36.72000     -6.6930035E-08
   36.78000     -6.6910296E-08
   36.84000     -6.6718528E-08
   36.90000     -6.6341237E-08
   36.96000     -6.5786132E-08
   37.02000     -6.5080194E-08
   37.08000     -6.4260988E-08
   37.14000     -6.3364304E-08
   37.20000     -6.2412703E-08
   37.26000     -6.1408755E-08
   37.32000     -6.0335459E-08
   37.38000     -5.9163462E-08
   37.44000     -5.7862692E-08
   37.50000     -5.6414621E-08
   37.56000     -5.4821417E-08
   37.62000     -5.3109456E-08
   37.68000     -5.1326264E-08
   37.74000     -4.9531874E-08
   37.80000     -4.7786934E-08
   37.86000     -4.6140698E-08
   37.92000     -4.4621942E-08
   37.98000     -4.3235364E-08
   38.04000     -4.1964512E-08
   38.10000     -4.0780677E-08
   38.16000     -3.9655365E-08
   38.22000     -3.8572718E-08
   38.28000     -3.7537934E-08
   38.34000     -3.6578793E-08
   38.40000     -3.5739472E-08
   38.46000     -3.5068339E-08
   38.52000     -3.4603794E-08
   38.58000     -3.4362827E-08
   38.64000     -3.4336345E-08
   38.70000     -3.4492821E-08
   38.76000     -3.4788950E-08
   38.82000     -3.5183305E-08
   38.88000     -3.5648068E-08
   38.94000     -3.6174463E-08
   39.00000     -3.6770235E-08
   39.06000     -3.7450302E-08
   39.12000     -3.8224584E-08
   39.18000     -3.9088043E-08
   39.24000     -4.0017099E-08
   39.30000     -4.0974175E-08
   39.36000     -4.1918895E-08
   39.42000     -4.2821799E-08
   39.48000     -4.3675371E-08
   39.54000     -4.4497899E-08
   39.60000     -4.5328484E-08
   39.66000     -4.6214456E-08
   39.72000     -4.7195353E-08
   39.78000     -4.8288747E-08
   39.84000     -4.9482573E-08
   39.90000     -5.0736404E-08
   39.96000     -5.1991169E-08
   40.02000     -5.3184351E-08
   40.08000     -5.4266245E-08
   40.14000     -5.5212723E-08
   40.20000     -5.6031318E-08
   40.26000     -5.6759283E-08
   40.32000     -5.7454422E-08
   40.38000     -5.8181026E-08
   40.44000     -5.8994477E-08
   40.50000     -5.9928006E-08
   40.56000     -6.0984760E-08
   40.62000     -6.2136827E-08
   40.68000     -6.3331235E-08
   40.74000     -6.4501442E-08
   40.80000     -6.5581112E-08
   40.86000     -6.6516932E-08
   40.92000     -6.7277369E-08
   40.98000     -6.7855744E-08
   41.04000     -6.8267617E-08
   41.10000     -6.8544161E-08
   41.16000     -6.8723722E-08
   41.22000     -6.8843995E-08
   41.28000     -6.8936203E-08
   41.34000     -6.9021780E-08
   41.40000     -6.9111060E-08
   41.46000     -6.9203224E-08
   41.52000     -6.9286990E-08
   41.58000     -6.9342086E-08
   41.64000     -6.9341667E-08
   41.70000     -6.9256252E-08
   41.76000     -6.9058750E-08
   41.82000     -6.8730024E-08
   41.88000     -6.8263503E-08
   41.94000     -6.7667507E-08
   42.00000     -6.6964205E-08
   42.06000     -6.6185095E-08
   42.12000     -6.5363807E-08
   42.18000     -6.4527761E-08
   42.24000     -6.3690763E-08
   42.30000     -6.2848414E-08
   42.36000     -6.1977730E-08
   42.42000     -6.1041476E-08
   42.48000     -5.9996360E-08
   42.54000     -5.8803497E-08
   42.60000     -5.7438307E-08
   42.66000     -5.5897324E-08
   42.72000     -5.4199564E-08
   42.78000     -5.2381839E-08
   42.84000     -5.0488872E-08
   42.90000     -4.8560906E-08
   42.96000     -4.6622304E-08
   43.02000     -4.4674838E-08
   43.08000     -4.2697870E-08
   43.14000     -4.0655856E-08
   43.20000     -3.8511278E-08
   43.26000     -3.6239324E-08
   43.32000     -3.3839889E-08
   43.38000     -3.1343045E-08
   43.44000     -2.8805985E-08
   43.50000     -2.6301956E-08
   43.56000     -2.3904168E-08
   43.62000     -2.1669463E-08
   43.68000     -1.9626649E-08
   43.74000     -1.7773086E-08
   43.80000     -1.6080612E-08
   43.86000     -1.4508817E-08
   43.92000     -1.3021539E-08
   43.98000     -1.1601378E-08
   44.04000     -1.0257863E-08
   44.10000     -9.0270227E-09
   44.16000     -7.9627256E-09
   44.22000     -7.1226434E-09
   44.28000     -6.5530075E-09
   44.34000     -6.2764443E-09
   44.40000     -6.2860899E-09
   44.46000     -6.5473964E-09
   44.52000     -7.0069657E-09
   44.58000     -7.6059488E-09
   44.64000     -8.2943465E-09
   44.70000     -9.0422647E-09
   44.76000     -9.8449160E-09
   44.82000     -1.0719899E-08
   44.88000     -1.1697581E-08
   44.94000     -1.2807628E-08
   45.00000     -1.4066115E-08
   45.06000     -1.5467574E-08
   45.12000     -1.6984746E-08
   45.18000     -1.8576158E-08
   45.24000     -2.0198799E-08
   45.30000     -2.1821439E-08
   45.36000     -2.3433765E-08
   45.42000     -2.5048070E-08
   45.48000     -2.6692804E-08
   45.54000     -2.8400049E-08
   45.60000     -3.0191135E-08
   45.66000     -3.2065049E-08
   45.72000     -3.3993583E-08
   45.78000     -3.5924938E-08
   45.84000     -3.7795047E-08
   45.90000     -3.9543480E-08
   45.96000     -4.1129347E-08
   46.02000     -4.2542528E-08
   46.08000     -4.3806804E-08
   46.14000     -4.4973682E-08
   46.20000     -4.6108731E-08
   46.26000     -4.7274249E-08
   46.32000     -4.8513524E-08
   46.38000     -4.9841287E-08
   46.44000     -5.1243159E-08
   46.50000     -5.2684133E-08
   46.56000     -5.4123490E-08
   46.62000     -5.5532098E-08
   46.68000     -5.6907520E-08
   46.74000     -5.8283625E-08
   46.80000     -5.9733011E-08
   46.86000     -6.1362641E-08
   46.92000     -6.3304682E-08
   46.98000     -6.5705649E-08
   47.04000     -6.8717235E-08
   47.10000     -7.2491801E-08
   47.16000     -7.7184275E-08
   47.22000     -8.2960547E-08
   47.28000     -9.0010587E-08
   47.34000     -9.8563177E-08
   47.40000     -1.0889873E-07
   47.46000     -1.2135739E-07
   47.52000     -1.3634164E-07
   47.58000     -1.5431480E-07
   47.64000     -1.7579831E-07
   47.70000     -2.0137122E-07
   47.76000     -2.3167520E-07
   47.82000     -2.6742595E-07
   47.88000     -3.0943065E-07
   47.94000     -3.5860936E-07
   48.00000     -4.1601791E-07
   48.06000     -4.8286932E-07
   48.12000     -5.6055268E-07
   48.18000     -6.5064802E-07
   48.24000     -7.5493926E-07
   48.30000     -8.7542554E-07
   48.36000     -1.0143344E-06
   48.42000     -1.1741387E-06
   48.48000     -1.3575780E-06
   48.54000     -1.5676864E-06
   48.60000     -1.8078222E-06
   48.66000     -2.0817006E-06
   48.72000     -2.3934244E-06
   48.78000     -2.7475148E-06
   48.84000     -3.1489392E-06
   48.90000     -3.6031374E-06
   48.96000     -4.1160501E-06
   49.02000     -4.6941441E-06
   49.08000     -5.3444401E-06
   49.14000     -6.0745392E-06
   49.20000     -6.8926474E-06
   49.26000     -7.8075900E-06
   49.32000     -8.8288289E-06
   49.38000     -9.9664594E-06
   49.44000     -1.1231219E-05
   49.50000     -1.2634477E-05
   49.56000     -1.4188225E-05
   49.62000     -1.5905074E-05
   49.68000     -1.7798237E-05
   49.74000     -1.9881511E-05
   49.80000     -2.2169261E-05
   49.86000     -2.4676385E-05
   49.92000     -2.7418262E-05
   49.98000     -3.0410689E-05
   50.04000     -3.3669799E-05
   50.10000     -3.7211976E-05
   50.16000     -4.1053736E-05
   50.22000     -4.5211640E-05
   50.28000     -4.9702179E-05
   50.34000     -5.4541662E-05
   50.40000     -5.9746071E-05
   50.46000     -6.5330969E-05
   50.52000     -7.1311304E-05
   50.58000     -7.7701319E-05
   50.64000     -8.4514330E-05
   50.70000     -9.1762602E-05
   50.76000     -9.9457124E-05
   50.82000     -1.0760747E-04
   50.88000     -1.1622160E-04
   50.94000     -1.2530567E-04
   51.00000     -1.3486389E-04
   51.06000     -1.4489838E-04
   51.12000     -1.5540901E-04
   51.18000     -1.6639329E-04
   51.24000     -1.7784625E-04
   51.30000     -1.8976026E-04
   51.36000     -2.0212514E-04
   51.42000     -2.1492793E-04
   51.48000     -2.2815289E-04
   51.54000     -2.4178153E-04
   51.60000     -2.5579255E-04
   51.66000     -2.7016192E-04
   51.72000     -2.8486291E-04
   51.78000     -2.9986625E-04
   51.84000     -3.1514018E-04
   51.90000     -3.3065068E-04
   51.96000     -3.4636180E-04
   52.02000     -3.6223565E-04
   52.08000     -3.7823289E-04
   52.14000     -3.9431275E-04
   52.20000     -4.1043345E-04
   52.26000     -4.2655255E-04
   52.32000     -4.4262718E-04
   52.38000     -4.5861446E-04
   52.44000     -4.7447189E-04
   52.50000     -4.9015775E-04
   52.56000     -5.0563150E-04
   52.62000     -5.2085391E-04
   52.68000     -5.3578778E-04
   52.74000     -5.5039814E-04
   52.80000     -5.6465232E-04
   52.86000     -5.7852064E-04
   52.92000     -5.9197657E-04
   52.98000     -6.0499681E-04
   53.04000     -6.1756192E-04
   53.10000     -6.2965602E-04
   53.16000     -6.4126746E-04
   53.22000     -6.5238832E-04
   53.28000     -6.6301500E-04
   53.34000     -6.7314773E-04
   53.40000     -6.8279076E-04
   53.46000     -6.9195247E-04
   53.52000     -7.0064462E-04
   53.58000     -7.0888293E-04
   53.64000     -7.1668619E-04
   53.70000     -7.2407612E-04
   53.76000     -7.3107728E-04
   53.82000     -7.3771609E-04
   53.88000     -7.4402132E-04
   53.94000     -7.5002282E-04
   54.00000     -7.5575174E-04
   54.06000     -7.6123973E-04
   54.12000     -7.6651841E-04
   54.18000     -7.7161897E-04
   54.24000     -7.7657192E-04
   54.30000     -7.8140618E-04
   54.36000     -7.8614912E-04
   54.42000     -7.9082575E-04
   54.48000     -7.9545868E-04
   54.54000     -8.0006768E-04
   54.60000     -8.0466928E-04
   54.66000     -8.0927648E-04
   54.72000     -8.1389881E-04
   54.78000     -8.1854180E-04
   54.84000     -8.2320732E-04
   54.90000     -8.2789332E-04
   54.96000     -8.3259406E-04
   55.02000     -8.3730003E-04
   55.08000     -8.4199832E-04
   55.14000     -8.4667251E-04
   55.20000     -8.5130322E-04
   55.26000     -8.5586816E-04
   55.32000     -8.6034287E-04
   55.38000     -8.6470088E-04
   55.44000     -8.6891407E-04
   55.50000     -8.7295345E-04
   55.56000     -8.7678904E-04