  -2.400000      0.0000000E+00
  -2.340000      0.0000000E+00
  -2.280000      0.0000000E+00
  -2.220000      0.0000000E+00
  -2.160000      0.0000000E+00
  -2.100000      0.0000000E+00
  -2.040000      0.0000000E+00
  -1.980000      2.9800567E-26
  -1.920000      2.8847541E-25
  -1.860000      1.0466745E-24
  -1.800000     -2.4589835E-25
  -1.740000     -2.1319395E-23
  -1.680000     -1.2259638E-22
  -1.620000     -4.3063773E-22
  -1.560000     -1.0704592E-21
  -1.500000     -1.8315505E-21
  -1.440000     -1.4053878E-21
  -1.380000      3.6294872E-21
  -1.320000      1.9057768E-20
  -1.260000      5.0367913E-20
  -1.200000      9.4616589E-20
  -1.140000      1.2630332E-19
  -1.080000      8.2855102E-20
  -1.020000     -1.3517322E-19
 -0.9600000     -6.2645877E-19
 -0.9000000     -1.3957006E-18
 -0.8400000     -2.2146493E-18
 -0.7800000     -2.5005114E-18
 -0.7200000     -1.3344333E-18
 -0.6600000      2.2365789E-18
 -0.6000000      8.5466154E-18
 -0.5400000      1.6442690E-17
 -0.4800000      2.2625334E-17
 -0.4200000      2.1844923E-17
 -0.3600000      8.5368621E-18
 -0.3000000     -2.0051773E-17
 -0.2400000     -6.0157160E-17
 -0.1800000     -9.9159487E-17
 -0.1200000     -1.1698148E-16
 -5.9999999E-02 -9.2736681E-17
  0.0000000E+00 -1.5761970E-17
  5.9999999E-02  1.0307112E-16
  0.1200000      2.2637098E-16
  0.1800000      2.9792256E-16
  0.2400000      2.6510654E-16
  0.3000000      1.1026811E-16
  0.3600000     -1.2303389E-16
  0.4200000     -3.2696499E-16
  0.4800000     -3.6286952E-16
  0.5400000     -1.2975201E-16
  0.6000000      3.5468906E-16
  0.6600000      9.0096925E-16
  0.7200000      1.1667579E-15
  0.7800000      7.7271618E-16
  0.8400000     -5.0153202E-16
  0.9000000     -2.5094956E-15
  0.9600000     -4.6241816E-15
   1.020000     -5.8234460E-15
   1.080000     -5.0213621E-15
   1.140000     -1.5843032E-15
   1.200000      4.1539580E-15
   1.260000      1.0645536E-14
   1.320000      1.5393667E-14
   1.380000      1.5808991E-14
   1.440000      1.0455711E-14
   1.500000      1.9004580E-16
   1.560000     -1.1463874E-14
   1.620000     -1.9223713E-14
   1.680000     -1.8288595E-14
   1.740000     -7.2376484E-15
   1.800000      9.7428423E-15
   1.860000      2.2844592E-14
   1.920000      1.9825706E-14
   1.980000     -7.9392398E-15
   2.040000     -5.8600226E-14
   2.100000     -1.1552880E-13
   2.160000     -1.4898137E-13
   2.220000     -1.2540053E-13
   2.280000     -2.2750399E-14
   2.340000      1.5338288E-13
   2.400000      3.6050584E-13
   2.460000      5.2366396E-13
   2.520000      5.5628662E-13
   2.580000      3.9326723E-13
   2.640000      2.5270289E-14
   2.700000     -4.8034580E-13
   2.760000     -9.8445763E-13
   2.820000     -1.3111783E-12
   2.880000     -1.3052446E-12
   2.940000     -8.9316488E-13
   3.000000     -1.2458737E-13
   3.060000      8.2535991E-13
   3.120000      1.6990036E-12
   3.180000      2.2332889E-12
   3.240000      2.2454755E-12
   3.300000      1.6961774E-12
   3.360000      7.0540167E-13
   3.420000     -4.8554401E-13
   3.480000     -1.5924505E-12
   3.540000     -2.3771068E-12
   3.600000     -2.7129254E-12
   3.660000     -2.6036573E-12
   3.720000     -2.1517651E-12
   3.780000     -1.4946296E-12
   3.840000     -7.4014183E-13
   3.900000      6.7832811E-14
   3.960000      9.3898923E-13
   4.020000      1.8888428E-12
   4.080000      2.8811773E-12
   4.140000      3.7949886E-12
   4.200000      4.4399133E-12
   4.260000      4.6202647E-12
   4.320000      4.2208528E-12
   4.380000      3.2707858E-12
   4.440000      1.9443145E-12
   4.500000      4.8219902E-13
   4.560000     -9.4499582E-13
   4.620000     -2.3743401E-12
   4.680000     -4.1144241E-12
   4.740000     -6.6747636E-12
   4.800000     -1.0543664E-11
   4.860000     -1.5859517E-11
   4.920000     -2.2078998E-11
   4.980000     -2.7777286E-11
   5.040000     -3.0703246E-11
   5.100000     -2.8153950E-11
   5.160000     -1.7640538E-11
   5.220000      2.2818453E-12
   5.280000      3.1222205E-11
   5.340000      6.6425698E-11
   5.400000      1.0269489E-10
   5.460000      1.3284848E-10
   5.520000      1.4867649E-10
   5.580000      1.4222747E-10
   5.640000      1.0718092E-10
   5.700000      4.0042140E-11
   5.760000     -5.9050063E-11
   5.820000     -1.8600781E-10
   5.880000     -3.3295539E-10
   5.940000     -4.8875570E-10
   6.000000     -6.3974487E-10
   6.060000     -7.7053836E-10
   6.120000     -8.6483615E-10
   6.180000     -9.0624569E-10
   6.240000     -8.7920304E-10
   6.300000     -7.7009549E-10
   6.360000     -5.6864247E-10
   6.420000     -2.6949959E-10
   6.480000      1.2607215E-10
   6.540000      6.0873739E-10
   6.600000      1.1601452E-09
   6.660000      1.7528410E-09
   6.720000      2.3512783E-09
   6.780000      2.9140410E-09
   6.840000      3.3972094E-09
   6.900000      3.7586130E-09
   6.960000      3.9625374E-09
   7.020000      3.9843071E-09
   7.080000      3.8140904E-09
   7.140000      3.4592538E-09
   7.200000      2.9447043E-09
   7.260000      2.3108739E-09
   7.320000      1.6093183E-09
   7.380000      8.9633656E-10
   7.440000      2.2543771E-10
   7.500000     -3.6016973E-10
   7.560000     -8.3372143E-10
   7.620000     -1.1884354E-09
   7.680000     -1.4375930E-09
   7.740000     -1.6109439E-09
   7.800000     -1.7479600E-09
   7.860000     -1.8891664E-09
   7.920000     -2.0672459E-09
   7.980000     -2.2997264E-09
   8.040000     -2.5847702E-09
   8.100000     -2.9009264E-09
   8.160000     -3.2108303E-09
   8.220000     -3.4679626E-09
   8.280000     -3.6248895E-09
   8.340000     -3.6411438E-09
   8.400000     -3.4890577E-09
   8.460000     -3.1564775E-09
   8.520000     -2.6461420E-09
   8.580000     -1.9723643E-09
   8.640000     -1.1563043E-09
   8.700000     -2.2133383E-10
   8.760000      8.1024909E-10
   8.820000      1.9185062E-09
   8.880000      3.0852549E-09
   8.940000      4.2923407E-09
   9.000000      5.5198934E-09
   9.060000      6.7456241E-09
   9.120000      7.9457845E-09
   9.180000      9.0978256E-09
   9.240000      1.0184181E-08
   9.300000      1.1196185E-08
   9.360000      1.2137055E-08
   9.420000      1.3022977E-08
   9.480000      1.3881783E-08
   9.540000      1.4749138E-08
   9.600000      1.5662719E-08
   9.660000      1.6655255E-08
   9.720000      1.7747686E-08
   9.780000      1.8943743E-08
   9.840000      2.0227274E-08
   9.900000      2.1563146E-08
   9.960000      2.2901979E-08
   10.02000      2.4188074E-08
   10.08000      2.5369102E-08
   10.14000      2.6405456E-08
   10.20000      2.7277020E-08
   10.26000      2.7985612E-08
   10.32000      2.8552289E-08
   10.38000      2.9010087E-08
   10.44000      2.9394107E-08
   10.50000      2.9731700E-08
   10.56000      3.0035611E-08
   10.62000      3.0302221E-08
   10.68000      3.0515480E-08
   10.74000      3.0655400E-08
   10.80000      3.0708485E-08
   10.86000      3.0676627E-08
   10.92000      3.0581383E-08
   10.98000      3.0461880E-08
   11.04000      3.0366458E-08
   11.10000      3.0340356E-08
   11.16000      3.0413005E-08
   11.22000      3.0588982E-08
   11.28000      3.0845673E-08
   11.34000      3.1138832E-08
   11.40000      3.1414917E-08
   11.46000      3.1626868E-08
   11.52000      3.1749011E-08
   11.58000      3.1786580E-08
   11.64000      3.1776949E-08
   11.70000      3.1781699E-08
   11.76000      3.1871334E-08
   11.82000      3.2106438E-08
   11.88000      3.2520351E-08
   11.94000      3.3108073E-08
   12.00000      3.3824751E-08
   12.06000      3.4594571E-08
   12.12000      3.5328060E-08
   12.18000      3.5943454E-08
   12.24000      3.6386385E-08
   12.30000      3.6642412E-08
   12.36000      3.6738658E-08
   12.42000      3.6733763E-08
   12.48000      3.6698832E-08
   12.54000      3.6694662E-08
   12.60000      3.6752017E-08
   12.66000      3.6860808E-08
   12.72000      3.6971702E-08
   12.78000      3.7009823E-08
   12.84000      3.6896594E-08
   12.90000      3.6573173E-08
   12.96000      3.6018431E-08
   13.02000      3.5256004E-08
   13.08000      3.4348268E-08
   13.14000      3.3378935E-08
   13.20000      3.2429380E-08
   13.26000      3.1555292E-08
   13.32000      3.0770121E-08
   13.38000      3.0039445E-08
   13.44000      2.9287349E-08
   13.50000      2.8412606E-08
   13.56000      2.7310220E-08
   13.62000      2.5892975E-08
   13.68000      2.4108216E-08
   13.74000      2.1946844E-08
   13.80000      1.9443533E-08
   13.86000      1.6669210E-08
   13.92000      1.3718187E-08
   13.98000      1.0692903E-08
   14.04000      7.6892190E-09
   14.10000      4.7845892E-09
   14.16000      2.0306385E-09
   14.22000     -5.4919308E-10
   14.28000     -2.9571436E-09
   14.34000     -5.2146856E-09
   14.40000     -7.3536395E-09
   14.46000     -9.4066746E-09
   14.52000     -1.1399025E-08
   14.58000     -1.3342962E-08
   14.64000     -1.5235925E-08
   14.70000     -1.7062364E-08
   14.76000     -1.8798612E-08
   14.82000     -2.0419275E-08
   14.88000     -2.1903489E-08
   14.94000     -2.3239391E-08
   15.00000     -2.4425738E-08
   15.06000     -2.5470472E-08
   15.12000     -2.6386877E-08
   15.18000     -2.7188721E-08
   15.24000     -2.7886013E-08
   15.30000     -2.8482786E-08
   15.36000     -2.8977615E-08
   15.42000     -2.9366701E-08
   15.48000     -2.9648454E-08
   15.54000     -2.9827984E-08
   15.60000     -2.9919942E-08
   15.66000     -2.9948588E-08
   15.72000     -2.9944758E-08
   15.78000     -2.9940441E-08
   15.84000     -2.9962298E-08
   15.90000     -3.0025962E-08
   15.96000     -3.0132767E-08
   16.02000     -3.0269991E-08
   16.08000     -3.0414711E-08
   16.14000     -3.0540363E-08
   16.20000     -3.0624122E-08
   16.26000     -3.0652981E-08
   16.32000     -3.0626744E-08
   16.38000     -3.0557025E-08
   16.44000     -3.0462807E-08
   16.50000     -3.0364166E-08
   16.56000     -3.0276528E-08
   16.62000     -3.0207456E-08
   16.68000     -3.0156972E-08
   16.74000     -3.0121008E-08
   16.80000     -3.0096242E-08
   16.86000     -3.0084088E-08
   16.92000     -3.0091961E-08
   16.98000     -3.0131108E-08
   17.04000     -3.0211783E-08
   17.10000     -3.0337564E-08
   17.16000     -3.0501162E-08
   17.22000     -3.0683438E-08
   17.28000     -3.0856278E-08
   17.34000     -3.0988730E-08
   17.40000     -3.1054761E-08
   17.46000     -3.1040614E-08
   17.52000     -3.0949845E-08
   17.58000     -3.0804767E-08
   17.64000     -3.0643889E-08
   17.70000     -3.0515704E-08
   17.76000     -3.0470027E-08
   17.82000     -3.0548673E-08
   17.88000     -3.0777382E-08
   17.94000     -3.1160926E-08
   18.00000     -3.1682685E-08
   18.06000     -3.2308883E-08
   18.12000     -3.2996660E-08
   18.18000     -3.3703930E-08
   18.24000     -3.4398607E-08
   18.30000     -3.5064811E-08
   18.36000     -3.5704577E-08
   18.42000     -3.6334686E-08
   18.48000     -3.6979625E-08
   18.54000     -3.7662460E-08
   18.60000     -3.8396038E-08
   18.66000     -3.9176605E-08
   18.72000     -3.9981355E-08
   18.78000     -4.0770598E-08
   18.84000     -4.1494022E-08
   18.90000     -4.2099700E-08
   18.96000     -4.2543700E-08
   19.02000     -4.2798028E-08
   19.08000     -4.2854872E-08
   19.14000     -4.2726061E-08
   19.20000     -4.2437843E-08
   19.26000     -4.2022354E-08
   19.32000     -4.1507906E-08
   19.38000     -4.0910724E-08
   19.44000     -4.0230123E-08
   19.50000     -3.9448388E-08
   19.56000     -3.8535301E-08
   19.62000     -3.7456410E-08
   19.68000     -3.6183064E-08
   19.74000     -3.4702136E-08
   19.80000     -3.3023181E-08
   19.86000     -3.1181234E-08
   19.92000     -2.9234133E-08
   19.98000     -2.7254391E-08
   20.04000     -2.5316712E-08
   20.10000     -2.3483691E-08
   20.16000     -2.1792889E-08
   20.22000     -2.0248835E-08
   20.28000     -1.8822456E-08
   20.34000     -1.7458900E-08
   20.40000     -1.6092319E-08
   20.46000     -1.4664111E-08
   20.52000     -1.3139801E-08
   20.58000     -1.1519826E-08
   20.64000     -9.8409494E-09
   20.70000     -8.1676736E-09
   20.76000     -6.5758288E-09
   20.82000     -5.1328182E-09
   20.88000     -3.8799230E-09
   20.94000     -2.8214380E-09
   21.00000     -1.9233595E-09
   21.06000     -1.1216440E-09
   21.12000     -3.3745082E-10
   21.18000      5.0491866E-10
   21.24000      1.4620705E-09
   21.30000      2.5613578E-09
   21.36000      3.7984895E-09
   21.42000      5.1427311E-09
   21.48000      6.5476162E-09
   21.54000      7.9639042E-09
   21.60000      9.3512913E-09
   21.66000      1.0686086E-08
   21.72000      1.1963385E-08
   21.78000      1.3193935E-08
   21.84000      1.4397242E-08
   21.90000      1.5593324E-08
   21.96000      1.6795580E-08
   22.02000      1.8006531E-08
   22.08000      1.9217158E-08
   22.14000      2.0409301E-08
   22.20000      2.1559892E-08
   22.26000      2.2645425E-08
   22.32000      2.3645415E-08
   22.38000      2.4544176E-08
   22.44000      2.5331024E-08
   22.50000      2.5999437E-08
   22.56000      2.6546008E-08
   22.62000      2.6969813E-08
   22.68000      2.7272582E-08
   22.74000      2.7459556E-08
   22.80000      2.7540567E-08
   22.86000      2.7530675E-08
   22.92000      2.7449701E-08
   22.98000      2.7320299E-08
   23.04000      2.7164710E-08
   23.10000      2.7000912E-08
   23.16000      2.6839171E-08
   23.22000      2.6680077E-08
   23.28000      2.6514664E-08
   23.34000      2.6326564E-08
   23.40000      2.6095343E-08
   23.46000      2.5799860E-08
   23.52000      2.5420476E-08
   23.58000      2.4939594E-08
   23.64000      2.4340725E-08
   23.70000      2.3606978E-08
   23.76000      2.2720091E-08
   23.82000      2.1660838E-08
   23.88000      2.0411061E-08
   23.94000      1.8956884E-08
   24.00000      1.7292148E-08
   24.06000      1.5420994E-08
   24.12000      1.3358754E-08
   24.18000      1.1130733E-08
   24.24000      8.7690823E-09
   24.30000      6.3084178E-09
   24.36000      3.7812606E-09
   24.42000      1.2144953E-09
   24.48000     -1.3720874E-09
   24.54000     -3.9646397E-09
   24.60000     -6.5517534E-09
   24.66000     -9.1197538E-09
   24.72000     -1.1648563E-08
   24.78000     -1.4109953E-08
   24.84000     -1.6469357E-08
   24.90000     -1.8691136E-08
   24.96000     -2.0745849E-08
   25.02000     -2.2617137E-08
   25.08000     -2.4305717E-08
   25.14000     -2.5828966E-08
   25.20000     -2.7215972E-08
   25.26000     -2.8499599E-08
   25.32000     -2.9708072E-08
   25.38000     -3.0858637E-08
   25.44000     -3.1955057E-08
   25.50000     -3.2989355E-08
   25.56000     -3.3946929E-08
   25.62000     -3.4813375E-08
   25.68000     -3.5581067E-08
   25.74000     -3.6253947E-08
   25.80000     -3.6849567E-08
   25.86000     -3.7398010E-08
   25.92000     -3.7937991E-08
   25.98000     -3.8510844E-08
   26.04000     -3.9153651E-08
   26.10000     -3.9892878E-08
   26.16000     -4.0740094E-08
   26.22000     -4.1690907E-08
   26.28000     -4.2727464E-08
   26.34000     -4.3823889E-08
   26.40000     -4.4952973E-08
   26.46000     -4.6092108E-08
   26.52000     -4.7226536E-08
   26.58000     -4.8349030E-08
   26.64000     -4.9456325E-08
   26.70000     -5.0543839E-08
   26.76000     -5.1600932E-08
   26.82000     -5.2608581E-08
   26.88000     -5.3540646E-08
   26.94000     -5.4368513E-08
   27.00000     -5.5067638E-08
   27.06000     -5.5623971E-08
   27.12000     -5.6038125E-08
   27.18000     -5.6325877E-08
   27.24000     -5.6514796E-08
   27.30000     -5.6637884E-08
   27.36000     -5.6725856E-08
   27.42000     -5.6800140E-08
   27.48000     -5.6868309E-08
   27.54000     -5.6922982E-08
   27.60000     -5.6944341E-08
   27.66000     -5.6905595E-08
   27.72000     -5.6779967E-08
   27.78000     -5.6547535E-08
   27.84000     -5.6200296E-08
   27.90000     -5.5744287E-08
   27.96000     -5.5198360E-08
   28.02000     -5.4590092E-08
   28.08000     -5.3950167E-08
   28.14000     -5.3306906E-08
   28.20000     -5.2682545E-08
   28.26000     -5.2092226E-08
   28.32000     -5.1545491E-08
   28.38000     -5.1049298E-08
   28.44000     -5.0610801E-08
   28.50000     -5.0238455E-08
   28.56000     -4.9940706E-08
   28.62000     -4.9722694E-08
   28.68000     -4.9582539E-08
   28.74000     -4.9508952E-08
   28.80000     -4.9481805E-08
   28.86000     -4.9475975E-08
   28.92000     -4.9467513E-08
   28.98000     -4.9440175E-08
   29.04000     -4.9390003E-08
   29.10000     -4.9326307E-08
   29.16000     -4.9268579E-08
   29.22000     -4.9240438E-08
   29.28000     -4.9262621E-08
   29.34000     -4.9347186E-08
   29.40000     -4.9494531E-08
   29.46000     -4.9693714E-08
   29.52000     -4.9925362E-08
   29.58000     -5.0165884E-08
   29.64000     -5.0391701E-08
   29.70000     -5.0582560E-08
   29.76000     -5.0723756E-08
   29.82000     -5.0807142E-08
   29.88000     -5.0831069E-08
   29.94000     -5.0799084E-08
   30.00000     -5.0717180E-08
   30.06000     -5.0590007E-08
   30.12000     -5.0416869E-08
   30.18000     -5.0189154E-08
   30.24000     -4.9890680E-08
   30.30000     -4.9501658E-08
   30.36000     -4.9005632E-08
   30.42000     -4.8397016E-08
   30.48000     -4.7686445E-08
   30.54000     -4.6901423E-08
   30.60000     -4.6081563E-08
   30.66000     -4.5269800E-08
   30.72000     -4.4502521E-08
   30.78000     -4.3802061E-08
   30.84000     -4.3173959E-08
   30.90000     -4.2609415E-08
   30.96000     -4.2091418E-08
   31.02000     -4.1601915E-08
   31.08000     -4.1127326E-08
   31.14000     -4.0660854E-08
   31.20000     -4.0201492E-08
   31.26000     -3.9750784E-08
   31.32000     -3.9309047E-08
   31.38000     -3.8872340E-08
   31.44000     -3.8431072E-08
   31.50000     -3.7970313E-08
   31.56000     -3.7471633E-08
   31.62000     -3.6915846E-08
   31.68000     -3.6286263E-08
   31.74000     -3.5571691E-08
   31.80000     -3.4768536E-08
   31.86000     -3.3881307E-08
   31.92000     -3.2921168E-08
   31.98000     -3.1902861E-08
   32.04000     -3.0840734E-08
   32.10000     -2.9745340E-08
   32.16000     -2.8621535E-08
   32.22000     -2.7468754E-08
   32.28000     -2.6282938E-08
   32.34000     -2.5059059E-08
   32.40000     -2.3793026E-08
   32.46000     -2.2482283E-08
   32.52000     -2.1125295E-08
   32.58000     -1.9720970E-08
   32.64000     -1.8269176E-08
   32.70000     -1.6772947E-08
   32.76000     -1.5241863E-08
   32.82000     -1.3695120E-08
   32.88000     -1.2162469E-08
   32.94000     -1.0681799E-08
   33.00000     -9.2934789E-09
   33.06000     -8.0329716E-09
   33.12000     -6.9240436E-09
   33.18000     -5.9747087E-09
   33.24000     -5.1769642E-09
   33.30000     -4.5099622E-09
   33.36000     -3.9451757E-09
   33.42000     -3.4518244E-09
   33.48000     -3.0013101E-09
   33.54000     -2.5702658E-09
   33.60000     -2.1424820E-09
   33.66000     -1.7101000E-09
   33.72000     -1.2740848E-09
   33.78000     -8.4355306E-10
   33.84000     -4.3342074E-10
   33.90000     -6.0337756E-11
   33.96000      2.6227454E-10
   34.02000      5.2851906E-10
   34.08000      7.4199313E-10
   34.14000      9.1449298E-10
   34.20000      1.0618033E-09
   34.26000      1.1981600E-09
   34.32000      1.3315486E-09
   34.38000      1.4615945E-09
   34.44000      1.5806086E-09
   34.50000      1.6769450E-09
   34.56000      1.7388900E-09
   34.62000      1.7572425E-09
   34.68000      1.7255616E-09
   34.74000      1.6382909E-09
   34.80000      1.4880150E-09
   34.86000      1.2634844E-09
   34.92000      9.4961961E-10
   34.98000      5.2974558E-10
   35.04000     -1.0722195E-11
   35.10000     -6.8054334E-10
   35.16000     -1.4802612E-09
   35.22000     -2.4019704E-09
   35.28000     -3.4312055E-09
   35.34000     -4.5501833E-09
   35.40000     -5.7412519E-09
   35.46000     -6.9894890E-09
   35.52000     -8.2837870E-09
   35.58000     -9.6163051E-09
   35.64000     -1.0980602E-08
   35.70000     -1.2369084E-08
   35.76000     -1.3770475E-08
   35.82000     -1.5168073E-08
   35.88000     -1.6539403E-08
   35.94000     -1.7857703E-08
   36.00000     -1.9095291E-08
   36.06000     -2.0228342E-08
   36.12000     -2.1242069E-08
   36.18000     -2.2134838E-08
   36.24000     -2.2919750E-08
   36.30000     -2.3622759E-08
   36.36000     -2.4277265E-08
   36.42000     -2.4916334E-08
   36.48000     -2.5564599E-08
   36.54000     -2.6232124E-08
   36.60000     -2.6912097E-08
   36.66000     -2.7582972E-08
   36.72000     -2.8214291E-08
   36.78000     -2.8774272E-08
   36.84000     -2.9236759E-08
   36.90000     -2.9585550E-08
   36.96000     -2.9815180E-08
   37.02000     -2.9928433E-08
   37.08000     -2.9932014E-08
   37.14000     -2.9832250E-08
   37.20000     -2.9632430E-08
   37.26000     -2.9332767E-08
   37.32000     -2.8932888E-08
   37.38000     -2.8436048E-08
   37.44000     -2.7853542E-08
   37.50000     -2.7207713E-08
   37.56000     -2.6532181E-08
   37.62000     -2.5868607E-08
   37.68000     -2.5260212E-08
   37.74000     -2.4743295E-08
   37.80000     -2.4338910E-08
   37.86000     -2.4047099E-08
   37.92000     -2.3845802E-08
   37.98000     -2.3695346E-08
   38.04000     -2.3547836E-08
   38.10000     -2.3359142E-08
   38.16000     -2.3100217E-08
   38.22000     -2.2764519E-08
   38.28000     -2.2369353E-08
   38.34000     -2.1950738E-08
   38.40000     -2.1553397E-08
   38.46000     -2.1218801E-08
   38.52000     -2.0974777E-08
   38.58000     -2.0829614E-08
   38.64000     -2.0772253E-08
   38.70000     -2.0778348E-08
   38.76000     -2.0820211E-08
   38.82000     -2.0877509E-08
   38.88000     -2.0945185E-08
   38.94000     -2.1035886E-08
   39.00000     -2.1175770E-08
   39.06000     -2.1394786E-08
   39.12000     -2.1714465E-08
   39.18000     -2.2137476E-08
   39.24000     -2.2642828E-08
   39.30000     -2.3188967E-08
   39.36000     -2.3724395E-08
   39.42000     -2.4202773E-08
   39.48000     -2.4597856E-08
   39.54000     -2.4913417E-08
   39.60000     -2.5184830E-08
   39.66000     -2.5471492E-08
   39.72000     -2.5842015E-08
   39.78000     -2.6356149E-08
   39.84000     -2.7048296E-08
   39.90000     -2.7917054E-08
   39.96000     -2.8923598E-08
   40.02000     -2.9999505E-08
   40.08000     -3.1062235E-08
   40.14000     -3.2034368E-08
   40.20000     -3.2861557E-08
   40.26000     -3.3524309E-08
   40.32000     -3.4040159E-08
   40.38000     -3.4455613E-08
   40.44000     -3.4830286E-08
   40.50000     -3.5218264E-08
   40.56000     -3.5652704E-08
   40.62000     -3.6138651E-08
   40.68000     -3.6656150E-08
   40.74000     -3.7172232E-08
   40.80000     -3.7657177E-08
   40.86000     -3.8099021E-08
   40.92000     -3.8511164E-08
   40.98000     -3.8930317E-08
   41.04000     -3.9405649E-08
   41.10000     -3.9982904E-08
   41.16000     -4.0688896E-08
   41.22000     -4.1521538E-08
   41.28000     -4.2448779E-08
   41.34000     -4.3416851E-08
   41.40000     -4.4365539E-08
   41.46000     -4.5245933E-08
   41.52000     -4.6035364E-08
   41.58000     -4.6744820E-08
   41.64000     -4.7416169E-08
   41.70000     -4.8109378E-08
   41.76000     -4.8882821E-08
   41.82000     -4.9772321E-08
   41.88000     -5.0775345E-08
   41.94000     -5.1845792E-08
   42.00000     -5.2902028E-08
   42.06000     -5.3846836E-08
   42.12000     -5.4593812E-08
   42.18000     -5.5092336E-08
   42.24000     -5.5342884E-08
   42.30000     -5.5397152E-08
   42.36000     -5.5342188E-08
   42.42000     -5.5272984E-08
   42.48000     -5.5262269E-08
   42.54000     -5.5337470E-08
   42.60000     -5.5472654E-08
   42.66000     -5.5598523E-08
   42.72000     -5.5627069E-08
   42.78000     -5.5482776E-08
   42.84000     -5.5129611E-08
   42.90000     -5.4584831E-08
   42.96000     -5.3914825E-08
   43.02000     -5.3214471E-08
   43.08000     -5.2576727E-08
   43.14000     -5.2062241E-08
   43.20000     -5.1678416E-08
   43.26000     -5.1374254E-08
   43.32000     -5.1052275E-08
   43.38000     -5.0593933E-08
   43.44000     -4.9891046E-08
   43.50000     -4.8874387E-08
   43.56000     -4.7531525E-08
   43.62000     -4.5908951E-08
   43.68000     -4.4098122E-08
   43.74000     -4.2209404E-08
   43.80000     -4.0341529E-08
   43.86000     -3.8555751E-08
   43.92000     -3.6862463E-08
   43.98000     -3.5224513E-08
   44.04000     -3.3575937E-08
   44.10000     -3.1849893E-08
   44.16000     -3.0006209E-08
   44.22000     -2.8049277E-08
   44.28000     -2.6030074E-08
   44.34000     -2.4031955E-08
   44.40000     -2.2145297E-08
   44.46000     -2.0439964E-08
   44.52000     -1.8945052E-08
   44.58000     -1.7642565E-08
   44.64000     -1.6476667E-08
   44.70000     -1.5374901E-08
   44.76000     -1.4273906E-08
   44.82000     -1.3141090E-08
   44.88000     -1.1985285E-08
   44.94000     -1.0853243E-08
   45.00000     -9.8133075E-09
   45.06000     -8.9315737E-09
   45.12000     -8.2480662E-09
   45.18000     -7.7604261E-09
   45.24000     -7.4202560E-09
   45.30000     -7.1434720E-09
   45.36000     -6.8316770E-09
   45.42000     -6.3981536E-09
   45.48000     -5.7906022E-09
   45.54000     -5.0037103E-09
   45.60000     -4.0778221E-09
   45.66000     -3.0843110E-09
   45.72000     -2.1024171E-09
   45.78000     -1.1948769E-09
   45.84000     -3.8991374E-10
   45.90000      3.2499989E-10
   45.96000      9.9599318E-10
   46.02000      1.6848296E-09
   46.08000      2.4459823E-09
   46.14000      3.3060032E-09
   46.20000      4.2515489E-09
   46.26000      5.2295888E-09
   46.32000      6.1594116E-09
   46.38000      6.9523276E-09
   46.44000      7.5325559E-09
   46.50000      7.8525266E-09
   46.56000      7.8977154E-09
   46.62000      7.6795796E-09
   46.68000      7.2190209E-09
   46.74000      6.5257364E-09
   46.80000      5.5799170E-09
   46.86000      4.3216755E-09
   46.92000      2.6508420E-09
   46.98000      4.3624956E-10
   47.04000     -2.4693461E-09
   47.10000     -6.2141998E-09
   47.16000     -1.0937681E-08
   47.22000     -1.6769080E-08
   47.28000     -2.3835968E-08
   47.34000     -3.2280212E-08
   47.40000     -4.2277644E-08
   47.46000     -5.4056567E-08
   47.52000     -6.7910854E-08
   47.58000     -8.4205084E-08
   47.64000     -1.0337169E-07
   47.70000     -1.2590255E-07
   47.76000     -1.5233951E-07
   47.82000     -1.8326901E-07
   47.88000     -2.1932526E-07
   47.94000     -2.6120441E-07
   48.00000     -3.0968926E-07
   48.06000     -3.6568082E-07
   48.12000     -4.3023186E-07
   48.18000     -5.0457629E-07
   48.24000     -5.9014997E-07
   48.30000     -6.8860192E-07
   48.36000     -8.0179677E-07
   48.42000     -9.3181421E-07
   48.48000     -1.0809503E-06
   48.54000     -1.2517266E-06
   48.60000     -1.4469108E-06
   48.66000     -1.6695460E-06
   48.72000     -1.9229885E-06
   48.78000     -2.2109457E-06
   48.84000     -2.5375098E-06
   48.90000     -2.9071839E-06
   48.96000     -3.3249012E-06
   49.02000     -3.7960367E-06
   49.08000     -4.3264208E-06
   49.14000     -4.9223536E-06
   49.20000     -5.5906266E-06
   49.26000     -6.3385469E-06
   49.32000     -7.1739628E-06
   49.38000     -8.1052831E-06
   49.44000     -9.1414922E-06
   49.50000     -1.0292146E-05
   49.56000     -1.1567360E-05
   49.62000     -1.2977795E-05
   49.68000     -1.4534632E-05
   49.74000     -1.6249536E-05
   49.80000     -1.8134642E-05
   49.86000     -2.0202524E-05
   49.92000     -2.2466169E-05
   49.98000     -2.4938941E-05
   50.04000     -2.7634562E-05
   50.10000     -3.0567040E-05
   50.16000     -3.3750621E-05
   50.22000     -3.7199708E-05
   50.28000     -4.0928746E-05
   50.34000     -4.4952125E-05
   50.40000     -4.9284048E-05
   50.46000     -5.3938398E-05
   50.52000     -5.8928621E-05
   50.58000     -6.4267610E-05
   50.64000     -6.9967558E-05
   50.70000     -7.6039854E-05
   50.76000     -8.2494968E-05
   50.82000     -8.9342320E-05
   50.88000     -9.6590113E-05
   50.94000     -1.0424525E-04
   51.00000     -1.1231312E-04
   51.06000     -1.2079751E-04
   51.12000     -1.2970045E-04
   51.18000     -1.3902209E-04
   51.24000     -1.4876058E-04
   51.30000     -1.5891211E-04
   51.36000     -1.6947064E-04
   51.42000     -1.8042808E-04
   51.48000     -1.9177403E-04
   51.54000     -2.0349595E-04
   51.60000     -2.1557904E-04
   51.66000     -2.2800631E-04
   51.72000     -2.4075857E-04
   51.78000     -2.5381451E-04
   51.84000     -2.6715075E-04
   51.90000     -2.8074221E-04
   51.96000     -2.9456191E-04
   52.02000     -3.0858137E-04
   52.08000     -3.2277073E-04
   52.14000     -3.3709884E-04
   52.20000     -3.5153370E-04
   52.26000     -3.6604251E-04
   52.32000     -3.8059222E-04
   52.38000     -3.9514949E-04
   52.44000     -4.0968115E-04
   52.50000     -4.2415448E-04
   52.56000     -4.3853748E-04
   52.62000     -4.5279899E-04
   52.68000     -4.6690929E-04
   52.74000     -4.8084016E-04
   52.80000     -4.9456517E-04
   52.86000     -5.0805986E-04
   52.92000     -5.2130211E-04
   52.98000     -5.3427235E-04
   53.04000     -5.4695347E-04
   53.10000     -5.5933144E-04
   53.16000     -5.7139498E-04
   53.22000     -5.8313605E-04
   53.28000     -5.9454946E-04
   53.34000     -6.0563325E-04
   53.40000     -6.1638828E-04
   53.46000     -6.2681839E-04
   53.52000     -6.3692988E-04
   53.58000     -6.4673187E-04
   53.64000     -6.5623573E-04
   53.70000     -6.6545530E-04
   53.76000     -6.7440647E-04
   53.82000     -6.8310689E-04
   53.88000     -6.9157552E-04
   53.94000     -6.9983251E-04
   54.00000     -7.0789852E-04
   54.06000     -7.1579445E-04
   54.12000     -7.2354125E-04
   54.18000     -7.3115953E-04
   54.24000     -7.3866901E-04
   54.30000     -7.4608857E-04
   54.36000     -7.5343571E-04
   54.42000     -7.6072634E-04
   54.48000     -7.6797418E-04
   54.54000     -7.7519100E-04
   54.60000     -7.8238582E-04
   54.66000     -7.8956521E-04
   54.72000     -7.9673302E-04
   54.78000     -8.0389035E-04
   54.84000     -8.1103540E-04
   54.90000     -8.1816362E-04
   54.96000     -8.2526758E-04
   55.02000     -8.3233713E-04
   55.08000     -8.3935942E-04
   55.14000     -8.4631948E-04
   55.20000     -8.5319998E-04
   55.26000     -8.5998198E-04
   55.32000     -8.6664502E-04
   55.38000     -8.7316742E-04
   55.44000     -8.7952684E-04
   55.50000     -8.8570040E-04
   55.56000     -8.9166505E-04