  -2.400000      0.0000000E+00
  -2.340000      0.0000000E+00
  -2.280000      0.0000000E+00
  -2.220000      0.0000000E+00
  -2.160000      0.0000000E+00
  -2.100000      0.0000000E+00
  -2.040000      0.0000000E+00
  -1.980000      0.0000000E+00
  -1.920000      0.0000000E+00
  -1.860000      0.0000000E+00
  -1.800000      0.0000000E+00
  -1.740000      0.0000000E+00
  -1.680000      0.0000000E+00
  -1.620000      1.6800427E-35
  -1.560000      8.0770054E-35
  -1.500000     -1.7881199E-33
  -1.440000     -2.9892877E-32
  -1.380000     -2.3769410E-31
  -1.320000     -1.2469593E-30
  -1.260000     -4.6444184E-30
  -1.200000     -1.1891894E-29
  -1.140000     -1.5216002E-29
  -1.080000      3.0786288E-29
  -1.020000      2.5361322E-28
 -0.9600000      8.4347912E-28
 -0.9000000      1.7295552E-27
 -0.8400000      1.6195574E-27
 -0.7800000     -3.4308027E-27
 -0.7200000     -1.9935453E-26
 -0.6600000     -5.0517481E-26
 -0.6000000     -7.5726918E-26
 -0.5400000     -2.8402086E-26
 -0.4800000      2.0899082E-25
 -0.4200000      7.2131528E-25
 -0.3600000      1.3362829E-24
 -0.3000000      1.3213378E-24
 -0.2400000     -6.7704268E-25
 -0.1800000     -5.8787362E-24
 -0.1200000     -1.3383106E-23
 -5.9999999E-02 -1.7574500E-23
  0.0000000E+00 -7.4419174E-24
  5.9999999E-02  2.8202263E-23
  0.1200000      8.7228888E-23
  0.1800000      1.3708014E-22
  0.2400000      1.0971177E-22
  0.3000000     -6.9143393E-23
  0.3600000     -4.0569279E-22
  0.4200000     -7.4663037E-22
  0.4800000     -7.5132087E-22
  0.5400000     -3.2029835E-23
  0.6000000      1.4985777E-21
  0.6600000      3.2122763E-21
  0.7200000      3.6412377E-21
  0.7800000      1.0720121E-21
  0.8400000     -5.0198360E-21
  0.9000000     -1.2296144E-20
  0.9600000     -1.5053202E-20
   1.020000     -6.4638349E-21
   1.080000      1.6073735E-20
   1.140000      4.4736092E-20
   1.200000      5.9208819E-20
   1.260000      3.4124467E-20
   1.320000     -4.2818636E-20
   1.380000     -1.4943420E-19
   1.440000     -2.2031397E-19
   1.500000     -1.6793440E-19
   1.560000      6.1920718E-20
   1.620000      4.2139827E-19
   1.680000      7.2507809E-19
   1.740000      6.9907908E-19
   1.800000      1.3254074E-19
   1.860000     -9.1987261E-19
   1.920000     -2.0076091E-18
   1.980000     -2.3691807E-18
   2.040000     -1.2981483E-18
   2.100000      1.3155501E-18
   2.160000      4.5633110E-18
   2.220000      6.5843341E-18
   2.280000      5.3376050E-18
   2.340000     -9.1681655E-20
   2.400000     -8.2853123E-18
   2.460000     -1.5266045E-17
   2.520000     -1.5888244E-17
   2.580000     -6.6819646E-18
   2.640000      1.1071585E-17
   2.700000      2.9971622E-17
   2.760000      3.8513887E-17
   2.820000      2.6679611E-17
   2.880000     -6.9726147E-18
   2.940000     -5.0650284E-17
   3.000000     -8.1142117E-17
   3.060000     -7.3677288E-17
   3.120000     -1.6917423E-17
   3.180000      7.4281977E-17
   3.240000      1.5728588E-16
   3.300000      1.7679846E-16
   3.360000      9.3993049E-17
   3.420000     -8.2794208E-17
   3.480000     -2.8407547E-16
   3.540000     -3.9700651E-16
   3.600000     -3.1643160E-16
   3.660000     -1.1060541E-17
   3.720000      4.2918863E-16
   3.780000      7.9985634E-16
   3.840000      8.5844470E-16
   3.900000      4.5103149E-16
   3.960000     -3.6699936E-16
   4.020000     -1.2879750E-15
   4.080000     -1.8379789E-15
   4.140000     -1.5861980E-15
   4.200000     -3.9962649E-16
   4.260000      1.3856713E-15
   4.320000      2.9993606E-15
   4.380000      3.5231520E-15
   4.440000      2.3477782E-15
   4.500000     -3.9974844E-16
   4.560000     -3.7031810E-15
   4.620000     -5.9452213E-15
   4.680000     -5.6109127E-15
   4.740000     -2.1447827E-15
   4.800000      3.4615873E-15
   4.860000      8.7529996E-15
   4.920000      1.0718776E-14
   4.980000      7.2743571E-15
   5.040000     -1.3224076E-15
   5.100000     -1.1912294E-14
   5.160000     -1.9290542E-14
   5.220000     -1.8426385E-14
   5.280000     -7.2360627E-15
   5.340000      1.1436966E-14
   5.400000      2.9933189E-14
   5.460000      3.8504519E-14
   5.520000      2.9904397E-14
   5.580000      3.8697623E-15
   5.640000     -3.0940165E-14
   5.700000     -5.9234959E-14
   5.760000     -6.5435782E-14
   5.820000     -4.1658436E-14
   5.880000      6.5328674E-15
   5.940000      6.0158855E-14
   6.000000      9.3881771E-14
   6.060000      8.7813010E-14
   6.120000      3.8775264E-14
   6.180000     -3.5054757E-14
   6.240000     -9.9844015E-14
   6.300000     -1.2104250E-13
   6.360000     -8.1332266E-14
   6.420000      7.3695881E-15
   6.480000      1.0522312E-13
   6.540000      1.6067640E-13
   6.600000      1.3557079E-13
   6.660000      2.7493019E-14
   6.720000     -1.2268616E-13
   6.780000     -2.4432951E-13
   6.840000     -2.6794555E-13
   6.900000     -1.6041377E-13
   6.960000      5.2574549E-14
   7.020000      2.8982372E-13
   7.080000      4.4546685E-13
   7.140000      4.3568914E-13
   7.200000      2.4054592E-13
   7.260000     -7.9787868E-14
   7.320000     -4.0467765E-13
   7.380000     -6.0252075E-13
   7.440000     -5.8899890E-13
   7.500000     -3.6698791E-13
   7.560000     -2.7734103E-14
   7.620000      2.8977650E-13
   7.680000      4.6402351E-13
   7.740000      4.4996136E-13
   7.800000      3.0163993E-13
   7.860000      1.4396889E-13
   7.920000      1.0367122E-13
   7.980000      2.3144106E-13
   8.040000      4.5556674E-13
   8.100000      5.9628333E-13
   8.160000      4.4327926E-13
   8.220000     -1.3242791E-13
   8.280000     -1.0819409E-12
   8.340000     -2.1465405E-12
   8.400000     -2.9161226E-12
   8.460000     -2.9661659E-12
   8.520000     -2.0257710E-12
   8.580000     -1.1178026E-13
   8.640000      2.4269263E-12
   8.700000      4.9782882E-12
   8.760000      6.8298132E-12
   8.820000      7.3710101E-12
   8.880000      6.2680972E-12
   8.940000      3.5563562E-12
   9.000000     -3.7224092E-13
   9.060000     -4.8709825E-12
   9.120000     -9.1868388E-12
   9.180000     -1.2603709E-11
   9.240000     -1.4540837E-11
   9.300000     -1.4592468E-11
   9.360000     -1.2522851E-11
   9.420000     -8.2497091E-12
   9.480000     -1.8516542E-12
   9.540000      6.3802765E-12
   9.600000      1.5854439E-11
   9.660000      2.5590521E-11
   9.720000      3.4186896E-11
   9.780000      3.9896562E-11
   9.840000      4.0838971E-11
   9.900000      3.5332546E-11
   9.960000      2.2287413E-11
   10.02000      1.5692378E-12
   10.08000     -2.5754666E-11
   10.14000     -5.7343772E-11
   10.20000     -8.9692594E-11
   10.26000     -1.1837460E-10
   10.32000     -1.3835308E-10
   10.38000     -1.4430254E-10
   10.44000     -1.3092689E-10
   10.50000     -9.3311102E-11
   10.56000     -2.7369643E-11
   10.62000      6.9566235E-11
   10.68000      1.9805228E-10
   10.74000      3.5585349E-10
   10.80000      5.3749172E-10
   10.86000      7.3423784E-10
   10.92000      9.3468977E-10
   10.98000      1.1259169E-09
   11.04000      1.2949700E-09
   11.10000      1.4304092E-09
   11.16000      1.5234787E-09
   11.22000      1.5686461E-09
   11.28000      1.5634340E-09
   11.34000      1.5076752E-09
   11.40000      1.4024857E-09
   11.46000      1.2492755E-09
   11.52000      1.0490258E-09
   11.58000      8.0190893E-10
   11.64000      5.0719684E-10
   11.70000      1.6335153E-10
   11.76000     -2.3174711E-10
   11.82000     -6.8037731E-10
   11.88000     -1.1842082E-09
   11.94000     -1.7430531E-09
   12.00000     -2.3531401E-09
   12.06000     -3.0051110E-09
   12.12000     -3.6821832E-09
   12.18000     -4.3590385E-09
   12.24000     -5.0019846E-09
   12.30000     -5.5707399E-09
   12.36000     -6.0218568E-09
   12.42000     -6.3134213E-09
   12.48000     -6.4102834E-09
   12.54000     -6.2888614E-09
   12.60000     -5.9405250E-09
   12.66000     -5.3727867E-09
   12.72000     -4.6079971E-09
   12.78000     -3.6798045E-09
   12.84000     -2.6282276E-09
   12.90000     -1.4945524E-09
   12.96000     -3.1729921E-10
   13.02000      8.6982599E-10
   13.08000      2.0377016E-09
   13.14000      3.1596825E-09
   13.20000      4.2085695E-09
   13.26000      5.1538418E-09
   13.32000      5.9602092E-09
   13.38000      6.5881252E-09
   13.44000      6.9963710E-09
   13.50000      7.1463266E-09
   13.56000      7.0072099E-09
   13.62000      6.5614114E-09
   13.68000      5.8090244E-09
   13.74000      4.7707505E-09
   13.80000      3.4885344E-09
   13.86000      2.0235376E-09
   13.92000      4.5144893E-10
   13.98000     -1.1444209E-09
   14.04000     -2.6813409E-09
   14.10000     -4.0854151E-09
   14.16000     -5.2985301E-09
   14.22000     -6.2828254E-09
   14.28000     -7.0219506E-09
   14.34000     -7.5190156E-09
   14.40000     -7.7917957E-09
   14.46000     -7.8663263E-09
   14.52000     -7.7703906E-09
   14.58000     -7.5284028E-09
   14.64000     -7.1588540E-09
   14.70000     -6.6748287E-09
   14.76000     -6.0872352E-09
   14.82000     -5.4096176E-09
   14.88000     -4.6629425E-09
   14.94000     -3.8787720E-09
   15.00000     -3.0997311E-09
   15.06000     -2.3770106E-09
   15.12000     -1.7654950E-09
   15.18000     -1.3176531E-09
   15.24000     -1.0774746E-09
   15.30000     -1.0754555E-09
   15.36000     -1.3251968E-09
   15.42000     -1.8217746E-09
   15.48000     -2.5418674E-09
   15.54000     -3.4456327E-09
   15.60000     -4.4803810E-09
   15.66000     -5.5860103E-09
   15.72000     -6.7018244E-09
   15.78000     -7.7738722E-09
   15.84000     -8.7614582E-09
   15.90000     -9.6412975E-09
   15.96000     -1.0408087E-08
   16.02000     -1.1071032E-08
   16.08000     -1.1647007E-08
   16.14000     -1.2152138E-08
   16.20000     -1.2594435E-08
   16.26000     -1.2970113E-08
   16.32000     -1.3265480E-08
   16.38000     -1.3464533E-08
   16.44000     -1.3560319E-08
   16.50000     -1.3566258E-08
   16.56000     -1.3522744E-08
   16.62000     -1.3495113E-08
   16.68000     -1.3561494E-08
   16.74000     -1.3792475E-08
   16.80000     -1.4227894E-08
   16.86000     -1.4857934E-08
   16.92000     -1.5615234E-08
   16.98000     -1.6381890E-08
   17.04000     -1.7010720E-08
   17.10000     -1.7355728E-08
   17.16000     -1.7303790E-08
   17.22000     -1.6799213E-08
   17.28000     -1.5855049E-08
   17.34000     -1.4549142E-08
   17.40000     -1.3007005E-08
   17.46000     -1.1376980E-08
   17.52000     -9.8043111E-09
   17.58000     -8.4100140E-09
   17.64000     -7.2781443E-09
   17.70000     -6.4521739E-09
   17.76000     -5.9387162E-09
   17.82000     -5.7153402E-09
   17.88000     -5.7390577E-09
   17.94000     -5.9530212E-09
   18.00000     -6.2905938E-09
   18.06000     -6.6775603E-09
   18.12000     -7.0342892E-09
   18.18000     -7.2797572E-09
   18.24000     -7.3384858E-09
   18.30000     -7.1500370E-09
   18.36000     -6.6792820E-09
   18.42000     -5.9248109E-09
   18.48000     -4.9229048E-09
   18.54000     -3.7453862E-09
   18.60000     -2.4911591E-09
   18.66000     -1.2727331E-09
   18.72000     -2.0020031E-10
   18.78000      6.3438899E-10
   18.84000      1.1694574E-09
   18.90000      1.3810806E-09
   18.96000      1.2839029E-09
   19.02000      9.2595004E-10
   19.08000      3.7857734E-10
   19.14000     -2.7637986E-10
   19.20000     -9.5976516E-10
   19.26000     -1.6061282E-09
   19.32000     -2.1707123E-09
   19.38000     -2.6313953E-09
   19.44000     -2.9856833E-09
   19.50000     -3.2438949E-09
   19.56000     -3.4204481E-09
   19.62000     -3.5254648E-09
   19.68000     -3.5586900E-09
   19.74000     -3.5070384E-09
   19.80000     -3.3461069E-09
   19.86000     -3.0450285E-09
   19.92000     -2.5733533E-09
   19.98000     -1.9083992E-09
   20.04000     -1.0417256E-09
   20.10000      1.6106472E-11
   20.16000      1.2328480E-09
   20.22000      2.5540252E-09
   20.28000      3.9046957E-09
   20.34000      5.1938618E-09
   20.40000      6.3220402E-09
   20.46000      7.1921891E-09
   20.52000      7.7234041E-09
   20.58000      7.8655420E-09
   20.64000      7.6117734E-09
   20.70000      7.0054380E-09
   20.76000      6.1381082E-09
   20.82000      5.1375211E-09
   20.88000      4.1467256E-09
   20.94000      3.2986467E-09
   21.00000      2.6921891E-09
   21.06000      2.3761817E-09
   21.12000      2.3455498E-09
   21.18000      2.5506204E-09
   21.24000      2.9165559E-09
   21.30000      3.3669749E-09
   21.36000      3.8448906E-09
   21.42000      4.3254746E-09
   21.48000      4.8181543E-09
   21.54000      5.3590576E-09
   21.60000      5.9974643E-09
   21.66000      6.7810371E-09
   21.72000      7.7440241E-09
   21.78000      8.9008276E-09
   21.84000      1.0245135E-08
   21.90000      1.1753039E-08
   21.96000      1.3387545E-08
   22.02000      1.5102136E-08
   22.08000      1.6842224E-08
   22.14000      1.8545169E-08
   22.20000      2.0141206E-08
   22.26000      2.1558259E-08
   22.32000      2.2732632E-08
   22.38000      2.3624901E-08
   22.44000      2.4237021E-08
   22.50000      2.4624089E-08
   22.56000      2.4894250E-08
   22.62000      2.5193211E-08
   22.68000      2.5675272E-08
   22.74000      2.6468285E-08
   22.80000      2.7643312E-08
   22.86000      2.9199056E-08
   22.92000      3.1066357E-08
   22.98000      3.3131123E-08
   23.04000      3.5267792E-08
   23.10000      3.7371965E-08
   23.16000      3.9381973E-08
   23.22000      4.1283492E-08
   23.28000      4.3097444E-08
   23.34000      4.4856812E-08
   23.40000      4.6581128E-08
   23.46000      4.8257327E-08
   23.52000      4.9833233E-08
   23.58000      5.1225584E-08
   23.64000      5.2339956E-08
   23.70000      5.3096009E-08
   23.76000      5.3449583E-08
   23.82000      5.3403742E-08
   23.88000      5.3004516E-08
   23.94000      5.2322211E-08
   24.00000      5.1424855E-08
   24.06000      5.0353670E-08
   24.12000      4.9110152E-08
   24.18000      4.7660123E-08
   24.24000      4.5953289E-08
   24.30000      4.3950511E-08
   24.36000      4.1647475E-08
   24.42000      3.9085041E-08
   24.48000      3.6341817E-08
   24.54000      3.3511938E-08
   24.60000      3.0677086E-08
   24.66000      2.7883772E-08
   24.72000      2.5134682E-08
   24.78000      2.2397064E-08
   24.84000      1.9624586E-08
   24.90000      1.6784345E-08
   24.96000      1.3879201E-08
   25.02000      1.0957969E-08
   25.08000      8.1103853E-09
   25.14000      5.4491500E-09
   25.20000      3.0852718E-09
   25.26000      1.1046700E-09
   25.32000     -4.4690737E-10
   25.38000     -1.5666758E-09
   25.44000     -2.2854765E-09
   25.50000     -2.6503724E-09
   25.56000     -2.7056499E-09
   25.62000     -2.4788354E-09
   25.68000     -1.9762356E-09
   25.74000     -1.1888943E-09
   25.80000     -1.0612954E-10
   25.86000      1.2686572E-09
   25.92000      2.9056597E-09
   25.98000      4.7439688E-09
   26.04000      6.6958359E-09
   26.10000      8.6584322E-09
   26.16000      1.0529735E-08
   26.22000      1.2224636E-08
   26.28000      1.3687836E-08
   26.34000      1.4901222E-08
   26.40000      1.5884440E-08
   26.46000      1.6688539E-08
   26.52000      1.7383570E-08
   26.58000      1.8042218E-08
   26.64000      1.8722638E-08
   26.70000      1.9454328E-08
   26.76000      2.0230752E-08
   26.82000      2.1011049E-08
   26.88000      2.1731065E-08
   26.94000      2.2321283E-08
   27.00000      2.2727061E-08
   27.06000      2.2925462E-08
   27.12000      2.2933369E-08
   27.18000      2.2803748E-08
   27.24000      2.2610324E-08
   27.30000      2.2424706E-08
   27.36000      2.2293014E-08
   27.42000      2.2219801E-08
   27.48000      2.2165286E-08
   27.54000      2.2057492E-08
   27.60000      2.1815534E-08
   27.66000      2.1376115E-08
   27.72000      2.0713790E-08
   27.78000      1.9847946E-08
   27.84000      1.8834474E-08
   27.90000      1.7745901E-08
   27.96000      1.6647787E-08
   28.02000      1.5579939E-08
   28.08000      1.4548286E-08
   28.14000      1.3528665E-08
   28.20000      1.2479268E-08
   28.26000      1.1355902E-08
   28.32000      1.0124424E-08
   28.38000      8.7669241E-09
   28.44000      7.2813267E-09
   28.50000      5.6765952E-09
   28.56000      3.9667549E-09
   28.62000      2.1665294E-09
   28.68000      2.8995223E-10
   28.74000     -1.6482599E-09
   28.80000     -3.6299499E-09
   28.86000     -5.6311444E-09
   28.92000     -7.6214768E-09
   28.98000     -9.5659374E-09
   29.04000     -1.1428484E-08
   29.10000     -1.3176165E-08
   29.16000     -1.4782095E-08
   29.22000     -1.6225982E-08
   29.28000     -1.7491931E-08
   29.34000     -1.8564592E-08
   29.40000     -1.9425855E-08
   29.46000     -2.0054458E-08
   29.52000     -2.0429956E-08
   29.58000     -2.0540448E-08
   29.64000     -2.0391274E-08
   29.70000     -2.0010692E-08
   29.76000     -1.9448885E-08
   29.82000     -1.8769144E-08
   29.88000     -1.8033324E-08
   29.94000     -1.7286583E-08
   30.00000     -1.6547292E-08
   30.06000     -1.5806259E-08
   30.12000     -1.5035818E-08
   30.18000     -1.4205180E-08
   30.24000     -1.3295895E-08
   30.30000     -1.2311278E-08
   30.36000     -1.1276190E-08
   30.42000     -1.0227565E-08
   30.48000     -9.1997547E-09
   30.54000     -8.2106562E-09
   30.60000     -7.2541511E-09
   30.66000     -6.3018786E-09
   30.72000     -5.3138414E-09
   30.78000     -4.2540704E-09
   30.84000     -3.1056646E-09
   30.90000     -1.8795825E-09
   30.96000     -6.1365835E-10
   31.02000      6.3816391E-10
   31.08000      1.8227119E-09
   31.14000      2.9044092E-09
   31.20000      3.8756820E-09
   31.26000      4.7569424E-09
   31.32000      5.5861307E-09
   31.38000      6.4018559E-09
   31.44000      7.2265043E-09
   31.50000      8.0553733E-09
   31.56000      8.8552152E-09
   31.62000      9.5718891E-09
   31.68000      1.0143712E-08
   31.74000      1.0515802E-08
   31.80000      1.0651356E-08
   31.86000      1.0537589E-08
   31.92000      1.0186036E-08
   31.98000      9.6282342E-09
   32.04000      8.9082803E-09
   32.10000      8.0737372E-09
   32.16000      7.1663000E-09
   32.22000      6.2137211E-09
   32.28000      5.2245857E-09
   32.34000      4.1873860E-09
   32.40000      3.0747376E-09
   32.46000      1.8524943E-09
   32.52000      4.9221793E-10
   32.58000     -1.0157084E-09
   32.64000     -2.6517093E-09
   32.70000     -4.3626796E-09
   32.76000     -6.0659278E-09
   32.82000     -7.6617441E-09
   32.88000     -9.0524841E-09
   32.94000     -1.0163745E-08
   33.00000     -1.0961893E-08
   33.06000     -1.1462512E-08
   33.12000     -1.1726616E-08
   33.18000     -1.1844982E-08
   33.24000     -1.1914793E-08
   33.30000     -1.2015354E-08
   33.36000     -1.2190130E-08
   33.42000     -1.2440265E-08
   33.48000     -1.2730962E-08
   33.54000     -1.3007905E-08
   33.60000     -1.3217702E-08
   33.66000     -1.3325487E-08
   33.72000     -1.3324236E-08
   33.78000     -1.3233676E-08
   33.84000     -1.3090397E-08
   33.90000     -1.2933560E-08
   33.96000     -1.2791640E-08
   34.02000     -1.2674668E-08
   34.08000     -1.2574033E-08
   34.14000     -1.2469209E-08
   34.20000     -1.2338516E-08
   34.26000     -1.2170017E-08
   34.32000     -1.1968833E-08
   34.38000     -1.1758362E-08
   34.44000     -1.1574786E-08
   34.50000     -1.1456176E-08
   34.56000     -1.1429304E-08
   34.62000     -1.1498150E-08
   34.68000     -1.1637962E-08
   34.74000     -1.1797192E-08
   34.80000     -1.1907287E-08
   34.86000     -1.1897706E-08
   34.92000     -1.1711811E-08
   34.98000     -1.1319054E-08
   35.04000     -1.0720301E-08
   35.10000     -9.9455590E-09
   35.16000     -9.0457855E-09
   35.22000     -8.0819369E-09
   35.28000     -7.1144997E-09
   35.34000     -6.1956498E-09
   35.40000     -5.3646616E-09
   35.46000     -4.6458859E-09
   35.52000     -4.0481662E-09
   35.58000     -3.5648953E-09
   35.64000     -3.1746792E-09
   35.70000     -2.8433282E-09
   35.76000     -2.5280646E-09
   35.82000     -2.1843400E-09
   35.88000     -1.7745930E-09
   35.94000     -1.2770913E-09
   36.00000     -6.9225436E-10
   36.06000     -4.4013092E-11
   36.12000      6.2507016E-10
   36.18000      1.2643205E-09
   36.24000      1.8285728E-09
   36.30000      2.2911406E-09
   36.36000      2.6523113E-09
   36.42000      2.9407730E-09
   36.48000      3.2073462E-09
   36.54000      3.5124887E-09
   36.60000      3.9106220E-09
   36.66000      4.4349715E-09
   36.72000      5.0863456E-09
   36.78000      5.8282859E-09
   36.84000      6.5896244E-09
   36.90000      7.2740076E-09
   36.96000      7.7746645E-09
   37.02000      7.9918427E-09
   37.08000      7.8499252E-09
   37.14000      7.3114030E-09
   37.20000      6.3852883E-09
   37.26000      5.1282640E-09
   37.32000      3.6376770E-09
   37.38000      2.0366122E-09
   37.44000      4.5278123E-10
   37.50000     -1.0053061E-09
   37.56000     -2.2699465E-09
   37.62000     -3.3281835E-09
   37.68000     -4.2238453E-09
   37.74000     -5.0463242E-09
   37.80000     -5.9085901E-09
   37.86000     -6.9203270E-09
   37.92000     -8.1635427E-09
   37.98000     -9.6769064E-09
   38.04000     -1.1451751E-08
   38.10000     -1.3438690E-08
   38.16000     -1.5560722E-08
   38.22000     -1.7727766E-08
   38.28000     -1.9848788E-08
   38.34000     -2.1840080E-08
   38.40000     -2.3630497E-08
   38.46000     -2.5165283E-08
   38.52000     -2.6409813E-08
   38.58000     -2.7353090E-08
   38.64000     -2.8009776E-08
   38.70000     -2.8419116E-08
   38.76000     -2.8639828E-08
   38.82000     -2.8741319E-08
   38.88000     -2.8792845E-08
   38.94000     -2.8853087E-08
   39.00000     -2.8962409E-08
   39.06000     -2.9139505E-08
   39.12000     -2.9382853E-08
   39.18000     -2.9676197E-08
   39.24000     -2.9996198E-08
   39.30000     -3.0319974E-08
   39.36000     -3.0630403E-08
   39.42000     -3.0918041E-08
   39.48000     -3.1179820E-08
   39.54000     -3.1415862E-08
   39.60000     -3.1626445E-08
   39.66000     -3.1810746E-08
   39.72000     -3.1968003E-08
   39.78000     -3.2100171E-08
   39.84000     -3.2214206E-08
   39.90000     -3.2321761E-08
   39.96000     -3.2435207E-08
   40.02000     -3.2560635E-08
   40.08000     -3.2690366E-08
   40.14000     -3.2798720E-08
   40.20000     -3.2844383E-08
   40.26000     -3.2780704E-08
   40.32000     -3.2571858E-08
   40.38000     -3.2209787E-08
   40.44000     -3.1725030E-08
   40.50000     -3.1185746E-08
   40.56000     -3.0683054E-08
   40.62000     -3.0306182E-08
   40.68000     -3.0115643E-08
   40.74000     -3.0124269E-08
   40.80000     -3.0293567E-08
   40.86000     -3.0546989E-08
   40.92000     -3.0795128E-08
   40.98000     -3.0963079E-08
   41.04000     -3.1009897E-08
   41.10000     -3.0934025E-08
   41.16000     -3.0764824E-08
   41.22000     -3.0545962E-08
   41.28000     -3.0318894E-08
   41.34000     -3.0112975E-08
   41.40000     -2.9944406E-08
   41.46000     -2.9821656E-08
   41.52000     -2.9752259E-08
   41.58000     -2.9746476E-08
   41.64000     -2.9815951E-08
   41.70000     -2.9968810E-08
   41.76000     -3.0204561E-08
   41.82000     -3.0511917E-08
   41.88000     -3.0870762E-08
   41.94000     -3.1257144E-08
   42.00000     -3.1648774E-08
   42.06000     -3.2028595E-08
   42.12000     -3.2385465E-08
   42.18000     -3.2712531E-08
   42.24000     -3.3004977E-08
   42.30000     -3.3258793E-08
   42.36000     -3.3471320E-08
   42.42000     -3.3643197E-08
   42.48000     -3.3780601E-08
   42.54000     -3.3896637E-08
   42.60000     -3.4011006E-08
   42.66000     -3.4147874E-08
   42.72000     -3.4331965E-08
   42.78000     -3.4583380E-08
   42.84000     -3.4911636E-08
   42.90000     -3.5309988E-08
   42.96000     -3.5751622E-08
   43.02000     -3.6189856E-08
   43.08000     -3.6564092E-08
   43.14000     -3.6812008E-08
   43.20000     -3.6886036E-08
   43.26000     -3.6769755E-08
   43.32000     -3.6488387E-08
   43.38000     -3.6108236E-08
   43.44000     -3.5723019E-08
   43.50000     -3.5429604E-08
   43.56000     -3.5300275E-08
   43.62000     -3.5360770E-08
   43.68000     -3.5582211E-08
   43.74000     -3.5890370E-08
   43.80000     -3.6189419E-08
   43.86000     -3.6392066E-08
   43.92000     -3.6445655E-08
   43.98000     -3.6345984E-08
   44.04000     -3.6135333E-08
   44.10000     -3.5887293E-08
   44.16000     -3.5684568E-08
   44.22000     -3.5597104E-08
   44.28000     -3.5665817E-08
   44.34000     -3.5894328E-08
   44.40000     -3.6248672E-08
   44.46000     -3.6664112E-08
   44.52000     -3.7058211E-08
   44.58000     -3.7348876E-08
   44.64000     -3.7474681E-08
   44.70000     -3.7412438E-08
   44.76000     -3.7185782E-08
   44.82000     -3.6859909E-08
   44.88000     -3.6521751E-08
   44.94000     -3.6251159E-08
   45.00000     -3.6092981E-08
   45.06000     -3.6040994E-08
   45.12000     -3.6040287E-08
   45.18000     -3.6007592E-08
   45.24000     -3.5861650E-08
   45.30000     -3.5551839E-08
   45.36000     -3.5074475E-08
   45.42000     -3.4471512E-08
   45.48000     -3.3813372E-08
   45.54000     -3.3173283E-08
   45.60000     -3.2602529E-08
   45.66000     -3.2114549E-08
   45.72000     -3.1681953E-08
   45.78000     -3.1245971E-08
   45.84000     -3.0734530E-08
   45.90000     -3.0082958E-08
   45.96000     -2.9251193E-08
   46.02000     -2.8232432E-08
   46.08000     -2.7050390E-08
   46.14000     -2.5745450E-08
   46.20000     -2.4353250E-08
   46.26000     -2.2881808E-08
   46.32000     -2.1294033E-08
   46.38000     -1.9500895E-08
   46.44000     -1.7366991E-08
   46.50000     -1.4725859E-08
   46.56000     -1.1398875E-08
   46.62000     -7.2103599E-09
   46.68000     -1.9928710E-09
   46.74000      4.4197845E-09
   46.80000      1.2210170E-08
   46.86000      2.1600529E-08
   46.92000      3.2875565E-08
   46.98000      4.6399457E-08
   47.04000      6.2624828E-08
   47.10000      8.2095191E-08
   47.16000      1.0544566E-07
   47.22000      1.3340826E-07
   47.28000      1.6682701E-07
   47.34000      2.0668422E-07
   47.40000      2.5413513E-07
   47.46000      3.1054435E-07
   47.52000      3.7751718E-07
   47.58000      4.5692249E-07
   47.64000      5.5090993E-07
   47.70000      6.6192877E-07
   47.76000      7.9275856E-07
   47.82000      9.4655871E-07
   47.88000      1.1269364E-06
   47.94000      1.3380289E-06
   48.00000      1.5845890E-06
   48.06000      1.8720658E-06
   48.12000      2.2066768E-06
   48.18000      2.5954739E-06
   48.24000      3.0464078E-06
   48.30000      3.5683995E-06
   48.36000      4.1714275E-06
   48.42000      4.8666302E-06
   48.48000      5.6664289E-06
   48.54000      6.5846671E-06
   48.60000      7.6367496E-06
   48.66000      8.8397883E-06
   48.72000      1.0212728E-05
   48.78000      1.1776467E-05
   48.84000      1.3553963E-05
   48.90000      1.5570338E-05
   48.96000      1.7853001E-05
   49.02000      2.0431766E-05
   49.08000      2.3338998E-05
   49.14000      2.6609741E-05
   49.20000      3.0281848E-05
   49.26000      3.4396096E-05
   49.32000      3.8996270E-05
   49.38000      4.4129250E-05
   49.44000      4.9845032E-05
   49.50000      5.6196732E-05
   49.56000      6.3240543E-05
   49.62000      7.1035684E-05
   49.68000      7.9644269E-05
   49.74000      8.9131245E-05
   49.80000      9.9564211E-05
   49.86000      1.1101326E-04
   49.92000      1.2355078E-04
   49.98000      1.3725119E-04
   50.04000      1.5219055E-04
   50.10000      1.6844628E-04
   50.16000      1.8609666E-04
   50.22000      2.0522036E-04
   50.28000      2.2589591E-04
   50.34000      2.4820108E-04
   50.40000      2.7221217E-04
   50.46000      2.9800340E-04
   50.52000      3.2564619E-04
   50.58000      3.5520832E-04
   50.64000      3.8675329E-04
   50.70000      4.2033946E-04
   50.76000      4.5601922E-04
   50.82000      4.9383816E-04
   50.88000      5.3383422E-04
   50.94000      5.7603698E-04
   51.00000      6.2046654E-04
   51.06000      6.6713319E-04
   51.12000      7.1603636E-04
   51.18000      7.6716428E-04
   51.24000      8.2049321E-04
   51.30000      8.7598659E-04
   51.36000      9.3359529E-04
   51.42000      9.9325669E-04
   51.48000      1.0548946E-03
   51.54000      1.1184195E-03
   51.60000      1.1837280E-03
   51.66000      1.2507037E-03
   51.72000      1.3192176E-03
   51.78000      1.3891278E-03
   51.84000      1.4602803E-03
   51.90000      1.5325107E-03
   51.96000      1.6056447E-03
   52.02000      1.6794987E-03
   52.08000      1.7538812E-03
   52.14000      1.8285945E-03
   52.20000      1.9034359E-03
   52.26000      1.9781995E-03
   52.32000      2.0526776E-03
   52.38000      2.1266621E-03
   52.44000      2.1999474E-03
   52.50000      2.2723316E-03
   52.56000      2.3436183E-03
   52.62000      2.4136177E-03
   52.68000      2.4821504E-03
   52.74000      2.5490480E-03
   52.80000      2.6141538E-03
   52.86000      2.6773254E-03
   52.92000      2.7384367E-03
   52.98000      2.7973778E-03
   53.04000      2.8540571E-03
   53.10000      2.9084021E-03
   53.16000      2.9603594E-03
   53.22000      3.0098963E-03
   53.28000      3.0570002E-03
   53.34000      3.1016786E-03
   53.40000      3.1439585E-03
   53.46000      3.1838878E-03
   53.52000      3.2215326E-03
   53.58000      3.2569775E-03
   53.64000      3.2903242E-03
   53.70000      3.3216900E-03
   53.76000      3.3512050E-03
   53.82000      3.3790118E-03
   53.88000      3.4052632E-03
   53.94000      3.4301202E-03
   54.00000      3.4537495E-03
   54.06000      3.4763226E-03
   54.12000      3.4980127E-03
   54.18000      3.5189909E-03
   54.24000      3.5394253E-03
   54.30000      3.5594772E-03
   54.36000      3.5793015E-03
   54.42000      3.5990432E-03
   54.48000      3.6188359E-03
   54.54000      3.6388000E-03
   54.60000      3.6590404E-03
   54.66000      3.6796450E-03
   54.72000      3.7006845E-03
   54.78000      3.7222102E-03
   54.84000      3.7442546E-03
   54.90000      3.7668303E-03
   54.96000      3.7899304E-03
   55.02000      3.8135282E-03
   55.08000      3.8375768E-03
   55.14000      3.8620110E-03
   55.20000      3.8867467E-03
   55.26000      3.9116833E-03
   55.32000      3.9367047E-03
   55.38000      3.9616805E-03
   55.44000      3.9864690E-03
   55.50000      4.0109176E-03
   55.56000      4.0348652E-03