  -2.400000      0.0000000E+00
  -2.340000      0.0000000E+00
  -2.280000      0.0000000E+00
  -2.220000      0.0000000E+00
  -2.160000      0.0000000E+00
  -2.100000      0.0000000E+00
  -2.040000      0.0000000E+00
  -1.980000      0.0000000E+00
  -1.920000      0.0000000E+00
  -1.860000      0.0000000E+00
  -1.800000      0.0000000E+00
  -1.740000      0.0000000E+00
  -1.680000      0.0000000E+00
  -1.620000      1.1847106E-34
  -1.560000      1.9837316E-33
  -1.500000      1.6076485E-32
  -1.440000      8.1370699E-32
  -1.380000      2.6773739E-31
  -1.320000      4.5926677E-31
  -1.260000     -6.6471295E-31
  -1.200000     -8.1233378E-30
  -1.140000     -3.2787714E-29
  -1.080000     -8.1914591E-29
  -1.020000     -1.1012207E-28
 -0.9600000      9.6463072E-29
 -0.9000000      1.0374564E-27
 -0.8400000      3.2729138E-27
 -0.7800000      6.1347983E-27
 -0.7200000      4.8331586E-27
 -0.6600000     -1.2484757E-26
 -0.6000000     -6.1203280E-26
 -0.5400000     -1.3868710E-25
 -0.4800000     -1.7838419E-25
 -0.4200000     -4.1627662E-27
 -0.3600000      6.3135107E-25
 -0.3000000      1.7964445E-24
 -0.2400000      2.8688858E-24
 -0.1800000      2.0341668E-24
 -0.1200000     -3.4212574E-24
 -5.9999999E-02 -1.4959968E-23
  0.0000000E+00 -2.8510623E-23
  5.9999999E-02 -3.0269606E-23
  0.1200000      1.7229850E-24
  0.1800000      8.3259352E-23
  0.2400000      1.9569572E-22
  0.3000000      2.5797279E-22
  0.3600000      1.3221733E-22
  0.4200000     -2.9930630E-22
  0.4800000     -9.8169385E-22
  0.5400000     -1.5340036E-21
  0.6000000     -1.2578436E-21
  0.6600000      5.1800000E-22
  0.7200000      3.7440117E-21
  0.7800000      6.9381955E-21
  0.8400000      7.1414889E-21
  0.9000000      1.2415442E-21
  0.9600000     -1.1294052E-20
   1.020000     -2.5542911E-20
   1.080000     -3.0650056E-20
   1.140000     -1.4277121E-20
   1.200000      2.7847268E-20
   1.260000      8.1547407E-20
   1.320000      1.1141589E-19
   1.380000      7.3967169E-20
   1.440000     -5.2348868E-20
   1.500000     -2.3300556E-19
   1.560000     -3.6445567E-19
   1.620000     -3.0785708E-19
   1.680000      2.5833064E-20
   1.740000      5.7294096E-19
   1.800000      1.0656190E-18
   1.860000      1.1041363E-18
   1.920000      3.7340574E-19
   1.980000     -1.0739446E-18
   2.040000     -2.6407516E-18
   2.100000     -3.3051519E-18
   2.160000     -2.1122940E-18
   2.220000      1.1188714E-18
   2.280000      5.2678538E-18
   2.340000      8.0294339E-18
   2.400000      6.9122599E-18
   2.460000      8.4842184E-19
   2.520000     -8.4143674E-18
   2.580000     -1.6201618E-17
   2.640000     -1.6746445E-17
   2.700000     -6.5942313E-18
   2.760000      1.2041618E-17
   2.820000      3.0274301E-17
   2.880000      3.5603230E-17
   2.940000      1.8754353E-17
   3.000000     -1.8643680E-17
   3.060000     -6.0312485E-17
   3.120000     -7.9693975E-17
   3.180000     -5.3046881E-17
   3.240000      2.3580183E-17
   3.300000      1.2289982E-16
   3.360000      1.9020149E-16
   3.420000      1.6640901E-16
   3.480000      2.3757850E-17
   3.540000     -2.0315363E-16
   3.600000     -4.1217957E-16
   3.660000     -4.6790164E-16
   3.720000     -2.7002071E-16
   3.780000      1.7227000E-16
   3.840000      7.0224315E-16
   3.900000      1.0501511E-15
   3.960000      9.4667070E-16
   4.020000      2.7759546E-16
   4.080000     -7.9500760E-16
   4.140000     -1.8260785E-15
   4.200000     -2.2377372E-15
   4.260000     -1.5937578E-15
   4.320000      1.1445018E-16
   4.380000      2.3247732E-15
   4.440000      4.0269793E-15
   4.500000      4.1650486E-15
   4.560000      2.1855263E-15
   4.620000     -1.5192228E-15
   4.680000     -5.5393181E-15
   4.740000     -7.8911410E-15
   4.800000     -6.8881554E-15
   4.860000     -2.1014197E-15
   4.920000      5.0671319E-15
   4.980000      1.1603963E-14
   5.040000      1.3999209E-14
   5.100000      9.9237448E-15
   5.160000     -2.4954435E-16
   5.220000     -1.2913132E-14
   5.280000     -2.2226619E-14
   5.340000     -2.2546687E-14
   5.400000     -1.1401816E-14
   5.460000      8.3987958E-15
   5.520000      2.8858870E-14
   5.580000      3.9622856E-14
   5.640000      3.2760334E-14
   5.700000      7.4843763E-15
   5.760000     -2.7706189E-14
   5.820000     -5.7229930E-14
   5.880000     -6.4853274E-14
   5.940000     -4.1936059E-14
   6.000000      6.4616891E-15
   6.060000      6.1322278E-14
   6.120000      9.6656359E-14
   6.180000      9.1537495E-14
   6.240000      4.1822401E-14
   6.300000     -3.4721056E-14
   6.360000     -1.0384880E-13
   6.420000     -1.2990051E-13
   6.480000     -9.4214567E-14
   6.540000     -7.6982522E-15
   6.600000      9.0152034E-14
   6.660000      1.4760151E-13
   6.720000      1.2636258E-13
   6.780000      2.4620658E-14
   6.840000     -1.1519448E-13
   6.900000     -2.2058997E-13
   6.960000     -2.2155501E-13
   7.020000     -8.7884750E-14
   7.080000      1.4685453E-13
   7.140000      3.8893536E-13
   7.200000      5.1834177E-13
   7.260000      4.4122041E-13
   7.320000      1.3870619E-13
   7.380000     -3.1122538E-13
   7.440000     -7.5243685E-13
   7.500000     -1.0062114E-12
   7.560000     -9.4291263E-13
   7.620000     -5.3972110E-13
   7.680000      1.0173801E-13
   7.740000      7.8798914E-13
   7.800000      1.3048239E-12
   7.860000      1.4974076E-12
   7.920000      1.3245813E-12
   7.980000      8.6321835E-13
   8.040000      2.6113118E-13
   8.100000     -3.3827731E-13
   8.160000     -8.6140470E-13
   8.220000     -1.3244335E-12
   8.280000     -1.7933000E-12
   8.340000     -2.2996041E-12
   8.400000     -2.7548202E-12
   8.460000     -2.9140681E-12
   8.520000     -2.4255576E-12
   8.580000     -9.6660115E-13
   8.640000      1.5746178E-12
   8.700000      4.9425377E-12
   8.760000      8.4580355E-12
   8.820000      1.1110664E-11
   8.880000      1.1797228E-11
   8.940000      9.6492233E-12
   9.000000      4.3521124E-12
   9.060000     -3.6480545E-12
   9.120000     -1.3126224E-11
   9.180000     -2.2267415E-11
   9.240000     -2.9018746E-11
   9.300000     -3.1511436E-11
   9.360000     -2.8443940E-11
   9.420000     -1.9339697E-11
   9.480000     -4.6430468E-12
   9.540000      1.4325829E-11
   9.600000      3.5497282E-11
   9.660000      5.6197508E-11
   9.720000      7.3286224E-11
   9.780000      8.3317409E-11
   9.840000      8.2801543E-11
   9.900000      6.8653250E-11
   9.960000      3.8854177E-11
   10.02000     -6.7428979E-12
   10.08000     -6.5657715E-11
   10.14000     -1.3233384E-10
   10.20000     -1.9823686E-10
   10.26000     -2.5261199E-10
   10.32000     -2.8381261E-10
   10.38000     -2.8090935E-10
   10.44000     -2.3517147E-10
   10.50000     -1.4104086E-10
   10.56000      3.6059630E-12
   10.62000      1.9785290E-10
   10.68000      4.3850745E-10
   10.74000      7.2083933E-10
   10.80000      1.0389805E-09
   10.86000      1.3858987E-09
   10.92000      1.7531248E-09
   10.98000      2.1305744E-09
   11.04000      2.5067832E-09
   11.10000      2.8696421E-09
   11.16000      3.2074055E-09
   11.22000      3.5094978E-09
   11.28000      3.7666248E-09
   11.34000      3.9699573E-09
   11.40000      4.1095944E-09
   11.46000      4.1729704E-09
   11.52000      4.1440811E-09
   11.58000      4.0042738E-09
   11.64000      3.7348582E-09
   11.70000      3.3211165E-09
   11.76000      2.7567024E-09
   11.82000      2.0471307E-09
   11.88000      1.2112099E-09
   11.94000      2.7980013E-10
   12.00000     -7.0800715E-10
   12.06000     -1.7105273E-09
   12.12000     -2.6897877E-09
   12.18000     -3.6173176E-09
   12.24000     -4.4785047E-09
   12.30000     -5.2750440E-09
   12.36000     -6.0253842E-09
   12.42000     -6.7633104E-09
   12.48000     -7.5348350E-09
   12.54000     -8.3934477E-09
   12.60000     -9.3936974E-09
   12.66000     -1.0583209E-08
   12.72000     -1.1993605E-08
   12.78000     -1.3631430E-08
   12.84000     -1.5470722E-08
   12.90000     -1.7449276E-08
   12.96000     -1.9470335E-08
   13.02000     -2.1410683E-08
   13.08000     -2.3134664E-08
   13.14000     -2.4512252E-08
   13.20000     -2.5438039E-08
   13.26000     -2.5847553E-08
   13.32000     -2.5727783E-08
   13.38000     -2.5119935E-08
   13.44000     -2.4114115E-08
   13.50000     -2.2837149E-08
   13.56000     -2.1435961E-08
   13.62000     -2.0059238E-08
   13.68000     -1.8840003E-08
   13.74000     -1.7881039E-08
   13.80000     -1.7244485E-08
   13.86000     -1.6946350E-08
   13.92000     -1.6956360E-08
   13.98000     -1.7203369E-08
   14.04000     -1.7586144E-08
   14.10000     -1.7988723E-08
   14.16000     -1.8298628E-08
   14.22000     -1.8425160E-08
   14.28000     -1.8314433E-08
   14.34000     -1.7957900E-08
   14.40000     -1.7392225E-08
   14.46000     -1.6690205E-08
   14.52000     -1.5944742E-08
   14.58000     -1.5249634E-08
   14.64000     -1.4681763E-08
   14.70000     -1.4288674E-08
   14.76000     -1.4083837E-08
   14.82000     -1.4049486E-08
   14.88000     -1.4144845E-08
   14.94000     -1.4316376E-08
   15.00000     -1.4506726E-08
   15.06000     -1.4660358E-08
   15.12000     -1.4725532E-08
   15.18000     -1.4654018E-08
   15.24000     -1.4400674E-08
   15.30000     -1.3924885E-08
   15.36000     -1.3194586E-08
   15.42000     -1.2192150E-08
   15.48000     -1.0920038E-08
   15.54000     -9.4036521E-09
   15.60000     -7.6895219E-09
   15.66000     -5.8384151E-09
   15.72000     -3.9148862E-09
   15.78000     -1.9761897E-09
   15.84000     -6.3867439E-11
   15.90000      1.7995583E-09
   15.96000      3.6081826E-09
   16.02000      5.3660556E-09
   16.08000      7.0791422E-09
   16.14000      8.7490051E-09
   16.20000      1.0370313E-08
   16.26000      1.1932470E-08
   16.32000      1.3424000E-08
   16.38000      1.4837273E-08
   16.44000      1.6171462E-08
   16.50000      1.7432582E-08
   16.56000      1.8631006E-08
   16.62000      1.9777783E-08
   16.68000      2.0881425E-08
   16.74000      2.1946153E-08
   16.80000      2.2971662E-08
   16.86000      2.3953485E-08
   16.92000      2.4882970E-08
   16.98000      2.5746267E-08
   17.04000      2.6522939E-08
   17.10000      2.7185658E-08
   17.16000      2.7702805E-08
   17.22000      2.8044900E-08
   17.28000      2.8194185E-08
   17.34000      2.8154668E-08
   17.40000      2.7958691E-08
   17.46000      2.7666278E-08
   17.52000      2.7355430E-08
   17.58000      2.7104832E-08
   17.64000      2.6973519E-08
   17.70000      2.6984056E-08
   17.76000      2.7115314E-08
   17.82000      2.7307918E-08
   17.88000      2.7481130E-08
   17.94000      2.7555718E-08
   18.00000      2.7475000E-08
   18.06000      2.7217071E-08
   18.12000      2.6794545E-08
   18.18000      2.6243050E-08
   18.24000      2.5603882E-08
   18.30000      2.4908235E-08
   18.36000      2.4169177E-08
   18.42000      2.3383903E-08
   18.48000      2.2544116E-08
   18.54000      2.1648804E-08
   18.60000      2.0712625E-08
   18.66000      1.9765112E-08
   18.72000      1.8839998E-08
   18.78000      1.7958405E-08
   18.84000      1.7112743E-08
   18.90000      1.6258387E-08
   18.96000      1.5317619E-08
   19.02000      1.4196035E-08
   19.08000      1.2806984E-08
   19.14000      1.1096754E-08
   19.20000      9.0627603E-09
   19.26000      6.7591999E-09
   19.32000      4.2884500E-09
   19.38000      1.7806769E-09
   19.44000     -6.3276484E-10
   19.50000     -2.8452238E-09
   19.56000     -4.7936868E-09
   19.62000     -6.4667711E-09
   19.68000     -7.9008418E-09
   19.74000     -9.1663104E-09
   19.80000     -1.0348372E-08
   19.86000     -1.1527329E-08
   19.92000     -1.2763159E-08
   19.98000     -1.4087312E-08
   20.04000     -1.5502444E-08
   20.10000     -1.6988595E-08
   20.16000     -1.8512857E-08
   20.22000     -2.0039224E-08
   20.28000     -2.1536001E-08
   20.34000     -2.2979439E-08
   20.40000     -2.4353717E-08
   20.46000     -2.5648401E-08
   20.52000     -2.6854950E-08
   20.58000     -2.7963686E-08
   20.64000     -2.8962244E-08
   20.70000     -2.9835874E-08
   20.76000     -3.0569598E-08
   20.82000     -3.1151590E-08
   20.88000     -3.1576842E-08
   20.94000     -3.1850050E-08
   21.00000     -3.1986609E-08
   21.06000     -3.2011229E-08
   21.12000     -3.1954379E-08
   21.18000     -3.1847527E-08
   21.24000     -3.1718603E-08
   21.30000     -3.1589057E-08
   21.36000     -3.1473199E-08
   21.42000     -3.1379610E-08
   21.48000     -3.1313661E-08
   21.54000     -3.1279900E-08
   21.60000     -3.1283186E-08
   21.66000     -3.1328138E-08
   21.72000     -3.1417208E-08
   21.78000     -3.1548176E-08
   21.84000     -3.1712069E-08
   21.90000     -3.1892416E-08
   21.96000     -3.2066207E-08
   22.02000     -3.2206469E-08
   22.08000     -3.2285762E-08
   22.14000     -3.2279910E-08
   22.20000     -3.2171140E-08
   22.26000     -3.1950290E-08
   22.32000     -3.1618203E-08
   22.38000     -3.1186399E-08
   22.44000     -3.0677263E-08
   22.50000     -3.0123253E-08
   22.56000     -2.9564694E-08
   22.62000     -2.9045516E-08
   22.68000     -2.8607198E-08
   22.74000     -2.8282088E-08
   22.80000     -2.8088067E-08
   22.86000     -2.8026497E-08
   22.92000     -2.8084449E-08
   22.98000     -2.8240494E-08
   23.04000     -2.8472000E-08
   23.10000     -2.8761203E-08
   23.16000     -2.9098089E-08
   23.22000     -2.9479438E-08
   23.28000     -2.9905024E-08
   23.34000     -3.0372810E-08
   23.40000     -3.0874808E-08
   23.46000     -3.1394592E-08
   23.52000     -3.1906584E-08
   23.58000     -3.2376924E-08
   23.64000     -3.2765822E-08
   23.70000     -3.3031593E-08
   23.76000     -3.3136370E-08
   23.82000     -3.3052917E-08
   23.88000     -3.2771005E-08
   23.94000     -3.2301461E-08
   24.00000     -3.1676034E-08
   24.06000     -3.0942680E-08
   24.12000     -3.0157175E-08
   24.18000     -2.9373323E-08
   24.24000     -2.8634343E-08
   24.30000     -2.7967458E-08
   24.36000     -2.7382658E-08
   24.42000     -2.6875290E-08
   24.48000     -2.6431309E-08
   24.54000     -2.6033533E-08
   24.60000     -2.5667214E-08
   24.66000     -2.5323549E-08
   24.72000     -2.5000361E-08
   24.78000     -2.4700014E-08
   24.84000     -2.4425617E-08
   24.90000     -2.4177156E-08
   24.96000     -2.3949360E-08
   25.02000     -2.3732277E-08
   25.08000     -2.3514344E-08
   25.14000     -2.3286432E-08
   25.20000     -2.3044803E-08
   25.26000     -2.2791196E-08
   25.32000     -2.2529649E-08
   25.38000     -2.2260993E-08
   25.44000     -2.1977302E-08
   25.50000     -2.1658733E-08
   25.56000     -2.1274625E-08
   25.62000     -2.0789319E-08
   25.68000     -2.0171614E-08
   25.74000     -1.9405370E-08
   25.80000     -1.8498081E-08
   25.86000     -1.7484385E-08
   25.92000     -1.6422700E-08
   25.98000     -1.5385087E-08
   26.04000     -1.4442807E-08
   26.10000     -1.3651695E-08
   26.16000     -1.3041979E-08
   26.22000     -1.2615947E-08
   26.28000     -1.2354271E-08
   26.34000     -1.2228821E-08
   26.40000     -1.2217476E-08
   26.46000     -1.2315910E-08
   26.52000     -1.2542506E-08
   26.58000     -1.2935131E-08
   26.64000     -1.3541280E-08
   26.70000     -1.4405124E-08
   26.76000     -1.5555694E-08
   26.82000     -1.6999598E-08
   26.88000     -1.8720016E-08
   26.94000     -2.0681485E-08
   27.00000     -2.2838311E-08
   27.06000     -2.5143413E-08
   27.12000     -2.7554638E-08
   27.18000     -3.0036738E-08
   27.24000     -3.2558958E-08
   27.30000     -3.5089961E-08
   27.36000     -3.7592596E-08
   27.42000     -4.0021092E-08
   27.48000     -4.2321965E-08
   27.54000     -4.4438465E-08
   27.60000     -4.6317254E-08
   27.66000     -4.7915243E-08
   27.72000     -4.9204868E-08
   27.78000     -5.0176631E-08
   27.84000     -5.0838459E-08
   27.90000     -5.1212020E-08
   27.96000     -5.1326758E-08
   28.02000     -5.1212904E-08
   28.08000     -5.0895338E-08
   28.14000     -5.0390028E-08
   28.20000     -4.9704333E-08
   28.26000     -4.8840850E-08
   28.32000     -4.7803141E-08
   28.38000     -4.6600537E-08
   28.44000     -4.5249894E-08
   28.50000     -4.3773468E-08
   28.56000     -4.2194355E-08
   28.62000     -4.0532115E-08
   28.68000     -3.8800962E-08
   28.74000     -3.7011340E-08
   28.80000     -3.5173514E-08
   28.86000     -3.3300509E-08
   28.92000     -3.1408064E-08
   28.98000     -2.9511057E-08
   29.04000     -2.7618025E-08
   29.10000     -2.5726912E-08
   29.16000     -2.3824629E-08
   29.22000     -2.1891429E-08
   29.28000     -1.9908541E-08
   29.34000     -1.7866064E-08
   29.40000     -1.5767801E-08
   29.46000     -1.3631091E-08
   29.52000     -1.1481811E-08
   29.58000     -9.3466053E-09
   29.64000     -7.2454407E-09
   29.70000     -5.1874487E-09
   29.76000     -3.1718734E-09
   29.82000     -1.1941942E-09
   29.88000      7.4427298E-10
   29.94000      2.6263360E-09
   30.00000      4.4119886E-09
   30.06000      6.0375478E-09
   30.12000      7.4222659E-09
   30.18000      8.4816456E-09
   30.24000      9.1445633E-09
   30.30000      9.3698382E-09
   30.36000      9.1576613E-09
   30.42000      8.5522140E-09
   30.48000      7.6338491E-09
   30.54000      6.5018142E-09
   30.60000      5.2512297E-09
   30.66000      3.9502064E-09
   30.72000      2.6239078E-09
   30.78000      1.2513477E-09
   30.84000     -2.2248441E-10
   30.90000     -1.8614283E-09
   30.96000     -3.7071246E-09
   31.02000     -5.7525020E-09
   31.08000     -7.9297013E-09
   31.14000     -1.0117987E-08
   31.20000     -1.2170272E-08
   31.26000     -1.3950060E-08
   31.32000     -1.5366691E-08
   31.38000     -1.6397420E-08
   31.44000     -1.7089709E-08
   31.50000     -1.7543996E-08
   31.56000     -1.7883520E-08
   31.62000     -1.8221240E-08
   31.68000     -1.8633685E-08
   31.74000     -1.9148578E-08
   31.80000     -1.9748326E-08
   31.86000     -2.0386938E-08
   31.92000     -2.1014266E-08
   31.98000     -2.1599622E-08
   32.04000     -2.2147216E-08
   32.10000     -2.2698369E-08
   32.16000     -2.3319831E-08
   32.22000     -2.4082281E-08
   32.28000     -2.5036710E-08
   32.34000     -2.6197135E-08
   32.40000     -2.7535517E-08
   32.46000     -2.8990044E-08
   32.52000     -3.0482948E-08
   32.58000     -3.1941099E-08
   32.64000     -3.3312691E-08
   32.70000     -3.4576097E-08
   32.76000     -3.5740129E-08
   32.82000     -3.6837683E-08
   32.88000     -3.7915289E-08
   32.94000     -3.9020822E-08
   33.00000     -4.0191146E-08
   33.06000     -4.1441698E-08
   33.12000     -4.2760554E-08
   33.18000     -4.4109591E-08
   33.24000     -4.5433715E-08
   33.30000     -4.6676210E-08
   33.36000     -4.7795332E-08
   33.42000     -4.8775924E-08
   33.48000     -4.9631318E-08
   33.54000     -5.0394735E-08
   33.60000     -5.1103715E-08
   33.66000     -5.1783989E-08
   33.72000     -5.2439116E-08
   33.78000     -5.3049281E-08
   33.84000     -5.3578795E-08
   33.90000     -5.3988540E-08
   33.96000     -5.4248261E-08
   34.02000     -5.4344650E-08
   34.08000     -5.4283316E-08
   34.14000     -5.4085202E-08
   34.20000     -5.3779683E-08
   34.26000     -5.3397443E-08
   34.32000     -5.2965770E-08
   34.38000     -5.2507819E-08
   34.44000     -5.2045749E-08
   34.50000     -5.1605742E-08
   34.56000     -5.1221875E-08
   34.62000     -5.0935864E-08
   34.68000     -5.0791019E-08
   34.74000     -5.0821541E-08
   34.80000     -5.1040555E-08
   34.86000     -5.1431776E-08
   34.92000     -5.1948657E-08
   34.98000     -5.2522338E-08
   35.04000     -5.3076317E-08
   35.10000     -5.3543161E-08
   35.16000     -5.3877962E-08
   35.22000     -5.4064660E-08
   35.28000     -5.4114050E-08
   35.34000     -5.4055167E-08
   35.40000     -5.3923440E-08
   35.46000     -5.3749343E-08
   35.52000     -5.3550394E-08
   35.58000     -5.3327788E-08
   35.64000     -5.3067833E-08
   35.70000     -5.2747236E-08
   35.76000     -5.2340845E-08
   35.82000     -5.1830256E-08
   35.88000     -5.1211572E-08
   35.94000     -5.0500564E-08
   36.00000     -4.9734048E-08
   36.06000     -4.8966804E-08
   36.12000     -4.8264255E-08
   36.18000     -4.7692115E-08
   36.24000     -4.7304951E-08
   36.30000     -4.7136012E-08
   36.36000     -4.7190849E-08
   36.42000     -4.7446349E-08
   36.48000     -4.7856123E-08
   36.54000     -4.8361287E-08
   36.60000     -4.8904273E-08
   36.66000     -4.9442182E-08
   36.72000     -4.9955677E-08
   36.78000     -5.0450630E-08
   36.84000     -5.0951517E-08
   36.90000     -5.1488271E-08
   36.96000     -5.2080605E-08
   37.02000     -5.2724946E-08
   37.08000     -5.3388710E-08
   37.14000     -5.4014528E-08
   37.20000     -5.4533828E-08
   37.26000     -5.4885916E-08
   37.32000     -5.5036562E-08
   37.38000     -5.4989858E-08
   37.44000     -5.4789147E-08
   37.50000     -5.4506415E-08
   37.56000     -5.4223349E-08
   37.62000     -5.4010261E-08
   37.68000     -5.3909442E-08
   37.74000     -5.3927931E-08
   37.80000     -5.4041127E-08
   37.86000     -5.4205117E-08
   37.92000     -5.4372986E-08
   37.98000     -5.4509783E-08
   38.04000     -5.4601806E-08
   38.10000     -5.4658194E-08
   38.16000     -5.4704980E-08
   38.22000     -5.4773945E-08
   38.28000     -5.4889583E-08
   38.34000     -5.5057800E-08
   38.40000     -5.5259619E-08
   38.46000     -5.5451650E-08
   38.52000     -5.5573469E-08
   38.58000     -5.5559934E-08
   38.64000     -5.5355279E-08
   38.70000     -5.4925270E-08
   38.76000     -5.4264696E-08
   38.82000     -5.3398793E-08
   38.88000     -5.2378809E-08
   38.94000     -5.1272956E-08
   39.00000     -5.0154380E-08
   39.06000     -4.9088069E-08
   39.12000     -4.8118803E-08
   39.18000     -4.7262841E-08
   39.24000     -4.6505754E-08
   39.30000     -4.5808235E-08
   39.36000     -4.5119386E-08
   39.42000     -4.4394216E-08
   39.48000     -4.3610125E-08
   39.54000     -4.2776517E-08
   39.60000     -4.1933973E-08
   39.66000     -4.1142876E-08
   39.72000     -4.0465508E-08
   39.78000     -3.9948031E-08
   39.84000     -3.9608665E-08
   39.90000     -3.9435932E-08
   39.96000     -3.9396898E-08
   40.02000     -3.9451709E-08
   40.08000     -3.9568633E-08
   40.14000     -3.9733933E-08
   40.20000     -3.9953093E-08
   40.26000     -4.0243279E-08
   40.32000     -4.0620268E-08
   40.38000     -4.1085372E-08
   40.44000     -4.1618165E-08
   40.50000     -4.2178801E-08
   40.56000     -4.2719908E-08
   40.62000     -4.3204164E-08
   40.68000     -4.3620496E-08
   40.74000     -4.3991815E-08
   40.80000     -4.4369870E-08
   40.86000     -4.4817860E-08
   40.92000     -4.5386557E-08
   40.98000     -4.6092890E-08
   41.04000     -4.6909410E-08
   41.10000     -4.7769376E-08
   41.16000     -4.8586209E-08
   41.22000     -4.9280661E-08
   41.28000     -4.9806239E-08
   41.34000     -5.0163973E-08
   41.40000     -5.0401805E-08
   41.46000     -5.0599198E-08
   41.52000     -5.0842779E-08
   41.58000     -5.1201550E-08
   41.64000     -5.1709847E-08
   41.70000     -5.2363109E-08
   41.76000     -5.3126531E-08
   41.82000     -5.3952316E-08
   41.88000     -5.4798331E-08
   41.94000     -5.5641259E-08
   42.00000     -5.6480140E-08
   42.06000     -5.7330446E-08
   42.12000     -5.8212507E-08
   42.18000     -5.9139676E-08
   42.24000     -6.0110956E-08
   42.30000     -6.1109986E-08
   42.36000     -6.2109443E-08
   42.42000     -6.3078261E-08
   42.48000     -6.3988750E-08
   42.54000     -6.4822018E-08
   42.60000     -6.5571086E-08
   42.66000     -6.6241739E-08
   42.72000     -6.6850923E-08
   42.78000     -6.7422462E-08
   42.84000     -6.7980288E-08
   42.90000     -6.8540281E-08
   42.96000     -6.9103351E-08
   43.02000     -6.9652302E-08
   43.08000     -7.0154243E-08
   43.14000     -7.0568198E-08
   43.20000     -7.0855826E-08
   43.26000     -7.0991909E-08
   43.32000     -7.0971538E-08
   43.38000     -7.0812021E-08
   43.44000     -7.0548907E-08
   43.50000     -7.0226854E-08
   43.56000     -6.9887477E-08
   43.62000     -6.9557217E-08
   43.68000     -6.9239142E-08
   43.74000     -6.8911909E-08
   43.80000     -6.8537332E-08
   43.86000     -6.8074748E-08
   43.92000     -6.7497119E-08
   43.98000     -6.6802571E-08
   44.04000     -6.6016256E-08
   44.10000     -6.5181794E-08
   44.16000     -6.4345663E-08
   44.22000     -6.3541307E-08
   44.28000     -6.2779407E-08
   44.34000     -6.2047732E-08
   44.40000     -6.1319611E-08
   44.46000     -6.0566791E-08
   44.52000     -5.9771352E-08
   44.58000     -5.8932631E-08
   44.64000     -5.8067812E-08
   44.70000     -5.7207000E-08
   44.76000     -5.6385034E-08
   44.82000     -5.5632558E-08
   44.88000     -5.4968613E-08
   44.94000     -5.4396452E-08
   45.00000     -5.3903616E-08
   45.06000     -5.3466174E-08
   45.12000     -5.3055697E-08
   45.18000     -5.2646506E-08
   45.24000     -5.2220706E-08
   45.30000     -5.1769639E-08
   45.36000     -5.1292208E-08
   45.42000     -5.0792082E-08
   45.48000     -5.0275958E-08
   45.54000     -4.9753851E-08
   45.60000     -4.9240619E-08
   45.66000     -4.8756728E-08
   45.72000     -4.8326630E-08
   45.78000     -4.7974648E-08
   45.84000     -4.7720079E-08
   45.90000     -4.7573931E-08
   45.96000     -4.7538844E-08
   46.02000     -4.7612104E-08
   46.08000     -4.7789936E-08
   46.14000     -4.8071207E-08
   46.20000     -4.8459501E-08
   46.26000     -4.8963912E-08
   46.32000     -4.9599432E-08
   46.38000     -5.0387300E-08
   46.44000     -5.1354533E-08
   46.50000     -5.2531675E-08
   46.56000     -5.3948767E-08
   46.62000     -5.5631517E-08
   46.68000     -5.7600911E-08
   46.74000     -5.9878595E-08
   46.80000     -6.2497612E-08
   46.86000     -6.5514435E-08
   46.92000     -6.9017005E-08
   46.98000     -7.3124717E-08
   47.04000     -7.7980502E-08
   47.10000     -8.3739543E-08
   47.16000     -9.0561016E-08
   47.22000     -9.8607828E-08
   47.28000     -1.0805584E-07
   47.34000     -1.1911030E-07
   47.40000     -1.3202578E-07
   47.46000     -1.4712573E-07
   47.52000     -1.6481967E-07
   47.58000     -1.8561583E-07
   47.64000     -2.1012825E-07
   47.70000     -2.3907677E-07
   47.76000     -2.7328133E-07
   47.82000     -3.1365434E-07
   47.88000     -3.6119872E-07
   47.94000     -4.1701702E-07
   48.00000     -4.8233517E-07
   48.06000     -5.5853752E-07
   48.12000     -6.4720643E-07
   48.18000     -7.5015839E-07
   48.24000     -8.6947330E-07
   48.30000     -1.0075157E-06
   48.36000     -1.1669525E-06
   48.42000     -1.3507685E-06
   48.48000     -1.5622826E-06
   48.54000     -1.8051676E-06
   48.60000     -2.0834755E-06
   48.66000     -2.4016729E-06
   48.72000     -2.7646902E-06
   48.78000     -3.1779771E-06
   48.84000     -3.6475594E-06
   48.90000     -4.1800822E-06
   48.96000     -4.7828362E-06
   49.02000     -5.4637717E-06
   49.08000     -6.2315089E-06
   49.14000     -7.0953520E-06
   49.20000     -8.0653135E-06
   49.26000     -9.1521515E-06
   49.32000     -1.0367400E-05
   49.38000     -1.1723392E-05
   49.44000     -1.3233264E-05
   49.50000     -1.4910961E-05
   49.56000     -1.6771230E-05
   49.62000     -1.8829613E-05
   49.68000     -2.1102429E-05
   49.74000     -2.3606748E-05
   49.80000     -2.6360347E-05
   49.86000     -2.9381661E-05
   49.92000     -3.2689728E-05
   49.98000     -3.6304125E-05
   50.04000     -4.0244882E-05
   50.10000     -4.4532368E-05
   50.16000     -4.9187161E-05
   50.22000     -5.4229931E-05
   50.28000     -5.9681250E-05
   50.34000     -6.5561442E-05
   50.40000     -7.1890419E-05
   50.46000     -7.8687488E-05
   50.52000     -8.5971187E-05
   50.58000     -9.3759088E-05
   50.64000     -1.0206756E-04
   50.70000     -1.1091169E-04
   50.76000     -1.2030496E-04
   50.82000     -1.3025905E-04
   50.88000     -1.4078362E-04
   50.94000     -1.5188599E-04
   51.00000     -1.6357095E-04
   51.06000     -1.7584056E-04
   51.12000     -1.8869393E-04
   51.18000     -2.0212711E-04
   51.24000     -2.1613298E-04
   51.30000     -2.3070104E-04
   51.36000     -2.4581733E-04
   51.42000     -2.6146427E-04
   51.48000     -2.7762062E-04
   51.54000     -2.9426152E-04
   51.60000     -3.1135845E-04
   51.66000     -3.2887934E-04
   51.72000     -3.4678867E-04
   51.78000     -3.6504740E-04
   51.84000     -3.8361331E-04
   51.90000     -4.0244099E-04
   51.96000     -4.2148231E-04
   52.02000     -4.4068650E-04
   52.08000     -4.6000080E-04
   52.14000     -4.7937044E-04
   52.20000     -4.9873930E-04
   52.26000     -5.1805010E-04
   52.32000     -5.3724524E-04
   52.38000     -5.5626669E-04
   52.44000     -5.7505711E-04
   52.50000     -5.9355999E-04
   52.56000     -6.1172032E-04
   52.62000     -6.2948471E-04
   52.68000     -6.4680236E-04
   52.74000     -6.6362548E-04
   52.80000     -6.7990954E-04
   52.86000     -6.9561368E-04
   52.92000     -7.1070134E-04
   52.98000     -7.2514045E-04
   53.04000     -7.3890371E-04
   53.10000     -7.5196929E-04
   53.16000     -7.6432066E-04
   53.22000     -7.7594700E-04
   53.28000     -7.8684324E-04
   53.34000     -7.9700997E-04
   53.40000     -8.0645358E-04
   53.46000     -8.1518583E-04
   53.52000     -8.2322408E-04
   53.58000     -8.3059107E-04
   53.64000     -8.3731447E-04
   53.70000     -8.4342685E-04
   53.76000     -8.4896496E-04
   53.82000     -8.5396937E-04
   53.88000     -8.5848378E-04
   53.94000     -8.6255488E-04
   54.00000     -8.6623157E-04
   54.06000     -8.6956419E-04
   54.12000     -8.7260432E-04
   54.18000     -8.7540370E-04
   54.24000     -8.7801414E-04
   54.30000     -8.8048598E-04
   54.36000     -8.8286819E-04
   54.42000     -8.8520750E-04
   54.48000     -8.8754809E-04
   54.54000     -8.8993111E-04
   54.60000     -8.9239393E-04
   54.66000     -8.9496962E-04
   54.72000     -8.9768681E-04
   54.78000     -9.0056908E-04
   54.84000     -9.0363482E-04
   54.90000     -9.0689724E-04
   54.96000     -9.1036386E-04
   55.02000     -9.1403676E-04
   55.08000     -9.1791258E-04
   55.14000     -9.2198275E-04
   55.20000     -9.2623377E-04
   55.26000     -9.3064748E-04
   55.32000     -9.3520089E-04
   55.38000     -9.3986699E-04
   55.44000     -9.4461470E-04
   55.50000     -9.4940973E-04
   55.56000     -9.5421483E-04