  -2.400000      0.0000000E+00
  -2.340000      0.0000000E+00
  -2.280000      0.0000000E+00
  -2.220000      0.0000000E+00
  -2.160000      0.0000000E+00
  -2.100000      0.0000000E+00
  -2.040000      0.0000000E+00
  -1.980000      0.0000000E+00
  -1.920000      0.0000000E+00
  -1.860000      0.0000000E+00
  -1.800000      0.0000000E+00
  -1.740000      0.0000000E+00
  -1.680000      0.0000000E+00
  -1.620000     -5.0950018E-35
  -1.560000     -5.6913024E-34
  -1.500000     -1.7562798E-33
  -1.440000      9.2698493E-33
  -1.380000      1.1465785E-31
  -1.320000      5.3944809E-31
  -1.260000      1.3053821E-30
  -1.200000      1.3034585E-31
  -1.140000     -1.2507868E-29
  -1.080000     -5.5323571E-29
  -1.020000     -1.3025270E-28
 -0.9600000     -1.2678214E-28
 -0.9000000      3.3430104E-28
 -0.8400000      1.8892498E-27
 -0.7800000      4.6652957E-27
 -0.7200000      6.1594290E-27
 -0.6600000     -1.4605046E-27
 -0.6000000     -3.0360455E-26
 -0.5400000     -8.4438057E-26
 -0.4800000     -1.3036392E-25
 -0.4200000     -6.6919841E-26
 -0.3600000      2.5742587E-25
 -0.3000000      9.0655037E-25
 -0.2400000      1.5792671E-24
 -0.1800000      1.3553785E-24
 -0.1200000     -1.1158655E-24
 -5.9999999E-02 -6.4934671E-24
  0.0000000E+00 -1.2708206E-23
  5.9999999E-02 -1.3311507E-23
  0.1200000      1.0426490E-24
  0.1800000      3.5294233E-23
  0.2400000      7.7730043E-23
  0.3000000      9.0926437E-23
  0.3600000      2.0808314E-23
  0.4200000     -1.6361067E-22
  0.4800000     -4.0696637E-22
  0.5400000     -5.2262936E-22
  0.6000000     -2.3579709E-22
  0.6600000      6.3265665E-22
  0.7200000      1.8792154E-21
  0.7800000      2.7092146E-21
  0.8400000      1.8911267E-21
  0.9000000     -1.5223477E-21
  0.9600000     -7.0541745E-21
   1.020000     -1.1915625E-20
   1.080000     -1.1390377E-20
   1.140000     -1.2104576E-21
   1.200000      1.8539307E-20
   1.260000      4.0132722E-20
   1.320000      4.8726735E-20
   1.380000      2.8946055E-20
   1.440000     -2.3740202E-20
   1.500000     -9.2892874E-20
   1.560000     -1.4104650E-19
   1.620000     -1.2569282E-19
   1.680000     -2.7743980E-20
   1.740000      1.2327903E-19
   1.800000      2.4922001E-19
   1.860000      2.6163320E-19
   1.920000      1.2695627E-19
   1.980000     -8.2149995E-20
   2.040000     -2.0114040E-19
   2.100000     -7.8665503E-20
   2.160000      2.6676259E-19
   2.220000      5.4682682E-19
   2.280000      2.8700952E-19
   2.340000     -8.5712052E-19
   2.400000     -2.6681186E-18
   2.460000     -4.1073906E-18
   2.520000     -3.5569225E-18
   2.580000      3.0530538E-19
   2.640000      7.2744166E-18
   2.700000      1.4739243E-17
   2.760000      1.7997407E-17
   2.820000      1.2204013E-17
   2.880000     -4.5213680E-18
   2.940000     -2.8322585E-17
   3.000000     -4.9126842E-17
   3.060000     -5.3777166E-17
   3.120000     -3.2347361E-17
   3.180000      1.4928607E-17
   3.240000      7.3968621E-17
   3.300000      1.1959968E-16
   3.360000      1.2518746E-16
   3.420000      7.5766581E-17
   3.480000     -2.1499493E-17
   3.540000     -1.3561633E-16
   3.600000     -2.2139799E-16
   3.660000     -2.3750936E-16
   3.720000     -1.6524640E-16
   3.780000     -1.9182322E-17
   3.840000      1.5588147E-16
   3.900000      3.0088659E-16
   3.960000      3.6453519E-16
   4.020000      3.2181122E-16
   4.080000      1.8152479E-16
   4.140000     -1.9112964E-17
   4.200000     -2.2898268E-16
   4.260000     -3.9933752E-16
   4.320000     -4.9501527E-16
   4.380000     -4.9724842E-16
   4.440000     -3.9947966E-16
   4.500000     -2.0153634E-16
   4.560000      9.0932904E-17
   4.620000      4.5694548E-16
   4.680000      8.4208357E-16
   4.740000      1.1425402E-15
   4.800000      1.2097740E-15
   4.860000      8.9320281E-16
   4.920000      1.2253529E-16
   4.980000     -9.9774552E-16
   5.040000     -2.1379950E-15
   5.100000     -2.7992872E-15
   5.160000     -2.5020985E-15
   5.220000     -1.0593980E-15
   5.280000      1.1956484E-15
   5.340000      3.3905556E-15
   5.400000      4.4056255E-15
   5.460000      3.4247687E-15
   5.520000      5.0725870E-16
   5.580000     -3.1618925E-15
   5.640000     -5.6101279E-15
   5.700000     -5.0004031E-15
   5.760000     -7.7448309E-16
   5.820000      5.6008957E-15
   5.880000      1.0855590E-14
   5.940000      1.1268915E-14
   6.000000      4.6952764E-15
   6.060000     -7.7170275E-15
   6.120000     -2.1176904E-14
   6.180000     -2.8823000E-14
   6.240000     -2.4821023E-14
   6.300000     -7.6539210E-15
   6.360000      1.8112931E-14
   6.420000      4.2819918E-14
   6.480000      5.5431544E-14
   6.540000      4.8514042E-14
   6.600000      2.2126342E-14
   6.660000     -1.5457677E-14
   6.720000     -5.0866033E-14
   6.780000     -7.1325216E-14
   6.840000     -7.0227407E-14
   6.900000     -4.9739055E-14
   6.960000     -1.9032583E-14
   7.020000      1.0967696E-14
   7.080000      3.3433898E-14
   7.140000      4.8657218E-14
   7.200000      6.2228068E-14
   7.260000      7.9107666E-14
   7.320000      9.7005764E-14
   7.380000      1.0352662E-13
   7.440000      8.0109456E-14
   7.500000      1.2285025E-14
   7.560000     -9.8171539E-14
   7.620000     -2.2586509E-13
   7.680000     -3.2487031E-13
   7.740000     -3.4368401E-13
   7.800000     -2.4751756E-13
   7.860000     -3.8664178E-14
   7.920000      2.3523791E-13
   7.980000      4.9121671E-13
   8.040000      6.3775948E-13
   8.100000      6.0889081E-13
   8.160000      3.9163857E-13
   8.220000      3.4773806E-14
   8.280000     -3.6561628E-13
   8.340000     -6.9799564E-13
   8.400000     -8.7126904E-13
   8.460000     -8.4010359E-13
   8.520000     -6.1117631E-13
   8.580000     -2.3194174E-13
   8.640000      2.2806621E-13
   8.700000      6.9161029E-13
   8.760000      1.0780225E-12
   8.820000      1.3016373E-12
   8.880000      1.2759461E-12
   8.940000      9.3382929E-13
   9.000000      2.6370204E-13
   9.060000     -6.5300949E-13
   9.120000     -1.6268132E-12
   9.180000     -2.3876537E-12
   9.240000     -2.6577980E-12
   9.300000     -2.2493546E-12
   9.360000     -1.1482922E-12
   9.420000      4.5359175E-13
   9.480000      2.1982396E-12
   9.540000      3.6614210E-12
   9.600000      4.4753719E-12
   9.660000      4.4266110E-12
   9.720000      3.4947774E-12
   9.780000      1.8271760E-12
   9.840000     -3.2722455E-13
   9.900000     -2.6866346E-12
   9.960000     -4.9778935E-12
   10.02000     -6.9432550E-12
   10.08000     -8.3287899E-12
   10.14000     -8.8805395E-12
   10.20000     -8.3653423E-12
   10.26000     -6.6124723E-12
   10.32000     -3.5547886E-12
   10.38000      7.5275799E-13
   10.44000      6.1422837E-12
   10.50000      1.2350784E-11
   10.56000      1.9015340E-11
   10.62000      2.5626151E-11
   10.68000      3.1450870E-11
   10.74000      3.5479245E-11
   10.80000      3.6450107E-11
   10.86000      3.2998628E-11
   10.92000      2.3906545E-11
   10.98000      8.3796355E-12
   11.04000     -1.3752528E-11
   11.10000     -4.1998106E-11
   11.16000     -7.5344689E-11
   11.22000     -1.1252478E-10
   11.28000     -1.5230184E-10
   11.34000     -1.9367839E-10
   11.40000     -2.3597929E-10
   11.46000     -2.7882524E-10
   11.52000     -3.2204919E-10
   11.58000     -3.6560280E-10
   11.64000     -4.0946393E-10
   11.70000     -4.5352727E-10
   11.76000     -4.9746363E-10
   11.82000     -5.4057470E-10
   11.88000     -5.8171817E-10
   11.94000     -6.1938454E-10
   12.00000     -6.5196010E-10
   12.06000     -6.7811762E-10
   12.12000     -6.9719813E-10
   12.18000     -7.0943551E-10
   12.24000     -7.1594414E-10
   12.30000     -7.1850487E-10
   12.36000     -7.1927070E-10
   12.42000     -7.2051853E-10
   12.48000     -7.2448919E-10
   12.54000     -7.3324852E-10
   12.60000     -7.4844447E-10
   12.66000     -7.7088597E-10
   12.72000     -8.0000201E-10
   12.78000     -8.3337215E-10
   12.84000     -8.6655622E-10
   12.90000     -8.9336527E-10
   12.96000     -9.0654972E-10
   13.02000     -8.9874552E-10
   13.08000     -8.6349533E-10
   13.14000     -7.9625256E-10
   13.20000     -6.9539269E-10
   13.26000     -5.6326799E-10
   13.32000     -4.0720941E-10
   13.38000     -2.4014329E-10
   13.44000     -8.0341095E-11
   13.50000      5.0105163E-11
   13.56000      1.2812731E-10
   13.62000      1.3338232E-10
   13.68000      5.1927129E-11
   13.74000     -1.2111516E-10
   13.80000     -3.8058398E-10
   13.86000     -7.1212963E-10
   13.92000     -1.0944430E-09
   13.98000     -1.5021153E-09
   14.04000     -1.9084174E-09
   14.10000     -2.2875954E-09
   14.16000     -2.6166347E-09
   14.22000     -2.8766578E-09
   14.28000     -3.0541021E-09
   14.34000     -3.1416763E-09
   14.40000     -3.1389225E-09
   14.46000     -3.0521718E-09
   14.52000     -2.8937819E-09
   14.58000     -2.6806963E-09
   14.64000     -2.4325117E-09
   14.70000     -2.1692990E-09
   14.76000     -1.9094277E-09
   14.82000     -1.6676653E-09
   14.88000     -1.4538198E-09
   14.94000     -1.2721972E-09
   15.00000     -1.1220482E-09
   15.06000     -9.9897401E-10
   15.12000     -8.9700725E-10
   15.18000     -8.1088058E-10
   15.24000     -7.3795653E-10
   15.30000     -6.7943706E-10
   15.36000     -6.4072736E-10
   15.42000     -6.3105926E-10
   15.48000     -6.6258232E-10
   15.54000     -7.4910372E-10
   15.60000     -9.0456947E-10
   15.66000     -1.1413406E-09
   15.72000     -1.4683776E-09
   15.78000     -1.8895614E-09
   15.84000     -2.4024518E-09
   15.90000     -2.9977367E-09
   15.96000     -3.6594541E-09
   16.02000     -4.3658517E-09
   16.08000     -5.0906386E-09
   16.14000     -5.8043685E-09
   16.20000     -6.4758581E-09
   16.26000     -7.0736790E-09
   16.32000     -7.5678583E-09
   16.38000     -7.9318712E-09
   16.44000     -8.1449016E-09
   16.50000     -8.1941787E-09
   16.56000     -8.0771558E-09
   16.62000     -7.8032283E-09
   16.68000     -7.3947519E-09
   16.74000     -6.8870492E-09
   16.80000     -6.3271757E-09
   16.86000     -5.7712342E-09
   16.92000     -5.2802398E-09
   16.98000     -4.9148543E-09
   17.04000     -4.7296487E-09
   17.10000     -4.7678204E-09
   17.16000     -5.0572702E-09
   17.22000     -5.6086629E-09
   17.28000     -6.4155468E-09
   17.34000     -7.4560296E-09
   17.40000     -8.6951060E-09
   17.46000     -1.0086742E-08
   17.52000     -1.1575197E-08
   17.58000     -1.3095796E-08
   17.64000     -1.4576042E-08
   17.70000     -1.5938339E-08
   17.76000     -1.7105362E-08
   17.82000     -1.8008169E-08
   17.88000     -1.8596001E-08
   17.94000     -1.8845428E-08
   18.00000     -1.8766034E-08
   18.06000     -1.8400241E-08
   18.12000     -1.7816282E-08
   18.18000     -1.7095276E-08
   18.24000     -1.6315200E-08
   18.30000     -1.5535640E-08
   18.36000     -1.4787117E-08
   18.42000     -1.4067492E-08
   18.48000     -1.3346115E-08
   18.54000     -1.2574258E-08
   18.60000     -1.1698868E-08
   18.66000     -1.0676080E-08
   18.72000     -9.4812460E-09
   18.78000     -8.1134965E-09
   18.84000     -6.5944357E-09
   18.90000     -4.9621764E-09
   18.96000     -3.2630174E-09
   19.02000     -1.5432785E-09
   19.08000      1.5673471E-10
   19.14000      1.8058369E-09
   19.20000      3.3825343E-09
   19.26000      4.8742002E-09
   19.32000      6.2759917E-09
   19.38000      7.5899997E-09
   19.44000      8.8242880E-09
   19.50000      9.9910364E-09
   19.56000      1.1103221E-08
   19.62000      1.2170102E-08
   19.68000      1.3192738E-08
   19.74000      1.4161167E-08
   19.80000      1.5054498E-08
   19.86000      1.5844055E-08
   19.92000      1.6498506E-08
   19.98000      1.6989198E-08
   20.04000      1.7294171E-08
   20.10000      1.7400165E-08
   20.16000      1.7303169E-08
   20.22000      1.7008585E-08
   20.28000      1.6531894E-08
   20.34000      1.5899881E-08
   20.40000      1.5151430E-08
   20.46000      1.4336518E-08
   20.52000      1.3512395E-08
   20.58000      1.2736992E-08
   20.64000      1.2060871E-08
   20.70000      1.1519791E-08
   20.76000      1.1130026E-08
   20.82000      1.0887791E-08
   20.88000      1.0773041E-08
   20.94000      1.0756626E-08
   21.00000      1.0808996E-08
   21.06000      1.0908224E-08
   21.12000      1.1045247E-08
   21.18000      1.1224945E-08
   21.24000      1.1462631E-08
   21.30000      1.1776965E-08
   21.36000      1.2181395E-08
   21.42000      1.2676941E-08
   21.48000      1.3248849E-08
   21.54000      1.3868397E-08
   21.60000      1.4499292E-08
   21.66000      1.5106307E-08
   21.72000      1.5662922E-08
   21.78000      1.6155065E-08
   21.84000      1.6579644E-08
   21.90000      1.6938627E-08
   21.96000      1.7231212E-08
   22.02000      1.7447347E-08
   22.08000      1.7565249E-08
   22.14000      1.7553909E-08
   22.20000      1.7379588E-08
   22.26000      1.7013754E-08
   22.32000      1.6439410E-08
   22.38000      1.5653402E-08
   22.44000      1.4664047E-08
   22.50000      1.3485262E-08
   22.56000      1.2129969E-08
   22.62000      1.0605892E-08
   22.68000      8.9159577E-09
   22.74000      7.0635178E-09
   22.80000      5.0603752E-09
   22.86000      2.9340304E-09
   22.92000      7.3049644E-10
   22.98000     -1.4894874E-09
   23.04000     -3.6604715E-09
   23.10000     -5.7256315E-09
   23.16000     -7.6490450E-09
   23.22000     -9.4227088E-09
   23.28000     -1.1065839E-08
   23.34000     -1.2616502E-08
   23.40000     -1.4118064E-08
   23.46000     -1.5604391E-08
   23.52000     -1.7087912E-08
   23.58000     -1.8553749E-08
   23.64000     -1.9961400E-08
   23.70000     -2.1253451E-08
   23.76000     -2.2369141E-08
   23.82000     -2.3259300E-08
   23.88000     -2.3898899E-08
   23.94000     -2.4294174E-08
   24.00000     -2.4482720E-08
   24.06000     -2.4526942E-08
   24.12000     -2.4503032E-08
   24.18000     -2.4488523E-08
   24.24000     -2.4551419E-08
   24.30000     -2.4742857E-08
   24.36000     -2.5093929E-08
   24.42000     -2.5615986E-08
   24.48000     -2.6303276E-08
   24.54000     -2.7136721E-08
   24.60000     -2.8088056E-08
   24.66000     -2.9123832E-08
   24.72000     -3.0209090E-08
   24.78000     -3.1310261E-08
   24.84000     -3.2396891E-08
   24.90000     -3.3441850E-08
   24.96000     -3.4420051E-08
   25.02000     -3.5306297E-08
   25.08000     -3.6073367E-08
   25.14000     -3.6691628E-08
   25.20000     -3.7131048E-08
   25.26000     -3.7365737E-08
   25.32000     -3.7379937E-08
   25.38000     -3.7173560E-08
   25.44000     -3.6764966E-08
   25.50000     -3.6189387E-08
   25.56000     -3.5492658E-08
   25.62000     -3.4721808E-08
   25.68000     -3.3915402E-08
   25.74000     -3.3096903E-08
   25.80000     -3.2273469E-08
   25.86000     -3.1440607E-08
   25.92000     -3.0590893E-08
   25.98000     -2.9723470E-08
   26.04000     -2.8850584E-08
   26.10000     -2.7998649E-08
   26.16000     -2.7203249E-08
   26.22000     -2.6499809E-08
   26.28000     -2.5913165E-08
   26.34000     -2.5449808E-08
   26.40000     -2.5095670E-08
   26.46000     -2.4820622E-08
   26.52000     -2.4588502E-08
   26.58000     -2.4369616E-08
   26.64000     -2.4151607E-08
   26.70000     -2.3944787E-08
   26.76000     -2.3779769E-08
   26.82000     -2.3697647E-08
   26.88000     -2.3735732E-08
   26.94000     -2.3913387E-08
   27.00000     -2.4222823E-08
   27.06000     -2.4627935E-08
   27.12000     -2.5071735E-08
   27.18000     -2.5489937E-08
   27.24000     -2.5826406E-08
   27.30000     -2.6045747E-08
   27.36000     -2.6139526E-08
   27.42000     -2.6124969E-08
   27.48000     -2.6037254E-08
   27.54000     -2.5918485E-08
   27.60000     -2.5806964E-08
   27.66000     -2.5730001E-08
   27.72000     -2.5701961E-08
   27.78000     -2.5727559E-08
   27.84000     -2.5808628E-08
   27.90000     -2.5951602E-08
   27.96000     -2.6172680E-08
   28.02000     -2.6498478E-08
   28.08000     -2.6961443E-08
   28.14000     -2.7591222E-08
   28.20000     -2.8404674E-08
   28.26000     -2.9398034E-08
   28.32000     -3.0544314E-08
   28.38000     -3.1797452E-08
   28.44000     -3.3102591E-08
   28.50000     -3.4409446E-08
   28.56000     -3.5684511E-08
   28.62000     -3.6917797E-08
   28.68000     -3.8121399E-08
   28.74000     -3.9319939E-08
   28.80000     -4.0535934E-08
   28.86000     -4.1775113E-08
   28.92000     -4.3017238E-08
   28.98000     -4.4216204E-08
   29.04000     -4.5310099E-08
   29.10000     -4.6238107E-08
   29.16000     -4.6958679E-08
   29.22000     -4.7462407E-08
   29.28000     -4.7774947E-08
   29.34000     -4.7948575E-08
   29.40000     -4.8045258E-08
   29.46000     -4.8116913E-08
   29.52000     -4.8189722E-08
   29.58000     -4.8257863E-08
   29.64000     -4.8288648E-08
   29.70000     -4.8237133E-08
   29.76000     -4.8065026E-08
   29.82000     -4.7757251E-08
   29.88000     -4.7330513E-08
   29.94000     -4.6830671E-08
   30.00000     -4.6319609E-08
   30.06000     -4.5855792E-08
   30.12000     -4.5474923E-08
   30.18000     -4.5177536E-08
   30.24000     -4.4928360E-08
   30.30000     -4.4668447E-08
   30.36000     -4.4336598E-08
   30.42000     -4.3892932E-08
   30.48000     -4.3335781E-08
   30.54000     -4.2705082E-08
   30.60000     -4.2069924E-08
   30.66000     -4.1503849E-08
   30.72000     -4.1056854E-08
   30.78000     -4.0734879E-08
   30.84000     -4.0495664E-08
   30.90000     -4.0264045E-08
   30.96000     -3.9962384E-08
   31.02000     -3.9545725E-08
   31.08000     -3.9028652E-08
   31.14000     -3.8493081E-08
   31.20000     -3.8072393E-08
   31.26000     -3.7915651E-08
   31.32000     -3.8142854E-08
   31.38000     -3.8805769E-08
   31.44000     -3.9867778E-08
   31.50000     -4.1210136E-08
   31.56000     -4.2663633E-08
   31.62000     -4.4056030E-08
   31.68000     -4.5260457E-08
   31.74000     -4.6229328E-08
   31.80000     -4.7003052E-08
   31.86000     -4.7690776E-08
   31.92000     -4.8429524E-08
   31.98000     -4.9335050E-08
   32.04000     -5.0460201E-08
   32.10000     -5.1774212E-08
   32.16000     -5.3169568E-08
   32.22000     -5.4494034E-08
   32.28000     -5.5597290E-08
   32.34000     -5.6376766E-08
   32.40000     -5.6807366E-08
   32.46000     -5.6945272E-08
   32.52000     -5.6904835E-08
   32.58000     -5.6816798E-08
   32.64000     -5.6782664E-08
   32.70000     -5.6841397E-08
   32.76000     -5.6960069E-08
   32.82000     -5.7051679E-08
   32.88000     -5.7013576E-08
   32.94000     -5.6772805E-08
   33.00000     -5.6322161E-08
   33.06000     -5.5734045E-08
   33.12000     -5.5146565E-08
   33.18000     -5.4725675E-08
   33.24000     -5.4615114E-08
   33.30000     -5.4890226E-08
   33.36000     -5.5530833E-08
   33.42000     -5.6422611E-08
   33.48000     -5.7387389E-08
   33.54000     -5.8233528E-08
   33.60000     -5.8810699E-08
   33.66000     -5.9051917E-08
   33.72000     -5.8989595E-08
   33.78000     -5.8740834E-08
   33.84000     -5.8467165E-08
   33.90000     -5.8321920E-08
   33.96000     -5.8401916E-08
   34.02000     -5.8718285E-08
   34.08000     -5.9194669E-08
   34.14000     -5.9692567E-08
   34.20000     -6.0055335E-08
   34.26000     -6.0157021E-08
   34.32000     -5.9940973E-08
   34.38000     -5.9436353E-08
   34.44000     -5.8747247E-08
   34.50000     -5.8017559E-08
   34.56000     -5.7382668E-08
   34.62000     -5.6923305E-08
   34.68000     -5.6636939E-08
   34.74000     -5.6436466E-08
   34.80000     -5.6176898E-08
   34.86000     -5.5701374E-08
   34.92000     -5.4891171E-08
   34.98000     -5.3703278E-08
   35.04000     -5.2183548E-08
   35.10000     -5.0451838E-08
   35.16000     -4.8664820E-08
   35.22000     -4.6968946E-08
   35.28000     -4.5458439E-08
   35.34000     -4.4150916E-08
   35.40000     -4.2987111E-08
   35.46000     -4.1853873E-08
   35.52000     -4.0622684E-08
   35.58000     -3.9191853E-08
   35.64000     -3.7519936E-08
   35.70000     -3.5640763E-08
   35.76000     -3.3656299E-08
   35.82000     -3.1709927E-08
   35.88000     -2.9948612E-08
   35.94000     -2.8485378E-08
   36.00000     -2.7373018E-08
   36.06000     -2.6596240E-08
   36.12000     -2.6083695E-08
   36.18000     -2.5735391E-08
   36.24000     -2.5456686E-08
   36.30000     -2.5188481E-08
   36.36000     -2.4924715E-08
   36.42000     -2.4712321E-08
   36.48000     -2.4633978E-08
   36.54000     -2.4779085E-08
   36.60000     -2.5211817E-08
   36.66000     -2.5945985E-08
   36.72000     -2.6934382E-08
   36.78000     -2.8076061E-08
   36.84000     -2.9239480E-08
   36.90000     -3.0294636E-08
   36.96000     -3.1144491E-08
   37.02000     -3.1746428E-08
   37.08000     -3.2117523E-08
   37.14000     -3.2322834E-08
   37.20000     -3.2450902E-08
   37.26000     -3.2584520E-08
   37.32000     -3.2775521E-08
   37.38000     -3.3030435E-08
   37.44000     -3.3310144E-08
   37.50000     -3.3542417E-08
   37.56000     -3.3643104E-08
   37.62000     -3.3539980E-08
   37.68000     -3.3193317E-08
   37.74000     -3.2608256E-08
   37.80000     -3.1835832E-08
   37.86000     -3.0961889E-08
   37.92000     -3.0085893E-08
   37.98000     -2.9294604E-08
   38.04000     -2.8637636E-08
   38.10000     -2.8112471E-08
   38.16000     -2.7664120E-08
   38.22000     -2.7200553E-08
   38.28000     -2.6619615E-08
   38.34000     -2.5839388E-08
   38.40000     -2.4822572E-08
   38.46000     -2.3587630E-08
   38.52000     -2.2203679E-08
   38.58000     -2.0771331E-08
   38.64000     -1.9395543E-08
   38.70000     -1.8158486E-08
   38.76000     -1.7100078E-08
   38.82000     -1.6211471E-08
   38.88000     -1.5443129E-08
   38.94000     -1.4724944E-08
   39.00000     -1.3992077E-08
   39.06000     -1.3208153E-08
   39.12000     -1.2378022E-08
   39.18000     -1.1545839E-08
   39.24000     -1.0779512E-08
   39.30000     -1.0147653E-08
   39.36000     -9.6976986E-09
   39.42000     -9.4428518E-09
   39.48000     -9.3615027E-09
   39.54000     -9.4077199E-09
   39.60000     -9.5277279E-09
   39.66000     -9.6761994E-09
   39.72000     -9.8275699E-09
   39.78000     -9.9802140E-09
   39.84000     -1.0153775E-08
   39.90000     -1.0381457E-08
   39.96000     -1.0699776E-08
   40.02000     -1.1138454E-08
   40.08000     -1.1712983E-08
   40.14000     -1.2421763E-08
   40.20000     -1.3248347E-08
   40.26000     -1.4167526E-08
   40.32000     -1.5152706E-08
   40.38000     -1.6181847E-08
   40.44000     -1.7240529E-08
   40.50000     -1.8322551E-08
   40.56000     -1.9429592E-08
   40.62000     -2.0571127E-08
   40.68000     -2.1764201E-08
   40.74000     -2.3031179E-08
   40.80000     -2.4393721E-08
   40.86000     -2.5863189E-08
   40.92000     -2.7430659E-08
   40.98000     -2.9061525E-08
   41.04000     -3.0698981E-08
   41.10000     -3.2277296E-08
   41.16000     -3.3741252E-08
   41.22000     -3.5064886E-08
   41.28000     -3.6262175E-08
   41.34000     -3.7385057E-08
   41.40000     -3.8508677E-08
   41.46000     -3.9708183E-08
   41.52000     -4.1034070E-08
   41.58000     -4.2493578E-08
   41.64000     -4.4043936E-08
   41.70000     -4.5600210E-08
   41.76000     -4.7056634E-08
   41.82000     -4.8316291E-08
   41.88000     -4.9320917E-08
   41.94000     -5.0071460E-08
   42.00000     -5.0631808E-08
   42.06000     -5.1112874E-08
   42.12000     -5.1640953E-08
   42.18000     -5.2319976E-08
   42.24000     -5.3200129E-08
   42.30000     -5.4263452E-08
   42.36000     -5.5431020E-08
   42.42000     -5.6588760E-08
   42.48000     -5.7622756E-08
   42.54000     -5.8452272E-08
   42.60000     -5.9050439E-08
   42.66000     -5.9447494E-08
   42.72000     -5.9717188E-08
   42.78000     -5.9951752E-08
   42.84000     -6.0233425E-08
   42.90000     -6.0610354E-08
   42.96000     -6.1083270E-08
   43.02000     -6.1605888E-08
   43.08000     -6.2098984E-08
   43.14000     -6.2473987E-08
   43.20000     -6.2659474E-08
   43.26000     -6.2622689E-08
   43.32000     -6.2379172E-08
   43.38000     -6.1987258E-08
   43.44000     -6.1528930E-08
   43.50000     -6.1083135E-08
   43.56000     -6.0700195E-08
   43.62000     -6.0385773E-08
   43.68000     -6.0099410E-08
   43.74000     -5.9768169E-08
   43.80000     -5.9310853E-08
   43.86000     -5.8665503E-08
   43.92000     -5.7811640E-08
   43.98000     -5.6780635E-08
   44.04000     -5.5650670E-08
   44.10000     -5.4527135E-08
   44.16000     -5.3513645E-08
   44.22000     -5.2681841E-08
   44.28000     -5.2049096E-08
   44.34000     -5.1571600E-08
   44.40000     -5.1155823E-08
   44.46000     -5.0685774E-08
   44.52000     -5.0058194E-08
   44.58000     -4.9214908E-08
   44.64000     -4.8162232E-08
   44.70000     -4.6971223E-08
   44.76000     -4.5758657E-08
   44.82000     -4.4654445E-08
   44.88000     -4.3765329E-08
   44.94000     -4.3145615E-08
   45.00000     -4.2783398E-08
   45.06000     -4.2606160E-08
   45.12000     -4.2503896E-08
   45.18000     -4.2362835E-08
   45.24000     -4.2099568E-08
   45.30000     -4.1685276E-08
   45.36000     -4.1152582E-08
   45.42000     -4.0583174E-08
   45.48000     -4.0080504E-08
   45.54000     -3.9736715E-08
   45.60000     -3.9604739E-08
   45.66000     -3.9684434E-08
   45.72000     -3.9926451E-08
   45.78000     -4.0251695E-08
   45.84000     -4.0579121E-08
   45.90000     -4.0852694E-08
   45.96000     -4.1059199E-08
   46.02000     -4.1231981E-08
   46.08000     -4.1439982E-08
   46.14000     -4.1765780E-08
   46.20000     -4.2279261E-08
   46.26000     -4.3015085E-08
   46.32000     -4.3961244E-08
   46.38000     -4.5063096E-08
   46.44000     -4.6242508E-08
   46.50000     -4.7426727E-08
   46.56000     -4.8577856E-08
   46.62000     -4.9713279E-08
   46.68000     -5.0910320E-08
   46.74000     -5.2293846E-08
   46.80000     -5.4011370E-08
   46.86000     -5.6204090E-08
   46.92000     -5.8983158E-08
   46.98000     -6.2418060E-08
   47.04000     -6.6540281E-08
   47.10000     -7.1361129E-08
   47.16000     -7.6899546E-08
   47.22000     -8.3213436E-08
   47.28000     -9.0427442E-08
   47.34000     -9.8750476E-08
   47.40000     -1.0847914E-07
   47.46000     -1.1998678E-07
   47.52000     -1.3370305E-07
   47.58000     -1.5009201E-07
   47.64000     -1.6963766E-07
   47.70000     -1.9284334E-07
   47.76000     -2.2024638E-07
   47.82000     -2.5244449E-07
   47.88000     -2.9012762E-07
   47.94000     -3.3410871E-07
   48.00000     -3.8534895E-07
   48.06000     -4.4497662E-07
   48.12000     -5.1429964E-07
   48.18000     -5.9481448E-07
   48.24000     -6.8821254E-07
   48.30000     -7.9638784E-07
   48.36000     -9.2144677E-07
   48.42000     -1.0657245E-06
   48.48000     -1.2318071E-06
   48.54000     -1.4225609E-06
   48.60000     -1.6411644E-06
   48.66000     -1.8911441E-06
   48.72000     -2.1764074E-06
   48.78000     -2.5012744E-06
   48.84000     -2.8705072E-06
   48.90000     -3.2893340E-06
   48.96000     -3.7634675E-06
   49.02000     -4.2991219E-06
   49.08000     -4.9030264E-06
   49.14000     -5.5824430E-06
   49.20000     -6.3451889E-06
   49.26000     -7.1996642E-06
   49.32000     -8.1548869E-06
   49.38000     -9.2205200E-06
   49.44000     -1.0406893E-05
   49.50000     -1.1725004E-05
   49.56000     -1.3186504E-05
   49.62000     -1.4803663E-05
   49.68000     -1.6589342E-05
   49.74000     -1.8556928E-05
   49.80000     -2.0720310E-05
   49.86000     -2.3093837E-05
   49.92000     -2.5692263E-05
   49.98000     -2.8530732E-05
   50.04000     -3.1624724E-05
   50.10000     -3.4989982E-05
   50.16000     -3.8642447E-05
   50.22000     -4.2598134E-05
   50.28000     -4.6873014E-05
   50.34000     -5.1482857E-05
   50.40000     -5.6443092E-05
   50.46000     -6.1768624E-05
   50.52000     -6.7473673E-05
   50.58000     -7.3571638E-05
   50.64000     -8.0074897E-05
   50.70000     -8.6994740E-05
   50.76000     -9.4341165E-05
   50.82000     -1.0212274E-04
   50.88000     -1.1034642E-04
   50.94000     -1.1901744E-04
   51.00000     -1.2813894E-04
   51.06000     -1.3771201E-04
   51.12000     -1.4773526E-04
   51.18000     -1.5820486E-04
   51.24000     -1.6911433E-04
   51.30000     -1.8045462E-04
   51.36000     -1.9221389E-04
   51.42000     -2.0437753E-04
   51.48000     -2.1692811E-04
   51.54000     -2.2984529E-04
   51.60000     -2.4310594E-04
   51.66000     -2.5668408E-04
   51.72000     -2.7055110E-04
   51.78000     -2.8467563E-04
   51.84000     -2.9902384E-04
   51.90000     -3.1355943E-04
   51.96000     -3.2824397E-04
   52.02000     -3.4303707E-04
   52.08000     -3.5789693E-04
   52.14000     -3.7278034E-04
   52.20000     -3.8764314E-04
   52.26000     -4.0244052E-04
   52.32000     -4.1712736E-04
   52.38000     -4.3165858E-04
   52.44000     -4.4598946E-04
   52.50000     -4.6007617E-04
   52.56000     -4.7387608E-04
   52.62000     -4.8734821E-04
   52.68000     -5.0045358E-04
   52.74000     -5.1315565E-04
   52.80000     -5.2542053E-04
   52.86000     -5.3721730E-04
   52.92000     -5.4851873E-04
   52.98000     -5.5930129E-04
   53.04000     -5.6954555E-04
   53.10000     -5.7923608E-04
   53.16000     -5.8836187E-04
   53.22000     -5.9691619E-04
   53.28000     -6.0489669E-04
   53.34000     -6.1230554E-04
   53.40000     -6.1914959E-04
   53.46000     -6.2543980E-04
   53.52000     -6.3119148E-04
   53.58000     -6.3642400E-04
   53.64000     -6.4116064E-04
   53.70000     -6.4542843E-04
   53.76000     -6.4925756E-04
   53.82000     -6.5268140E-04
   53.88000     -6.5573549E-04
   53.94000     -6.5845734E-04
   54.00000     -6.6088588E-04
   54.06000     -6.6306104E-04
   54.12000     -6.6502340E-04
   54.18000     -6.6681369E-04
   54.24000     -6.6847238E-04
   54.30000     -6.7003880E-04
   54.36000     -6.7155098E-04
   54.42000     -6.7304529E-04
   54.48000     -6.7455601E-04
   54.54000     -6.7611493E-04
   54.60000     -6.7775085E-04
   54.66000     -6.7948888E-04
   54.72000     -6.8135036E-04
   54.78000     -6.8335235E-04
   54.84000     -6.8550801E-04
   54.90000     -6.8782660E-04
   54.96000     -6.9031358E-04
   55.02000     -6.9297064E-04
   55.08000     -6.9579505E-04
   55.14000     -6.9878018E-04
   55.20000     -7.0191466E-04
   55.26000     -7.0518377E-04
   55.32000     -7.0856919E-04
   55.38000     -7.1204960E-04
   55.44000     -7.1560114E-04
   55.50000     -7.1919709E-04
   55.56000     -7.2280900E-04