  -2.400000      0.0000000E+00
  -2.340000      0.0000000E+00
  -2.280000      0.0000000E+00
  -2.220000      0.0000000E+00
  -2.160000      0.0000000E+00
  -2.100000      0.0000000E+00
  -2.040000      0.0000000E+00
  -1.980000      0.0000000E+00
  -1.920000     -4.3165205E-27
  -1.860000     -3.2927874E-26
  -1.800000     -4.3658940E-26
  -1.740000      6.7405310E-25
  -1.680000      5.4391810E-24
  -1.620000      2.3308427E-23
  -1.560000      6.8682257E-23
  -1.500000      1.4431916E-22
  -1.440000      1.9060912E-22
  -1.380000      3.7259549E-24
  -1.320000     -8.1113294E-22
  -1.260000     -2.6902769E-21
  -1.200000     -5.5628357E-21
  -1.140000     -7.8660393E-21
  -1.080000     -5.5864802E-21
  -1.020000      7.4893320E-21
 -0.9600000      3.6720257E-20
 -0.9000000      7.9932356E-20
 -0.8400000      1.1892244E-19
 -0.7800000      1.1490874E-19
 -0.7200000      1.6558532E-20
 -0.6600000     -2.1289273E-19
 -0.6000000     -5.5296822E-19
 -0.5400000     -8.8757803E-19
 -0.4800000     -1.0044910E-18
 -0.4200000     -6.6306581E-19
 -0.3600000      2.7026826E-19
 -0.3000000      1.6733327E-18
 -0.2400000      3.1094493E-18
 -0.1800000      3.9590973E-18
 -0.1200000      3.7528452E-18
 -5.9999999E-02  2.5528334E-18
  0.0000000E+00  1.0794673E-18
  5.9999999E-02  2.8302054E-19
  0.1200000      3.3038398E-19
  0.1800000     -5.1376870E-19
  0.2400000     -6.1353603E-18
  0.3000000     -2.0913358E-17
  0.3600000     -4.5877045E-17
  0.4200000     -7.3969283E-17
  0.4800000     -8.7453637E-17
  0.5400000     -6.1216878E-17
  0.6000000      2.5844501E-17
  0.6600000      1.7339028E-16
  0.7200000      3.4379836E-16
  0.7800000      4.5952204E-16
  0.8400000      4.2384840E-16
  0.9000000      1.6630607E-16
  0.9600000     -3.0097860E-16
   1.020000     -8.4429311E-16
   1.080000     -1.2198636E-15
   1.140000     -1.1559814E-15
   1.200000     -4.9386590E-16
   1.260000      6.6540362E-16
   1.320000      1.8900742E-15
   1.380000      2.5008375E-15
   1.440000      1.8345306E-15
   1.500000     -3.7437011E-16
   1.560000     -3.6511182E-15
   1.620000     -6.6815280E-15
   1.680000     -7.6176976E-15
   1.740000     -4.8024028E-15
   1.800000      2.2883516E-15
   1.860000      1.2278634E-14
   1.920000      2.1759839E-14
   1.980000      2.6104126E-14
   2.040000      2.1179618E-14
   2.100000      5.4618285E-15
   2.160000     -1.8335190E-14
   2.220000     -4.3050185E-14
   2.280000     -5.8858768E-14
   2.340000     -5.6851388E-14
   2.400000     -3.3289272E-14
   2.460000      7.2439918E-15
   2.520000      5.1594935E-14
   2.580000      8.1662609E-14
   2.640000      8.1320543E-14
   2.700000      4.4360135E-14
   2.760000     -1.9939461E-14
   2.820000     -8.6844553E-14
   2.880000     -1.2331772E-13
   2.940000     -1.0093036E-13
   3.000000     -1.0196960E-14
   3.060000      1.2975543E-13
   3.120000      2.7167247E-13
   3.180000      3.5308553E-13
   3.240000      3.1895024E-13
   3.300000      1.4643244E-13
   3.360000     -1.3830418E-13
   3.420000     -4.6009117E-13
   3.480000     -7.1482544E-13
   3.540000     -8.0492286E-13
   3.600000     -6.7800268E-13
   3.660000     -3.5309874E-13
   3.720000      7.8676784E-14
   3.780000      4.8329944E-13
   3.840000      7.3489213E-13
   3.900000      7.6982024E-13
   3.960000      6.2035706E-13
   4.020000      4.0932240E-13
   4.080000      3.0104708E-13
   4.140000      4.2262897E-13
   4.200000      7.8546918E-13
   4.260000      1.2430994E-12
   4.320000      1.5128783E-12
   4.380000      1.2672311E-12
   4.440000      2.7157036E-13
   4.500000     -1.4783420E-12
   4.560000     -3.6763019E-12
   4.620000     -5.7278323E-12
   4.680000     -6.8881571E-12
   4.740000     -6.4878311E-12
   4.800000     -4.1807191E-12
   4.860000     -1.3101792E-13
   4.920000      4.9339877E-12
   4.980000      9.8416813E-12
   5.040000      1.3245547E-11
   5.100000      1.3982002E-11
   5.160000      1.1412677E-11
   5.220000      5.6520439E-12
   5.280000     -2.3873672E-12
   5.340000     -1.1145841E-11
   5.400000     -1.8720093E-11
   5.460000     -2.3236364E-11
   5.520000     -2.3200816E-11
   5.580000     -1.7759041E-11
   5.640000     -6.8421909E-12
   5.700000      8.7761265E-12
   5.760000      2.7462383E-11
   5.820000      4.6705192E-11
   5.880000      6.3101559E-11
   5.940000      7.2413728E-11
   6.000000      6.9813710E-11
   6.060000      5.0441110E-11
   6.120000      1.0349940E-11
   6.180000     -5.2186547E-11
   6.240000     -1.3517906E-10
   6.300000     -2.3152093E-10
   6.360000     -3.2803141E-10
   6.420000     -4.0526427E-10
   6.480000     -4.3828133E-10
   6.540000     -3.9840109E-10
   6.600000     -2.5572999E-10
   6.660000      1.7880477E-11
   6.720000      4.4588230E-10
   6.780000      1.0444893E-09
   6.840000      1.8208325E-09
   6.900000      2.7719360E-09
   6.960000      3.8844767E-09
   7.020000      5.1351949E-09
   7.080000      6.4917884E-09
   7.140000      7.9141795E-09
   7.200000      9.3561132E-09
   7.260000      1.0767143E-08
   7.320000      1.2095039E-08
   7.380000      1.3288644E-08
   7.440000      1.4301042E-08
   7.500000      1.5092764E-08
   7.560000      1.5634644E-08
   7.620000      1.5909855E-08
   7.680000      1.5914789E-08
   7.740000      1.5658568E-08
   7.800000      1.5161232E-08
   7.860000      1.4450978E-08
   7.920000      1.3560913E-08
   7.980000      1.2525911E-08
   8.040000      1.1380101E-08
   8.100000      1.0155280E-08
   8.160000      8.8802841E-09
   8.220000      7.5811339E-09
   8.280000      6.2815761E-09
   8.340000      5.0036073E-09
   8.400000      3.7676697E-09
   8.460000      2.5924090E-09
   8.520000      1.4940850E-09
   8.580000      4.8589843E-10
   8.640000     -4.2245421E-10
   8.700000     -1.2247700E-09
   8.760000     -1.9178354E-09
   8.820000     -2.5006042E-09
   8.880000     -2.9733962E-09
   8.940000     -3.3374832E-09
   9.000000     -3.5953061E-09
   9.060000     -3.7513268E-09
   9.120000     -3.8132297E-09
   9.180000     -3.7929997E-09
   9.240000     -3.7073360E-09
   9.300000     -3.5770382E-09
   9.360000     -3.4252794E-09
   9.420000     -3.2750744E-09
   9.480000     -3.1465279E-09
   9.540000     -3.0545899E-09
   9.600000     -3.0079184E-09
   9.660000     -3.0091527E-09
   9.720000     -3.0564709E-09
   9.780000     -3.1459282E-09
   9.840000     -3.2738601E-09
   9.900000     -3.4386634E-09
   9.960000     -3.6415313E-09
   10.02000     -3.8861199E-09
   10.08000     -4.1774975E-09
   10.14000     -4.5209418E-09
   10.20000     -4.9211004E-09
   10.26000     -5.3817617E-09
   10.32000     -5.9060787E-09
   10.38000     -6.4967485E-09
   10.44000     -7.1555677E-09
   10.50000     -7.8819635E-09
   10.56000     -8.6705771E-09
   10.62000     -9.5085362E-09
   10.68000     -1.0373444E-08
   10.74000     -1.1233172E-08
   10.80000     -1.2048154E-08
   10.86000     -1.2776146E-08
   10.92000     -1.3378528E-08
   10.98000     -1.3826575E-08
   11.04000     -1.4105919E-08
   11.10000     -1.4217761E-08
   11.16000     -1.4176330E-08
   11.22000     -1.4003192E-08
   11.28000     -1.3720007E-08
   11.34000     -1.3341891E-08
   11.40000     -1.2873349E-08
   11.46000     -1.2308018E-08
   11.52000     -1.1632205E-08
   11.58000     -1.0831099E-08
   11.64000     -9.8956292E-09
   11.70000     -8.8278442E-09
   11.76000     -7.6432016E-09
   11.82000     -6.3692038E-09
   11.88000     -5.0410582E-09
   11.94000     -3.6959669E-09
   12.00000     -2.3680329E-09
   12.06000     -1.0854381E-09
   12.12000      1.2940499E-10
   12.18000      1.2572199E-09
   12.24000      2.2782849E-09
   12.30000      3.1699170E-09
   12.36000      3.9067531E-09
   12.42000      4.4645763E-09
   12.48000      4.8270561E-09
   12.54000      4.9934719E-09
   12.60000      4.9847535E-09
   12.66000      4.8452993E-09
   12.72000      4.6390713E-09
   12.78000      4.4401487E-09
   12.84000      4.3196673E-09
   12.90000      4.3323940E-09
   12.96000      4.5065214E-09
   13.02000      4.8395341E-09
   13.08000      5.3013114E-09
   13.14000      5.8435714E-09
   13.20000      6.4129138E-09
   13.26000      6.9637185E-09
   13.32000      7.4672917E-09
   13.38000      7.9148705E-09
   13.44000      8.3140481E-09
   13.50000      8.6801295E-09
   13.56000      9.0254186E-09
   13.62000      9.3498853E-09
   13.68000      9.6360502E-09
   13.74000      9.8494928E-09
   13.80000      9.9445838E-09
   13.86000      9.8734594E-09
   13.92000      9.5954178E-09
   13.98000      9.0839336E-09
   14.04000      8.3295015E-09
   14.10000      7.3379312E-09
   14.16000      6.1252958E-09
   14.22000      4.7117714E-09
   14.28000      3.1168568E-09
   14.34000      1.3578527E-09
   14.40000     -5.4784455E-10
   14.46000     -2.5776041E-09
   14.52000     -4.6977897E-09
   14.58000     -6.8600330E-09
   14.64000     -9.0017682E-09
   14.70000     -1.1051910E-08
   14.76000     -1.2940796E-08
   14.82000     -1.4611917E-08
   14.88000     -1.6032040E-08
   14.94000     -1.7196482E-08
   15.00000     -1.8127546E-08
   15.06000     -1.8866048E-08
   15.12000     -1.9457966E-08
   15.18000     -1.9939753E-08
   15.24000     -2.0326329E-08
   15.30000     -2.0605015E-08
   15.36000     -2.0736847E-08
   15.42000     -2.0664555E-08
   15.48000     -2.0324519E-08
   15.54000     -1.9659089E-08
   15.60000     -1.8625892E-08
   15.66000     -1.7202181E-08
   15.72000     -1.5384236E-08
   15.78000     -1.3183663E-08
   15.84000     -1.0623441E-08
   15.90000     -7.7362348E-09
   15.96000     -4.5661999E-09
   16.02000     -1.1735349E-09
   16.08000      2.3606828E-09
   16.14000      5.9326255E-09
   16.20000      9.4195673E-09
   16.26000      1.2690551E-08
   16.32000      1.5622648E-08
   16.38000      1.8119520E-08
   16.44000      2.0127789E-08
   16.50000      2.1646997E-08
   16.56000      2.2730401E-08
   16.62000      2.3476243E-08
   16.68000      2.4011623E-08
   16.74000      2.4472829E-08
   16.80000      2.4986674E-08
   16.86000      2.5656599E-08
   16.92000      2.6555670E-08
   16.98000      2.7726429E-08
   17.04000      2.9185626E-08
   17.10000      3.0930796E-08
   17.16000      3.2945653E-08
   17.22000      3.5202259E-08
   17.28000      3.7659586E-08
   17.34000      4.0259838E-08
   17.40000      4.2924942E-08
   17.46000      4.5556025E-08
   17.52000      4.8037727E-08
   17.58000      5.0247916E-08
   17.64000      5.2071311E-08
   17.70000      5.3414261E-08
   17.76000      5.4217132E-08
   17.82000      5.4461132E-08
   17.88000      5.4167831E-08
   17.94000      5.3391407E-08
   18.00000      5.2205579E-08
   18.06000      5.0688602E-08
   18.12000      4.8909953E-08
   18.18000      4.6921819E-08
   18.24000      4.4756948E-08
   18.30000      4.2432646E-08
   18.36000      3.9959097E-08
   18.42000      3.7348947E-08
   18.48000      3.4625366E-08
   18.54000      3.1826190E-08
   18.60000      2.9003443E-08
   18.66000      2.6218762E-08
   18.72000      2.3536487E-08
   18.78000      2.1016538E-08
   18.84000      1.8708816E-08
   18.90000      1.6650018E-08
   18.96000      1.4862663E-08
   19.02000      1.3355437E-08
   19.08000      1.2123706E-08
   19.14000      1.1149507E-08
   19.20000      1.0401062E-08
   19.26000      9.8326902E-09
   19.32000      9.3863193E-09
   19.38000      8.9955954E-09
   19.44000      8.5927487E-09
   19.50000      8.1173219E-09
   19.56000      7.5248767E-09
   19.62000      6.7934316E-09
   19.68000      5.9257088E-09
   19.74000      4.9463389E-09
   19.80000      3.8945736E-09
   19.86000      2.8144198E-09
   19.92000      1.7448808E-09
   19.98000      7.1296841E-10
   20.04000     -2.6872832E-10
   20.10000     -1.1995822E-09
   20.16000     -2.0848074E-09
   20.22000     -2.9280591E-09
   20.28000     -3.7254893E-09
   20.34000     -4.4634025E-09
   20.40000     -5.1203108E-09
   20.46000     -5.6725757E-09
   20.52000     -6.1014958E-09
   20.58000     -6.3991785E-09
   20.64000     -6.5710131E-09
   20.70000     -6.6338552E-09
   20.76000     -6.6106693E-09
   20.82000     -6.5236825E-09
   20.88000     -6.3886105E-09
   20.94000     -6.2120242E-09
   21.00000     -5.9926619E-09
   21.06000     -5.7259730E-09
   21.12000     -5.4100355E-09
   21.18000     -5.0505911E-09
   21.24000     -4.6634065E-09
   21.30000     -4.2732684E-09
   21.36000     -3.9101198E-09
   21.42000     -3.6037455E-09
   21.48000     -3.3787704E-09
   21.54000     -3.2513885E-09
   21.60000     -3.2285739E-09
   21.66000     -3.3096634E-09
   21.72000     -3.4895482E-09
   21.78000     -3.7623598E-09
   21.84000     -4.1245589E-09
   21.90000     -4.5766750E-09
   21.96000     -5.1234221E-09
   22.02000     -5.7724354E-09
   22.08000     -6.5322170E-09
   22.14000     -7.4099762E-09
   22.20000     -8.4099172E-09
   22.26000     -9.5321484E-09
   22.32000     -1.0772084E-08
   22.38000     -1.2120017E-08
   22.44000     -1.3560640E-08
   22.50000     -1.5072633E-08
   22.56000     -1.6628761E-08
   22.62000     -1.8197106E-08
   22.68000     -1.9743739E-08
   22.74000     -2.1236598E-08
   22.80000     -2.2649662E-08
   22.86000     -2.3966049E-08
   22.92000     -2.5178862E-08
   22.98000     -2.6289349E-08
   23.04000     -2.7302935E-08
   23.10000     -2.8224646E-08
   23.16000     -2.9055695E-08
   23.22000     -2.9792568E-08
   23.28000     -3.0428776E-08
   23.34000     -3.0958375E-08
   23.40000     -3.1379500E-08
   23.46000     -3.1696217E-08
   23.52000     -3.1917910E-08
   23.58000     -3.2056452E-08
   23.64000     -3.2122529E-08
   23.70000     -3.2122767E-08
   23.76000     -3.2058853E-08
   23.82000     -3.1928870E-08
   23.88000     -3.1730000E-08
   23.94000     -3.1461131E-08
   24.00000     -3.1124095E-08
   24.06000     -3.0722909E-08
   24.12000     -3.0261571E-08
   24.18000     -2.9741653E-08
   24.24000     -2.9161148E-08
   24.30000     -2.8515572E-08
   24.36000     -2.7801251E-08
   24.42000     -2.7019711E-08
   24.48000     -2.6181420E-08
   24.54000     -2.5307106E-08
   24.60000     -2.4425693E-08
   24.66000     -2.3569104E-08
   24.72000     -2.2765361E-08
   24.78000     -2.2032264E-08
   24.84000     -2.1373893E-08
   24.90000     -2.0781339E-08
   24.96000     -2.0237735E-08
   25.02000     -1.9726173E-08
   25.08000     -1.9238021E-08
   25.14000     -1.8778929E-08
   25.20000     -1.8370397E-08
   25.26000     -1.8046229E-08
   25.32000     -1.7844728E-08
   25.38000     -1.7798945E-08
   25.44000     -1.7927920E-08
   25.50000     -1.8231646E-08
   25.56000     -1.8691305E-08
   25.62000     -1.9274697E-08
   25.68000     -1.9945098E-08
   25.74000     -2.0670569E-08
   25.80000     -2.1430685E-08
   25.86000     -2.2218419E-08
   25.92000     -2.3036771E-08
   25.98000     -2.3891554E-08
   26.04000     -2.4783322E-08
   26.10000     -2.5701743E-08
   26.16000     -2.6624805E-08
   26.22000     -2.7523363E-08
   26.28000     -2.8369373E-08
   26.34000     -2.9144587E-08
   26.40000     -2.9846280E-08
   26.46000     -3.0487719E-08
   26.52000     -3.1093133E-08
   26.58000     -3.1689279E-08
   26.64000     -3.2296789E-08
   26.70000     -3.2924643E-08
   26.76000     -3.3569627E-08
   26.82000     -3.4220516E-08
   26.88000     -3.4864993E-08
   26.94000     -3.5496264E-08
   27.00000     -3.6116834E-08
   27.06000     -3.6738211E-08
   27.12000     -3.7377184E-08
   27.18000     -3.8050572E-08
   27.24000     -3.8770828E-08
   27.30000     -3.9544130E-08
   27.36000     -4.0371351E-08
   27.42000     -4.1250789E-08
   27.48000     -4.2180766E-08
   27.54000     -4.3160234E-08
   27.60000     -4.4186642E-08
   27.66000     -4.5251614E-08
   27.72000     -4.6336439E-08
   27.78000     -4.7409735E-08
   27.84000     -4.8429204E-08
   27.90000     -4.9347783E-08
   27.96000     -5.0122814E-08
   28.02000     -5.0725340E-08
   28.08000     -5.1146294E-08
   28.14000     -5.1397354E-08
   28.20000     -5.1506102E-08
   28.26000     -5.1507321E-08
   28.32000     -5.1433624E-08
   28.38000     -5.1308785E-08
   28.44000     -5.1145882E-08
   28.50000     -5.0950209E-08
   28.56000     -5.0724918E-08
   28.62000     -5.0476164E-08
   28.68000     -5.0214972E-08
   28.74000     -4.9954537E-08
   28.80000     -4.9703971E-08
   28.86000     -4.9461235E-08
   28.92000     -4.9208623E-08
   28.98000     -4.8913375E-08
   29.04000     -4.8533970E-08
   29.10000     -4.8030483E-08
   29.16000     -4.7375696E-08
   29.22000     -4.6563297E-08
   29.28000     -4.5610467E-08
   29.34000     -4.4554316E-08
   29.40000     -4.3443695E-08
   29.46000     -4.2329535E-08
   29.52000     -4.1257078E-08
   29.58000     -4.0262382E-08
   29.64000     -3.9373500E-08
   29.70000     -3.8614676E-08
   29.76000     -3.8010608E-08
   29.82000     -3.7587800E-08
   29.88000     -3.7371269E-08
   29.94000     -3.7376939E-08
   30.00000     -3.7602213E-08
   30.06000     -3.8018463E-08
   30.12000     -3.8568892E-08
   30.18000     -3.9173763E-08
   30.24000     -3.9742204E-08
   30.30000     -4.0187413E-08
   30.36000     -4.0440465E-08
   30.42000     -4.0458115E-08
   30.48000     -4.0221909E-08
   30.54000     -3.9729038E-08
   30.60000     -3.8978580E-08
   30.66000     -3.7958685E-08
   30.72000     -3.6640291E-08
   30.78000     -3.4980680E-08
   30.84000     -3.2936466E-08
   30.90000     -3.0481953E-08
   30.96000     -2.7626147E-08
   31.02000     -2.4421936E-08
   31.08000     -2.0963244E-08
   31.14000     -1.7370171E-08
   31.20000     -1.3766471E-08
   31.26000     -1.0256345E-08
   31.32000     -6.9078787E-09
   31.38000     -3.7479242E-09
   31.44000     -7.6918460E-10
   31.50000      2.0539603E-09
   31.56000      4.7470565E-09
   31.62000      7.3211357E-09
   31.68000      9.7667137E-09
   31.74000      1.2057221E-08
   31.80000      1.4159323E-08
   31.86000      1.6045314E-08
   31.92000      1.7702524E-08
   31.98000      1.9136252E-08
   32.04000      2.0365569E-08
   32.10000      2.1413987E-08
   32.16000      2.2298867E-08
   32.22000      2.3023565E-08
   32.28000      2.3575112E-08
   32.34000      2.3928042E-08
   32.40000      2.4052841E-08
   32.46000      2.3925883E-08
   32.52000      2.3537487E-08
   32.58000      2.2895570E-08
   32.64000      2.2024055E-08
   32.70000      2.0957136E-08
   32.76000      1.9731885E-08
   32.82000      1.8382194E-08
   32.88000      1.6936298E-08
   32.94000      1.5418625E-08
   33.00000      1.3854866E-08
   33.06000      1.2277775E-08
   33.12000      1.0730750E-08
   33.18000      9.2671488E-09
   33.24000      7.9449753E-09
   33.30000      6.8185422E-09
   33.36000      5.9300858E-09
   33.42000      5.3044666E-09
   33.48000      4.9488746E-09
   33.54000      4.8574544E-09
   33.60000      5.0187223E-09
   33.66000      5.4225269E-09
   33.72000      6.0635768E-09
   33.78000      6.9401538E-09
   33.84000      8.0487927E-09
   33.90000      9.3775236E-09
   33.96000      1.0900941E-08
   34.02000      1.2579592E-08
   34.08000      1.4364342E-08
   34.14000      1.6204266E-08
   34.20000      1.8055204E-08
   34.26000      1.9885848E-08
   34.32000      2.1679313E-08
   34.38000      2.3429941E-08
   34.44000      2.5136996E-08
   34.50000      2.6797998E-08
   34.56000      2.8404509E-08
   34.62000      2.9942086E-08
   34.68000      3.1394421E-08
   34.74000      3.2749966E-08
   34.80000      3.4008306E-08
   34.86000      3.5183490E-08
   34.92000      3.6302527E-08
   34.98000      3.7399015E-08
   35.04000      3.8503639E-08
   35.10000      3.9634497E-08
   35.16000      4.0790464E-08
   35.22000      4.1949797E-08
   35.28000      4.3074429E-08
   35.34000      4.4118504E-08
   35.40000      4.5038213E-08
   35.46000      4.5799755E-08
   35.52000      4.6383100E-08
   35.58000      4.6780851E-08
   35.64000      4.6993399E-08
   35.70000      4.7022741E-08
   35.76000      4.6867637E-08
   35.82000      4.6521802E-08
   35.88000      4.5975622E-08
   35.94000      4.5220172E-08
   36.00000      4.4251792E-08
   36.06000      4.3075115E-08
   36.12000      4.1703554E-08
   36.18000      4.0157143E-08
   36.24000      3.8458644E-08
   36.30000      3.6629377E-08
   36.36000      3.4685936E-08
   36.42000      3.2638528E-08
   36.48000      3.0490888E-08
   36.54000      2.8241326E-08
   36.60000      2.5884310E-08
   36.66000      2.3412143E-08
   36.72000      2.0816579E-08
   36.78000      1.8090335E-08
   36.84000      1.5228490E-08
   36.90000      1.2229584E-08
   36.96000      9.0961736E-09
   37.02000      5.8347105E-09
   37.08000      2.4548681E-09
   37.14000     -1.0312040E-09
   37.20000     -4.6091100E-09
   37.26000     -8.2615266E-09
   37.32000     -1.1966764E-08
   37.38000     -1.5697301E-08
   37.44000     -1.9419405E-08
   37.50000     -2.3094692E-08
   37.56000     -2.6683844E-08
   37.62000     -3.0151586E-08
   37.68000     -3.3471387E-08
   37.74000     -3.6628034E-08
   37.80000     -3.9617092E-08
   37.86000     -4.2441247E-08
   37.92000     -4.5104976E-08
   37.98000     -4.7609671E-08
   38.04000     -4.9951154E-08
   38.10000     -5.2120598E-08
   38.16000     -5.4108437E-08
   38.22000     -5.5909673E-08
   38.28000     -5.7528393E-08
   38.34000     -5.8979808E-08
   38.40000     -6.0289018E-08
   38.46000     -6.1487043E-08
   38.52000     -6.2605473E-08
   38.58000     -6.3671422E-08
   38.64000     -6.4704238E-08
   38.70000     -6.5714431E-08
   38.76000     -6.6704956E-08
   38.82000     -6.7674016E-08
   38.88000     -6.8618675E-08
   38.94000     -6.9538430E-08
   39.00000     -7.0438091E-08
   39.06000     -7.1329303E-08
   39.12000     -7.2230449E-08
   39.18000     -7.3164394E-08
   39.24000     -7.4154322E-08
   39.30000     -7.5217905E-08
   39.36000     -7.6361211E-08
   39.42000     -7.7573475E-08
   39.48000     -7.8824641E-08
   39.54000     -8.0066528E-08
   39.60000     -8.1237950E-08
   39.66000     -8.2272805E-08
   39.72000     -8.3109335E-08
   39.78000     -8.3698275E-08
   39.84000     -8.4007993E-08
   39.90000     -8.4025601E-08
   39.96000     -8.3754379E-08
   40.02000     -8.3209017E-08
   40.08000     -8.2410537E-08
   40.14000     -8.1382680E-08
   40.20000     -8.0150592E-08
   40.26000     -7.8741515E-08
   40.32000     -7.7186080E-08
   40.38000     -7.5518898E-08
   40.44000     -7.3777016E-08
   40.50000     -7.1996233E-08
   40.56000     -7.0206212E-08
   40.62000     -6.8425990E-08
   40.68000     -6.6661549E-08
   40.74000     -6.4906544E-08
   40.80000     -6.3146132E-08
   40.86000     -6.1362691E-08
   40.92000     -5.9541584E-08
   40.98000     -5.7675273E-08
   41.04000     -5.5764485E-08
   41.10000     -5.3816482E-08
   41.16000     -5.1841415E-08
   41.22000     -4.9848207E-08
   41.28000     -4.7841585E-08
   41.34000     -4.5821057E-08
   41.40000     -4.3781995E-08
   41.46000     -4.1717943E-08
   41.52000     -3.9623316E-08
   41.58000     -3.7495390E-08
   41.64000     -3.5335262E-08
   41.70000     -3.3147771E-08
   41.76000     -3.0940793E-08
   41.82000     -2.8724335E-08
   41.88000     -2.6509577E-08
   41.94000     -2.4307928E-08
   42.00000     -2.2130044E-08
   42.06000     -1.9984842E-08
   42.12000     -1.7878897E-08
   42.18000     -1.5816555E-08
   42.24000     -1.3801072E-08
   42.30000     -1.1836540E-08
   42.36000     -9.9299760E-09
   42.42000     -8.0925702E-09
   42.48000     -6.3392558E-09
   42.54000     -4.6863162E-09
   42.60000     -3.1475667E-09
   42.66000     -1.7303873E-09
   42.72000     -4.3319107E-10
   42.78000      7.5441248E-10
   42.84000      1.8483920E-09
   42.90000      2.8648066E-09
   42.96000      3.8138426E-09
   43.02000      4.6955644E-09
   43.08000      5.4991798E-09
   43.14000      6.2065078E-09
   43.20000      6.7988757E-09
   43.26000      7.2653710E-09
   43.32000      7.6097342E-09
   43.38000      7.8534548E-09
   43.44000      8.0337816E-09
   43.50000      8.1970093E-09
   43.56000      8.3889704E-09
   43.62000      8.6456078E-09
   43.68000      8.9865084E-09
   43.74000      9.4133510E-09
   43.80000      9.9136255E-09
   43.86000      1.0468369E-08
   43.92000      1.1061426E-08
   43.98000      1.1687386E-08
   44.04000      1.2355864E-08
   44.10000      1.3091131E-08
   44.16000      1.3927675E-08
   44.22000      1.4903772E-08
   44.28000      1.6055960E-08
   44.34000      1.7417213E-08
   44.40000      1.9020462E-08
   44.46000      2.0907379E-08
   44.52000      2.3140364E-08
   44.58000      2.5814316E-08
   44.64000      2.9064562E-08
   44.70000      3.3068584E-08
   44.76000      3.8041296E-08
   44.82000      4.4226457E-08
   44.88000      5.1888641E-08
   44.94000      6.1310658E-08
   45.00000      7.2799935E-08
   45.06000      8.6704659E-08
   45.12000      1.0343711E-07
   45.18000      1.2349955E-07
   45.24000      1.4750735E-07
   45.30000      1.7620570E-07
   45.36000      2.1047941E-07
   45.42000      2.5135876E-07
   45.48000      3.0002658E-07
   45.54000      3.5783304E-07
   45.60000      4.2632169E-07
   45.66000      5.0726806E-07
   45.72000      6.0272760E-07
   45.78000      7.1508759E-07
   45.84000      8.4711746E-07
   45.90000      1.0020142E-06
   45.96000      1.1834416E-06
   46.02000      1.3955687E-06
   46.08000      1.6431119E-06
   46.14000      1.9313877E-06
   46.20000      2.2663810E-06
   46.26000      2.6548278E-06
   46.32000      3.1043091E-06
   46.38000      3.6233550E-06
   46.44000      4.2215461E-06
   46.50000      4.9096157E-06
   46.56000      5.6995468E-06
   46.62000      6.6046687E-06
   46.68000      7.6397509E-06
   46.74000      8.8211063E-06
   46.80000      1.0166701E-05
   46.86000      1.1696274E-05
   46.92000      1.3431462E-05
   46.98000      1.5395934E-05
   47.04000      1.7615515E-05
   47.10000      2.0118310E-05
   47.16000      2.2934795E-05
   47.22000      2.6097921E-05
   47.28000      2.9643184E-05
   47.34000      3.3608681E-05
   47.40000      3.8035181E-05
   47.46000      4.2966145E-05
   47.52000      4.8447786E-05
   47.58000      5.4529071E-05
   47.64000      6.1261708E-05
   47.70000      6.8700145E-05
   47.76000      7.6901430E-05
   47.82000      8.5925087E-05
   47.88000      9.5832984E-05
   47.94000      1.0668908E-04
   48.00000      1.1855919E-04
   48.06000      1.3151069E-04
   48.12000      1.4561226E-04
   48.18000      1.6093341E-04
   48.24000      1.7754427E-04
   48.30000      1.9551492E-04
   48.36000      2.1491501E-04
   48.42000      2.3581316E-04
   48.48000      2.5827633E-04
   48.54000      2.8236912E-04
   48.60000      3.0815322E-04
   48.66000      3.3568649E-04
   48.72000      3.6502254E-04
   48.78000      3.9620974E-04
   48.84000      4.2929061E-04
   48.90000      4.6430109E-04
   48.96000      5.0126965E-04
   49.02000      5.4021680E-04
   49.08000      5.8115408E-04
   49.14000      6.2408333E-04
   49.20000      6.6899636E-04
   49.26000      7.1587419E-04
   49.32000      7.6468632E-04
   49.38000      8.1539096E-04
   49.44000      8.6793379E-04
   49.50000      9.2224870E-04
   49.56000      9.7825704E-04
   49.62000      1.0358676E-03
   49.68000      1.0949770E-03
   49.74000      1.1554700E-03
   49.80000      1.2172194E-03
   49.86000      1.2800869E-03
   49.92000      1.3439241E-03
   49.98000      1.4085724E-03
   50.04000      1.4738647E-03
   50.10000      1.5396264E-03
   50.16000      1.6056763E-03
   50.22000      1.6718281E-03
   50.28000      1.7378923E-03
   50.34000      1.8036765E-03
   50.40000      1.8689884E-03
   50.46000      1.9336368E-03
   50.52000      1.9974331E-03
   50.58000      2.0601936E-03
   50.64000      2.1217400E-03
   50.70000      2.1819030E-03
   50.76000      2.2405225E-03
   50.82000      2.2974503E-03
   50.88000      2.3525504E-03
   50.94000      2.4057010E-03
   51.00000      2.4567971E-03
   51.06000      2.5057495E-03
   51.12000      2.5524867E-03
   51.18000      2.5969555E-03
   51.24000      2.6391214E-03
   51.30000      2.6789692E-03
   51.36000      2.7165033E-03
   51.42000      2.7517474E-03
   51.48000      2.7847448E-03
   51.54000      2.8155569E-03
   51.60000      2.8442629E-03
   51.66000      2.8709581E-03
   51.72000      2.8957536E-03
   51.78000      2.9187740E-03
   51.84000      2.9401563E-03
   51.90000      2.9600484E-03
   51.96000      2.9786064E-03
   52.02000      2.9959935E-03
   52.08000      3.0123775E-03
   52.14000      3.0279276E-03
   52.20000      3.0428139E-03
   52.26000      3.0572042E-03
   52.32000      3.0712620E-03
   52.38000      3.0851448E-03
   52.44000      3.0990010E-03
   52.50000      3.1129702E-03
   52.56000      3.1271784E-03
   52.62000      3.1417389E-03
   52.68000      3.1567505E-03
   52.74000      3.1722947E-03
   52.80000      3.1884371E-03
   52.86000      3.2052256E-03
   52.92000      3.2226895E-03
   52.98000      3.2408410E-03
   53.04000      3.2596737E-03
   53.10000      3.2791635E-03
   53.16000      3.2992698E-03
   53.22000      3.3199349E-03
   53.28000      3.3410871E-03
   53.34000      3.3626400E-03
   53.40000      3.3844954E-03
   53.46000      3.4065442E-03
   53.52000      3.4286692E-03
   53.58000      3.4507455E-03
   53.64000      3.4726437E-03
   53.70000      3.4942322E-03
   53.76000      3.5153781E-03
   53.82000      3.5359494E-03
   53.88000      3.5558180E-03
   53.94000      3.5748600E-03
   54.00000      3.5929589E-03
   54.06000      3.6100068E-03
   54.12000      3.6259058E-03
   54.18000      3.6405700E-03
   54.24000      3.6539256E-03
   54.30000      3.6659124E-03
   54.36000      3.6764843E-03
   54.42000      3.6856087E-03
   54.48000      3.6932686E-03
   54.54000      3.6994615E-03
   54.60000      3.7041996E-03
   54.66000      3.7075081E-03
   54.72000      3.7094271E-03
   54.78000      3.7100075E-03
   54.84000      3.7093118E-03
   54.90000      3.7074117E-03
   54.96000      3.7043875E-03
   55.02000      3.7003257E-03
   55.08000      3.6953182E-03
   55.14000      3.6894605E-03
   55.20000      3.6828490E-03
   55.26000      3.6755814E-03
   55.32000      3.6677518E-03
   55.38000      3.6594523E-03
   55.44000      3.6507684E-03
   55.50000      3.6417793E-03
   55.56000      3.6325559E-03