  -2.400000      0.0000000E+00
  -2.340000      0.0000000E+00
  -2.280000      0.0000000E+00
  -2.220000      0.0000000E+00
  -2.160000      0.0000000E+00
  -2.100000      0.0000000E+00
  -2.040000      0.0000000E+00
  -1.980000      0.0000000E+00
  -1.920000      1.6962934E-27
  -1.860000      2.6478070E-26
  -1.800000      2.1370230E-25
  -1.740000      1.1672219E-24
  -1.680000      4.7651238E-24
  -1.620000      1.5189192E-23
  -1.560000      3.8234946E-23
  -1.500000      7.3983535E-23
  -1.440000      9.6294452E-23
  -1.380000      1.8852034E-23
  -1.320000     -3.3136419E-22
  -1.260000     -1.1794641E-21
  -1.200000     -2.6340549E-21
  -1.140000     -4.3520076E-21
  -1.080000     -5.1361841E-21
  -1.020000     -2.7530015E-21
 -0.9600000      5.6414748E-21
 -0.9000000      2.2245444E-20
 -0.8400000      4.6787239E-20
 -0.7800000      7.4911635E-20
 -0.7200000      9.7518293E-20
 -0.6600000      1.0077192E-19
 -0.6000000      6.4998295E-20
 -0.5400000     -3.9401440E-20
 -0.4800000     -2.5700085E-19
 -0.4200000     -6.4281110E-19
 -0.3600000     -1.2288499E-18
 -0.3000000     -1.9442463E-18
 -0.2400000     -2.4962301E-18
 -0.1800000     -2.2710972E-18
 -0.1200000     -3.7400304E-19
 -5.9999999E-02  4.0523512E-18
  0.0000000E+00  1.1166728E-17
  5.9999999E-02  1.9569350E-17
  0.1200000      2.5676853E-17
  0.1800000      2.3987424E-17
  0.2400000      8.8172077E-18
  0.3000000     -2.2461238E-17
  0.3600000     -6.5638284E-17
  0.4200000     -1.0735500E-16
  0.4800000     -1.2669248E-16
  0.5400000     -1.0218250E-16
  0.6000000     -2.3267371E-17
  0.6600000      9.8151121E-17
  0.7200000      2.2302115E-16
  0.7800000      2.9388748E-16
  0.8400000      2.5890208E-16
  0.9000000      1.0443702E-16
  0.9600000     -1.1917866E-16
   1.020000     -2.9802383E-16
   1.080000     -2.9402944E-16
   1.140000     -1.9144979E-17
   1.200000      4.8328555E-16
   1.260000      9.9510225E-16
   1.320000      1.1620191E-15
   1.380000      6.3109291E-16
   1.440000     -7.4578625E-16
   1.500000     -2.7271617E-15
   1.560000     -4.6265973E-15
   1.620000     -5.4713983E-15
   1.680000     -4.3771304E-15
   1.740000     -1.0233009E-15
   1.800000      3.9821386E-15
   1.860000      9.0805413E-15
   1.920000      1.2214735E-14
   1.980000      1.1682994E-14
   2.040000      7.0843430E-15
   2.100000     -1.1059380E-16
   2.160000     -6.7911747E-15
   2.220000     -9.3918691E-15
   2.280000     -5.7303664E-15
   2.340000      3.2519206E-15
   2.400000      1.2812082E-14
   2.460000      1.5545487E-14
   2.520000      4.4278190E-15
   2.580000     -2.3099300E-14
   2.640000     -6.1691490E-14
   2.700000     -9.7280779E-14
   2.760000     -1.1023939E-13
   2.820000     -8.2441581E-14
   2.880000     -6.2605925E-15
   2.940000      1.0799601E-13
   3.000000      2.3008068E-13
   3.060000      3.1581045E-13
   3.120000      3.2085388E-13
   3.180000      2.1861808E-13
   3.240000      1.5829873E-14
   3.300000     -2.4121341E-13
   3.360000     -4.7452455E-13
   3.420000     -5.9651866E-13
   3.480000     -5.4067796E-13
   3.540000     -2.9063069E-13
   3.600000      1.0376197E-13
   3.660000      5.3165366E-13
   3.720000      8.4934647E-13
   3.780000      9.2452662E-13
   3.840000      6.8302091E-13
   3.900000      1.4204650E-13
   3.960000     -5.8279542E-13
   4.020000     -1.3013022E-12
   4.080000     -1.7973681E-12
   4.140000     -1.8880457E-12
   4.200000     -1.4748248E-12
   4.260000     -5.7202105E-13
   4.320000      6.9428740E-13
   4.380000      2.1127570E-12
   4.440000      3.4265596E-12
   4.500000      4.3722131E-12
   4.560000      4.7081952E-12
   4.620000      4.2337600E-12
   4.680000      2.8078234E-12
   4.740000      3.8150386E-13
   4.800000     -2.9477696E-12
   4.860000     -6.8672164E-12
   4.920000     -1.0789813E-11
   4.980000     -1.3844734E-11
   5.040000     -1.4957634E-11
   5.100000     -1.3044842E-11
   5.160000     -7.3123946E-12
   5.220000      2.3910765E-12
   5.280000      1.5256324E-11
   5.340000      2.9338611E-11
   5.400000      4.1625266E-11
   5.460000      4.8404530E-11
   5.520000      4.5929312E-11
   5.580000      3.1293673E-11
   5.640000      3.3722966E-12
   5.700000     -3.6368665E-11
   5.760000     -8.3386416E-11
   5.820000     -1.3006519E-10
   5.880000     -1.6630589E-10
   5.940000     -1.8071378E-10
   6.000000     -1.6230572E-10
   6.060000     -1.0257564E-10
   6.120000      2.3114176E-12
   6.180000      1.4947439E-10
   6.240000      3.2772438E-10
   6.300000      5.1672572E-10
   6.360000      6.8716982E-10
   6.420000      8.0213475E-10
   6.480000      8.1967039E-10
   6.540000      6.9647504E-10
   6.600000      3.9234310E-10
   6.660000     -1.2510740E-10
   6.720000     -8.7602303E-10
   6.780000     -1.8648296E-09
   6.840000     -3.0781930E-09
   6.900000     -4.4847557E-09
   6.960000     -6.0367262E-09
   7.020000     -7.6731466E-09
   7.080000     -9.3244203E-09
   7.140000     -1.0917571E-08
   7.200000     -1.2381618E-08
   7.260000     -1.3652545E-08
   7.320000     -1.4677448E-08
   7.380000     -1.5417601E-08
   7.440000     -1.5850391E-08
   7.500000     -1.5970111E-08
   7.560000     -1.5787784E-08
   7.620000     -1.5330098E-08
   7.680000     -1.4637540E-08
   7.740000     -1.3761734E-08
   7.800000     -1.2761948E-08
   7.860000     -1.1700735E-08
   7.920000     -1.0638792E-08
   7.980000     -9.6293187E-09
   8.040000     -8.7123837E-09
   8.100000     -7.9100930E-09
   8.160000     -7.2234454E-09
   8.220000     -6.6317654E-09
   8.280000     -6.0952847E-09
   8.340000     -5.5609939E-09
   8.400000     -4.9712088E-09
   8.460000     -4.2736730E-09
   8.520000     -3.4315273E-09
   8.580000     -2.4312972E-09
   8.640000     -1.2872616E-09
   8.700000     -4.1165842E-11
   8.760000      1.2428883E-09
   8.820000      2.4875932E-09
   8.880000      3.6140135E-09
   8.940000      4.5534945E-09
   9.000000      5.2577480E-09
   9.060000      5.7053895E-09
   9.120000      5.9039524E-09
   9.180000      5.8873764E-09
   9.240000      5.7098246E-09
   9.300000      5.4373475E-09
   9.360000      5.1391229E-09
   9.420000      4.8798277E-09
   9.480000      4.7141371E-09
   9.540000      4.6836464E-09
   9.600000      4.8158388E-09
   9.660000      5.1243036E-09
   9.720000      5.6093610E-09
   9.780000      6.2585599E-09
   9.840000      7.0470620E-09
   9.900000      7.9384739E-09
   9.960000      8.8869836E-09
   10.02000      9.8415747E-09
   10.08000      1.0752518E-08
   10.14000      1.1579500E-08
   10.20000      1.2299855E-08
   10.26000      1.2914772E-08
   10.32000      1.3451336E-08
   10.38000      1.3958936E-08
   10.44000      1.4499871E-08
   10.50000      1.5135523E-08
   10.56000      1.5910977E-08
   10.62000      1.6841717E-08
   10.68000      1.7906022E-08
   10.74000      1.9045510E-08
   10.80000      2.0174465E-08
   10.86000      2.1196152E-08
   10.92000      2.2022538E-08
   10.98000      2.2592493E-08
   11.04000      2.2883860E-08
   11.10000      2.2916050E-08
   11.16000      2.2742364E-08
   11.22000      2.2433964E-08
   11.28000      2.2059790E-08
   11.34000      2.1667951E-08
   11.40000      2.1273783E-08
   11.46000      2.0857994E-08
   11.52000      2.0375387E-08
   11.58000      1.9771607E-08
   11.64000      1.9002952E-08
   11.70000      1.8053235E-08
   11.76000      1.6942483E-08
   11.82000      1.5724575E-08
   11.88000      1.4474248E-08
   11.94000      1.3267054E-08
   12.00000      1.2158226E-08
   12.06000      1.1166820E-08
   12.12000      1.0270157E-08
   12.18000      9.4106261E-09
   12.24000      8.5132079E-09
   12.30000      7.5088495E-09
   12.36000      6.3568297E-09
   12.42000      5.0594373E-09
   12.48000      3.6643133E-09
   12.54000      2.2533697E-09
   12.60000      9.2114311E-10
   12.66000     -2.5135136E-10
   12.72000     -1.2196941E-09
   12.78000     -1.9891773E-09
   12.84000     -2.6137903E-09
   12.90000     -3.1809237E-09
   12.96000     -3.7858121E-09
   13.02000     -4.5028603E-09
   13.08000     -5.3621245E-09
   13.14000     -6.3379479E-09
   13.20000     -7.3534179E-09
   13.26000     -8.2997751E-09
   13.32000     -9.0655288E-09
   13.38000     -9.5670636E-09
   13.44000     -9.7719415E-09
   13.50000     -9.7080726E-09
   13.56000     -9.4560137E-09
   13.62000     -9.1265466E-09
   13.68000     -8.8300469E-09
   13.74000     -8.6465759E-09
   13.80000     -8.6053786E-09
   13.86000     -8.6796685E-09
   13.92000     -8.7979473E-09
   13.98000     -8.8682528E-09
   14.04000     -8.8078780E-09
   14.10000     -8.5696712E-09
   14.16000     -8.1571869E-09
   14.22000     -7.6244699E-09
   14.28000     -7.0609349E-09
   14.34000     -6.5662107E-09
   14.40000     -6.2226433E-09
   14.46000     -6.0736109E-09
   14.52000     -6.1137926E-09
   14.58000     -6.2937775E-09
   14.64000     -6.5370949E-09
   14.70000     -6.7641830E-09
   14.76000     -6.9159980E-09
   14.82000     -6.9704229E-09
   14.88000     -6.9470274E-09
   14.94000     -6.8993353E-09
   15.00000     -6.8974191E-09
   15.06000     -7.0062822E-09
   15.12000     -7.2664350E-09
   15.18000     -7.6820417E-09
   15.24000     -8.2195450E-09
   15.30000     -8.8164347E-09
   15.36000     -9.3969126E-09
   15.42000     -9.8894093E-09
   15.48000     -1.0240780E-08
   15.54000     -1.0423358E-08
   15.60000     -1.0433562E-08
   15.66000     -1.0283473E-08
   15.72000     -9.9888444E-09
   15.78000     -9.5579722E-09
   15.84000     -8.9852170E-09
   15.90000     -8.2512992E-09
   15.96000     -7.3301765E-09
   16.02000     -6.2001870E-09
   16.08000     -4.8558442E-09
   16.14000     -3.3164853E-09
   16.20000     -1.6289520E-09
   16.26000      1.3682271E-10
   16.32000      1.8984996E-09
   16.38000      3.5758665E-09
   16.44000      5.1059086E-09
   16.50000      6.4551218E-09
   16.56000      7.6265350E-09
   16.62000      8.6602112E-09
   16.68000      9.6273869E-09
   16.74000      1.0619613E-08
   16.80000      1.1735031E-08
   16.86000      1.3064151E-08
   16.92000      1.4677223E-08
   16.98000      1.6614786E-08
   17.04000      1.8882162E-08
   17.10000      2.1448066E-08
   17.16000      2.4246885E-08
   17.22000      2.7183933E-08
   17.28000      3.0142925E-08
   17.34000      3.2995047E-08
   17.40000      3.5609123E-08
   17.46000      3.7862581E-08
   17.52000      3.9652647E-08
   17.58000      4.0907093E-08
   17.64000      4.1593172E-08
   17.70000      4.1723261E-08
   17.76000      4.1355513E-08
   17.82000      4.0588304E-08
   17.88000      3.9548397E-08
   17.94000      3.8373777E-08
   18.00000      3.7193825E-08
   18.06000      3.6110105E-08
   18.12000      3.5181515E-08
   18.18000      3.4416768E-08
   18.24000      3.3775880E-08
   18.30000      3.3180363E-08
   18.36000      3.2530124E-08
   18.42000      3.1723548E-08
   18.48000      3.0676649E-08
   18.54000      2.9337572E-08
   18.60000      2.7693696E-08
   18.66000      2.5770484E-08
   18.72000      2.3623125E-08
   18.78000      2.1323610E-08
   18.84000      1.8946878E-08
   18.90000      1.6559609E-08
   18.96000      1.4214184E-08
   19.02000      1.1948615E-08
   19.08000      9.7912025E-09
   19.14000      7.7671709E-09
   19.20000      5.9038237E-09
   19.26000      4.2313530E-09
   19.32000      2.7780138E-09
   19.38000      1.5605941E-09
   19.44000      5.7314992E-10
   19.50000     -2.2182460E-10
   19.56000     -8.9575353E-10
   19.62000     -1.5473719E-09
   19.68000     -2.2872122E-09
   19.74000     -3.2160541E-09
   19.80000     -4.4024193E-09
   19.86000     -5.8650471E-09
   19.92000     -7.5654407E-09
   19.98000     -9.4132098E-09
   20.04000     -1.1283649E-08
   20.10000     -1.3043692E-08
   20.16000     -1.4580145E-08
   20.22000     -1.5823336E-08
   20.28000     -1.6760549E-08
   20.34000     -1.7436188E-08
   20.40000     -1.7939010E-08
   20.46000     -1.8380028E-08
   20.52000     -1.8866773E-08
   20.58000     -1.9480302E-08
   20.64000     -2.0260286E-08
   20.70000     -2.1201211E-08
   20.76000     -2.2259796E-08
   20.82000     -2.3370863E-08
   20.88000     -2.4467049E-08
   20.94000     -2.5496904E-08
   21.00000     -2.6436823E-08
   21.06000     -2.7294012E-08
   21.12000     -2.8100345E-08
   21.18000     -2.8899432E-08
   21.24000     -2.9731011E-08
   21.30000     -3.0617503E-08
   21.36000     -3.1556770E-08
   21.42000     -3.2523250E-08
   21.48000     -3.3477200E-08
   21.54000     -3.4379237E-08
   21.60000     -3.5205801E-08
   21.66000     -3.5960792E-08
   21.72000     -3.6679559E-08
   21.78000     -3.7423742E-08
   21.84000     -3.8267906E-08
   21.90000     -3.9281389E-08
   21.96000     -4.0510312E-08
   22.02000     -4.1964626E-08
   22.08000     -4.3613902E-08
   22.14000     -4.5393310E-08
   22.20000     -4.7218368E-08
   22.26000     -4.9004793E-08
   22.32000     -5.0688193E-08
   22.38000     -5.2238441E-08
   22.44000     -5.3664774E-08
   22.50000     -5.5010190E-08
   22.56000     -5.6336678E-08
   22.62000     -5.7705257E-08
   22.68000     -5.9156473E-08
   22.74000     -6.0696671E-08
   22.80000     -6.2293942E-08
   22.86000     -6.3884677E-08
   22.92000     -6.5388591E-08
   22.98000     -6.6727559E-08
   23.04000     -6.7842713E-08
   23.10000     -6.8704743E-08
   23.16000     -6.9314765E-08
   23.22000     -6.9696121E-08
   23.28000     -6.9880222E-08
   23.34000     -6.9891598E-08
   23.40000     -6.9737133E-08
   23.46000     -6.9402958E-08
   23.52000     -6.8860118E-08
   23.58000     -6.8076581E-08
   23.64000     -6.7031650E-08
   23.70000     -6.5727519E-08
   23.76000     -6.4194033E-08
   23.82000     -6.2484503E-08
   23.88000     -6.0663830E-08
   23.94000     -5.8792264E-08
   24.00000     -5.6909865E-08
   24.06000     -5.5026455E-08
   24.12000     -5.3120356E-08
   24.18000     -5.1146543E-08
   24.24000     -4.9052030E-08
   24.30000     -4.6794234E-08
   24.36000     -4.4357069E-08
   24.42000     -4.1760210E-08
   24.48000     -3.9058879E-08
   24.54000     -3.6334082E-08
   24.60000     -3.3675992E-08
   24.66000     -3.1164959E-08
   24.72000     -2.8855270E-08
   24.78000     -2.6765978E-08
   24.84000     -2.4880936E-08
   24.90000     -2.3157702E-08
   24.96000     -2.1542386E-08
   25.02000     -1.9985970E-08
   25.08000     -1.8457477E-08
   25.14000     -1.6950482E-08
   25.20000     -1.5481689E-08
   25.26000     -1.4082755E-08
   25.32000     -1.2788543E-08
   25.38000     -1.1625855E-08
   25.44000     -1.0606350E-08
   25.50000     -9.7256772E-09
   25.56000     -8.9687999E-09
   25.62000     -8.3192964E-09
   25.68000     -7.7692288E-09
   25.74000     -7.3259296E-09
   25.80000     -7.0131092E-09
   25.86000     -6.8655717E-09
   25.92000     -6.9189272E-09
   25.98000     -7.1974204E-09
   26.04000     -7.7037079E-09
   26.10000     -8.4139540E-09
   26.16000     -9.2800363E-09
   26.22000     -1.0238522E-08
   26.28000     -1.1223944E-08
   26.34000     -1.2182603E-08
   26.40000     -1.3082996E-08
   26.46000     -1.3919927E-08
   26.52000     -1.4711428E-08
   26.58000     -1.5489659E-08
   26.64000     -1.6288759E-08
   26.70000     -1.7133273E-08
   26.76000     -1.8030411E-08
   26.82000     -1.8967890E-08
   26.88000     -1.9917303E-08
   26.94000     -2.0841160E-08
   27.00000     -2.1700858E-08
   27.06000     -2.2462890E-08
   27.12000     -2.3101626E-08
   27.18000     -2.3598620E-08
   27.24000     -2.3939837E-08
   27.30000     -2.4113076E-08
   27.36000     -2.4107610E-08
   27.42000     -2.3916950E-08
   27.48000     -2.3544017E-08
   27.54000     -2.3006566E-08
   27.60000     -2.2340179E-08
   27.66000     -2.1596598E-08
   27.72000     -2.0836845E-08
   27.78000     -2.0120527E-08
   27.84000     -1.9494372E-08
   27.90000     -1.8983737E-08
   27.96000     -1.8590061E-08
   28.02000     -1.8295472E-08
   28.08000     -1.8073274E-08
   28.14000     -1.7900966E-08
   28.20000     -1.7771304E-08
   28.26000     -1.7697310E-08
   28.32000     -1.7708906E-08
   28.38000     -1.7841597E-08
   28.44000     -1.8120391E-08
   28.50000     -1.8544140E-08
   28.56000     -1.9075820E-08
   28.62000     -1.9642796E-08
   28.68000     -2.0148157E-08
   28.74000     -2.0490591E-08
   28.80000     -2.0587310E-08
   28.86000     -2.0393154E-08
   28.92000     -1.9909962E-08
   28.98000     -1.9183203E-08
   29.04000     -1.8286892E-08
   29.10000     -1.7301497E-08
   29.16000     -1.6291690E-08
   29.22000     -1.5290613E-08
   29.28000     -1.4294939E-08
   29.34000     -1.3271400E-08
   29.40000     -1.2171827E-08
   29.46000     -1.0951480E-08
   29.52000     -9.5849284E-09
   29.58000     -8.0752596E-09
   29.64000     -6.4548846E-09
   29.70000     -4.7789519E-09
   29.76000     -3.1142906E-09
   29.82000     -1.5275000E-09
   29.88000     -7.5226471E-11
   29.94000      1.2016815E-09
   30.00000      2.2800060E-09
   30.06000      3.1530187E-09
   30.12000      3.8278949E-09
   30.18000      4.3229873E-09
   30.24000      4.6655817E-09
   30.30000      4.8899458E-09
   30.36000      5.0349298E-09
   30.42000      5.1403237E-09
   30.48000      5.2416400E-09
   30.54000      5.3638498E-09
   30.60000      5.5154872E-09
   30.66000      5.6850959E-09
   30.72000      5.8418617E-09
   30.78000      5.9413958E-09
   30.84000      5.9361236E-09
   30.90000      5.7880860E-09
   30.96000      5.4807541E-09
   31.02000      5.0262394E-09
   31.08000      4.4652699E-09
   31.14000      3.8593777E-09
   31.20000      3.2772209E-09
   31.26000      2.7790668E-09
   31.32000      2.4043287E-09
   31.38000      2.1663231E-09
   31.44000      2.0561484E-09
   31.50000      2.0545416E-09
   31.56000      2.1477247E-09
   31.62000      2.3416340E-09
   31.68000      2.6691427E-09
   31.74000      3.1869340E-09
   31.80000      3.9619374E-09
   31.86000      5.0506563E-09
   31.92000      6.4772125E-09
   31.98000      8.2166984E-09
   32.04000      1.0189241E-08
   32.10000      1.2267385E-08
   32.16000      1.4295828E-08
   32.22000      1.6119120E-08
   32.28000      1.7610798E-08
   32.34000      1.8696788E-08
   32.40000      1.9367336E-08
   32.46000      1.9674518E-08
   32.52000      1.9715964E-08
   32.58000      1.9608944E-08
   32.64000      1.9461384E-08
   32.70000      1.9347107E-08
   32.76000      1.9291376E-08
   32.82000      1.9270038E-08
   32.88000      1.9221806E-08
   32.94000      1.9069653E-08
   33.00000      1.8744961E-08
   33.06000      1.8207480E-08
   33.12000      1.7455662E-08
   33.18000      1.6524933E-08
   33.24000      1.5475036E-08
   33.30000      1.4370770E-08
   33.36000      1.3262095E-08
   33.42000      1.2169519E-08
   33.48000      1.1078719E-08
   33.54000      9.9454267E-09
   33.60000      8.7083984E-09
   33.66000      7.3060615E-09
   33.72000      5.6915961E-09
   33.78000      3.8421306E-09
   33.84000      1.7599974E-09
   33.90000     -5.3323340E-10
   33.96000     -3.0068581E-09
   34.02000     -5.6310503E-09
   34.08000     -8.3829654E-09
   34.14000     -1.1246908E-08
   34.20000     -1.4208969E-08
   34.26000     -1.7248693E-08
   34.32000     -2.0331569E-08
   34.38000     -2.3405754E-08
   34.44000     -2.6405031E-08
   34.50000     -2.9257675E-08
   34.56000     -3.1898821E-08
   34.62000     -3.4282600E-08
   34.68000     -3.6390219E-08
   34.74000     -3.8231359E-08
   34.80000     -3.9838255E-08
   34.86000     -4.1254168E-08
   34.92000     -4.2519741E-08
   34.98000     -4.3661668E-08
   35.04000     -4.4687276E-08
   35.10000     -4.5587164E-08
   35.16000     -4.6344983E-08
   35.22000     -4.6951246E-08
   35.28000     -4.7416101E-08
   35.34000     -4.7776254E-08
   35.40000     -4.8092776E-08
   35.46000     -4.8439762E-08
   35.52000     -4.8887006E-08
   35.58000     -4.9482281E-08
   35.64000     -5.0239244E-08
   35.70000     -5.1135469E-08
   35.76000     -5.2121674E-08
   35.82000     -5.3139619E-08
   35.88000     -5.4143136E-08
   35.94000     -5.5115716E-08
   36.00000     -5.6079159E-08
   36.06000     -5.7090670E-08
   36.12000     -5.8229446E-08
   36.18000     -5.9576877E-08
   36.24000     -6.1196282E-08
   36.30000     -6.3117959E-08
   36.36000     -6.5333282E-08
   36.42000     -6.7799029E-08
   36.48000     -7.0449602E-08
   36.54000     -7.3213258E-08
   36.60000     -7.6027376E-08
   36.66000     -7.8848522E-08
   36.72000     -8.1655344E-08
   36.78000     -8.4444224E-08
   36.84000     -8.7220172E-08
   36.90000     -8.9986344E-08
   36.96000     -9.2735654E-08
   37.02000     -9.5447156E-08
   37.08000     -9.8087646E-08
   37.14000     -1.0061739E-07
   37.20000     -1.0299754E-07
   37.26000     -1.0519589E-07
   37.32000     -1.0718883E-07
   37.38000     -1.0895838E-07
   37.44000     -1.1048527E-07
   37.50000     -1.1174108E-07
   37.56000     -1.1268273E-07
   37.62000     -1.1325299E-07
   37.68000     -1.1338834E-07
   37.74000     -1.1303344E-07
   37.80000     -1.1215865E-07
   37.86000     -1.1077535E-07
   37.92000     -1.0894399E-07
   37.98000     -1.0677113E-07
   38.04000     -1.0439526E-07
   38.10000     -1.0196448E-07
   38.16000     -9.9611682E-08
   38.22000     -9.7434004E-08
   38.28000     -9.5481845E-08
   38.34000     -9.3760129E-08
   38.40000     -9.2240576E-08
   38.46000     -9.0880746E-08
   38.52000     -8.9643727E-08
   38.58000     -8.8512564E-08
   38.64000     -8.7495522E-08
   38.70000     -8.6620965E-08
   38.76000     -8.5924036E-08
   38.82000     -8.5429527E-08
   38.88000     -8.5136300E-08
   38.94000     -8.5007983E-08
   39.00000     -8.4972854E-08
   39.06000     -8.4933141E-08
   39.12000     -8.4781433E-08
   39.18000     -8.4419781E-08
   39.24000     -8.3776754E-08
   39.30000     -8.2818040E-08
   39.36000     -8.1548549E-08
   39.42000     -8.0006110E-08
   39.48000     -7.8249471E-08
   39.54000     -7.6344641E-08
   39.60000     -7.4353913E-08
   39.66000     -7.2330302E-08
   39.72000     -7.0318457E-08
   39.78000     -6.8360080E-08
   39.84000     -6.6500689E-08
   39.90000     -6.4793859E-08
   39.96000     -6.3300035E-08
   40.02000     -6.2079074E-08
   40.08000     -6.1178369E-08
   40.14000     -6.0620017E-08
   40.20000     -6.0391621E-08
   40.26000     -6.0444059E-08
   40.32000     -6.0697907E-08
   40.38000     -6.1056959E-08
   40.44000     -6.1425240E-08
   40.50000     -6.1722446E-08
   40.56000     -6.1893402E-08
   40.62000     -6.1909049E-08
   40.68000     -6.1759366E-08
   40.74000     -6.1441632E-08
   40.80000     -6.0948608E-08
   40.86000     -6.0261399E-08
   40.92000     -5.9349784E-08
   40.98000     -5.8179825E-08
   41.04000     -5.6726073E-08
   41.10000     -5.4983683E-08
   41.16000     -5.2975864E-08
   41.22000     -5.0753695E-08
   41.28000     -4.8388021E-08
   41.34000     -4.5955780E-08
   41.40000     -4.3525048E-08
   41.46000     -4.1143437E-08
   41.52000     -3.8833420E-08
   41.58000     -3.6595743E-08
   41.64000     -3.4419600E-08
   41.70000     -3.2295862E-08
   41.76000     -3.0228815E-08
   41.82000     -2.8242031E-08
   41.88000     -2.6376112E-08
   41.94000     -2.4678570E-08
   42.00000     -2.3188933E-08
   42.06000     -2.1924020E-08
   42.12000     -2.0868621E-08
   42.18000     -1.9975289E-08
   42.24000     -1.9174101E-08
   42.30000     -1.8389924E-08
   42.36000     -1.7562133E-08
   42.42000     -1.6660683E-08
   42.48000     -1.5693479E-08
   42.54000     -1.4702620E-08
   42.60000     -1.3750546E-08
   42.66000     -1.2900217E-08
   42.72000     -1.2195237E-08
   42.78000     -1.1645776E-08
   42.84000     -1.1224447E-08
   42.90000     -1.0873359E-08
   42.96000     -1.0520449E-08
   43.02000     -1.0100586E-08
   43.08000     -9.5756523E-09
   43.14000     -8.9480627E-09
   43.20000     -8.2639460E-09
   43.26000     -7.6049922E-09
   43.32000     -7.0710593E-09
   43.38000     -6.7580923E-09
   43.44000     -6.7371597E-09
   43.50000     -7.0399744E-09
   43.56000     -7.6543927E-09
   43.62000     -8.5305656E-09
   43.68000     -9.5955670E-09
   43.74000     -1.0772210E-08
   43.80000     -1.1996977E-08
   43.86000     -1.3232569E-08
   43.92000     -1.4472329E-08
   43.98000     -1.5736061E-08
   44.04000     -1.7059028E-08
   44.10000     -1.8477579E-08
   44.16000     -2.0015563E-08
   44.22000     -2.1675328E-08
   44.28000     -2.3435822E-08
   44.34000     -2.5258275E-08
   44.40000     -2.7097874E-08
   44.46000     -2.8918135E-08
   44.52000     -3.0703994E-08
   44.58000     -3.2470162E-08
   44.64000     -3.4262893E-08
   44.70000     -3.6155459E-08
   44.76000     -3.8239492E-08
   44.82000     -4.0615515E-08
   44.88000     -4.3385711E-08
   44.94000     -4.6651010E-08
   45.00000     -5.0512700E-08
   45.06000     -5.5077404E-08
   45.12000     -6.0463428E-08
   45.18000     -6.6806557E-08
   45.24000     -7.4264257E-08
   45.30000     -8.3018236E-08
   45.36000     -9.3276455E-08
   45.42000     -1.0527573E-07
   45.48000     -1.1928640E-07
   45.54000     -1.3561933E-07
   45.60000     -1.5463540E-07
   45.66000     -1.7675613E-07
   45.72000     -2.0247454E-07
   45.78000     -2.3236530E-07
   45.84000     -2.6709347E-07
   45.90000     -3.0742251E-07
   45.96000     -3.5422255E-07
   46.02000     -4.0848141E-07
   46.08000     -4.7131815E-07
   46.14000     -5.4400198E-07
   46.20000     -6.2797449E-07
   46.26000     -7.2487501E-07
   46.32000     -8.3656658E-07
   46.38000     -9.6516123E-07
   46.44000     -1.1130418E-06
   46.50000     -1.2828805E-06
   46.56000     -1.4776563E-06
   46.62000     -1.7006686E-06
   46.68000     -1.9555546E-06
   46.74000     -2.2463098E-06
   46.80000     -2.5773129E-06
   46.86000     -2.9533614E-06
   46.92000     -3.3797089E-06
   46.98000     -3.8621115E-06
   47.04000     -4.4068665E-06
   47.10000     -5.0208528E-06
   47.16000     -5.7115544E-06
   47.22000     -6.4870787E-06
   47.28000     -7.3561623E-06
   47.34000     -8.3281739E-06
   47.40000     -9.4131155E-06
   47.46000     -1.0621626E-05
   47.52000     -1.1964989E-05
   47.58000     -1.3455144E-05
   47.64000     -1.5104697E-05
   47.70000     -1.6926926E-05
   47.76000     -1.8935767E-05
   47.82000     -2.1145799E-05
   47.88000     -2.3572204E-05
   47.94000     -2.6230706E-05
   48.00000     -2.9137509E-05
   48.06000     -3.2309210E-05
   48.12000     -3.5762718E-05
   48.18000     -3.9515144E-05
   48.24000     -4.3583725E-05
   48.30000     -4.7985697E-05
   48.36000     -5.2738204E-05
   48.42000     -5.7858168E-05
   48.48000     -6.3362168E-05
   48.54000     -6.9266294E-05
   48.60000     -7.5585995E-05
   48.66000     -8.2335871E-05
   48.72000     -8.9529545E-05
   48.78000     -9.7179436E-05
   48.84000     -1.0529652E-04
   48.90000     -1.1389021E-04
   48.96000     -1.2296814E-04
   49.02000     -1.3253593E-04
   49.08000     -1.4259713E-04
   49.14000     -1.5315296E-04
   49.20000     -1.6420224E-04
   49.26000     -1.7574127E-04
   49.32000     -1.8776364E-04
   49.38000     -2.0026020E-04
   49.44000     -2.1321895E-04
   49.50000     -2.2662495E-04
   49.56000     -2.4046031E-04
   49.62000     -2.5470418E-04
   49.68000     -2.6933261E-04
   49.74000     -2.8431878E-04
   49.80000     -2.9963301E-04
   49.86000     -3.1524294E-04
   49.92000     -3.3111352E-04
   49.98000     -3.4720742E-04
   50.04000     -3.6348501E-04
   50.10000     -3.7990490E-04
   50.16000     -3.9642400E-04
   50.22000     -4.1299788E-04
   50.28000     -4.2958118E-04
   50.34000     -4.4612793E-04
   50.40000     -4.6259185E-04
   50.46000     -4.7892684E-04
   50.52000     -4.9508730E-04
   50.58000     -5.1102869E-04
   50.64000     -5.2670750E-04
   50.70000     -5.4208224E-04
   50.76000     -5.5711361E-04
   50.82000     -5.7176483E-04
   50.88000     -5.8600213E-04
   50.94000     -5.9979496E-04
   51.00000     -6.1311637E-04
   51.06000     -6.2594318E-04
   51.12000     -6.3825655E-04
   51.18000     -6.5004179E-04
   51.24000     -6.6128868E-04
   51.30000     -6.7199167E-04
   51.36000     -6.8214972E-04
   51.42000     -6.9176644E-04
   51.48000     -7.0084987E-04
   51.54000     -7.0941262E-04
   51.60000     -7.1747153E-04
   51.66000     -7.2504737E-04
   51.72000     -7.3216460E-04
   51.78000     -7.3885120E-04
   51.84000     -7.4513780E-04
   51.90000     -7.5105793E-04
   51.96000     -7.5664703E-04
   52.02000     -7.6194224E-04
   52.08000     -7.6698174E-04
   52.14000     -7.7180436E-04
   52.20000     -7.7644899E-04
   52.26000     -7.8095397E-04
   52.32000     -7.8535662E-04
   52.38000     -7.8969274E-04
   52.44000     -7.9399592E-04
   52.50000     -7.9829746E-04
   52.56000     -8.0262549E-04
   52.62000     -8.0700469E-04
   52.68000     -8.1145595E-04
   52.74000     -8.1599638E-04
   52.80000     -8.2063844E-04
   52.86000     -8.2539028E-04
   52.92000     -8.3025557E-04
   52.98000     -8.3523296E-04
   53.04000     -8.4031693E-04
   53.10000     -8.4549707E-04
   53.16000     -8.5075892E-04
   53.22000     -8.5608358E-04
   53.28000     -8.6144841E-04
   53.34000     -8.6682726E-04
   53.40000     -8.7219081E-04
   53.46000     -8.7750709E-04
   53.52000     -8.8274159E-04
   53.58000     -8.8785822E-04
   53.64000     -8.9281966E-04
   53.70000     -8.9758768E-04
   53.76000     -9.0212416E-04
   53.82000     -9.0639119E-04
   53.88000     -9.1035204E-04
   53.94000     -9.1397151E-04
   54.00000     -9.1721647E-04
   54.06000     -9.2005631E-04
   54.12000     -9.2246325E-04
   54.18000     -9.2441327E-04
   54.24000     -9.2588551E-04
   54.30000     -9.2686369E-04
   54.36000     -9.2733529E-04
   54.42000     -9.2729228E-04
   54.48000     -9.2673127E-04
   54.54000     -9.2565315E-04
   54.60000     -9.2406344E-04
   54.66000     -9.2197186E-04
   54.72000     -9.1939268E-04
   54.78000     -9.1634417E-04
   54.84000     -9.1284828E-04
   54.90000     -9.0893032E-04
   54.96000     -9.0461870E-04
   55.02000     -8.9994416E-04
   55.08000     -8.9493959E-04
   55.14000     -8.8963937E-04
   55.20000     -8.8407920E-04
   55.26000     -8.7829522E-04
   55.32000     -8.7232410E-04
   55.38000     -8.6620200E-04
   55.44000     -8.5996412E-04
   55.50000     -8.5364451E-04
   55.56000     -8.4727525E-04