  -2.400000      0.0000000E+00
  -2.340000      0.0000000E+00
  -2.280000      0.0000000E+00
  -2.220000      0.0000000E+00
  -2.160000      0.0000000E+00
  -2.100000      0.0000000E+00
  -2.040000      0.0000000E+00
  -1.980000      0.0000000E+00
  -1.920000     -3.8455128E-27
  -1.860000     -4.0132713E-26
  -1.800000     -1.8733435E-25
  -1.740000     -4.1850348E-25
  -1.680000      2.5273176E-25
  -1.620000      5.8066955E-24
  -1.560000      2.5146093E-23
  -1.500000      6.8021677E-23
  -1.440000      1.2400758E-22
  -1.380000      1.1747125E-22
  -1.320000     -1.4169677E-22
  -1.260000     -9.3831554E-22
  -1.200000     -2.4406638E-21
  -1.140000     -4.2094539E-21
  -1.080000     -4.5499429E-21
  -1.020000     -2.2802114E-22
 -0.9600000      1.2544331E-20
 -0.9000000      3.5024640E-20
 -0.8400000      6.0965266E-20
 -0.7800000      7.2057215E-20
 -0.7200000      3.8437161E-20
 -0.6600000     -7.0410635E-20
 -0.6000000     -2.6221201E-19
 -0.5400000     -4.9175293E-19
 -0.4800000     -6.4038048E-19
 -0.4200000     -5.2852555E-19
 -0.3600000      1.9832898E-20
 -0.3000000      1.0628602E-18
 -0.2400000      2.4130407E-18
 -0.1800000      3.5649954E-18
 -0.1200000      3.7573525E-18
 -5.9999999E-02  2.2139820E-18
  0.0000000E+00 -1.4668998E-18
  5.9999999E-02 -6.9027469E-18
  0.1200000     -1.2690396E-17
  0.1800000     -1.6529994E-17
  0.2400000     -1.5791713E-17
  0.3000000     -8.4353033E-18
  0.3600000      5.9776302E-18
  0.4200000      2.5524956E-17
  0.4800000      4.5722425E-17
  0.5400000      6.0033672E-17
  0.6000000      6.1073087E-17
  0.6600000      4.2370768E-17
  0.7200000      5.3656342E-19
  0.7800000     -6.2374514E-17
  0.8400000     -1.3666926E-16
  0.9000000     -2.0376127E-16
  0.9600000     -2.3710583E-16
   1.020000     -2.0679022E-16
   1.080000     -8.8696883E-17
   1.140000      1.2248606E-16
   1.200000      3.9970865E-16
   1.260000      6.7540358E-16
   1.320000      8.4593588E-16
   1.380000      7.9418545E-16
   1.440000      4.3033199E-16
   1.500000     -2.5765310E-16
   1.560000     -1.1613320E-15
   1.620000     -2.0397242E-15
   1.680000     -2.5575787E-15
   1.740000     -2.3798587E-15
   1.800000     -1.3052211E-15
   1.860000      6.0381781E-16
   1.920000      2.9519316E-15
   1.980000      5.0553506E-15
   2.040000      6.1186941E-15
   2.100000      5.5093056E-15
   2.160000      3.0384558E-15
   2.220000     -8.7063351E-16
   2.280000     -5.2276227E-15
   2.340000     -8.7575533E-15
   2.400000     -1.0339867E-14
   2.460000     -9.4328740E-15
   2.520000     -6.2900501E-15
   2.580000     -1.8466955E-15
   2.640000      2.6961988E-15
   2.700000      6.4048888E-15
   2.760000      8.9917892E-15
   2.820000      1.0819305E-14
   2.880000      1.2487354E-14
   2.940000      1.4194796E-14
   3.000000      1.5227880E-14
   3.060000      1.3923525E-14
   3.120000      8.2616070E-15
   3.180000     -3.0634751E-15
   3.240000     -1.9513232E-14
   3.300000     -3.8045017E-14
   3.360000     -5.3334185E-14
   3.420000     -5.9001611E-14
   3.480000     -4.9618418E-14
   3.540000     -2.2963902E-14
   3.600000      1.8158655E-14
   3.660000      6.5265908E-14
   3.720000      1.0527339E-13
   3.780000      1.2353779E-13
   3.840000      1.0850518E-13
   3.900000      5.6842995E-14
   3.960000     -2.2771442E-14
   4.020000     -1.0926899E-13
   4.080000     -1.7364376E-13
   4.140000     -1.8805660E-13
   4.200000     -1.3719818E-13
   4.260000     -2.7659063E-14
   4.320000      1.0938094E-13
   4.380000      2.2513920E-13
   4.440000      2.6928435E-13
   4.500000      2.1021009E-13
   4.560000      5.1717833E-14
   4.620000     -1.6169784E-13
   4.680000     -3.5523047E-13
   4.740000     -4.4806853E-13
   4.800000     -3.8377765E-13
   4.860000     -1.5542926E-13
   4.920000      1.8489747E-13
   4.980000      5.3727498E-13
   5.040000      7.8307022E-13
   5.100000      8.2246742E-13
   5.160000      6.0754212E-13
   5.220000      1.5986613E-13
   5.280000     -4.3239501E-13
   5.340000     -1.0354704E-12
   5.400000     -1.5009573E-12
   5.460000     -1.6970882E-12
   5.520000     -1.5333171E-12
   5.580000     -9.7630888E-13
   5.640000     -5.9627636E-14
   5.700000      1.1099141E-12
   5.760000      2.3497875E-12
   5.820000      3.4092820E-12
   5.880000      3.9967626E-12
   5.940000      3.8340689E-12
   6.000000      2.7357910E-12
   6.060000      6.9674984E-13
   6.120000     -2.0418864E-12
   6.180000     -4.9812862E-12
   6.240000     -7.4318017E-12
   6.300000     -8.6578800E-12
   6.360000     -8.0715252E-12
   6.420000     -5.4208821E-12
   6.480000     -9.1324409E-13
   6.540000      4.7735336E-12
   6.600000      1.0604298E-11
   6.660000      1.5398184E-11
   6.720000      1.8081769E-11
   6.780000      1.7917662E-11
   6.840000      1.4657556E-11
   6.900000      8.6003774E-12
   6.960000      5.7055825E-13
   7.020000     -8.1476883E-12
   7.080000     -1.5885243E-11
   7.140000     -2.0657453E-11
   7.200000     -2.0241791E-11
   7.260000     -1.2297327E-11
   7.320000      5.4402980E-12
   7.380000      3.4877636E-11
   7.440000      7.7221965E-11
   7.500000      1.3264162E-10
   7.560000      2.0001105E-10
   7.620000      2.7681665E-10
   7.680000      3.5927233E-10
   7.740000      4.4264947E-10
   7.800000      5.2178051E-10
   7.860000      5.9166266E-10
   7.920000      6.4807110E-10
   7.980000      6.8809108E-10
   8.040000      7.1049233E-10
   8.100000      7.1589179E-10
   8.160000      7.0667899E-10
   8.220000      6.8670719E-10
   8.280000      6.6078815E-10
   8.340000      6.3405925E-10
   8.400000      6.1131677E-10
   8.460000      5.9641964E-10
   8.520000      5.9186606E-10
   8.580000      5.9861405E-10
   8.640000      6.1617533E-10
   8.700000      6.4295597E-10
   8.760000      6.7676409E-10
   8.820000      7.1537098E-10
   8.880000      7.5700107E-10
   8.940000      8.0065282E-10
   9.000000      8.4619844E-10
   9.060000      8.9427588E-10
   9.120000      9.4603858E-10
   9.180000      1.0028587E-09
   9.240000      1.0660747E-09
   9.300000      1.1368387E-09
   9.360000      1.2160719E-09
   9.420000      1.3044933E-09
   9.480000      1.4026710E-09
   9.540000      1.5110534E-09
   9.600000      1.6299688E-09
   9.660000      1.7596117E-09
   9.720000      1.9000490E-09
   9.780000      2.0512740E-09
   9.840000      2.2133038E-09
   9.900000      2.3862923E-09
   9.960000      2.5706111E-09
   10.02000      2.7668472E-09
   10.08000      2.9756952E-09
   10.14000      3.1977458E-09
   10.20000      3.4332024E-09
   10.26000      3.6815739E-09
   10.32000      3.9414148E-09
   10.38000      4.2101700E-09
   10.44000      4.4841943E-09
   10.50000      4.7589883E-09
   10.56000      5.0296571E-09
   10.62000      5.2915379E-09
   10.68000      5.5408731E-09
   10.74000      5.7753771E-09
   10.80000      5.9945160E-09
   10.86000      6.1994179E-09
   10.92000      6.3924057E-09
   10.98000      6.5762755E-09
   11.04000      6.7535195E-09
   11.10000      6.9256947E-09
   11.16000      7.0930728E-09
   11.22000      7.2546031E-09
   11.28000      7.4081075E-09
   11.34000      7.5506028E-09
   11.40000      7.6786604E-09
   11.46000      7.7887758E-09
   11.52000      7.8778113E-09
   11.58000      7.9435400E-09
   11.64000      7.9852907E-09
   11.70000      8.0045730E-09
   11.76000      8.0054514E-09
   11.82000      7.9944522E-09
   11.88000      7.9798479E-09
   11.94000      7.9703577E-09
   12.00000      7.9734983E-09
   12.06000      7.9939921E-09
   12.12000      8.0326572E-09
   12.18000      8.0861389E-09
   12.24000      8.1476461E-09
   12.30000      8.2085636E-09
   12.36000      8.2606331E-09
   12.42000      8.2981657E-09
   12.48000      8.3197538E-09
   12.54000      8.3289855E-09
   12.60000      8.3339335E-09
   12.66000      8.3454159E-09
   12.72000      8.3744354E-09
   12.78000      8.4293958E-09
   12.84000      8.5138225E-09
   12.90000      8.6252268E-09
   12.96000      8.7553973E-09
   13.02000      8.8920142E-09
   13.08000      9.0210373E-09
   13.14000      9.1291001E-09
   13.20000      9.2051611E-09
   13.26000      9.2409449E-09
   13.32000      9.2302113E-09
   13.38000      9.1672812E-09
   13.44000      9.0455528E-09
   13.50000      8.8567109E-09
   13.56000      8.5910434E-09
   13.62000      8.2388141E-09
   13.68000      7.7922460E-09
   13.74000      7.2473942E-09
   13.80000      6.6051977E-09
   13.86000      5.8712764E-09
   13.92000      5.0544378E-09
   13.98000      4.1642694E-09
   14.04000      3.2084679E-09
   14.10000      2.1906295E-09
   14.16000      1.1090618E-09
   14.22000     -4.3121763E-11
   14.28000     -1.2767174E-09
   14.34000     -2.6043234E-09
   14.40000     -4.0379113E-09
   14.46000     -5.5865215E-09
   14.52000     -7.2543460E-09
   14.58000     -9.0392502E-09
   14.64000     -1.0931588E-08
   14.70000     -1.2913144E-08
   14.76000     -1.4956118E-08
   14.82000     -1.7022289E-08
   14.88000     -1.9062671E-08
   14.94000     -2.1018126E-08
   15.00000     -2.2821338E-08
   15.06000     -2.4400439E-08
   15.12000     -2.5684212E-08
   15.18000     -2.6608500E-08
   15.24000     -2.7123138E-08
   15.30000     -2.7198436E-08
   15.36000     -2.6830270E-08
   15.42000     -2.6042786E-08
   15.48000     -2.4888095E-08
   15.54000     -2.3442706E-08
   15.60000     -2.1800989E-08
   15.66000     -2.0066469E-08
   15.72000     -1.8342117E-08
   15.78000     -1.6721001E-08
   15.84000     -1.5278497E-08
   15.90000     -1.4066979E-08
   15.96000     -1.3113405E-08
   16.02000     -1.2419727E-08
   16.08000     -1.1965700E-08
   16.14000     -1.1713399E-08
   16.20000     -1.1612691E-08
   16.26000     -1.1606920E-08
   16.32000     -1.1638194E-08
   16.38000     -1.1651796E-08
   16.44000     -1.1599421E-08
   16.50000     -1.1441133E-08
   16.56000     -1.1146063E-08
   16.62000     -1.0692031E-08
   16.68000     -1.0064331E-08
   16.74000     -9.2539540E-09
   16.80000     -8.2556015E-09
   16.86000     -7.0658608E-09
   16.92000     -5.6820162E-09
   16.98000     -4.1019157E-09
   17.04000     -2.3252458E-09
   17.10000     -3.5624456E-10
   17.16000      1.7925332E-09
   17.22000      4.0962322E-09
   17.28000      6.5146439E-09
   17.34000      8.9912691E-09
   17.40000      1.1455347E-08
   17.46000      1.3827083E-08
   17.52000      1.6025522E-08
   17.58000      1.7977813E-08
   17.64000      1.9628150E-08
   17.70000      2.0944661E-08
   17.76000      2.1922842E-08
   17.82000      2.2584794E-08
   17.88000      2.2974440E-08
   17.94000      2.3149676E-08
   18.00000      2.3173042E-08
   18.06000      2.3102775E-08
   18.12000      2.2985880E-08
   18.18000      2.2854328E-08
   18.24000      2.2724558E-08
   18.30000      2.2599682E-08
   18.36000      2.2473163E-08
   18.42000      2.2332575E-08
   18.48000      2.2162391E-08
   18.54000      2.1945345E-08
   18.60000      2.1662670E-08
   18.66000      2.1294021E-08
   18.72000      2.0817886E-08
   18.78000      2.0213109E-08
   18.84000      1.9461432E-08
   18.90000      1.8550480E-08
   18.96000      1.7476269E-08
   19.02000      1.6244314E-08
   19.08000      1.4868905E-08
   19.14000      1.3370650E-08
   19.20000      1.1772971E-08
   19.26000      1.0098568E-08
   19.32000      8.3669347E-09
   19.38000      6.5936181E-09
   19.44000      4.7914566E-09
   19.50000      2.9733456E-09
   19.56000      1.1556016E-09
   19.62000     -6.3927719E-10
   19.68000     -2.3815736E-09
   19.74000     -4.0357340E-09
   19.80000     -5.5641873E-09
   19.86000     -6.9328836E-09
   19.92000     -8.1172526E-09
   19.98000     -9.1070405E-09
   20.04000     -9.9086783E-09
   20.10000     -1.0544456E-08
   20.16000     -1.1048553E-08
   20.22000     -1.1460854E-08
   20.28000     -1.1819989E-08
   20.34000     -1.2157261E-08
   20.40000     -1.2492797E-08
   20.46000     -1.2834678E-08
   20.52000     -1.3180940E-08
   20.58000     -1.3523642E-08
   20.64000     -1.3853679E-08
   20.70000     -1.4164931E-08
   20.76000     -1.4456693E-08
   20.82000     -1.4733927E-08
   20.88000     -1.5005632E-08
   20.94000     -1.5282163E-08
   21.00000     -1.5572621E-08
   21.06000     -1.5883231E-08
   21.12000     -1.6217109E-08
   21.18000     -1.6575258E-08
   21.24000     -1.6958113E-08
   21.30000     -1.7366830E-08
   21.36000     -1.7803742E-08
   21.42000     -1.8271828E-08
   21.48000     -1.8773626E-08
   21.54000     -1.9310230E-08
   21.60000     -1.9881082E-08
   21.66000     -2.0484912E-08
   21.72000     -2.1121641E-08
   21.78000     -2.1794644E-08
   21.84000     -2.2512467E-08
   21.90000     -2.3289225E-08
   21.96000     -2.4143183E-08
   22.02000     -2.5093717E-08
   22.08000     -2.6157247E-08
   22.14000     -2.7343253E-08
   22.20000     -2.8651442E-08
   22.26000     -3.0070918E-08
   22.32000     -3.1581632E-08
   22.38000     -3.3157772E-08
   22.44000     -3.4772167E-08
   22.50000     -3.6400525E-08
   22.56000     -3.8024417E-08
   22.62000     -3.9632322E-08
   22.68000     -4.1218748E-08
   22.74000     -4.2781796E-08
   22.80000     -4.4320203E-08
   22.86000     -4.5830699E-08
   22.92000     -4.7306372E-08
   22.98000     -4.8736258E-08
   23.04000     -5.0105921E-08
   23.10000     -5.1398441E-08
   23.16000     -5.2595254E-08
   23.22000     -5.3676420E-08
   23.28000     -5.4620330E-08
   23.34000     -5.5403149E-08
   23.40000     -5.5998726E-08
   23.46000     -5.6379445E-08
   23.52000     -5.6518459E-08
   23.58000     -5.6393212E-08
   23.64000     -5.5989538E-08
   23.70000     -5.5305470E-08
   23.76000     -5.4353539E-08
   23.82000     -5.3160846E-08
   23.88000     -5.1766634E-08
   23.94000     -5.0217615E-08
   24.00000     -4.8562232E-08
   24.06000     -4.6844907E-08
   24.12000     -4.5101547E-08
   24.18000     -4.3357055E-08
   24.24000     -4.1624997E-08
   24.30000     -3.9909143E-08
   24.36000     -3.8205975E-08
   24.42000     -3.6507483E-08
   24.48000     -3.4803435E-08
   24.54000     -3.3082923E-08
   24.60000     -3.1335244E-08
   24.66000     -2.9550582E-08
   24.72000     -2.7720992E-08
   24.78000     -2.5842098E-08
   24.84000     -2.3915398E-08
   24.90000     -2.1950608E-08
   24.96000     -1.9967143E-08
   25.02000     -1.7993647E-08
   25.08000     -1.6064975E-08
   25.14000     -1.4216668E-08
   25.20000     -1.2477947E-08
   25.26000     -1.0865022E-08
   25.32000     -9.3767625E-09
   25.38000     -7.9944344E-09
   25.44000     -6.6861929E-09
   25.50000     -5.4156439E-09
   25.56000     -4.1525037E-09
   25.62000     -2.8825651E-09
   25.68000     -1.6141602E-09
   25.74000     -3.7910755E-10
   25.80000      7.7241818E-10
   25.86000      1.7819861E-09
   25.92000      2.5954248E-09
   25.98000      3.1744187E-09
   26.04000      3.5039918E-09
   26.10000      3.5937506E-09
   26.16000      3.4725003E-09
   26.22000      3.1777978E-09
   26.28000      2.7435818E-09
   26.34000      2.1897115E-09
   26.40000      1.5167912E-09
   26.46000      7.0809719E-10
   26.52000     -2.6179575E-10
   26.58000     -1.4142837E-09
   26.64000     -2.7539639E-09
   26.70000     -4.2600896E-09
   26.76000     -5.8853420E-09
   26.82000     -7.5628144E-09
   26.88000     -9.2195238E-09
   26.94000     -1.0792684E-08
   27.00000     -1.2244064E-08
   27.06000     -1.3568231E-08
   27.12000     -1.4792348E-08
   27.18000     -1.5967679E-08
   27.24000     -1.7155415E-08
   27.30000     -1.8410971E-08
   27.36000     -1.9771189E-08
   27.42000     -2.1247722E-08
   27.48000     -2.2827837E-08
   27.54000     -2.4481512E-08
   27.60000     -2.6171831E-08
   27.66000     -2.7864928E-08
   27.72000     -2.9536240E-08
   27.78000     -3.1171332E-08
   27.84000     -3.2761729E-08
   27.90000     -3.4297972E-08
   27.96000     -3.5763129E-08
   28.02000     -3.7129798E-08
   28.08000     -3.8362270E-08
   28.14000     -3.9423632E-08
   28.20000     -4.0285460E-08
   28.26000     -4.0936783E-08
   28.32000     -4.1388887E-08
   28.38000     -4.1673747E-08
   28.44000     -4.1836078E-08
   28.50000     -4.1921130E-08
   28.56000     -4.1961982E-08
   28.62000     -4.1970452E-08
   28.68000     -4.1934772E-08
   28.74000     -4.1825050E-08
   28.80000     -4.1605048E-08
   28.86000     -4.1246810E-08
   28.92000     -4.0743537E-08
   28.98000     -4.0116660E-08
   29.04000     -3.9414747E-08
   29.10000     -3.8704375E-08
   29.16000     -3.8055521E-08
   29.22000     -3.7525780E-08
   29.28000     -3.7147906E-08
   29.34000     -3.6924362E-08
   29.40000     -3.6830365E-08
   29.46000     -3.6824449E-08
   29.52000     -3.6863433E-08
   29.58000     -3.6917381E-08
   29.64000     -3.6980367E-08
   29.70000     -3.7073857E-08
   29.76000     -3.7241954E-08
   29.82000     -3.7539696E-08
   29.88000     -3.8017738E-08
   29.94000     -3.8707434E-08
   30.00000     -3.9610214E-08
   30.06000     -4.0693937E-08
   30.12000     -4.1897032E-08
   30.18000     -4.3139288E-08
   30.24000     -4.4336673E-08
   30.30000     -4.5416574E-08
   30.36000     -4.6330072E-08
   30.42000     -4.7058549E-08
   30.48000     -4.7613394E-08
   30.54000     -4.8029250E-08
   30.60000     -4.8352710E-08
   30.66000     -4.8629452E-08
   30.72000     -4.8893114E-08
   30.78000     -4.9158697E-08
   30.84000     -4.9422049E-08
   30.90000     -4.9665193E-08
   30.96000     -4.9865704E-08
   31.02000     -5.0006982E-08
   31.08000     -5.0086136E-08
   31.14000     -5.0116824E-08
   31.20000     -5.0126108E-08
   31.26000     -5.0146252E-08
   31.32000     -5.0204108E-08
   31.38000     -5.0311552E-08
   31.44000     -5.0460102E-08
   31.50000     -5.0621509E-08
   31.56000     -5.0754089E-08
   31.62000     -5.0812744E-08
   31.68000     -5.0759301E-08
   31.74000     -5.0569707E-08
   31.80000     -5.0235787E-08
   31.86000     -4.9760896E-08
   31.92000     -4.9151190E-08
   31.98000     -4.8405578E-08
   32.04000     -4.7508273E-08
   32.10000     -4.6427072E-08
   32.16000     -4.5118750E-08
   32.22000     -4.3540712E-08
   32.28000     -4.1665707E-08
   32.34000     -3.9495209E-08
   32.40000     -3.7066993E-08
   32.46000     -3.4453940E-08
   32.52000     -3.1753544E-08
   32.58000     -2.9070332E-08
   32.64000     -2.6495728E-08
   32.70000     -2.4090859E-08
   32.76000     -2.1877078E-08
   32.82000     -1.9837058E-08
   32.88000     -1.7926194E-08
   32.94000     -1.6091143E-08
   33.00000     -1.4290185E-08
   33.06000     -1.2509466E-08
   33.12000     -1.0770313E-08
   33.18000     -9.1253725E-09
   33.24000     -7.6445632E-09
   33.30000     -6.3948082E-09
   33.36000     -5.4194160E-09
   33.42000     -4.7230988E-09
   33.48000     -4.2670454E-09
   33.54000     -3.9755643E-09
   33.60000     -3.7525081E-09
   33.66000     -3.5028878E-09
   33.72000     -3.1536451E-09
   33.78000     -2.6678448E-09
   33.84000     -2.0484836E-09
   33.90000     -1.3311281E-09
   33.96000     -5.6781729E-10
   34.02000      1.9283915E-10
   34.08000      9.2336105E-10
   34.14000      1.6275843E-09
   34.20000      2.3402984E-09
   34.26000      3.1165219E-09
   34.32000      4.0137742E-09
   34.38000      5.0729012E-09
   34.44000      6.3034311E-09
   34.50000      7.6780138E-09
   34.56000      9.1375325E-09
   34.62000      1.0605057E-08
   34.68000      1.2004008E-08
   34.74000      1.3274665E-08
   34.80000      1.4383986E-08
   34.86000      1.5326076E-08
   34.92000      1.6113958E-08
   34.98000      1.6766093E-08
   35.04000      1.7292722E-08
   35.10000      1.7686775E-08
   35.16000      1.7922307E-08
   35.22000      1.7960675E-08
   35.28000      1.7762050E-08
   35.34000      1.7298172E-08
   35.40000      1.6562009E-08
   35.46000      1.5571144E-08
   35.52000      1.4363774E-08
   35.58000      1.2988651E-08
   35.64000      1.1492096E-08
   35.70000      9.9061026E-09
   35.76000      8.2411109E-09
   35.82000      6.4855632E-09
   35.88000      4.6122222E-09
   35.94000      2.5892035E-09
   36.00000      3.9233186E-10
   36.06000     -1.9848363E-09
   36.12000     -4.5260924E-09
   36.18000     -7.1938699E-09
   36.24000     -9.9360005E-09
   36.30000     -1.2695737E-08
   36.36000     -1.5422208E-08
   36.42000     -1.8078749E-08
   36.48000     -2.0647541E-08
   36.54000     -2.3130076E-08
   36.60000     -2.5544095E-08
   36.66000     -2.7918089E-08
   36.72000     -3.0284678E-08
   36.78000     -3.2673945E-08
   36.84000     -3.5107643E-08
   36.90000     -3.7594912E-08
   36.96000     -4.0130129E-08
   37.02000     -4.2693255E-08
   37.08000     -4.5252914E-08
   37.14000     -4.7771795E-08
   37.20000     -5.0213590E-08
   37.26000     -5.2549954E-08
   37.32000     -5.4765955E-08
   37.38000     -5.6862433E-08
   37.44000     -5.8854518E-08
   37.50000     -6.0766332E-08
   37.56000     -6.2623094E-08
   37.62000     -6.4442489E-08
   37.68000     -6.6227678E-08
   37.74000     -6.7963846E-08
   37.80000     -6.9619453E-08
   37.86000     -7.1151902E-08
   37.92000     -7.2516343E-08
   37.98000     -7.3675125E-08
   38.04000     -7.4605431E-08
   38.10000     -7.5303070E-08
   38.16000     -7.5781479E-08
   38.22000     -7.6066392E-08
   38.28000     -7.6187902E-08
   38.34000     -7.6172256E-08
   38.40000     -7.6035938E-08
   38.46000     -7.5783660E-08
   38.52000     -7.5410838E-08
   38.58000     -7.4909721E-08
   38.64000     -7.4277111E-08
   38.70000     -7.3521107E-08
   38.76000     -7.2664207E-08
   38.82000     -7.1741347E-08
   38.88000     -7.0792865E-08
   38.94000     -6.9854060E-08
   39.00000     -6.8944559E-08
   39.06000     -6.8060849E-08
   39.12000     -6.7175080E-08
   39.18000     -6.6241000E-08
   39.24000     -6.5206024E-08
   39.30000     -6.4026047E-08
   39.36000     -6.2678659E-08
   39.42000     -6.1170574E-08
   39.48000     -5.9536912E-08
   39.54000     -5.7832363E-08
   39.60000     -5.6116821E-08
   39.66000     -5.4439994E-08
   39.72000     -5.2829648E-08
   39.78000     -5.1287000E-08
   39.84000     -4.9790522E-08
   39.90000     -4.8306692E-08
   39.96000     -4.6804058E-08
   40.02000     -4.5266091E-08
   40.08000     -4.3698684E-08
   40.14000     -4.2130136E-08
   40.20000     -4.0603901E-08
   40.26000     -3.9166878E-08
   40.32000     -3.7857308E-08
   40.38000     -3.6696569E-08
   40.44000     -3.5687489E-08
   40.50000     -3.4819422E-08
   40.56000     -3.4077885E-08
   40.62000     -3.3454608E-08
   40.68000     -3.2953782E-08
   40.74000     -3.2591615E-08
   40.80000     -3.2388794E-08
   40.86000     -3.2358226E-08
   40.92000     -3.2492533E-08
   40.98000     -3.2756066E-08
   41.04000     -3.3085133E-08
   41.10000     -3.3397296E-08
   41.16000     -3.3607744E-08
   41.22000     -3.3648117E-08
   41.28000     -3.3482245E-08
   41.34000     -3.3113906E-08
   41.40000     -3.2584172E-08
   41.46000     -3.1958852E-08
   41.52000     -3.1309707E-08
   41.58000     -3.0694931E-08
   41.64000     -3.0144509E-08
   41.70000     -2.9654693E-08
   41.76000     -2.9192828E-08
   41.82000     -2.8710732E-08
   41.88000     -2.8162248E-08
   41.94000     -2.7519496E-08
   42.00000     -2.6782990E-08
   42.06000     -2.5982912E-08
   42.12000     -2.5171580E-08
   42.18000     -2.4409751E-08
   42.24000     -2.3750911E-08
   42.30000     -2.3227948E-08
   42.36000     -2.2845544E-08
   42.42000     -2.2579803E-08
   42.48000     -2.2384743E-08
   42.54000     -2.2203718E-08
   42.60000     -2.1982874E-08
   42.66000     -2.1683578E-08
   42.72000     -2.1291058E-08
   42.78000     -2.0817366E-08
   42.84000     -2.0297941E-08
   42.90000     -1.9782503E-08
   42.96000     -1.9322343E-08
   43.02000     -1.8957087E-08
   43.08000     -1.8704304E-08
   43.14000     -1.8554690E-08
   43.20000     -1.8474157E-08
   43.26000     -1.8412226E-08
   43.32000     -1.8314513E-08
   43.38000     -1.8135870E-08
   43.44000     -1.7850819E-08
   43.50000     -1.7458779E-08
   43.56000     -1.6983057E-08
   43.62000     -1.6464364E-08
   43.68000     -1.5950871E-08
   43.74000     -1.5487577E-08
   43.80000     -1.5107693E-08
   43.86000     -1.4828022E-08
   43.92000     -1.4649234E-08
   43.98000     -1.4560611E-08
   44.04000     -1.4547773E-08
   44.10000     -1.4601151E-08
   44.16000     -1.4722908E-08
   44.22000     -1.4930395E-08
   44.28000     -1.5255265E-08
   44.34000     -1.5738541E-08
   44.40000     -1.6423037E-08
   44.46000     -1.7345384E-08
   44.52000     -1.8529997E-08
   44.58000     -1.9986862E-08
   44.64000     -2.1714055E-08
   44.70000     -2.3704557E-08
   44.76000     -2.5955744E-08
   44.82000     -2.8479112E-08
   44.88000     -3.1307714E-08
   44.94000     -3.4499362E-08
   45.00000     -3.8134903E-08
   45.06000     -4.2312351E-08
   45.12000     -4.7138982E-08
   45.18000     -5.2724321E-08
   45.24000     -5.9176827E-08
   45.30000     -6.6606290E-08
   45.36000     -7.5132540E-08
   45.42000     -8.4899213E-08
   45.48000     -9.6090240E-08
   45.54000     -1.0894579E-07
   45.60000     -1.2377453E-07
   45.66000     -1.4096015E-07
   45.72000     -1.6096224E-07
   45.78000     -1.8431226E-07
   45.84000     -2.1160834E-07
   45.90000     -2.4351209E-07
   45.96000     -2.8075078E-07
   46.02000     -3.2412657E-07
   46.08000     -3.7453262E-07
   46.14000     -4.3297510E-07
   46.20000     -5.0059697E-07
   46.26000     -5.7870193E-07
   46.32000     -6.6877487E-07
   46.38000     -7.7250007E-07
   46.44000     -8.9177587E-07
   46.50000     -1.0287289E-06
   46.56000     -1.1857300E-06
   46.62000     -1.3654136E-06
   46.68000     -1.5707001E-06
   46.74000     -1.8048228E-06
   46.80000     -2.0713542E-06
   46.86000     -2.3742341E-06
   46.92000     -2.7177925E-06
   46.98000     -3.1067702E-06
   47.04000     -3.5463358E-06
   47.10000     -4.0421019E-06
   47.16000     -4.6001410E-06
   47.22000     -5.2270043E-06
   47.28000     -5.9297467E-06
   47.34000     -6.7159508E-06
   47.40000     -7.5937533E-06
   47.46000     -8.5718684E-06
   47.52000     -9.6595995E-06
   47.58000     -1.0866845E-05
   47.64000     -1.2204083E-05
   47.70000     -1.3682356E-05
   47.76000     -1.5313231E-05
   47.82000     -1.7108767E-05
   47.88000     -1.9081470E-05
   47.94000     -2.1244254E-05
   48.00000     -2.3610402E-05
   48.06000     -2.6193522E-05
   48.12000     -2.9007508E-05
   48.18000     -3.2066477E-05
   48.24000     -3.5384699E-05
   48.30000     -3.8976512E-05
   48.36000     -4.2856205E-05
   48.42000     -4.7037902E-05
   48.48000     -5.1535437E-05
   48.54000     -5.6362187E-05
   48.60000     -6.1530962E-05
   48.66000     -6.7053843E-05
   48.72000     -7.2942064E-05
   48.78000     -7.9205849E-05
   48.84000     -8.5854292E-05
   48.90000     -9.2895178E-05
   48.96000     -1.0033487E-04
   49.02000     -1.0817806E-04
   49.08000     -1.1642771E-04
   49.14000     -1.2508483E-04
   49.20000     -1.3414837E-04
   49.26000     -1.4361509E-04
   49.32000     -1.5347944E-04
   49.38000     -1.6373360E-04
   49.44000     -1.7436722E-04
   49.50000     -1.8536749E-04
   49.56000     -1.9671908E-04
   49.62000     -2.0840413E-04
   49.68000     -2.2040219E-04
   49.74000     -2.3269032E-04
   49.80000     -2.4524311E-04
   49.86000     -2.5803273E-04
   49.92000     -2.7102910E-04
   49.98000     -2.8420016E-04
   50.04000     -2.9751184E-04
   50.10000     -3.1092856E-04
   50.16000     -3.2441318E-04
   50.22000     -3.3792751E-04
   50.28000     -3.5143245E-04
   50.34000     -3.6488826E-04
   50.40000     -3.7825495E-04
   50.46000     -3.9149253E-04
   50.52000     -4.0456140E-04
   50.58000     -4.1742277E-04
   50.64000     -4.3003884E-04
   50.70000     -4.4237345E-04
   50.76000     -4.5439223E-04
   50.82000     -4.6606304E-04
   50.88000     -4.7735631E-04
   50.94000     -4.8824528E-04
   51.00000     -4.9870630E-04
   51.06000     -5.0871907E-04
   51.12000     -5.1826681E-04
   51.18000     -5.2733649E-04
   51.24000     -5.3591910E-04
   51.30000     -5.4400961E-04
   51.36000     -5.5160711E-04
   51.42000     -5.5871467E-04
   51.48000     -5.6533952E-04
   51.54000     -5.7149288E-04
   51.60000     -5.7718984E-04
   51.66000     -5.8244925E-04
   51.72000     -5.8729341E-04
   51.78000     -5.9174770E-04
   51.84000     -5.9584028E-04
   51.90000     -5.9960195E-04
   51.96000     -6.0306536E-04
   52.02000     -6.0626509E-04
   52.08000     -6.0923671E-04
   52.14000     -6.1201688E-04
   52.20000     -6.1464251E-04
   52.26000     -6.1715045E-04
   52.32000     -6.1957678E-04
   52.38000     -6.2195677E-04
   52.44000     -6.2432402E-04
   52.50000     -6.2671001E-04
   52.56000     -6.2914408E-04
   52.62000     -6.3165242E-04
   52.68000     -6.3425809E-04
   52.74000     -6.3698064E-04
   52.80000     -6.3983607E-04
   52.86000     -6.4283656E-04
   52.92000     -6.4599037E-04
   52.98000     -6.4930139E-04
   53.04000     -6.5276976E-04
   53.10000     -6.5639149E-04
   53.16000     -6.6015829E-04
   53.22000     -6.6405797E-04
   53.28000     -6.6807488E-04
   53.34000     -6.7218946E-04
   53.40000     -6.7637925E-04
   53.46000     -6.8061880E-04
   53.52000     -6.8488019E-04
   53.58000     -6.8913348E-04
   53.64000     -6.9334707E-04
   53.70000     -6.9748814E-04
   53.76000     -7.0152327E-04
   53.82000     -7.0541893E-04
   53.88000     -7.0914172E-04
   53.94000     -7.1265915E-04
   54.00000     -7.1593974E-04
   54.06000     -7.1895361E-04
   54.12000     -7.2167290E-04
   54.18000     -7.2407216E-04
   54.24000     -7.2612852E-04
   54.30000     -7.2782236E-04
   54.36000     -7.2913704E-04
   54.42000     -7.3005952E-04
   54.48000     -7.3058042E-04
   54.54000     -7.3069398E-04
   54.60000     -7.3039823E-04
   54.66000     -7.2969490E-04
   54.72000     -7.2858931E-04
   54.78000     -7.2709011E-04
   54.84000     -7.2520948E-04
   54.90000     -7.2296261E-04
   54.96000     -7.2036736E-04
   55.02000     -7.1744429E-04
   55.08000     -7.1421597E-04
   55.14000     -7.1070698E-04
   55.20000     -7.0694328E-04
   55.26000     -7.0295180E-04
   55.32000     -6.9876004E-04
   55.38000     -6.9439574E-04
   55.44000     -6.8988645E-04
   55.50000     -6.8525923E-04
   55.56000     -6.8054005E-04