  -2.400000      0.0000000E+00
  -2.340000      0.0000000E+00
  -2.280000      0.0000000E+00
  -2.220000      0.0000000E+00
  -2.160000      0.0000000E+00
  -2.100000      0.0000000E+00
  -2.040000      0.0000000E+00
  -1.980000      0.0000000E+00
  -1.920000      0.0000000E+00
  -1.860000      1.5062934E-28
  -1.800000      1.6889876E-27
  -1.740000      8.4800506E-27
  -1.680000      2.1037272E-26
  -1.620000     -3.6454268E-27
  -1.560000     -2.5726509E-25
  -1.500000     -1.1917286E-24
  -1.440000     -3.3128841E-24
  -1.380000     -6.0124458E-24
  -1.320000     -5.0152250E-24
  -1.260000      1.0248444E-23
  -1.200000      5.4497957E-23
  -1.140000      1.3184759E-22
  -1.080000      2.0434272E-22
  -1.020000      1.5729471E-22
 -0.9600000     -1.9477041E-22
 -0.9000000     -9.9624030E-22
 -0.8400000     -2.0985384E-21
 -0.7800000     -2.7592140E-21
 -0.7200000     -1.5829862E-21
 -0.6600000      2.8678285E-21
 -0.6000000      1.0543766E-20
 -0.5400000      1.7915349E-20
 -0.4800000      1.7093889E-20
 -0.4200000     -1.5274729E-21
 -0.3600000     -4.1407498E-20
 -0.3000000     -8.8374781E-20
 -0.2400000     -1.0271870E-19
 -0.1800000     -2.6925895E-20
 -0.1200000      1.8011155E-19
 -5.9999999E-02  4.8427299E-19
  0.0000000E+00  7.1894672E-19
  5.9999999E-02  5.8151748E-19
  0.1200000     -2.5730939E-19
  0.1800000     -1.9082428E-18
  0.2400000     -3.9475085E-18
  0.3000000     -5.2119414E-18
  0.3600000     -3.9636266E-18
  0.4200000      1.3717925E-18
  0.4800000      1.0940479E-17
  0.5400000      2.2135103E-17
  0.6000000      2.9084584E-17
  0.6600000      2.3938112E-17
  0.7200000      4.2496652E-19
  0.7800000     -4.1009150E-17
  0.8400000     -8.8719296E-17
  0.9000000     -1.1935069E-16
  0.9600000     -1.0425518E-16
   1.020000     -2.3282944E-17
   1.080000      1.1796552E-16
   1.140000      2.7589870E-16
   1.200000      3.7215144E-16
   1.260000      3.1935241E-16
   1.320000      6.6890966E-17
   1.380000     -3.4936679E-16
   1.440000     -7.8068009E-16
   1.500000     -9.9052075E-16
   1.560000     -7.4391611E-16
   1.620000      5.7121864E-17
   1.680000      1.2463299E-15
   1.740000      2.3509639E-15
   1.800000      2.7009706E-15
   1.860000      1.7025031E-15
   1.920000     -7.9721010E-16
   1.980000     -4.2113957E-15
   2.040000     -7.1750679E-15
   2.100000     -7.9047893E-15
   2.160000     -4.9415919E-15
   2.220000      1.9490444E-15
   2.280000      1.1123787E-14
   2.340000      1.9094350E-14
   2.400000      2.1506587E-14
   2.460000      1.4941554E-14
   2.520000     -1.0510183E-15
   2.580000     -2.2612954E-14
   2.640000     -4.1847222E-14
   2.700000     -4.9138855E-14
   2.760000     -3.7111234E-14
   2.820000     -4.8588791E-15
   2.880000      3.9489581E-14
   2.940000      7.9651766E-14
   3.000000      9.6197288E-14
   3.060000      7.4596057E-14
   3.120000      1.3437903E-14
   3.180000     -7.1000456E-14
   3.240000     -1.4707280E-13
   3.300000     -1.7788837E-13
   3.360000     -1.3675270E-13
   3.420000     -2.2229121E-14
   3.480000      1.3427902E-13
   3.540000      2.7396431E-13
   3.600000      3.3001987E-13
   3.660000      2.5571898E-13
   3.720000      5.0496947E-14
   3.780000     -2.2838879E-13
   3.840000     -4.7744366E-13
   3.900000     -5.8202320E-13
   3.960000     -4.6448652E-13
   4.020000     -1.2665834E-13
   4.080000      3.3371637E-13
   4.140000      7.4544147E-13
   4.200000      9.2335666E-13
   4.260000      7.4597609E-13
   4.320000      2.2062191E-13
   4.380000     -4.9490154E-13
   4.440000     -1.1316239E-12
   4.500000     -1.4036927E-12
   4.560000     -1.1266689E-12
   4.620000     -3.1331654E-13
   4.680000      7.9751928E-13
   4.740000      1.8018414E-12
   4.800000      2.2696359E-12
   4.860000      1.9160665E-12
   4.920000      7.3863615E-13
   4.980000     -9.4078890E-13
   5.040000     -2.5591250E-12
   5.100000     -3.5029078E-12
   5.160000     -3.3429910E-12
   5.220000     -2.0233645E-12
   5.280000      7.8019154E-14
   5.340000      2.2563344E-12
   5.400000      3.7310680E-12
   5.460000      3.9555130E-12
   5.520000      2.8640590E-12
   5.580000      9.4683668E-13
   5.640000     -9.0221889E-13
   5.700000     -1.7319036E-12
   5.760000     -9.5852742E-13
   5.820000      1.2958803E-12
   5.880000      4.1052743E-12
   5.940000      5.9601026E-12
   6.000000      5.2701719E-12
   6.060000      9.9809343E-13
   6.120000     -6.7981063E-12
   6.180000     -1.6726433E-11
   6.240000     -2.6249000E-11
   6.300000     -3.2274416E-11
   6.360000     -3.1985223E-11
   6.420000     -2.3639915E-11
   6.480000     -7.0932179E-12
   6.540000      1.6118303E-11
   6.600000      4.3112573E-11
   6.660000      7.0245559E-11
   6.720000      9.3678960E-11
   6.780000      1.0969825E-10
   6.840000      1.1469220E-10
   6.900000      1.0491064E-10
   6.960000      7.6298218E-11
   7.020000      2.4768845E-11
   7.080000     -5.2810128E-11
   7.140000     -1.5690108E-10
   7.200000     -2.8314323E-10
   7.260000     -4.2033396E-10
   7.320000     -5.4922827E-10
   7.380000     -6.4272837E-10
   7.440000     -6.6771078E-10
   7.500000     -5.8830163E-10
   7.560000     -3.7000228E-10
   7.620000      1.6164096E-11
   7.680000      5.9028754E-10
   7.740000      1.3615126E-09
   7.800000      2.3273827E-09
   7.860000      3.4742753E-09
   7.920000      4.7783644E-09
   7.980000      6.2065832E-09
   8.040000      7.7173095E-09
   8.100000      9.2609316E-09
   8.160000      1.0780789E-08
   8.220000      1.2215169E-08
   8.280000      1.3500854E-08
   8.340000      1.4578262E-08
   8.400000      1.5397651E-08
   8.460000      1.5925252E-08
   8.520000      1.6147998E-08
   8.580000      1.6075568E-08
   8.640000      1.5739063E-08
   8.700000      1.5186398E-08
   8.760000      1.4475283E-08
   8.820000      1.3665352E-08
   8.880000      1.2811041E-08
   8.940000      1.1956578E-08
   9.000000      1.1133748E-08
   9.060000      1.0362253E-08
   9.120000      9.6518358E-09
   9.180000      9.0049781E-09
   9.240000      8.4191605E-09
   9.300000      7.8881381E-09
   9.360000      7.4023574E-09
   9.420000      6.9491537E-09
   9.480000      6.5135679E-09
   9.540000      6.0803456E-09
   9.600000      5.6371059E-09
   9.660000      5.1779852E-09
   9.720000      4.7065574E-09
   9.780000      4.2368122E-09
   9.840000      3.7913548E-09
   9.900000      3.3968566E-09
   9.960000      3.0776857E-09
   10.02000      2.8493672E-09
   10.08000      2.7137652E-09
   10.14000      2.6575042E-09
   10.20000      2.6542923E-09
   10.26000      2.6707025E-09
   10.32000      2.6739315E-09
   10.38000      2.6394780E-09
   10.44000      2.5566762E-09
   10.50000      2.4306612E-09
   10.56000      2.2803801E-09
   10.62000      2.1334050E-09
   10.68000      2.0191675E-09
   10.74000      1.9625475E-09
   10.80000      1.9794444E-09
   10.86000      2.0751378E-09
   10.92000      2.2452544E-09
   10.98000      2.4783480E-09
   11.04000      2.7587690E-09
   11.10000      3.0687466E-09
   11.16000      3.3892940E-09
   11.22000      3.7003298E-09
   11.28000      3.9809502E-09
   11.34000      4.2107988E-09
   11.40000      4.3729567E-09
   11.46000      4.4579433E-09
   11.52000      4.4676072E-09
   11.58000      4.4173256E-09
   11.64000      4.3351682E-09
   11.70000      4.2575352E-09
   11.76000      4.2218962E-09
   11.82000      4.2583079E-09
   11.88000      4.3819299E-09
   11.94000      4.5886313E-09
   12.00000      4.8549844E-09
   12.06000      5.1427698E-09
   12.12000      5.4068545E-09
   12.18000      5.6044400E-09
   12.24000      5.7033387E-09
   12.30000      5.6873000E-09
   12.36000      5.5572791E-09
   12.42000      5.3287081E-09
   12.48000      5.0259077E-09
   12.54000      4.6754858E-09
   12.60000      4.3006798E-09
   12.66000      3.9180916E-09
   12.72000      3.5373322E-09
   12.78000      3.1630372E-09
   12.84000      2.7979123E-09
   12.90000      2.4452074E-09
   12.96000      2.1094047E-09
   13.02000      1.7947690E-09
   13.08000      1.5024333E-09
   13.14000      1.2274446E-09
   13.20000      9.5737229E-10
   13.26000      6.7356343E-10
   13.32000      3.5511177E-10
   13.38000     -1.5542867E-11
   13.44000     -4.4727264E-10
   13.50000     -9.3718744E-10
   13.56000     -1.4711709E-09
   13.62000     -2.0281179E-09
   13.68000     -2.5865692E-09
   13.74000     -3.1314220E-09
   13.80000     -3.6581840E-09
   13.86000     -4.1729376E-09
   13.92000     -4.6876520E-09
   13.98000     -5.2121600E-09
   14.04000     -5.7454708E-09
   14.10000     -6.2695436E-09
   14.16000     -6.7480186E-09
   14.22000     -7.1308324E-09
   14.28000     -7.3636737E-09
   14.34000     -7.3995179E-09
   14.40000     -7.2087118E-09
   14.46000     -6.7844623E-09
   14.52000     -6.1421552E-09
   14.58000     -5.3130278E-09
   14.64000     -4.3347090E-09
   14.70000     -3.2422405E-09
   14.76000     -2.0630024E-09
   14.82000     -8.1752971E-10
   14.88000      4.7405863E-10
   14.94000      1.7825366E-09
   15.00000      3.0609502E-09
   15.06000      4.2409889E-09
   15.12000      5.2370521E-09
   15.18000      5.9582224E-09
   15.24000      6.3255752E-09
   15.30000      6.2900960E-09
   15.36000      5.8457954E-09
   15.42000      5.0336948E-09
   15.48000      3.9349914E-09
   15.54000      2.6550442E-09
   15.60000      1.3027566E-09
   15.66000     -2.8563023E-11
   15.72000     -1.2733403E-09
   15.78000     -2.3957831E-09
   15.84000     -3.3822851E-09
   15.90000     -4.2280086E-09
   15.96000     -4.9234647E-09
   16.02000     -5.4467670E-09
   16.08000     -5.7649716E-09
   16.14000     -5.8443552E-09
   16.20000     -5.6658847E-09
   16.26000     -5.2398428E-09
   16.32000     -4.6134998E-09
   16.38000     -3.8678500E-09
   16.44000     -3.1031717E-09
   16.50000     -2.4171025E-09
   16.56000     -1.8817417E-09
   16.62000     -1.5269419E-09
   16.68000     -1.3351884E-09
   16.74000     -1.2498171E-09
   16.80000     -1.1940510E-09
   16.86000     -1.0948561E-09
   16.92000     -9.0412727E-10
   16.98000     -6.1071503E-10
   17.04000     -2.3996033E-10
   17.10000      1.5839451E-10
   17.16000      5.2923399E-10
   17.22000      8.3124507E-10
   17.28000      1.0497005E-09
   17.34000      1.1988316E-09
   17.40000      1.3135618E-09
   17.46000      1.4341072E-09
   17.52000      1.5893092E-09
   17.58000      1.7848029E-09
   17.64000      2.0001969E-09
   17.70000      2.1961830E-09
   17.76000      2.3289788E-09
   17.82000      2.3670625E-09
   17.88000      2.3044602E-09
   17.94000      2.1661481E-09
   18.00000      2.0038333E-09
   18.06000      1.8835933E-09
   18.12000      1.8694568E-09
   18.18000      2.0081761E-09
   18.24000      2.3198385E-09
   18.30000      2.7968283E-09
   18.36000      3.4107497E-09
   18.42000      4.1242658E-09
   18.48000      4.9033098E-09
   18.54000      5.7252940E-09
   18.60000      6.5807231E-09
   18.66000      7.4682678E-09
   18.72000      8.3859542E-09
   18.78000      9.3225605E-09
   18.84000      1.0253140E-08
   18.90000      1.1140803E-08
   18.96000      1.1944310E-08
   19.02000      1.2628554E-08
   19.08000      1.3173862E-08
   19.14000      1.3580359E-08
   19.20000      1.3865597E-08
   19.26000      1.4056166E-08
   19.32000      1.4176309E-08
   19.38000      1.4237655E-08
   19.44000      1.4233831E-08
   19.50000      1.4141983E-08
   19.56000      1.3930916E-08
   19.62000      1.3573301E-08
   19.68000      1.3058074E-08
   19.74000      1.2398987E-08
   19.80000      1.1636384E-08
   19.86000      1.0831270E-08
   19.92000      1.0053050E-08
   19.98000      9.3643564E-09
   20.04000      8.8074428E-09
   20.10000      8.3963601E-09
   20.16000      8.1175662E-09
   20.22000      7.9389668E-09
   20.28000      7.8245916E-09
   20.34000      7.7500433E-09
   20.40000      7.7133118E-09
   20.46000      7.7369178E-09
   20.52000      7.8602875E-09
   20.58000      8.1247338E-09
   20.64000      8.5561789E-09
   20.70000      9.1517647E-09
   20.76000      9.8751753E-09
   20.82000      1.0662440E-08
   20.88000      1.1436232E-08
   20.94000      1.2123750E-08
   21.00000      1.2672190E-08
   21.06000      1.3057023E-08
   21.12000      1.3281166E-08
   21.18000      1.3366487E-08
   21.24000      1.3341669E-08
   21.30000      1.3231230E-08
   21.36000      1.3049497E-08
   21.42000      1.2800918E-08
   21.48000      1.2485515E-08
   21.54000      1.2106400E-08
   21.60000      1.1675827E-08
   21.66000      1.1217183E-08
   21.72000      1.0762174E-08
   21.78000      1.0344465E-08
   21.84000      9.9923501E-09
   21.90000      9.7233164E-09
   21.96000      9.5424655E-09
   22.02000      9.4451362E-09
   22.08000      9.4223367E-09
   22.14000      9.4663521E-09
   22.20000      9.5738049E-09
   22.26000      9.7444017E-09
   22.32000      9.9754551E-09
   22.38000      1.0254198E-08
   22.44000      1.0551171E-08
   22.50000      1.0817984E-08
   22.56000      1.0991307E-08
   22.62000      1.1002742E-08
   22.68000      1.0791823E-08
   22.74000      1.0318086E-08
   22.80000      9.5682431E-09
   22.86000      8.5561656E-09
   22.92000      7.3158701E-09
   22.98000      5.8900902E-09
   23.04000      4.3183093E-09
   23.10000      2.6280100E-09
   23.16000      8.3143126E-10
   23.22000     -1.0719305E-09
   23.28000     -3.0887128E-09
   23.34000     -5.2235984E-09
   23.40000     -7.4723561E-09
   23.46000     -9.8177866E-09
   23.52000     -1.2229176E-08
   23.58000     -1.4664853E-08
   23.64000     -1.7076815E-08
   23.70000     -1.9416213E-08
   23.76000     -2.1638570E-08
   23.82000     -2.3707864E-08
   23.88000     -2.5598816E-08
   23.94000     -2.7297146E-08
   24.00000     -2.8797897E-08
   24.06000     -3.0102413E-08
   24.12000     -3.1215013E-08
   24.18000     -3.2140552E-08
   24.24000     -3.2883808E-08
   24.30000     -3.3451066E-08
   24.36000     -3.3853347E-08
   24.42000     -3.4109977E-08
   24.48000     -3.4250707E-08
   24.54000     -3.4314930E-08
   24.60000     -3.4347323E-08
   24.66000     -3.4390514E-08
   24.72000     -3.4476660E-08
   24.78000     -3.4620420E-08
   24.84000     -3.4815766E-08
   24.90000     -3.5037960E-08
   24.96000     -3.5250508E-08
   25.02000     -3.5415137E-08
   25.08000     -3.5501824E-08
   25.14000     -3.5495752E-08
   25.20000     -3.5399115E-08
   25.26000     -3.5227405E-08
   25.32000     -3.5001698E-08
   25.38000     -3.4739909E-08
   25.44000     -3.4450085E-08
   25.50000     -3.4128124E-08
   25.56000     -3.3760472E-08
   25.62000     -3.3330522E-08
   25.68000     -3.2826097E-08
   25.74000     -3.2245108E-08
   25.80000     -3.1597278E-08
   25.86000     -3.0901514E-08
   25.92000     -3.0180278E-08
   25.98000     -2.9453407E-08
   26.04000     -2.8734128E-08
   26.10000     -2.8028834E-08
   26.16000     -2.7340645E-08
   26.22000     -2.6674977E-08
   26.28000     -2.6044400E-08
   26.34000     -2.5470213E-08
   26.40000     -2.4979487E-08
   26.46000     -2.4598247E-08
   26.52000     -2.4343116E-08
   26.58000     -2.4214604E-08
   26.64000     -2.4194691E-08
   26.70000     -2.4249813E-08
   26.76000     -2.4338350E-08
   26.82000     -2.4419958E-08
   26.88000     -2.4463564E-08
   26.94000     -2.4451346E-08
   27.00000     -2.4377725E-08
   27.06000     -2.4244368E-08
   27.12000     -2.4053779E-08
   27.18000     -2.3804512E-08
   27.24000     -2.3490372E-08
   27.30000     -2.3104160E-08
   27.36000     -2.2644512E-08
   27.42000     -2.2122817E-08
   27.48000     -2.1566841E-08
   27.54000     -2.1018732E-08
   27.60000     -2.0527231E-08
   27.66000     -2.0136280E-08
   27.72000     -1.9873898E-08
   27.78000     -1.9745446E-08
   27.84000     -1.9733841E-08
   27.90000     -1.9806748E-08
   27.96000     -1.9928125E-08
   28.02000     -2.0069749E-08
   28.08000     -2.0218568E-08
   28.14000     -2.0377378E-08
   28.20000     -2.0558980E-08
   28.26000     -2.0776474E-08
   28.32000     -2.1033541E-08
   28.38000     -2.1318266E-08
   28.44000     -2.1602453E-08
   28.50000     -2.1846173E-08
   28.56000     -2.2005533E-08
   28.62000     -2.2040789E-08
   28.68000     -2.1922215E-08
   28.74000     -2.1632308E-08
   28.80000     -2.1164334E-08
   28.86000     -2.0518451E-08
   28.92000     -1.9697351E-08
   28.98000     -1.8703258E-08
   29.04000     -1.7537491E-08
   29.10000     -1.6202756E-08
   29.16000     -1.4707195E-08
   29.22000     -1.3068578E-08
   29.28000     -1.1316731E-08
   29.34000     -9.4928971E-09
   29.40000     -7.6457569E-09
   29.46000     -5.8250369E-09
   29.52000     -4.0746269E-09
   29.58000     -2.4273794E-09
   29.64000     -9.0325464E-10
   29.70000      4.8869631E-10
   29.76000      1.7453966E-09
   29.82000      2.8638334E-09
   29.88000      3.8364867E-09
   29.94000      4.6498934E-09
   30.00000      5.2869562E-09
   30.06000      5.7321961E-09
   30.12000      5.9780665E-09
   30.18000      6.0300813E-09
   30.24000      5.9090119E-09
   30.30000      5.6495182E-09
   30.36000      5.2958526E-09
   30.42000      4.8962270E-09
   30.48000      4.4976871E-09
   30.54000      4.1428829E-09
   30.60000      3.8691521E-09
   30.66000      3.7093522E-09
   30.72000      3.6931878E-09
   30.78000      3.8476902E-09
   30.84000      4.1959956E-09
   30.90000      4.7543844E-09
   30.96000      5.5284426E-09
   31.02000      6.5097452E-09
   31.08000      7.6745827E-09
   31.14000      8.9857277E-09
   31.20000      1.0397361E-08
   31.26000      1.1862189E-08
   31.32000      1.3338934E-08
   31.38000      1.4798091E-08
   31.44000      1.6224286E-08
   31.50000      1.7614637E-08
   31.56000      1.8973969E-08
   31.62000      2.0308867E-08
   31.68000      2.1622999E-08
   31.74000      2.2915627E-08
   31.80000      2.4183867E-08
   31.86000      2.5427578E-08
   31.92000      2.6654476E-08
   31.98000      2.7882743E-08
   32.04000      2.9139093E-08
   32.10000      3.0452060E-08
   32.16000      3.1842163E-08
   32.22000      3.3312091E-08
   32.28000      3.4840525E-08
   32.34000      3.6382165E-08
   32.40000      3.7874628E-08
   32.46000      3.9250619E-08
   32.52000      4.0451752E-08
   32.58000      4.1439993E-08
   32.64000      4.2203116E-08
   32.70000      4.2752855E-08
   32.76000      4.3116650E-08
   32.82000      4.3326001E-08
   32.88000      4.3405542E-08
   32.94000      4.3366303E-08
   33.00000      4.3205258E-08
   33.06000      4.2910873E-08
   33.12000      4.2472376E-08
   33.18000      4.1889265E-08
   33.24000      4.1177419E-08
   33.30000      4.0369368E-08
   33.36000      3.9508055E-08
   33.42000      3.8635655E-08
   33.48000      3.7780897E-08
   33.54000      3.6949061E-08
   33.60000      3.6118358E-08
   33.66000      3.5244629E-08
   33.72000      3.4273459E-08
   33.78000      3.3156255E-08
   33.84000      3.1864950E-08
   33.90000      3.0400358E-08
   33.96000      2.8791030E-08
   34.02000      2.7083031E-08
   34.08000      2.5324255E-08
   34.14000      2.3549088E-08
   34.20000      2.1769047E-08
   34.26000      1.9972672E-08
   34.32000      1.8134402E-08
   34.38000      1.6228773E-08
   34.44000      1.4244455E-08
   34.50000      1.2193001E-08
   34.56000      1.0109452E-08
   34.62000      8.0450082E-09
   34.68000      6.0547793E-09
   34.74000      4.1848369E-09
   34.80000      2.4625089E-09
   34.86000      8.9224539E-10
   34.92000     -5.4264288E-10
   34.98000     -1.8737143E-09
   35.04000     -3.1387608E-09
   35.10000     -4.3729820E-09
   35.16000     -5.6016751E-09
   35.22000     -6.8355748E-09
   35.28000     -8.0695015E-09
   35.34000     -9.2845474E-09
   35.40000     -1.0453451E-08
   35.46000     -1.1548063E-08
   35.52000     -1.2546961E-08
   35.58000     -1.3440876E-08
   35.64000     -1.4233934E-08
   35.70000     -1.4940024E-08
   35.76000     -1.5575543E-08
   35.82000     -1.6151361E-08
   35.88000     -1.6667588E-08
   35.94000     -1.7113644E-08
   36.00000     -1.7473985E-08
   36.06000     -1.7737193E-08
   36.12000     -1.7904460E-08
   36.18000     -1.7993566E-08
   36.24000     -1.8036497E-08
   36.30000     -1.8071603E-08
   36.36000     -1.8133715E-08
   36.42000     -1.8246205E-08
   36.48000     -1.8417827E-08
   36.54000     -1.8644604E-08
   36.60000     -1.8914662E-08
   36.66000     -1.9213058E-08
   36.72000     -1.9524450E-08
   36.78000     -1.9833529E-08
   36.84000     -2.0124947E-08
   36.90000     -2.0384952E-08
   36.96000     -2.0605707E-08
   37.02000     -2.0790964E-08
   37.08000     -2.0960023E-08
   37.14000     -2.1146736E-08
   37.20000     -2.1392140E-08
   37.26000     -2.1732458E-08
   37.32000     -2.2186843E-08
   37.38000     -2.2750076E-08
   37.44000     -2.3393774E-08
   37.50000     -2.4076162E-08
   37.56000     -2.4756748E-08
   37.62000     -2.5410014E-08
   37.68000     -2.6032600E-08
   37.74000     -2.6641230E-08
   37.80000     -2.7262580E-08
   37.86000     -2.7919608E-08
   37.92000     -2.8620137E-08
   37.98000     -2.9352314E-08
   38.04000     -3.0088440E-08
   38.10000     -3.0795153E-08
   38.16000     -3.1445410E-08
   38.22000     -3.2027266E-08
   38.28000     -3.2546065E-08
   38.34000     -3.3019422E-08
   38.40000     -3.3467511E-08
   38.46000     -3.3902719E-08
   38.52000     -3.4323033E-08
   38.58000     -3.4711810E-08
   38.64000     -3.5044145E-08
   38.70000     -3.5297528E-08
   38.76000     -3.5462964E-08
   38.82000     -3.5552496E-08
   38.88000     -3.5600319E-08
   38.94000     -3.5656704E-08
   39.00000     -3.5776377E-08
   39.06000     -3.6004725E-08
   39.12000     -3.6365943E-08
   39.18000     -3.6856722E-08
   39.24000     -3.7447403E-08
   39.30000     -3.8090224E-08
   39.36000     -3.8732100E-08
   39.42000     -3.9328025E-08
   39.48000     -3.9850946E-08
   39.54000     -4.0295244E-08
   39.60000     -4.0673171E-08
   39.66000     -4.1005858E-08
   39.72000     -4.1312603E-08
   39.78000     -4.1602540E-08
   39.84000     -4.1871914E-08
   39.90000     -4.2107860E-08
   39.96000     -4.2297145E-08
   40.02000     -4.2436156E-08
   40.08000     -4.2537863E-08
   40.14000     -4.2632763E-08
   40.20000     -4.2762963E-08
   40.26000     -4.2971500E-08
   40.32000     -4.3290690E-08
   40.38000     -4.3733646E-08
   40.44000     -4.4291674E-08
   40.50000     -4.4937977E-08
   40.56000     -4.5635755E-08
   40.62000     -4.6347672E-08
   40.68000     -4.7043727E-08
   40.74000     -4.7705878E-08
   40.80000     -4.8329163E-08
   40.86000     -4.8920057E-08
   40.92000     -4.9492961E-08
   40.98000     -5.0065417E-08
   41.04000     -5.0652257E-08
   41.10000     -5.1259327E-08
   41.16000     -5.1878004E-08
   41.22000     -5.2482555E-08
   41.28000     -5.3032409E-08
   41.34000     -5.3479976E-08
   41.40000     -5.3782699E-08
   41.46000     -5.3915752E-08
   41.52000     -5.3880598E-08
   41.58000     -5.3705591E-08
   41.64000     -5.3437322E-08
   41.70000     -5.3125035E-08
   41.76000     -5.2803362E-08
   41.82000     -5.2479770E-08
   41.88000     -5.2131639E-08
   41.94000     -5.1714309E-08
   42.00000     -5.1177295E-08
   42.06000     -5.0482512E-08
   42.12000     -4.9617324E-08
   42.18000     -4.8597268E-08
   42.24000     -4.7457220E-08
   42.30000     -4.6234462E-08
   42.36000     -4.4950504E-08
   42.42000     -4.3599126E-08
   42.48000     -4.2145732E-08
   42.54000     -4.0538623E-08
   42.60000     -3.8727986E-08
   42.66000     -3.6685268E-08
   42.72000     -3.4415496E-08
   42.78000     -3.1957946E-08
   42.84000     -2.9375261E-08
   42.90000     -2.6735320E-08
   42.96000     -2.4092865E-08
   43.02000     -2.1477197E-08
   43.08000     -1.8889766E-08
   43.14000     -1.6311398E-08
   43.20000     -1.3715769E-08
   43.26000     -1.1084024E-08
   43.32000     -8.4158600E-09
   43.38000     -5.7341474E-09
   43.44000     -3.0825988E-09
   43.50000     -5.1790461E-10
   43.56000      1.9011013E-09
   43.62000      4.1244723E-09
   43.68000      6.1200578E-09
   43.74000      7.8786826E-09
   43.80000      9.4148138E-09
   43.86000      1.0762708E-08
   43.92000      1.1968806E-08
   43.98000      1.3081855E-08
   44.04000      1.4142848E-08
   44.10000      1.5177079E-08
   44.16000      1.6190384E-08
   44.22000      1.7170667E-08
   44.28000      1.8094427E-08
   44.34000      1.8936422E-08
   44.40000      1.9679401E-08
   44.46000      2.0320611E-08
   44.52000      2.0872690E-08
   44.58000      2.1358494E-08
   44.64000      2.1801673E-08
   44.70000      2.2216641E-08
   44.76000      2.2601940E-08
   44.82000      2.2940043E-08
   44.88000      2.3204043E-08
   44.94000      2.3369036E-08
   45.00000      2.3423871E-08
   45.06000      2.3378531E-08
   45.12000      2.3263899E-08
   45.18000      2.3123491E-08
   45.24000      2.2999927E-08
   45.30000      2.2921158E-08
   45.36000      2.2891722E-08
   45.42000      2.2892545E-08
   45.48000      2.2889427E-08
   45.54000      2.2847018E-08
   45.60000      2.2742864E-08
   45.66000      2.2576245E-08
   45.72000      2.2368837E-08
   45.78000      2.2157785E-08
   45.84000      2.1984908E-08
   45.90000      2.1887395E-08
   45.96000      2.1894245E-08
   46.02000      2.2030093E-08
   46.08000      2.2324709E-08
   46.14000      2.2824050E-08
   46.20000      2.3598561E-08
   46.26000      2.4745949E-08
   46.32000      2.6388651E-08
   46.38000      2.8668829E-08
   46.44000      3.1744950E-08
   46.50000      3.5793441E-08
   46.56000      4.1016648E-08
   46.62000      4.7655689E-08
   46.68000      5.6004762E-08
   46.74000      6.6422892E-08
   46.80000      7.9340666E-08
   46.86000      9.5261896E-08
   46.92000      1.1476339E-07
   46.98000      1.3849773E-07
   47.04000      1.6720432E-07
   47.10000      2.0173171E-07
   47.16000      2.4307090E-07
   47.22000      2.9239524E-07
   47.28000      3.5110125E-07
   47.34000      4.2084338E-07
   47.40000      5.0356027E-07
   47.46000      6.0149313E-07
   47.52000      7.1720245E-07
   47.58000      8.5359056E-07
   47.64000      1.0139385E-06
   47.70000      1.2019599E-06
   47.76000      1.4218724E-06
   47.82000      1.6784793E-06
   47.88000      1.9772535E-06
   47.94000      2.3244204E-06
   48.00000      2.7270321E-06
   48.06000      3.1930417E-06
   48.12000      3.7313794E-06
   48.18000      4.3520367E-06
   48.24000      5.0661674E-06
   48.30000      5.8861965E-06
   48.36000      6.8259446E-06
   48.42000      7.9007432E-06
   48.48000      9.1275570E-06
   48.54000      1.0525096E-05
   48.60000      1.2113928E-05
   48.66000      1.3916593E-05
   48.72000      1.5957723E-05
   48.78000      1.8264162E-05
   48.84000      2.0865111E-05
   48.90000      2.3792236E-05
   48.96000      2.7079795E-05
   49.02000      3.0764713E-05
   49.08000      3.4886645E-05
   49.14000      3.9488034E-05
   49.20000      4.4614138E-05
   49.26000      5.0313040E-05
   49.32000      5.6635672E-05
   49.38000      6.3635809E-05
   49.44000      7.1370036E-05
   49.50000      7.9897662E-05
   49.56000      8.9280613E-05
   49.62000      9.9583274E-05
   49.68000      1.1087228E-04
   49.74000      1.2321623E-04
   49.80000      1.3668541E-04
   49.86000      1.5135153E-04
   49.92000      1.6728717E-04
   49.98000      1.8456559E-04
   50.04000      2.0326012E-04
   50.10000      2.2344368E-04
   50.16000      2.4518828E-04
   50.22000      2.6856441E-04
   50.28000      2.9364025E-04
   50.34000      3.2048119E-04
   50.40000      3.4914893E-04
   50.46000      3.7970094E-04
   50.52000      4.1218961E-04
   50.58000      4.4666135E-04
   50.64000      4.8315618E-04
   50.70000      5.2170671E-04
   50.76000      5.6233763E-04
   50.82000      6.0506479E-04
   50.88000      6.4989441E-04
   50.94000      6.9682300E-04
   51.00000      7.4583601E-04
   51.06000      7.9690793E-04
   51.12000      8.5000164E-04
   51.18000      9.0506818E-04
   51.24000      9.6204650E-04
   51.30000      1.0208634E-03
   51.36000      1.0814334E-03
   51.42000      1.1436590E-03
   51.48000      1.2074305E-03
   51.54000      1.2726273E-03
   51.60000      1.3391172E-03
   51.66000      1.4067582E-03
   51.72000      1.4753990E-03
   51.78000      1.5448794E-03
   51.84000      1.6150322E-03
   51.90000      1.6856835E-03
   51.96000      1.7566548E-03
   52.02000      1.8277639E-03
   52.08000      1.8988264E-03
   52.14000      1.9696578E-03
   52.20000      2.0400744E-03
   52.26000      2.1098952E-03
   52.32000      2.1789435E-03
   52.38000      2.2470485E-03
   52.44000      2.3140477E-03
   52.50000      2.3797869E-03
   52.56000      2.4441234E-03
   52.62000      2.5069257E-03
   52.68000      2.5680761E-03
   52.74000      2.6274708E-03
   52.80000      2.6850228E-03
   52.86000      2.7406598E-03
   52.92000      2.7943272E-03
   52.98000      2.8459870E-03
   53.04000      2.8956200E-03
   53.10000      2.9432231E-03
   53.16000      2.9888116E-03
   53.22000      3.0324159E-03
   53.28000      3.0740842E-03
   53.34000      3.1138787E-03
   53.40000      3.1518752E-03
   53.46000      3.1881633E-03
   53.52000      3.2228434E-03
   53.58000      3.2560248E-03
   53.64000      3.2878260E-03
   53.70000      3.3183708E-03
   53.76000      3.3477864E-03
   53.82000      3.3762029E-03
   53.88000      3.4037491E-03
   53.94000      3.4305525E-03
   54.00000      3.4567351E-03
   54.06000      3.4824132E-03
   54.12000      3.5076956E-03
   54.18000      3.5326809E-03
   54.24000      3.5574557E-03
   54.30000      3.5820946E-03
   54.36000      3.6066577E-03
   54.42000      3.6311902E-03
   54.48000      3.6557198E-03
   54.54000      3.6802592E-03
   54.60000      3.7048038E-03
   54.66000      3.7293320E-03
   54.72000      3.7538065E-03
   54.78000      3.7781741E-03
   54.84000      3.8023659E-03
   54.90000      3.8262990E-03
   54.96000      3.8498773E-03
   55.02000      3.8729925E-03
   55.08000      3.8955275E-03
   55.14000      3.9173565E-03
   55.20000      3.9383480E-03
   55.26000      3.9583668E-03
   55.32000      3.9772755E-03
   55.38000      3.9949357E-03
   55.44000      4.0112119E-03
   55.50000      4.0259720E-03
   55.56000      4.0390925E-03