  -2.400000      0.0000000E+00
  -2.340000      0.0000000E+00
  -2.280000      0.0000000E+00
  -2.220000      0.0000000E+00
  -2.160000      0.0000000E+00
  -2.100000      0.0000000E+00
  -2.040000      0.0000000E+00
  -1.980000      0.0000000E+00
  -1.920000      0.0000000E+00
  -1.860000      4.2468422E-30
  -1.800000      9.2853067E-29
  -1.740000      8.5050241E-28
  -1.680000      4.5860140E-27
  -1.620000      1.6158646E-26
  -1.560000      3.6103933E-26
  -1.500000      3.0778139E-26
  -1.440000     -1.2539891E-25
  -1.380000     -6.7536768E-25
  -1.320000     -1.7884634E-24
  -1.260000     -2.9123810E-24
  -1.200000     -1.7327614E-24
  -1.140000      6.2839401E-24
  -1.080000      2.5636498E-23
  -1.020000      5.3767668E-23
 -0.9600000      7.0569067E-23
 -0.9000000      3.2732041E-23
 -0.8400000     -1.1232415E-22
 -0.7800000     -3.8180593E-22
 -0.7200000     -6.9289387E-22
 -0.6600000     -8.2365818E-22
 -0.6000000     -4.6522901E-22
 -0.5400000      6.0349450E-22
 -0.4800000      2.2900940E-21
 -0.4200000      4.0965732E-21
 -0.3600000      5.3367904E-21
 -0.3000000      5.5916880E-21
 -0.2400000      4.9140752E-21
 -0.1800000      3.0846114E-21
 -0.1200000     -2.2359817E-21
 -5.9999999E-02 -1.7090876E-20
  0.0000000E+00 -4.9420407E-20
  5.9999999E-02 -1.0065412E-19
  0.1200000     -1.5124711E-19
  0.1800000     -1.4856928E-19
  0.2400000     -1.3638546E-20
  0.3000000      3.1668923E-19
  0.3600000      8.1170928E-19
  0.4200000      1.2659675E-18
  0.4800000      1.2841150E-18
  0.5400000      4.0853132E-19
  0.6000000     -1.5832493E-18
  0.6600000     -4.2990611E-18
  0.7200000     -6.4956231E-18
  0.7800000     -6.2776263E-18
  0.8400000     -1.9191182E-18
  0.9000000      6.8270789E-18
  0.9600000      1.7509683E-17
   1.020000      2.4750420E-17
   1.080000      2.1806382E-17
   1.140000      4.0099359E-18
   1.200000     -2.7020510E-17
   1.260000     -6.0647691E-17
   1.320000     -7.8518942E-17
   1.380000     -6.1302309E-17
   1.440000      3.8864794E-19
   1.500000      9.5314301E-17
   1.560000      1.8762817E-16
   1.620000      2.2513119E-16
   1.680000      1.6066224E-16
   1.740000     -1.9682602E-17
   1.800000     -2.7442960E-16
   1.860000     -5.0554494E-16
   1.920000     -5.8722380E-16
   1.980000     -4.2048632E-16
   2.040000      6.4169607E-18
   2.100000      5.8216829E-16
   2.160000      1.0885133E-15
   2.220000      1.2764139E-15
   2.280000      9.8000378E-16
   2.340000      2.1861994E-16
   2.400000     -7.7083074E-16
   2.460000     -1.6065615E-15
   2.520000     -1.9258658E-15
   2.580000     -1.5711836E-15
   2.640000     -6.9844632E-16
   2.700000      2.7228922E-16
   2.760000      8.7053372E-16
   2.820000      8.6186666E-16
   2.880000      4.4580048E-16
   2.940000      2.1363776E-16
   3.000000      8.2271670E-16
   3.060000      2.5109779E-15
   3.120000      4.7163858E-15
   3.180000      6.0836668E-15
   3.240000      4.9891753E-15
   3.300000      4.3821596E-16
   3.360000     -7.0777899E-15
   3.420000     -1.5270749E-14
   3.480000     -2.0619921E-14
   3.540000     -1.9730298E-14
   3.600000     -1.0956841E-14
   3.660000      4.4707102E-15
   3.720000      2.2442477E-14
   3.780000      3.7205306E-14
   3.840000      4.3358936E-14
   3.900000      3.7751201E-14
   3.960000      2.0491047E-14
   4.020000     -5.2046088E-15
   4.080000     -3.4006940E-14
   4.140000     -5.9668355E-14
   4.200000     -7.5940942E-14
   4.260000     -7.7271827E-14
   4.320000     -5.9755023E-14
   4.380000     -2.2712590E-14
   4.440000      2.9433921E-14
   4.500000      8.6203519E-14
   4.560000      1.3246580E-13
   4.620000      1.5279963E-13
   4.680000      1.3756967E-13
   4.740000      8.7782808E-14
   4.800000      1.5522894E-14
   4.860000     -6.1330322E-14
   4.920000     -1.2793617E-13
   4.980000     -1.7968041E-13
   5.040000     -2.2219120E-13
   5.100000     -2.6217190E-13
   5.160000     -2.9316957E-13
   5.220000     -2.8574633E-13
   5.280000     -1.9216378E-13
   5.340000      3.0355963E-14
   5.400000      3.8467854E-13
   5.460000      8.0442087E-13
   5.520000      1.1508061E-12
   5.580000      1.2483343E-12
   5.640000      9.5424016E-13
   5.700000      2.3680632E-13
   5.760000     -7.7414621E-13
   5.820000     -1.7967299E-12
   5.880000     -2.4766701E-12
   5.940000     -2.5159731E-12
   6.000000     -1.8022592E-12
   6.060000     -4.8160759E-13
   6.120000      1.0658358E-12
   6.180000      2.3507476E-12
   6.240000      2.9592663E-12
   6.300000      2.7252475E-12
   6.360000      1.8146599E-12
   6.420000      6.7577758E-13
   6.480000     -1.3900042E-13
   6.540000     -2.1880016E-13
   6.600000      4.8848962E-13
   6.660000      1.5819161E-12
   6.720000      2.2908138E-12
   6.780000      1.7258485E-12
   6.840000     -7.7714294E-13
   6.900000     -5.3348719E-12
   6.960000     -1.1328088E-11
   7.020000     -1.7416022E-11
   7.080000     -2.1756661E-11
   7.140000     -2.2373416E-11
   7.200000     -1.7575033E-11
   7.260000     -6.3411346E-12
   7.320000      1.1377663E-11
   7.380000      3.4452354E-11
   7.440000      6.0443622E-11
   7.500000      8.5538798E-11
   7.560000      1.0459238E-10
   7.620000      1.1135171E-10
   7.680000      9.8969839E-11
   7.740000      6.0875485E-11
   7.800000     -8.0166854E-12
   7.860000     -1.0988890E-10
   7.920000     -2.4263683E-10
   7.980000     -3.9881295E-10
   8.040000     -5.6516786E-10
   8.100000     -7.2296585E-10
   8.160000     -8.4911145E-10
   8.220000     -9.1798524E-10
   8.280000     -9.0377994E-10
   8.340000     -7.8306717E-10
   8.400000     -5.3731530E-10
   8.460000     -1.5509695E-10
   8.520000      3.6623343E-10
   8.580000      1.0195568E-09
   8.640000      1.7878008E-09
   8.700000      2.6445564E-09
   8.760000      3.5554317E-09
   8.820000      4.4800057E-09
   8.880000      5.3742117E-09
   8.940000      6.1929990E-09
   9.000000      6.8931727E-09
   9.060000      7.4363267E-09
   9.120000      7.7917939E-09
   9.180000      7.9394402E-09
   9.240000      7.8719973E-09
   9.300000      7.5965225E-09
   9.360000      7.1345401E-09
   9.420000      6.5205410E-09
   9.480000      5.7987899E-09
   9.540000      5.0187712E-09
   9.600000      4.2299146E-09
   9.660000      3.4764722E-09
   9.720000      2.7933755E-09
   9.780000      2.2036628E-09
   9.840000      1.7176879E-09
   9.900000      1.3339344E-09
   9.960000      1.0409843E-09
   10.02000      8.2010837E-10
   10.08000      6.4804817E-10
   10.14000      4.9973925E-10
   10.20000      3.5090678E-10
   10.26000      1.8053278E-10
   10.32000     -2.6855306E-11
   10.38000     -2.7925620E-10
   10.44000     -5.7592414E-10
   10.50000     -9.0707430E-10
   10.56000     -1.2547662E-09
   10.62000     -1.5949393E-09
   10.68000     -1.9003210E-09
   10.74000     -2.1437272E-09
   10.80000     -2.3012130E-09
   10.86000     -2.3545994E-09
   10.92000     -2.2930817E-09
   10.98000     -2.1138298E-09
   11.04000     -1.8216645E-09
   11.10000     -1.4279875E-09
   11.16000     -9.4916108E-10
   11.22000     -4.0450385E-10
   11.28000      1.8597203E-10
   11.34000      8.0395557E-10
   11.40000      1.4351893E-09
   11.46000      2.0715107E-09
   11.52000      2.7122102E-09
   11.58000      3.3642917E-09
   11.64000      4.0412900E-09
   11.70000      4.7605266E-09
   11.76000      5.5390497E-09
   11.82000      6.3889565E-09
   11.88000      7.3131252E-09
   11.94000      8.3025524E-09
   12.00000      9.3362544E-09
   12.06000      1.0384175E-08
   12.12000      1.1412705E-08
   12.18000      1.2391625E-08
   12.24000      1.3300752E-08
   12.30000      1.4134438E-08
   12.36000      1.4902536E-08
   12.42000      1.5627435E-08
   12.48000      1.6337800E-08
   12.54000      1.7060712E-08
   12.60000      1.7814333E-08
   12.66000      1.8603174E-08
   12.72000      1.9417159E-08
   12.78000      2.0234639E-08
   12.84000      2.1028269E-08
   12.90000      2.1771912E-08
   12.96000      2.2446510E-08
   13.02000      2.3043413E-08
   13.08000      2.3564496E-08
   13.14000      2.4019565E-08
   13.20000      2.4422237E-08
   13.26000      2.4785876E-08
   13.32000      2.5120793E-08
   13.38000      2.5433364E-08
   13.44000      2.5726797E-08
   13.50000      2.6002809E-08
   13.56000      2.6263208E-08
   13.62000      2.6510659E-08
   13.68000      2.6748443E-08
   13.74000      2.6979563E-08
   13.80000      2.7205870E-08
   13.86000      2.7427848E-08
   13.92000      2.7645306E-08
   13.98000      2.7858652E-08
   14.04000      2.8070037E-08
   14.10000      2.8283585E-08
   14.16000      2.8504248E-08
   14.22000      2.8735501E-08
   14.28000      2.8976807E-08
   14.34000      2.9222026E-08
   14.40000      2.9459898E-08
   14.46000      2.9676912E-08
   14.52000      2.9861905E-08
   14.58000      3.0010842E-08
   14.64000      3.0129801E-08
   14.70000      3.0234663E-08
   14.76000      3.0346786E-08
   14.82000      3.0485644E-08
   14.88000      3.0660345E-08
   14.94000      3.0862754E-08
   15.00000      3.1064623E-08
   15.06000      3.1220154E-08
   15.12000      3.1273764E-08
   15.18000      3.1171272E-08
   15.24000      3.0871576E-08
   15.30000      3.0355611E-08
   15.36000      2.9630089E-08
   15.42000      2.8724896E-08
   15.48000      2.7684921E-08
   15.54000      2.6558556E-08
   15.60000      2.5386148E-08
   15.66000      2.4191502E-08
   15.72000      2.2978575E-08
   15.78000      2.1733893E-08
   15.84000      2.0433502E-08
   15.90000      1.9052017E-08
   15.96000      1.7570992E-08
   16.02000      1.5984309E-08
   16.08000      1.4299477E-08
   16.14000      1.2535256E-08
   16.20000      1.0717136E-08
   16.26000      8.8727914E-09
   16.32000      7.0293478E-09
   16.38000      5.2133950E-09
   16.44000      3.4534291E-09
   16.50000      1.7833366E-09
   16.56000      2.4497465E-10
   16.62000     -1.1118721E-09
   16.68000     -2.2330167E-09
   16.74000     -3.0665170E-09
   16.80000     -3.5709671E-09
   16.86000     -3.7233456E-09
   16.92000     -3.5243986E-09
   16.98000     -3.0002274E-09
   17.04000     -2.1997901E-09
   17.10000     -1.1890262E-09
   17.16000     -4.3040370E-11
   17.22000      1.1619592E-09
   17.28000      2.3553999E-09
   17.34000      3.4766314E-09
   17.40000      4.4762545E-09
   17.46000      5.3147011E-09
   17.52000      5.9589649E-09
   17.58000      6.3789161E-09
   17.64000      6.5448118E-09
   17.70000      6.4272681E-09
   17.76000      6.0001368E-09
   17.82000      5.2455791E-09
   17.88000      4.1596397E-09
   17.94000      2.7561886E-09
   18.00000      1.0674942E-09
   18.06000     -8.5916835E-10
   18.12000     -2.9680192E-09
   18.18000     -5.2023834E-09
   18.24000     -7.5110398E-09
   18.30000     -9.8515240E-09
   18.36000     -1.2189904E-08
   18.42000     -1.4497942E-08
   18.48000     -1.6749549E-08
   18.54000     -1.8918533E-08
   18.60000     -2.0978911E-08
   18.66000     -2.2907958E-08
   18.72000     -2.4690774E-08
   18.78000     -2.6324651E-08
   18.84000     -2.7821415E-08
   18.90000     -2.9206504E-08
   18.96000     -3.0514695E-08
   19.02000     -3.1783262E-08
   19.08000     -3.3044234E-08
   19.14000     -3.4317555E-08
   19.20000     -3.5606966E-08
   19.26000     -3.6899674E-08
   19.32000     -3.8170121E-08
   19.38000     -3.9387139E-08
   19.44000     -4.0522842E-08
   19.50000     -4.1560998E-08
   19.56000     -4.2502535E-08
   19.62000     -4.3366292E-08
   19.68000     -4.4184485E-08
   19.74000     -4.4993772E-08
   19.80000     -4.5824368E-08
   19.86000     -4.6690392E-08
   19.92000     -4.7584468E-08
   19.98000     -4.8478366E-08
   20.04000     -4.9329678E-08
   20.10000     -5.0092620E-08
   20.16000     -5.0730016E-08
   20.22000     -5.1223140E-08
   20.28000     -5.1577103E-08
   20.34000     -5.1820606E-08
   20.40000     -5.2000477E-08
   20.46000     -5.2172368E-08
   20.52000     -5.2389570E-08
   20.58000     -5.2692101E-08
   20.64000     -5.3098024E-08
   20.70000     -5.3598647E-08
   20.76000     -5.4158772E-08
   20.82000     -5.4722211E-08
   20.88000     -5.5221729E-08
   20.94000     -5.5591471E-08
   21.00000     -5.5779001E-08
   21.06000     -5.5754221E-08
   21.12000     -5.5513070E-08
   21.18000     -5.5075528E-08
   21.24000     -5.4479049E-08
   21.30000     -5.3769760E-08
   21.36000     -5.2994004E-08
   21.42000     -5.2192348E-08
   21.48000     -5.1396853E-08
   21.54000     -5.0631190E-08
   21.60000     -4.9912316E-08
   21.66000     -4.9252201E-08
   21.72000     -4.8658585E-08
   21.78000     -4.8134396E-08
   21.84000     -4.7676405E-08
   21.90000     -4.7273989E-08
   21.96000     -4.6909104E-08
   22.02000     -4.6558085E-08
   22.08000     -4.6195332E-08
   22.14000     -4.5798171E-08
   22.20000     -4.5351740E-08
   22.26000     -4.4852360E-08
   22.32000     -4.4308386E-08
   22.38000     -4.3737945E-08
   22.44000     -4.3163972E-08
   22.50000     -4.2607784E-08
   22.56000     -4.2082814E-08
   22.62000     -4.1590148E-08
   22.68000     -4.1117001E-08
   22.74000     -4.0638348E-08
   22.80000     -4.0121051E-08
   22.86000     -3.9529297E-08
   22.92000     -3.8829853E-08
   22.98000     -3.7996056E-08
   23.04000     -3.7009986E-08
   23.10000     -3.5862950E-08
   23.16000     -3.4554894E-08
   23.22000     -3.3093404E-08
   23.28000     -3.1492654E-08
   23.34000     -2.9772380E-08
   23.40000     -2.7956519E-08
   23.46000     -2.6071232E-08
   23.52000     -2.4142462E-08
   23.58000     -2.2193639E-08
   23.64000     -2.0244528E-08
   23.70000     -1.8311985E-08
   23.76000     -1.6412683E-08
   23.82000     -1.4566797E-08
   23.88000     -1.2800981E-08
   23.94000     -1.1148908E-08
   24.00000     -9.6484740E-09
   24.06000     -8.3361389E-09
   24.12000     -7.2401964E-09
   24.18000     -6.3752710E-09
   24.24000     -5.7399832E-09
   24.30000     -5.3184444E-09
   24.36000     -5.0848503E-09
   24.42000     -5.0094102E-09
   24.48000     -5.0636340E-09
   24.54000     -5.2235438E-09
   24.60000     -5.4703100E-09
   24.66000     -5.7886842E-09
   24.72000     -6.1641110E-09
   24.78000     -6.5795542E-09
   24.84000     -7.0129684E-09
   24.90000     -7.4361677E-09
   24.96000     -7.8156193E-09
   25.02000     -8.1153066E-09
   25.08000     -8.3013312E-09
   25.14000     -8.3472713E-09
   25.20000     -8.2389100E-09
   25.26000     -7.9768672E-09
   25.32000     -7.5761406E-09
   25.38000     -7.0624488E-09
   25.44000     -6.4662102E-09
   25.50000     -5.8156617E-09
   25.56000     -5.1308269E-09
   25.62000     -4.4196953E-09
   25.68000     -3.6773915E-09
   25.74000     -2.8883747E-09
   25.80000     -2.0310784E-09
   25.86000     -1.0839217E-09
   25.92000     -3.1305410E-11
   25.98000      1.1318546E-09
   26.04000      2.3982387E-09
   26.10000      3.7494381E-09
   26.16000      5.1601132E-09
   26.22000      6.6037069E-09
   26.28000      8.0578246E-09
   26.34000      9.5074011E-09
   26.40000      1.0944480E-08
   26.46000      1.2364625E-08
   26.52000      1.3761184E-08
   26.58000      1.5119541E-08
   26.64000      1.6413610E-08
   26.70000      1.7606244E-08
   26.76000      1.8653992E-08
   26.82000      1.9515243E-08
   26.88000      2.0159536E-08
   26.94000      2.0575172E-08
   27.00000      2.0772505E-08
   27.06000      2.0781396E-08
   27.12000      2.0643025E-08
   27.18000      2.0398168E-08
   27.24000      2.0075294E-08
   27.30000      1.9682172E-08
   27.36000      1.9203638E-08
   27.42000      1.8606249E-08
   27.48000      1.7848262E-08
   27.54000      1.6891637E-08
   27.60000      1.5712200E-08
   27.66000      1.4304849E-08
   27.72000      1.2682513E-08
   27.78000      1.0869701E-08
   27.84000      8.8931946E-09
   27.90000      6.7731594E-09
   27.96000      4.5175477E-09
   28.02000      2.1214321E-09
   28.08000     -4.2880052E-10
   28.14000     -3.1479301E-09
   28.20000     -6.0435443E-09
   28.26000     -9.1094545E-09
   28.32000     -1.2322895E-08
   28.38000     -1.5646320E-08
   28.44000     -1.9033305E-08
   28.50000     -2.2436865E-08
   28.56000     -2.5817860E-08
   28.62000     -2.9151245E-08
   28.68000     -3.2428577E-08
   28.74000     -3.5656274E-08
   28.80000     -3.8850228E-08
   28.86000     -4.2028351E-08
   28.92000     -4.5202917E-08
   28.98000     -4.8374591E-08
   29.04000     -5.1529465E-08
   29.10000     -5.4639663E-08
   29.16000     -5.7667261E-08
   29.22000     -6.0570386E-08
   29.28000     -6.3309948E-08
   29.34000     -6.5855104E-08
   29.40000     -6.8186282E-08
   29.46000     -7.0294895E-08
   29.52000     -7.2180327E-08
   29.58000     -7.3845406E-08
   29.64000     -7.5292078E-08
   29.70000     -7.6518575E-08
   29.76000     -7.7518891E-08
   29.82000     -7.8284025E-08
   29.88000     -7.8804128E-08
   29.94000     -7.9070276E-08
   30.00000     -7.9075335E-08
   30.06000     -7.8813819E-08
   30.12000     -7.8281602E-08
   30.18000     -7.7476209E-08
   30.24000     -7.6398315E-08
   30.30000     -7.5053983E-08
   30.36000     -7.3457187E-08
   30.42000     -7.1631341E-08
   30.48000     -6.9609470E-08
   30.54000     -6.7432744E-08
   30.60000     -6.5147987E-08
   30.66000     -6.2804794E-08
   30.72000     -6.0452813E-08
   30.78000     -5.8139456E-08
   30.84000     -5.5907933E-08
   30.90000     -5.3795571E-08
   30.96000     -5.1832409E-08
   31.02000     -5.0040249E-08
   31.08000     -4.8432426E-08
   31.14000     -4.7014215E-08
   31.20000     -4.5783732E-08
   31.26000     -4.4732936E-08
   31.32000     -4.3848463E-08
   31.38000     -4.3112433E-08
   31.44000     -4.2503654E-08
   31.50000     -4.1999620E-08
   31.56000     -4.1579380E-08
   31.62000     -4.1226635E-08
   31.68000     -4.0931951E-08
   31.74000     -4.0692928E-08
   31.80000     -4.0511761E-08
   31.86000     -4.0390802E-08
   31.92000     -4.0327766E-08
   31.98000     -4.0312521E-08
   32.04000     -4.0326988E-08
   32.10000     -4.0348436E-08
   32.16000     -4.0354841E-08
   32.22000     -4.0330260E-08
   32.28000     -4.0267995E-08
   32.34000     -4.0170459E-08
   32.40000     -4.0046107E-08
   32.46000     -3.9905071E-08
   32.52000     -3.9755516E-08
   32.58000     -3.9602288E-08
   32.64000     -3.9448121E-08
   32.70000     -3.9296509E-08
   32.76000     -3.9154504E-08
   32.82000     -3.9033974E-08
   32.88000     -3.8950564E-08
   32.94000     -3.8920767E-08
   33.00000     -3.8958223E-08
   33.06000     -3.9070606E-08
   33.12000     -3.9257955E-08
   33.18000     -3.9512638E-08
   33.24000     -3.9820435E-08
   33.30000     -4.0162021E-08
   33.36000     -4.0514404E-08
   33.42000     -4.0852260E-08
   33.48000     -4.1149519E-08
   33.54000     -4.1381625E-08
   33.60000     -4.1528249E-08
   33.66000     -4.1575966E-08
   33.72000     -4.1519680E-08
   33.78000     -4.1362078E-08
   33.84000     -4.1110841E-08
   33.90000     -4.0774552E-08
   33.96000     -4.0358742E-08
   34.02000     -3.9863782E-08
   34.08000     -3.9285428E-08
   34.14000     -3.8617635E-08
   34.20000     -3.7856275E-08
   34.26000     -3.7001996E-08
   34.32000     -3.6061085E-08
   34.38000     -3.5044330E-08
   34.44000     -3.3964913E-08
   34.50000     -3.2836738E-08
   34.56000     -3.1674059E-08
   34.62000     -3.0492124E-08
   34.68000     -2.9307808E-08
   34.74000     -2.8138997E-08
   34.80000     -2.7002400E-08
   34.86000     -2.5910571E-08
   34.92000     -2.4869806E-08
   34.98000     -2.3880336E-08
   35.04000     -2.2939194E-08
   35.10000     -2.2044606E-08
   35.16000     -2.1199801E-08
   35.22000     -2.0414319E-08
   35.28000     -1.9702124E-08
   35.34000     -1.9077323E-08
   35.40000     -1.8549496E-08
   35.46000     -1.8120593E-08
   35.52000     -1.7784441E-08
   35.58000     -1.7528555E-08
   35.64000     -1.7337078E-08
   35.70000     -1.7193507E-08
   35.76000     -1.7082549E-08
   35.82000     -1.6991104E-08
   35.88000     -1.6908876E-08
   35.94000     -1.6828814E-08
   36.00000     -1.6747142E-08
   36.06000     -1.6662424E-08
   36.12000     -1.6573351E-08
   36.18000     -1.6475726E-08
   36.24000     -1.6359934E-08
   36.30000     -1.6210468E-08
   36.36000     -1.6008553E-08
   36.42000     -1.5737637E-08
   36.48000     -1.5390174E-08
   36.54000     -1.4973386E-08
   36.60000     -1.4511756E-08
   36.66000     -1.4045153E-08
   36.72000     -1.3622810E-08
   36.78000     -1.3294740E-08
   36.84000     -1.3102705E-08
   36.90000     -1.3072779E-08
   36.96000     -1.3211003E-08
   37.02000     -1.3502749E-08
   37.08000     -1.3915817E-08
   37.14000     -1.4406638E-08
   37.20000     -1.4928572E-08
   37.26000     -1.5440852E-08
   37.32000     -1.5916431E-08
   37.38000     -1.6346997E-08
   37.44000     -1.6743794E-08
   37.50000     -1.7133791E-08
   37.56000     -1.7551933E-08
   37.62000     -1.8031411E-08
   37.68000     -1.8594564E-08
   37.74000     -1.9247027E-08
   37.80000     -1.9976794E-08
   37.86000     -2.0758451E-08
   37.92000     -2.1561135E-08
   37.98000     -2.2357604E-08
   38.04000     -2.3131356E-08
   38.10000     -2.3879426E-08
   38.16000     -2.4609905E-08
   38.22000     -2.5335142E-08
   38.28000     -2.6063175E-08
   38.34000     -2.6790822E-08
   38.40000     -2.7501402E-08
   38.46000     -2.8168705E-08
   38.52000     -2.8766493E-08
   38.58000     -2.9280683E-08
   38.64000     -2.9719903E-08
   38.70000     -3.0120162E-08
   38.76000     -3.0540850E-08
   38.82000     -3.1052128E-08
   38.88000     -3.1716738E-08
   38.94000     -3.2571627E-08
   39.00000     -3.3615216E-08
   39.06000     -3.4804906E-08
   39.12000     -3.6066048E-08
   39.18000     -3.7310087E-08
   39.24000     -3.8456385E-08
   39.30000     -3.9451013E-08
   39.36000     -4.0276976E-08
   39.42000     -4.0952990E-08
   39.48000     -4.1521961E-08
   39.54000     -4.2033292E-08
   39.60000     -4.2524995E-08
   39.66000     -4.3011152E-08
   39.72000     -4.3478305E-08
   39.78000     -4.3891337E-08
   39.84000     -4.4206615E-08
   39.90000     -4.4388166E-08
   39.96000     -4.4421874E-08
   40.02000     -4.4323553E-08
   40.08000     -4.4138169E-08
   40.14000     -4.3930122E-08
   40.20000     -4.3766796E-08
   40.26000     -4.3699774E-08
   40.32000     -4.3749097E-08
   40.38000     -4.3895575E-08
   40.44000     -4.4084299E-08
   40.50000     -4.4239151E-08
   40.56000     -4.4284842E-08
   40.62000     -4.4169990E-08
   40.68000     -4.3884057E-08
   40.74000     -4.3462197E-08
   40.80000     -4.2975735E-08
   40.86000     -4.2510568E-08
   40.92000     -4.2140002E-08
   40.98000     -4.1900677E-08
   41.04000     -4.1779685E-08
   41.10000     -4.1717492E-08
   41.16000     -4.1626169E-08
   41.22000     -4.1417330E-08
   41.28000     -4.1030795E-08
   41.34000     -4.0454669E-08
   41.40000     -3.9730217E-08
   41.46000     -3.8939788E-08
   41.52000     -3.8181582E-08
   41.58000     -3.7539216E-08
   41.64000     -3.7055539E-08
   41.70000     -3.6718916E-08
   41.76000     -3.6466073E-08
   41.82000     -3.6200756E-08
   41.88000     -3.5822460E-08
   41.94000     -3.5256683E-08
   42.00000     -3.4477448E-08
   42.06000     -3.3515228E-08
   42.12000     -3.2447652E-08
   42.18000     -3.1375642E-08
   42.24000     -3.0392297E-08
   42.30000     -2.9554242E-08
   42.36000     -2.8864713E-08
   42.42000     -2.8273778E-08
   42.48000     -2.7695496E-08
   42.54000     -2.7036041E-08
   42.60000     -2.6223081E-08
   42.66000     -2.5226434E-08
   42.72000     -2.4063405E-08
   42.78000     -2.2787813E-08
   42.84000     -2.1467448E-08
   42.90000     -2.0158533E-08
   42.96000     -1.8886086E-08
   43.02000     -1.7636507E-08
   43.08000     -1.6364066E-08
   43.14000     -1.5008329E-08
   43.20000     -1.3516448E-08
   43.26000     -1.1863254E-08
   43.32000     -1.0063433E-08
   43.38000     -8.1726110E-09
   43.44000     -6.2774519E-09
   43.50000     -4.4776574E-09
   43.56000     -2.8648166E-09
   43.62000     -1.5037532E-09
   43.68000     -4.2132833E-10
   43.74000      3.9440975E-10
   43.80000      9.8475494E-10
   43.86000      1.4036130E-09
   43.92000      1.6987018E-09
   43.98000      1.8963966E-09
   44.04000      1.9946245E-09
   44.10000      1.9655115E-09
   44.16000      1.7663612E-09
   44.22000      1.3550342E-09
   44.28000      7.0471046E-10
   44.34000     -1.8647052E-10
   44.40000     -1.2935124E-09
   44.46000     -2.5705293E-09
   44.52000     -3.9623149E-09
   44.58000     -5.4176739E-09
   44.64000     -6.9003443E-09
   44.70000     -8.3943332E-09
   44.76000     -9.9024460E-09
   44.82000     -1.1439170E-08
   44.88000     -1.3020864E-08
   44.94000     -1.4656951E-08
   45.00000     -1.6345011E-08
   45.06000     -1.8070851E-08
   45.12000     -1.9812594E-08
   45.18000     -2.1546411E-08
   45.24000     -2.3251360E-08
   45.30000     -2.4911825E-08
   45.36000     -2.6517419E-08
   45.42000     -2.8061473E-08
   45.48000     -2.9539386E-08
   45.54000     -3.0947749E-08
   45.60000     -3.2284191E-08
   45.66000     -3.3547465E-08
   45.72000     -3.4737372E-08
   45.78000     -3.5854473E-08
   45.84000     -3.6900136E-08
   45.90000     -3.7877360E-08
   45.96000     -3.8792411E-08
   46.02000     -3.9656634E-08
   46.08000     -4.0487517E-08
   46.14000     -4.1308311E-08
   46.20000     -4.2146109E-08
   46.26000     -4.3029239E-08
   46.32000     -4.3985118E-08
   46.38000     -4.5039556E-08
   46.44000     -4.6218116E-08
   46.50000     -4.7549307E-08
   46.56000     -4.9068905E-08
   46.62000     -5.0824582E-08
   46.68000     -5.2879948E-08
   46.74000     -5.5317209E-08
   46.80000     -5.8237998E-08
   46.86000     -6.1762108E-08
   46.92000     -6.6024526E-08
   46.98000     -7.1171876E-08
   47.04000     -7.7359893E-08
   47.10000     -8.4753694E-08
   47.16000     -9.3532194E-08
   47.22000     -1.0389670E-07
   47.28000     -1.1608259E-07
   47.34000     -1.3037209E-07
   47.40000     -1.4710599E-07
   47.46000     -1.6669290E-07
   47.52000     -1.8961606E-07
   47.58000     -2.1643835E-07
   47.64000     -2.4780741E-07
   47.70000     -2.8446215E-07
   47.76000     -3.2724174E-07
   47.82000     -3.7709702E-07
   47.88000     -4.3510425E-07
   47.94000     -5.0248030E-07
   48.00000     -5.8059953E-07
   48.06000     -6.7101178E-07
   48.12000     -7.7546099E-07
   48.18000     -8.9590503E-07
   48.24000     -1.0345362E-06
   48.30000     -1.1938016E-06
   48.36000     -1.3764231E-06
   48.42000     -1.5854195E-06
   48.48000     -1.8241267E-06
   48.54000     -2.0962202E-06
   48.60000     -2.4057395E-06
   48.66000     -2.7571100E-06
   48.72000     -3.1551713E-06
   48.78000     -3.6052006E-06
   48.84000     -4.1129415E-06
   48.90000     -4.6846262E-06
   48.96000     -5.3270019E-06
   49.02000     -6.0473490E-06
   49.08000     -6.8534978E-06
   49.14000     -7.7538398E-06
   49.20000     -8.7573353E-06
   49.26000     -9.8735200E-06
   49.32000     -1.1112498E-05
   49.38000     -1.2484948E-05
   49.44000     -1.4002114E-05
   49.50000     -1.5675803E-05
   49.56000     -1.7518354E-05
   49.62000     -1.9542626E-05
   49.68000     -2.1761953E-05
   49.74000     -2.4190100E-05
   49.80000     -2.6841210E-05
   49.86000     -2.9729732E-05
   49.92000     -3.2870354E-05
   49.98000     -3.6277896E-05
   50.04000     -3.9967250E-05
   50.10000     -4.3953241E-05
   50.16000     -4.8250564E-05
   50.22000     -5.2873649E-05
   50.28000     -5.7836554E-05
   50.34000     -6.3152853E-05
   50.40000     -6.8835470E-05
   50.46000     -7.4896554E-05
   50.52000     -8.1347280E-05
   50.58000     -8.8197754E-05
   50.64000     -9.5456780E-05
   50.70000     -1.0313174E-04
   50.76000     -1.1122848E-04
   50.82000     -1.1975112E-04
   50.88000     -1.2870197E-04
   50.94000     -1.3808130E-04
   51.00000     -1.4788745E-04
   51.06000     -1.5811650E-04
   51.12000     -1.6876224E-04
   51.18000     -1.7981614E-04
   51.24000     -1.9126716E-04
   51.30000     -2.0310184E-04
   51.36000     -2.1530419E-04
   51.42000     -2.2785581E-04
   51.48000     -2.4073580E-04
   51.54000     -2.5392091E-04
   51.60000     -2.6738568E-04
   51.66000     -2.8110243E-04
   51.72000     -2.9504136E-04
   51.78000     -3.0917095E-04
   51.84000     -3.2345802E-04
   51.90000     -3.3786791E-04
   51.96000     -3.5236479E-04
   52.02000     -3.6691179E-04
   52.08000     -3.8147141E-04
   52.14000     -3.9600578E-04
   52.20000     -4.1047705E-04
   52.26000     -4.2484771E-04
   52.32000     -4.3908067E-04
   52.38000     -4.5314000E-04
   52.44000     -4.6699087E-04
   52.50000     -4.8059996E-04
   52.56000     -4.9393601E-04
   52.62000     -5.0696981E-04
   52.68000     -5.1967480E-04
   52.74000     -5.3202698E-04
   52.80000     -5.4400542E-04
   52.86000     -5.5559201E-04
   52.92000     -5.6677230E-04
   52.98000     -5.7753501E-04
   53.04000     -5.8787264E-04
   53.10000     -5.9778109E-04
   53.16000     -6.0726004E-04
   53.22000     -6.1631243E-04
   53.28000     -6.2494475E-04
   53.34000     -6.3316658E-04
   53.40000     -6.4099050E-04
   53.46000     -6.4843218E-04
   53.52000     -6.5551017E-04
   53.58000     -6.6224521E-04
   53.64000     -6.6866045E-04
   53.70000     -6.7478034E-04
   53.76000     -6.8063103E-04
   53.82000     -6.8623945E-04
   53.88000     -6.9163297E-04
   53.94000     -6.9683942E-04
   54.00000     -7.0188625E-04
   54.06000     -7.0680061E-04
   54.12000     -7.1160833E-04
   54.18000     -7.1633421E-04
   54.24000     -7.2100130E-04
   54.30000     -7.2563044E-04
   54.36000     -7.3024048E-04
   54.42000     -7.3484745E-04
   54.48000     -7.3946523E-04
   54.54000     -7.4410450E-04
   54.60000     -7.4877340E-04
   54.66000     -7.5347663E-04
   54.72000     -7.5821602E-04
   54.78000     -7.6299009E-04
   54.84000     -7.6779479E-04
   54.90000     -7.7262317E-04
   54.96000     -7.7746587E-04
   55.02000     -7.8231114E-04
   55.08000     -7.8714517E-04
   55.14000     -7.9195213E-04
   55.20000     -7.9671468E-04
   55.26000     -8.0141425E-04
   55.32000     -8.0603146E-04
   55.38000     -8.1054674E-04
   55.44000     -8.1494037E-04
   55.50000     -8.1919326E-04
   55.56000     -8.2328677E-04