  -2.400000      0.0000000E+00
  -2.340000      0.0000000E+00
  -2.280000      0.0000000E+00
  -2.220000      0.0000000E+00
  -2.160000      0.0000000E+00
  -2.100000      0.0000000E+00
  -2.040000      0.0000000E+00
  -1.980000      0.0000000E+00
  -1.920000      0.0000000E+00
  -1.860000      3.2712631E-30
  -1.800000     -4.7026367E-29
  -1.740000     -8.9146193E-28
  -1.680000     -6.0495983E-27
  -1.620000     -2.3294938E-26
  -1.560000     -5.1309082E-26
  -1.500000     -2.4066927E-26
  -1.440000      2.7642125E-25
  -1.380000      1.1469739E-24
  -1.320000      2.2237198E-24
  -1.260000      5.4237392E-25
  -1.200000     -1.1875641E-23
  -1.140000     -4.6704513E-23
  -1.080000     -1.0554284E-22
  -1.020000     -1.4536676E-22
 -0.9600000     -3.0756775E-23
 -0.9000000      4.8078030E-22
 -0.8400000      1.6250650E-21
 -0.7800000      3.2843247E-21
 -0.7200000      4.4140292E-21
 -0.6600000      2.5423089E-21
 -0.6000000     -5.9544714E-21
 -0.5400000     -2.3871151E-20
 -0.4800000     -4.9006176E-20
 -0.4200000     -6.8866696E-20
 -0.3600000     -5.7781745E-20
 -0.3000000      1.7888490E-20
 -0.2400000      1.8128581E-19
 -0.1800000      4.1380897E-19
 -0.1200000      6.2274370E-19
 -5.9999999E-02  6.3221750E-19
  0.0000000E+00  2.2742703E-19
  5.9999999E-02 -7.3075746E-19
  0.1200000     -2.1409422E-18
  0.1800000     -3.5200960E-18
  0.2400000     -4.0039570E-18
  0.3000000     -2.6006203E-18
  0.3600000      1.2804448E-18
  0.4200000      7.1722250E-18
  0.4800000      1.3105756E-17
  0.5400000      1.5810255E-17
  0.6000000      1.1858979E-17
  0.6600000     -3.5476179E-19
  0.7200000     -1.8536282E-17
  0.7800000     -3.5551415E-17
  0.8400000     -4.0926170E-17
  0.9000000     -2.5327824E-17
  0.9600000      1.2974476E-17
   1.020000      6.2505790E-17
   1.080000      9.7819726E-17
   1.140000      8.6906719E-17
   1.200000      7.0588508E-18
   1.260000     -1.3547593E-16
   1.320000     -2.9163040E-16
   1.380000     -3.7295591E-16
   1.440000     -2.8008251E-16
   1.500000      4.6385681E-17
   1.560000      5.6935728E-16
   1.620000      1.1219126E-15
   1.680000      1.4276727E-15
   1.740000      1.1909168E-15
   1.800000      2.4203403E-16
   1.860000     -1.3130739E-15
   1.920000     -3.0170354E-15
   1.980000     -4.1316789E-15
   2.040000     -3.8829875E-15
   2.100000     -1.8280722E-15
   2.160000      1.7937174E-15
   2.220000      5.9110885E-15
   2.280000      8.8270650E-15
   2.340000      8.8120581E-15
   2.400000      4.9282643E-15
   2.460000     -2.2442170E-15
   2.520000     -1.0375919E-14
   2.580000     -1.5935024E-14
   2.640000     -1.5502167E-14
   2.700000     -7.4567165E-15
   2.760000      6.6719095E-15
   2.820000      2.1949470E-14
   2.880000      3.1336441E-14
   2.940000      2.8382820E-14
   3.000000      1.0443633E-14
   3.060000     -1.8952803E-14
   3.120000     -4.9926409E-14
   3.180000     -6.8933052E-14
   3.240000     -6.3842059E-14
   3.300000     -2.9709528E-14
   3.360000      2.7179407E-14
   3.420000      8.9223537E-14
   3.480000      1.3233971E-13
   3.540000      1.3470820E-13
   3.600000      8.6461186E-14
   3.660000     -3.7080341E-15
   3.720000     -1.0852240E-13
   3.780000     -1.9001060E-13
   3.840000     -2.1341608E-13
   3.900000     -1.6220797E-13
   3.960000     -4.7843758E-14
   4.020000      9.0940662E-14
   4.080000      2.0084565E-13
   4.140000      2.3516375E-13
   4.200000      1.7535286E-13
   4.260000      4.3337512E-14
   4.320000     -1.0271552E-13
   4.380000     -1.9019390E-13
   4.440000     -1.6460368E-13
   4.500000     -1.9884907E-14
   4.560000      1.8797575E-13
   4.620000      3.5365664E-13
   4.680000      3.6114509E-13
   4.740000      1.3633982E-13
   4.800000     -3.0665712E-13
   4.860000     -8.4672525E-13
   4.920000     -1.2776344E-12
   4.980000     -1.3693935E-12
   5.040000     -9.5185817E-13
   5.100000      7.5161062E-15
   5.160000      1.3610374E-12
   5.220000      2.7927073E-12
   5.280000      3.8864962E-12
   5.340000      4.2335289E-12
   5.400000      3.5470747E-12
   5.460000      1.7511497E-12
   5.520000     -9.8284553E-13
   5.580000     -4.2599895E-12
   5.640000     -7.5355243E-12
   5.700000     -1.0213187E-11
   5.760000     -1.1738254E-11
   5.820000     -1.1661723E-11
   5.880000     -9.6671534E-12
   5.940000     -5.5699906E-12
   6.000000      6.8587741E-13
   6.060000      9.0038914E-12
   6.120000      1.9059579E-11
   6.180000      3.0170845E-11
   6.240000      4.1139210E-11
   6.300000      5.0117976E-11
   6.360000      5.4585853E-11
   6.420000      5.1509165E-11
   6.480000      3.7754647E-11
   6.540000      1.0766533E-11
   6.600000     -3.0548987E-11
   6.660000     -8.4867280E-11
   6.720000     -1.4761994E-10
   6.780000     -2.1054021E-10
   6.840000     -2.6180891E-10
   6.900000     -2.8696776E-10
   6.960000     -2.7065822E-10
   7.020000     -1.9910451E-10
   7.080000     -6.3114076E-11
   7.140000      1.3875963E-10
   7.200000      3.9733405E-10
   7.260000      6.9066813E-10
   7.320000      9.8312480E-10
   7.380000      1.2259648E-09
   7.440000      1.3596484E-09
   7.500000      1.3178236E-09
   7.560000      1.0327561E-09
   7.620000      4.4176007E-10
   7.680000     -5.0596471E-10
   7.740000     -1.8427644E-09
   7.800000     -3.5769003E-09
   7.860000     -5.6884479E-09
   7.920000     -8.1272029E-09
   7.980000     -1.0812908E-08
   8.040000     -1.3638007E-08
   8.100000     -1.6472969E-08
   8.160000     -1.9174093E-08
   8.220000     -2.1593552E-08
   8.280000     -2.3591134E-08
   8.340000     -2.5046921E-08
   8.400000     -2.5873717E-08
   8.460000     -2.6027847E-08
   8.520000     -2.5516696E-08
   8.580000     -2.4401514E-08
   8.640000     -2.2794318E-08
   8.700000     -2.0848475E-08
   8.760000     -1.8743455E-08
   8.820000     -1.6665291E-08
   8.880000     -1.4785190E-08
   8.940000     -1.3239368E-08
   9.000000     -1.2113263E-08
   9.060000     -1.1432737E-08
   9.120000     -1.1163801E-08
   9.180000     -1.1220975E-08
   9.240000     -1.1482794E-08
   9.300000     -1.1811738E-08
   9.360000     -1.2075140E-08
   9.420000     -1.2163624E-08
   9.480000     -1.2004346E-08
   9.540000     -1.1567547E-08
   9.600000     -1.0866357E-08
   9.660000     -9.9509974E-09
   9.720000     -8.8993533E-09
   9.780000     -7.8060038E-09
   9.840000     -6.7714327E-09
   9.900000     -5.8924159E-09
   9.960000     -5.2537970E-09
   10.02000     -4.9214126E-09
   10.08000     -4.9358322E-09
   10.14000     -5.3069900E-09
   10.20000     -6.0103966E-09
   10.26000     -6.9861867E-09
   10.32000     -8.1424263E-09
   10.38000     -9.3636849E-09
   10.44000     -1.0524833E-08
   10.50000     -1.1508593E-08
   10.56000     -1.2224021E-08
   10.62000     -1.2622153E-08
   10.68000     -1.2705150E-08
   10.74000     -1.2526232E-08
   10.80000     -1.2179716E-08
   10.86000     -1.1782690E-08
   10.92000     -1.1452094E-08
   10.98000     -1.1282127E-08
   11.04000     -1.1327081E-08
   11.10000     -1.1593349E-08
   11.16000     -1.2042194E-08
   11.22000     -1.2602117E-08
   11.28000     -1.3187384E-08
   11.34000     -1.3717806E-08
   11.40000     -1.4134815E-08
   11.46000     -1.4410079E-08
   11.52000     -1.4545195E-08
   11.58000     -1.4563460E-08
   11.64000     -1.4496959E-08
   11.70000     -1.4373296E-08
   11.76000     -1.4206138E-08
   11.82000     -1.3992352E-08
   11.88000     -1.3716265E-08
   11.94000     -1.3359325E-08
   12.00000     -1.2911710E-08
   12.06000     -1.2381829E-08
   12.12000     -1.1800365E-08
   12.18000     -1.1217171E-08
   12.24000     -1.0691542E-08
   12.30000     -1.0278429E-08
   12.36000     -1.0014399E-08
   12.42000     -9.9073034E-09
   12.48000     -9.9326503E-09
   12.54000     -1.0037859E-08
   12.60000     -1.0153458E-08
   12.66000     -1.0208461E-08
   12.72000     -1.0146014E-08
   12.78000     -9.9353903E-09
   12.84000     -9.5773842E-09
   12.90000     -9.1018952E-09
   12.96000     -8.5586134E-09
   13.02000     -8.0035019E-09
   13.08000     -7.4848625E-09
   13.14000     -7.0327886E-09
   13.20000     -6.6547479E-09
   13.26000     -6.3382037E-09
   13.32000     -6.0591123E-09
   13.38000     -5.7934040E-09
   13.44000     -5.5277463E-09
   13.50000     -5.2661875E-09
   13.56000     -5.0306190E-09
   13.62000     -4.8549627E-09
   13.68000     -4.7749378E-09
   13.74000     -4.8166386E-09
   13.80000     -4.9874944E-09
   13.86000     -5.2724638E-09
   13.92000     -5.6367386E-09
   13.98000     -6.0343055E-09
   14.04000     -6.4199885E-09
   14.10000     -6.7615948E-09
   14.16000     -7.0486994E-09
   14.22000     -7.2955029E-09
   14.28000     -7.5368076E-09
   14.34000     -7.8180298E-09
   14.40000     -8.1818881E-09
   14.46000     -8.6554239E-09
   14.52000     -9.2411510E-09
   14.58000     -9.9150972E-09
   14.64000     -1.0632729E-08
   14.70000     -1.1341438E-08
   14.76000     -1.1996227E-08
   14.82000     -1.2574071E-08
   14.88000     -1.3082508E-08
   14.94000     -1.3559629E-08
   15.00000     -1.4065100E-08
   15.06000     -1.4664717E-08
   15.12000     -1.5413002E-08
   15.18000     -1.6339019E-08
   15.24000     -1.7439497E-08
   15.30000     -1.8680886E-08
   15.36000     -2.0008962E-08
   15.42000     -2.1362167E-08
   15.48000     -2.2683835E-08
   15.54000     -2.3929188E-08
   15.60000     -2.5065173E-08
   15.66000     -2.6064161E-08
   15.72000     -2.6894865E-08
   15.78000     -2.7515062E-08
   15.84000     -2.7870088E-08
   15.90000     -2.7899006E-08
   15.96000     -2.7547520E-08
   16.02000     -2.6784109E-08
   16.08000     -2.5614261E-08
   16.14000     -2.4087850E-08
   16.20000     -2.2296289E-08
   16.26000     -2.0358838E-08
   16.32000     -1.8400522E-08
   16.38000     -1.6526464E-08
   16.44000     -1.4798711E-08
   16.50000     -1.3221189E-08
   16.56000     -1.1736639E-08
   16.62000     -1.0236533E-08
   16.68000     -8.5819361E-09
   16.74000     -6.6307186E-09
   16.80000     -4.2650758E-09
   16.86000     -1.4134587E-09
   16.92000      1.9374962E-09
   16.98000      5.7428502E-09
   17.04000      9.9099555E-09
   17.10000      1.4316160E-08
   17.16000      1.8828631E-08
   17.22000      2.3321350E-08
   17.28000      2.7685727E-08
   17.34000      3.1833629E-08
   17.40000      3.5693976E-08
   17.46000      3.9205982E-08
   17.52000      4.2312848E-08
   17.58000      4.4958920E-08
   17.64000      4.7092069E-08
   17.70000      4.8670547E-08
   17.76000      4.9672170E-08
   17.82000      5.0102344E-08
   17.88000      4.9997830E-08
   17.94000      4.9424102E-08
   18.00000      4.8466067E-08
   18.06000      4.7213849E-08
   18.12000      4.5746710E-08
   18.18000      4.4118909E-08
   18.24000      4.2351054E-08
   18.30000      4.0429011E-08
   18.36000      3.8311057E-08
   18.42000      3.5941689E-08
   18.48000      3.3269078E-08
   18.54000      3.0262232E-08
   18.60000      2.6923848E-08
   18.66000      2.3296034E-08
   18.72000      1.9457534E-08
   18.78000      1.5513312E-08
   18.84000      1.1578932E-08
   18.90000      7.7634494E-09
   18.96000      4.1544501E-09
   19.02000      8.0814405E-10
   19.08000     -2.2541167E-09
   19.14000     -5.0431677E-09
   19.20000     -7.5948261E-09
   19.26000     -9.9604218E-09
   19.32000     -1.2197313E-08
   19.38000     -1.4361031E-08
   19.44000     -1.6499857E-08
   19.50000     -1.8651916E-08
   19.56000     -2.0844279E-08
   19.62000     -2.3093492E-08
   19.68000     -2.5406806E-08
   19.74000     -2.7783596E-08
   19.80000     -3.0216537E-08
   19.86000     -3.2692213E-08
   19.92000     -3.5191086E-08
   19.98000     -3.7686853E-08
   20.04000     -4.0145608E-08
   20.10000     -4.2525475E-08
   20.16000     -4.4777295E-08
   20.22000     -4.6847116E-08
   20.28000     -4.8680551E-08
   20.34000     -5.0228817E-08
   20.40000     -5.1455558E-08
   20.46000     -5.2343275E-08
   20.52000     -5.2897857E-08
   20.58000     -5.3150025E-08
   20.64000     -5.3152796E-08
   20.70000     -5.2974880E-08
   20.76000     -5.2690613E-08
   20.82000     -5.2368076E-08
   20.88000     -5.2057448E-08
   20.94000     -5.1782138E-08
   21.00000     -5.1534965E-08
   21.06000     -5.1280733E-08
   21.12000     -5.0965230E-08
   21.18000     -5.0529131E-08
   21.24000     -4.9923699E-08
   21.30000     -4.9124534E-08
   21.36000     -4.8139722E-08
   21.42000     -4.7010076E-08
   21.48000     -4.5801137E-08
   21.54000     -4.4588770E-08
   21.60000     -4.3442064E-08
   21.66000     -4.2407827E-08
   21.72000     -4.1500638E-08
   21.78000     -4.0700748E-08
   21.84000     -3.9960010E-08
   21.90000     -3.9214012E-08
   21.96000     -3.8397008E-08
   22.02000     -3.7455877E-08
   22.08000     -3.6359843E-08
   22.14000     -3.5104094E-08
   22.20000     -3.3707249E-08
   22.26000     -3.2204202E-08
   22.32000     -3.0636961E-08
   22.38000     -2.9046257E-08
   22.44000     -2.7466156E-08
   22.50000     -2.5922564E-08
   22.56000     -2.4435234E-08
   22.62000     -2.3021720E-08
   22.68000     -2.1701346E-08
   22.74000     -2.0497509E-08
   22.80000     -1.9437442E-08
   22.86000     -1.8549546E-08
   22.92000     -1.7859229E-08
   22.98000     -1.7384505E-08
   23.04000     -1.7132537E-08
   23.10000     -1.7097962E-08
   23.16000     -1.7263195E-08
   23.22000     -1.7600561E-08
   23.28000     -1.8075786E-08
   23.34000     -1.8652260E-08
   23.40000     -1.9295438E-08
   23.46000     -1.9976842E-08
   23.52000     -2.0677154E-08
   23.58000     -2.1387990E-08
   23.64000     -2.2112092E-08
   23.70000     -2.2861796E-08
   23.76000     -2.3655804E-08
   23.82000     -2.4514517E-08
   23.88000     -2.5454407E-08
   23.94000     -2.6482303E-08
   24.00000     -2.7590703E-08
   24.06000     -2.8755425E-08
   24.12000     -2.9936768E-08
   24.18000     -3.1084703E-08
   24.24000     -3.2147632E-08
   24.30000     -3.3083190E-08
   24.36000     -3.3868393E-08
   24.42000     -3.4506293E-08
   24.48000     -3.5026645E-08
   24.54000     -3.5479559E-08
   24.60000     -3.5922966E-08
   24.66000     -3.6406661E-08
   24.72000     -3.6957083E-08
   24.78000     -3.7567151E-08
   24.84000     -3.8194464E-08
   24.90000     -3.8769141E-08
   24.96000     -3.9209819E-08
   25.02000     -3.9443940E-08
   25.08000     -3.9426922E-08
   25.14000     -3.9154692E-08
   25.20000     -3.8665686E-08
   25.26000     -3.8031068E-08
   25.32000     -3.7335386E-08
   25.38000     -3.6652580E-08
   25.44000     -3.6024019E-08
   25.50000     -3.5444891E-08
   25.56000     -3.4863096E-08
   25.62000     -3.4191430E-08
   25.68000     -3.3329972E-08
   25.74000     -3.2192609E-08
   25.80000     -3.0730380E-08
   25.86000     -2.8945060E-08
   25.92000     -2.6889307E-08
   25.98000     -2.4653458E-08
   26.04000     -2.2342928E-08
   26.10000     -2.0052862E-08
   26.16000     -1.7847350E-08
   26.22000     -1.5748963E-08
   26.28000     -1.3741274E-08
   26.34000     -1.1782972E-08
   26.40000     -9.8288151E-09
   26.46000     -7.8506721E-09
   26.52000     -5.8521583E-09
   26.58000     -3.8725192E-09
   26.64000     -1.9789570E-09
   26.70000     -2.5022345E-10
   26.76000      1.2430861E-09
   26.82000      2.4552840E-09
   26.88000      3.3743857E-09
   26.94000      4.0206931E-09
   27.00000      4.4362412E-09
   27.06000      4.6689572E-09
   27.12000      4.7567594E-09
   27.18000      4.7164401E-09
   27.24000      4.5403281E-09
   27.30000      4.2010662E-09
   27.36000      3.6623222E-09
   27.42000      2.8916269E-09
   27.48000      1.8712143E-09
   27.54000      6.0373384E-10
   27.60000     -8.8845198E-10
   27.66000     -2.5695774E-09
   27.72000     -4.3999400E-09
   27.78000     -6.3453087E-09
   27.84000     -8.3833793E-09
   27.90000     -1.0505562E-08
   27.96000     -1.2714009E-08
   28.02000     -1.5015301E-08
   28.08000     -1.7413109E-08
   28.14000     -1.9902275E-08
   28.20000     -2.2466089E-08
   28.26000     -2.5077384E-08
   28.32000     -2.7702924E-08
   28.38000     -3.0309636E-08
   28.44000     -3.2870823E-08
   28.50000     -3.5370590E-08
   28.56000     -3.7805268E-08
   28.62000     -4.0181302E-08
   28.68000     -4.2509935E-08
   28.74000     -4.4799908E-08
   28.80000     -4.7049806E-08
   28.86000     -4.9242150E-08
   28.92000     -5.1341029E-08
   28.98000     -5.3294389E-08
   29.04000     -5.5040992E-08
   29.10000     -5.6520712E-08
   29.16000     -5.7685881E-08
   29.22000     -5.8510654E-08
   29.28000     -5.8995884E-08
   29.34000     -5.9167832E-08
   29.40000     -5.9070690E-08
   29.46000     -5.8754587E-08
   29.52000     -5.8262145E-08
   29.58000     -5.7617186E-08
   29.64000     -5.6818845E-08
   29.70000     -5.5843099E-08
   29.76000     -5.4651579E-08
   29.82000     -5.3205522E-08
   29.88000     -5.1480868E-08
   29.94000     -4.9480015E-08
   30.00000     -4.7236391E-08
   30.06000     -4.4809934E-08
   30.12000     -4.2274419E-08
   30.18000     -3.9700140E-08
   30.24000     -3.7137081E-08
   30.30000     -3.4603858E-08
   30.36000     -3.2085975E-08
   30.42000     -2.9544267E-08
   30.48000     -2.6931087E-08
   30.54000     -2.4209461E-08
   30.60000     -2.1369488E-08
   30.66000     -1.8437039E-08
   30.72000     -1.5472173E-08
   30.78000     -1.2557788E-08
   30.84000     -9.7818313E-09
   30.90000     -7.2181914E-09
   30.96000     -4.9115929E-09
   31.02000     -2.8704819E-09
   31.08000     -1.0694436E-09
   31.14000      5.4000004E-10
   31.20000      2.0136079E-09
   31.26000      3.3981209E-09
   31.32000      4.7186859E-09
   31.38000      5.9728338E-09
   31.44000      7.1318014E-09
   31.50000      8.1480049E-09
   31.56000      8.9660173E-09
   31.62000      9.5339541E-09
   31.68000      9.8125685E-09
   31.74000      9.7804680E-09
   31.80000      9.4351300E-09
   31.86000      8.7905390E-09
   31.92000      7.8728108E-09
   31.98000      6.7152675E-09
   32.04000      5.3539244E-09
   32.10000      3.8238608E-09
   32.16000      2.1563649E-09
   32.22000      3.7662676E-10
   32.28000     -1.4981434E-09
   32.34000     -3.4599419E-09
   32.40000     -5.5100311E-09
   32.46000     -7.6573130E-09
   32.52000     -9.9148423E-09
   32.58000     -1.2294954E-08
   32.64000     -1.4804116E-08
   32.70000     -1.7438962E-08
   32.76000     -2.0184812E-08
   32.82000     -2.3017261E-08
   32.88000     -2.5906461E-08
   32.94000     -2.8822742E-08
   33.00000     -3.1741727E-08
   33.06000     -3.4647250E-08
   33.12000     -3.7531063E-08
   33.18000     -4.0389477E-08
   33.24000     -4.3218101E-08
   33.30000     -4.6006566E-08
   33.36000     -4.8735082E-08
   33.42000     -5.1374389E-08
   33.48000     -5.3889295E-08
   33.54000     -5.6245192E-08
   33.60000     -5.8415662E-08
   33.66000     -6.0388835E-08
   33.72000     -6.2170422E-08
   33.78000     -6.3781890E-08
   33.84000     -6.5253978E-08
   33.90000     -6.6616863E-08
   33.96000     -6.7889751E-08
   34.02000     -6.9073124E-08
   34.08000     -7.0146100E-08
   34.14000     -7.1070303E-08
   34.20000     -7.1799391E-08
   34.26000     -7.2291762E-08
   34.32000     -7.2522546E-08
   34.38000     -7.2491446E-08
   34.44000     -7.2223735E-08
   34.50000     -7.1764212E-08
   34.56000     -7.1165971E-08
   34.62000     -7.0477391E-08
   34.68000     -6.9731584E-08
   34.74000     -6.8941361E-08
   34.80000     -6.8101009E-08
   34.86000     -6.7194094E-08
   34.92000     -6.6204123E-08
   34.98000     -6.5124617E-08
   35.04000     -6.3964862E-08
   35.10000     -6.2749692E-08
   35.16000     -6.1513504E-08
   35.22000     -6.0290660E-08
   35.28000     -5.9105620E-08
   35.34000     -5.7966254E-08
   35.40000     -5.6862383E-08
   35.46000     -5.5770165E-08
   35.52000     -5.4660639E-08
   35.58000     -5.3509709E-08
   35.64000     -5.2306277E-08
   35.70000     -5.1055913E-08
   35.76000     -4.9778972E-08
   35.82000     -4.8503843E-08
   35.88000     -4.7257526E-08
   35.94000     -4.6056734E-08
   36.00000     -4.4902503E-08
   36.06000     -4.3780258E-08
   36.12000     -4.2665508E-08
   36.18000     -4.1533490E-08
   36.24000     -4.0369713E-08
   36.30000     -3.9177813E-08
   36.36000     -3.7982002E-08
   36.42000     -3.6822943E-08
   36.48000     -3.5748076E-08
   36.54000     -3.4799243E-08
   36.60000     -3.4001388E-08
   36.66000     -3.3355860E-08
   36.72000     -3.2840394E-08
   36.78000     -3.2415766E-08
   36.84000     -3.2037164E-08
   36.90000     -3.1666914E-08
   36.96000     -3.1285008E-08
   37.02000     -3.0894508E-08
   37.08000     -3.0520670E-08
   37.14000     -3.0204120E-08
   37.20000     -2.9990051E-08
   37.26000     -2.9916258E-08
   37.32000     -3.0002969E-08
   37.38000     -3.0246802E-08
   37.44000     -3.0620278E-08
   37.50000     -3.1076969E-08
   37.56000     -3.1561104E-08
   37.62000     -3.2019557E-08
   37.68000     -3.2413418E-08
   37.74000     -3.2726490E-08
   37.80000     -3.2968593E-08
   37.86000     -3.3172707E-08
   37.92000     -3.3386552E-08
   37.98000     -3.3660580E-08
   38.04000     -3.4035498E-08
   38.10000     -3.4532583E-08
   38.16000     -3.5149530E-08
   38.22000     -3.5862925E-08
   38.28000     -3.6636617E-08
   38.34000     -3.7433395E-08
   38.40000     -3.8226382E-08
   38.46000     -3.9006562E-08
   38.52000     -3.9784123E-08
   38.58000     -4.0583249E-08
   38.64000     -4.1432017E-08
   38.70000     -4.2350820E-08
   38.76000     -4.3343025E-08
   38.82000     -4.4390902E-08
   38.88000     -4.5458172E-08
   38.94000     -4.6498283E-08
   39.00000     -4.7465750E-08
   39.06000     -4.8327028E-08
   39.12000     -4.9067424E-08
   39.18000     -4.9692154E-08
   39.24000     -5.0221349E-08
   39.30000     -5.0680871E-08
   39.36000     -5.1092073E-08
   39.42000     -5.1463843E-08
   39.48000     -5.1789421E-08
   39.54000     -5.2048851E-08
   39.60000     -5.2215999E-08
   39.66000     -5.2267538E-08
   39.72000     -5.2190764E-08
   39.78000     -5.1987705E-08
   39.84000     -5.1674267E-08
   39.90000     -5.1275176E-08
   39.96000     -5.0816894E-08
   40.02000     -5.0321390E-08
   40.08000     -4.9803251E-08
   40.14000     -4.9271108E-08
   40.20000     -4.8732613E-08
   40.26000     -4.8200643E-08
   40.32000     -4.7697718E-08
   40.38000     -4.7256176E-08
   40.44000     -4.6913161E-08
   40.50000     -4.6701540E-08
   40.56000     -4.6639563E-08
   40.62000     -4.6723034E-08
   40.68000     -4.6923347E-08
   40.74000     -4.7193037E-08
   40.80000     -4.7478228E-08
   40.86000     -4.7734822E-08
   40.92000     -4.7943651E-08
   40.98000     -4.8119713E-08
   41.04000     -4.8311943E-08
   41.10000     -4.8592725E-08
   41.16000     -4.9039535E-08
   41.22000     -4.9713893E-08
   41.28000     -5.0643749E-08
   41.34000     -5.1814741E-08
   41.40000     -5.3173085E-08
   41.46000     -5.4639163E-08
   41.52000     -5.6127632E-08
   41.58000     -5.7567771E-08
   41.64000     -5.8917969E-08
   41.70000     -6.0170329E-08
   41.76000     -6.1344629E-08
   41.82000     -6.2474378E-08
   41.88000     -6.3590072E-08
   41.94000     -6.4705198E-08
   42.00000     -6.5809310E-08
   42.06000     -6.6869852E-08
   42.12000     -6.7841462E-08
   42.18000     -6.8678865E-08
   42.24000     -6.9348864E-08
   42.30000     -6.9837235E-08
   42.36000     -7.0148317E-08
   42.42000     -7.0298015E-08
   42.48000     -7.0302740E-08
   42.54000     -7.0168625E-08
   42.60000     -6.9884720E-08
   42.66000     -6.9422903E-08
   42.72000     -6.8744420E-08
   42.78000     -6.7811264E-08
   42.84000     -6.6598595E-08
   42.90000     -6.5104416E-08
   42.96000     -6.3353284E-08
   43.02000     -6.1392747E-08
   43.08000     -5.9283302E-08
   43.14000     -5.7084428E-08
   43.20000     -5.4840484E-08
   43.26000     -5.2570506E-08
   43.32000     -5.0264820E-08
   43.38000     -4.7889948E-08
   43.44000     -4.5400750E-08
   43.50000     -4.2756799E-08
   43.56000     -3.9938552E-08
   43.62000     -3.6958649E-08
   43.68000     -3.3864950E-08
   43.74000     -3.0734260E-08
   43.80000     -2.7658402E-08
   43.86000     -2.4726695E-08
   43.92000     -2.2009852E-08
   43.98000     -1.9549892E-08
   44.04000     -1.7358579E-08
   44.10000     -1.5424249E-08
   44.16000     -1.3724243E-08
   44.22000     -1.2238601E-08
   44.28000     -1.0960546E-08
   44.34000     -9.9005728E-09
   44.40000     -9.0832559E-09
   44.46000     -8.5383309E-09
   44.52000     -8.2894553E-09
   44.58000     -8.3447596E-09
   44.64000     -8.6925329E-09
   44.70000     -9.3035686E-09
   44.76000     -1.0139301E-08
   44.82000     -1.1162772E-08
   44.88000     -1.2348349E-08
   44.94000     -1.3686486E-08
   45.00000     -1.5181453E-08
   45.06000     -1.6842487E-08
   45.12000     -1.8671345E-08
   45.18000     -2.0650747E-08
   45.24000     -2.2738305E-08
   45.30000     -2.4868918E-08
   45.36000     -2.6965873E-08
   45.42000     -2.8957778E-08
   45.48000     -3.0796262E-08
   45.54000     -3.2468598E-08
   45.60000     -3.4000834E-08
   45.66000     -3.5449720E-08
   45.72000     -3.6885496E-08
   45.78000     -3.8370523E-08
   45.84000     -3.9940410E-08
   45.90000     -4.1593637E-08
   45.96000     -4.3293085E-08
   46.02000     -4.4979203E-08
   46.08000     -4.6590905E-08
   46.14000     -4.8087831E-08
   46.20000     -4.9467477E-08
   46.26000     -5.0772268E-08
   46.32000     -5.2085113E-08
   46.38000     -5.3515347E-08
   46.44000     -5.5180003E-08
   46.50000     -5.7186256E-08
   46.56000     -5.9620305E-08
   46.62000     -6.2545617E-08
   46.68000     -6.6010493E-08
   46.74000     -7.0062363E-08
   46.80000     -7.4764294E-08
   46.86000     -8.0209212E-08
   46.92000     -8.6528424E-08
   46.98000     -9.3892901E-08
   47.04000     -1.0250874E-07
   47.10000     -1.1260956E-07
   47.16000     -1.2445031E-07
   47.22000     -1.3830609E-07
   47.28000     -1.5447856E-07
   47.34000     -1.7330990E-07
   47.40000     -1.9520218E-07
   47.46000     -2.2063769E-07
   47.52000     -2.5019682E-07
   47.58000     -2.8456981E-07
   47.64000     -3.2456239E-07
   47.70000     -3.7109706E-07
   47.76000     -4.2521418E-07
   47.82000     -4.8807726E-07
   47.88000     -5.6098594E-07
   47.94000     -6.4539796E-07
   48.00000     -7.4295815E-07
   48.06000     -8.5553114E-07
   48.12000     -9.8523390E-07
   48.18000     -1.1344631E-06
   48.24000     -1.3059184E-06
   48.30000     -1.5026185E-06
   48.36000     -1.7279168E-06
   48.42000     -1.9855167E-06
   48.48000     -2.2794916E-06
   48.54000     -2.6143107E-06
   48.60000     -2.9948706E-06
   48.66000     -3.4265299E-06
   48.72000     -3.9151464E-06
   48.78000     -4.4671101E-06
   48.84000     -5.0893736E-06
   48.90000     -5.7894795E-06
   48.96000     -6.5755780E-06
   49.02000     -7.4564500E-06
   49.08000     -8.4415178E-06
   49.14000     -9.5408632E-06
   49.20000     -1.0765238E-05
   49.26000     -1.2126076E-05
   49.32000     -1.3635505E-05
   49.38000     -1.5306334E-05
   49.44000     -1.7152046E-05
   49.50000     -1.9186777E-05
   49.56000     -2.1425270E-05
   49.62000     -2.3882832E-05
   49.68000     -2.6575286E-05
   49.74000     -2.9518904E-05
   49.80000     -3.2730350E-05
   49.86000     -3.6226604E-05
   49.92000     -4.0024890E-05
   49.98000     -4.4142584E-05
   50.04000     -4.8597096E-05
   50.10000     -5.3405740E-05
   50.16000     -5.8585618E-05
   50.22000     -6.4153435E-05
   50.28000     -7.0125381E-05
   50.34000     -7.6516917E-05
   50.40000     -8.3342638E-05
   50.46000     -9.0616093E-05
   50.52000     -9.8349599E-05
   50.58000     -1.0655408E-04
   50.64000     -1.1523887E-04
   50.70000     -1.2441157E-04
   50.76000     -1.3407784E-04
   50.82000     -1.4424128E-04
   50.88000     -1.5490316E-04
   50.94000     -1.6606240E-04
   51.00000     -1.7771531E-04
   51.06000     -1.8985551E-04
   51.12000     -2.0247384E-04
   51.18000     -2.1555825E-04
   51.24000     -2.2909377E-04
   51.30000     -2.4306247E-04
   51.36000     -2.5744346E-04
   51.42000     -2.7221299E-04
   51.48000     -2.8734424E-04
   51.54000     -3.0280778E-04
   51.60000     -3.1857128E-04
   51.66000     -3.3460013E-04
   51.72000     -3.5085724E-04
   51.78000     -3.6730338E-04
   51.84000     -3.8389751E-04
   51.90000     -4.0059700E-04
   51.96000     -4.1735789E-04
   52.02000     -4.3413520E-04
   52.08000     -4.5088344E-04
   52.14000     -4.6755682E-04
   52.20000     -4.8410977E-04
   52.26000     -5.0049723E-04
   52.32000     -5.1667518E-04
   52.38000     -5.3260068E-04
   52.44000     -5.4823293E-04
   52.50000     -5.6353275E-04
   52.56000     -5.7846401E-04
   52.62000     -5.9299311E-04
   52.68000     -6.0708984E-04
   52.74000     -6.2072754E-04
   52.80000     -6.3388300E-04
   52.86000     -6.4653746E-04
   52.92000     -6.5867585E-04
   52.98000     -6.7028770E-04
   53.04000     -6.8136671E-04
   53.10000     -6.9191109E-04
   53.16000     -7.0192339E-04
   53.22000     -7.1141066E-04
   53.28000     -7.2038407E-04
   53.34000     -7.2885869E-04
   53.40000     -7.3685352E-04
   53.46000     -7.4439094E-04
   53.52000     -7.5149623E-04
   53.58000     -7.5819774E-04
   53.64000     -7.6452596E-04
   53.70000     -7.7051338E-04
   53.76000     -7.7619369E-04
   53.82000     -7.8160170E-04
   53.88000     -7.8677264E-04
   53.94000     -7.9174177E-04
   54.00000     -7.9654343E-04
   54.06000     -8.0121105E-04
   54.12000     -8.0577651E-04
   54.18000     -8.1026944E-04
   54.24000     -8.1471709E-04
   54.30000     -8.1914372E-04
   54.36000     -8.2357024E-04
   54.42000     -8.2801410E-04
   54.48000     -8.3248882E-04
   54.54000     -8.3700387E-04
   54.60000     -8.4156467E-04
   54.66000     -8.4617228E-04
   54.72000     -8.5082353E-04
   54.78000     -8.5551123E-04
   54.84000     -8.6022384E-04
   54.90000     -8.6494605E-04
   54.96000     -8.6965895E-04
   55.02000     -8.7434001E-04
   55.08000     -8.7896385E-04
   55.14000     -8.8350259E-04
   55.20000     -8.8792614E-04
   55.26000     -8.9220289E-04
   55.32000     -8.9630007E-04
   55.38000     -9.0018427E-04
   55.44000     -9.0382196E-04
   55.50000     -9.0718007E-04
   55.56000     -9.1022660E-04