  -2.400000      0.0000000E+00
  -2.340000      0.0000000E+00
  -2.280000      0.0000000E+00
  -2.220000      0.0000000E+00
  -2.160000      0.0000000E+00
  -2.100000      0.0000000E+00
  -2.040000     -3.9109093E-22
  -1.980000     -1.7654395E-21
  -1.920000      1.9646050E-21
  -1.860000      4.2973765E-20
  -1.800000      1.9222748E-19
  -1.740000      5.0001584E-19
  -1.680000      7.9673928E-19
  -1.620000      4.2599626E-19
  -1.560000     -1.7408936E-18
  -1.500000     -6.4916717E-18
  -1.440000     -1.2507182E-17
  -1.380000     -1.4585922E-17
  -1.320000     -4.0992983E-18
  -1.260000      2.5954939E-17
  -1.200000      7.1380360E-17
  -1.140000      1.0770148E-16
  -1.080000      9.1234805E-17
  -1.020000     -2.0506545E-17
 -0.9600000     -2.2939526E-16
 -0.9000000     -4.5583607E-16
 -0.8400000     -5.3013659E-16
 -0.7800000     -2.5041754E-16
 -0.7200000      4.8502684E-16
 -0.6600000      1.5148869E-15
 -0.6000000      2.3211312E-15
 -0.5400000      2.1251159E-15
 -0.4800000      2.4268420E-16
 -0.4200000     -3.3676863E-15
 -0.3600000     -7.6085878E-15
 -0.3000000     -1.0171918E-14
 -0.2400000     -8.2213899E-15
 -0.1800000      1.3323889E-16
 -0.1200000      1.4032318E-14
 -5.9999999E-02  2.8693654E-14
  0.0000000E+00  3.5996603E-14
  5.9999999E-02  2.7473907E-14
  0.1200000     -8.0361864E-16
  0.1800000     -4.3441741E-14
  0.2400000     -8.4024801E-14
  0.3000000     -9.9114828E-14
  0.3600000     -6.8357707E-14
  0.4200000      1.2407537E-14
  0.4800000      1.2138040E-13
  0.5400000      2.1155832E-13
  0.6000000      2.2610783E-13
  0.6600000      1.2563080E-13
  0.7200000     -8.3301543E-14
  0.7800000     -3.3375757E-13
  0.8400000     -5.1134747E-13
  0.9000000     -4.9710268E-13
  0.9600000     -2.2752842E-13
   1.020000      2.5443048E-13
   1.080000      7.8712048E-13
   1.140000      1.1346165E-12
   1.200000      1.0813152E-12
   1.260000      5.4218050E-13
   1.320000     -3.6321724E-13
   1.380000     -1.3195146E-12
   1.440000     -1.9229698E-12
   1.500000     -1.8563625E-12
   1.560000     -1.0580069E-12
   1.620000      2.0277267E-13
   1.680000      1.4031460E-12
   1.740000      1.9902853E-12
   1.800000      1.6649550E-12
   1.860000      5.8675710E-13
   1.920000     -6.2856767E-13
   1.980000     -1.1683141E-12
   2.040000     -4.5903223E-13
   2.100000      1.4170631E-12
   2.160000      3.5627206E-12
   2.220000      4.5223621E-12
   2.280000      2.9299089E-12
   2.340000     -1.6936015E-12
   2.400000     -8.3740523E-12
   2.460000     -1.4702909E-11
   2.520000     -1.7574445E-11
   2.580000     -1.4441391E-11
   2.640000     -4.5915034E-12
   2.700000      1.0152419E-11
   2.760000      2.5724744E-11
   2.820000      3.7102960E-11
   2.880000      4.0120861E-11
   2.940000      3.3050767E-11
   3.000000      1.7248519E-11
   3.060000     -3.4425193E-12
   3.120000     -2.4252917E-11
   3.180000     -4.1265453E-11
   3.240000     -5.2545437E-11
   3.300000     -5.8083927E-11
   3.360000     -5.8640641E-11
   3.420000     -5.4189302E-11
   3.480000     -4.2946719E-11
   3.540000     -2.1733181E-11
   3.600000      1.2251916E-11
   3.660000      5.8936293E-11
   3.720000      1.1336153E-10
   3.780000      1.6528978E-10
   3.840000      2.0093235E-10
   3.900000      2.0635944E-10
   3.960000      1.7134077E-10
   4.020000      9.2090849E-11
   4.080000     -2.8193994E-11
   4.140000     -1.8117689E-10
   4.200000     -3.5672343E-10
   4.260000     -5.4619848E-10
   4.320000     -7.4419593E-10
   4.380000     -9.4790509E-10
   4.440000     -1.1544204E-09
   4.500000     -1.3572887E-09
   4.560000     -1.5439986E-09
   4.620000     -1.6957795E-09
   4.680000     -1.7901107E-09
   4.740000     -1.8051858E-09
   4.800000     -1.7247193E-09
   4.860000     -1.5412874E-09
   4.920000     -1.2569423E-09
   4.980000     -8.8088409E-10
   5.040000     -4.2510825E-10
   5.100000      1.0029310E-10
   5.160000      6.9036932E-10
   5.220000      1.3458228E-09
   5.280000      2.0705242E-09
   5.340000      2.8668496E-09
   5.400000      3.7304777E-09
   5.460000      4.6465445E-09
   5.520000      5.5886886E-09
   5.580000      6.5216090E-09
   5.640000      7.4066109E-09
   5.700000      8.2085858E-09
   5.760000      8.9023615E-09
   5.820000      9.4765369E-09
   5.880000      9.9338306E-09
   5.940000      1.0288191E-08
   6.000000      1.0560056E-08
   6.060000      1.0771672E-08
   6.120000      1.0943983E-08
   6.180000      1.1095577E-08
   6.240000      1.1242964E-08
   6.300000      1.1400641E-08
   6.360000      1.1579672E-08
   6.420000      1.1784573E-08
   6.480000      1.2009857E-08
   6.540000      1.2238573E-08
   6.600000      1.2445011E-08
   6.660000      1.2602191E-08
   6.720000      1.2692309E-08
   6.780000      1.2716330E-08
   6.840000      1.2698318E-08
   6.900000      1.2681508E-08
   6.960000      1.2716323E-08
   7.020000      1.2843866E-08
   7.080000      1.3080810E-08
   7.140000      1.3411390E-08
   7.200000      1.3789794E-08
   7.260000      1.4152270E-08
   7.320000      1.4434709E-08
   7.380000      1.4589632E-08
   7.440000      1.4597237E-08
   7.500000      1.4467832E-08
   7.560000      1.4236329E-08
   7.620000      1.3952040E-08
   7.680000      1.3667757E-08
   7.740000      1.3431133E-08
   7.800000      1.3279510E-08
   7.860000      1.3237517E-08
   7.920000      1.3316063E-08
   7.980000      1.3511705E-08
   8.040000      1.3806425E-08
   8.100000      1.4168881E-08
   8.160000      1.4558345E-08
   8.220000      1.4931910E-08
   8.280000      1.5254127E-08
   8.340000      1.5506854E-08
   8.400000      1.5696365E-08
   8.460000      1.5854932E-08
   8.520000      1.6035496E-08
   8.580000      1.6299820E-08
   8.640000      1.6702614E-08
   8.700000      1.7275505E-08
   8.760000      1.8015101E-08
   8.820000      1.8878696E-08
   8.880000      1.9789420E-08
   8.940000      2.0650248E-08
   9.000000      2.1363931E-08
   9.060000      2.1854106E-08
   9.120000      2.2082125E-08
   9.180000      2.2054982E-08
   9.240000      2.1821942E-08
   9.300000      2.1460835E-08
   9.360000      2.1058201E-08
   9.420000      2.0689734E-08
   9.480000      2.0407295E-08
   9.540000      2.0236330E-08
   9.600000      2.0183236E-08
   9.660000      2.0248137E-08
   9.720000      2.0436266E-08
   9.780000      2.0762057E-08
   9.840000      2.1243817E-08
   9.900000      2.1891790E-08
   9.960000      2.2695955E-08
   10.02000      2.3620466E-08
   10.08000      2.4608426E-08
   10.14000      2.5595817E-08
   10.20000      2.6528630E-08
   10.26000      2.7375641E-08
   10.32000      2.8131092E-08
   10.38000      2.8806022E-08
   10.44000      2.9411932E-08
   10.50000      2.9943443E-08
   10.56000      3.0366614E-08
   10.62000      3.0616981E-08
   10.68000      3.0607655E-08
   10.74000      3.0244852E-08
   10.80000      2.9446456E-08
   10.86000      2.8159510E-08
   10.92000      2.6373089E-08
   10.98000      2.4124194E-08
   11.04000      2.1495278E-08
   11.10000      1.8603179E-08
   11.16000      1.5580801E-08
   11.22000      1.2554927E-08
   11.28000      9.6250314E-09
   11.34000      6.8484343E-09
   11.40000      4.2358583E-09
   11.46000      1.7586744E-09
   11.52000     -6.3431366E-10
   11.58000     -2.9954472E-09
   11.64000     -5.3582898E-09
   11.70000     -7.7245579E-09
   11.76000     -1.0060931E-08
   11.82000     -1.2305714E-08
   11.88000     -1.4382648E-08
   11.94000     -1.6217527E-08
   12.00000     -1.7753145E-08
   12.06000     -1.8959174E-08
   12.12000     -1.9835463E-08
   12.18000     -2.0409120E-08
   12.24000     -2.0727104E-08
   12.30000     -2.0846619E-08
   12.36000     -2.0825356E-08
   12.42000     -2.0713133E-08
   12.48000     -2.0545876E-08
   12.54000     -2.0342595E-08
   12.60000     -2.0105713E-08
   12.66000     -1.9824716E-08
   12.72000     -1.9482439E-08
   12.78000     -1.9062416E-08
   12.84000     -1.8555417E-08
   12.90000     -1.7963417E-08
   12.96000     -1.7300421E-08
   13.02000     -1.6590722E-08
   13.08000     -1.5866092E-08
   13.14000     -1.5163190E-08
   13.20000     -1.4521385E-08
   13.26000     -1.3980053E-08
   13.32000     -1.3573914E-08
   13.38000     -1.3325896E-08
   13.44000     -1.3238886E-08
   13.50000     -1.3289447E-08
   13.56000     -1.3427059E-08
   13.62000     -1.3580868E-08
   13.68000     -1.3673057E-08
   13.74000     -1.3634962E-08
   13.80000     -1.3420620E-08
   13.86000     -1.3013386E-08
   13.92000     -1.2424122E-08
   13.98000     -1.1682875E-08
   14.04000     -1.0828241E-08
   14.10000     -9.8986659E-09
   14.16000     -8.9280379E-09
   14.22000     -7.9451521E-09
   14.28000     -6.9746995E-09
   14.34000     -6.0371992E-09
   14.40000     -5.1468190E-09
   14.46000     -4.3082387E-09
   14.52000     -3.5151659E-09
   14.58000     -2.7529694E-09
   14.64000     -2.0060185E-09
   14.70000     -1.2678016E-09
   14.76000     -5.5000959E-10
   14.82000      1.1341949E-10
   14.88000      6.6963901E-10
   14.94000      1.0572527E-09
   15.00000      1.2206790E-09
   15.06000      1.1241332E-09
   15.12000      7.6105899E-10
   15.18000      1.5638998E-10
   15.24000     -6.3878447E-10
   15.30000     -1.5585749E-09
   15.36000     -2.5366844E-09
   15.42000     -3.5202898E-09
   15.48000     -4.4800039E-09
   15.54000     -5.4134204E-09
   15.60000     -6.3412782E-09
   15.66000     -7.2972313E-09
   15.72000     -8.3141281E-09
   15.78000     -9.4108579E-09
   15.84000     -1.0583718E-08
   15.90000     -1.1804756E-08
   15.96000     -1.3027250E-08
   16.02000     -1.4196203E-08
   16.08000     -1.5260458E-08
   16.14000     -1.6182980E-08
   16.20000     -1.6946913E-08
   16.26000     -1.7556383E-08
   16.32000     -1.8032349E-08
   16.38000     -1.8404693E-08
   16.44000     -1.8702366E-08
   16.50000     -1.8943958E-08
   16.56000     -1.9131193E-08
   16.62000     -1.9247507E-08
   16.68000     -1.9262467E-08
   16.74000     -1.9141071E-08
   16.80000     -1.8855141E-08
   16.86000     -1.8393418E-08
   16.92000     -1.7767599E-08
   16.98000     -1.7013200E-08
   17.04000     -1.6185760E-08
   17.10000     -1.5353589E-08
   17.16000     -1.4588107E-08
   17.22000     -1.3952463E-08
   17.28000     -1.3489323E-08
   17.34000     -1.3209937E-08
   17.40000     -1.3087828E-08
   17.46000     -1.3060447E-08
   17.52000     -1.3039957E-08
   17.58000     -1.2930601E-08
   17.64000     -1.2646809E-08
   17.70000     -1.2125429E-08
   17.76000     -1.1328312E-08
   17.82000     -1.0236408E-08
   17.88000     -8.8409466E-09
   17.94000     -7.1382518E-09
   18.00000     -5.1316249E-09
   18.06000     -2.8383800E-09
   18.12000     -2.9599848E-10
   18.18000      2.4386730E-09
   18.24000      5.2990208E-09
   18.30000      8.2229663E-09
   18.36000      1.1164107E-08
   18.42000      1.4092891E-08
   18.48000      1.6986560E-08
   18.54000      1.9813365E-08
   18.60000      2.2520465E-08
   18.66000      2.5033389E-08
   18.72000      2.7268948E-08
   18.78000      2.9156139E-08
   18.84000      3.0655446E-08
   18.90000      3.1767975E-08
   18.96000      3.2531339E-08
   19.02000      3.3005882E-08
   19.08000      3.3258939E-08
   19.14000      3.3354262E-08
   19.20000      3.3349526E-08
   19.26000      3.3299450E-08
   19.32000      3.3258988E-08
   19.38000      3.3281690E-08
   19.44000      3.3411979E-08
   19.50000      3.3674674E-08
   19.56000      3.4067398E-08
   19.62000      3.4560660E-08
   19.68000      3.5106673E-08
   19.74000      3.5653432E-08
   19.80000      3.6158074E-08
   19.86000      3.6593832E-08
   19.92000      3.6948375E-08
   19.98000      3.7215695E-08
   20.04000      3.7386744E-08
   20.10000      3.7444174E-08
   20.16000      3.7363904E-08
   20.22000      3.7122057E-08
   20.28000      3.6703060E-08
   20.34000      3.6104218E-08
   20.40000      3.5334605E-08
   20.46000      3.4409631E-08
   20.52000      3.3345330E-08
   20.58000      3.2156137E-08
   20.64000      3.0857535E-08
   20.70000      2.9471273E-08
   20.76000      2.8029028E-08
   20.82000      2.6571117E-08
   20.88000      2.5140018E-08
   20.94000      2.3771971E-08
   21.00000      2.2491500E-08
   21.06000      2.1311969E-08
   21.12000      2.0241547E-08
   21.18000      1.9290306E-08
   21.24000      1.8473086E-08
   21.30000      1.7805382E-08
   21.36000      1.7294035E-08
   21.42000      1.6928329E-08
   21.48000      1.6677680E-08
   21.54000      1.6498591E-08
   21.60000      1.6348144E-08
   21.66000      1.6196966E-08
   21.72000      1.6034434E-08
   21.78000      1.5863018E-08
   21.84000      1.5685069E-08
   21.90000      1.5490203E-08
   21.96000      1.5251558E-08
   22.02000      1.4934491E-08
   22.08000      1.4513886E-08
   22.14000      1.3990801E-08
   22.20000      1.3398627E-08
   22.26000      1.2794075E-08
   22.32000      1.2236354E-08
   22.38000      1.1764354E-08
   22.44000      1.1382886E-08
   22.50000      1.1064293E-08
   22.56000      1.0763581E-08
   22.62000      1.0438348E-08
   22.68000      1.0062794E-08
   22.74000      9.6291828E-09
   22.80000      9.1375778E-09
   22.86000      8.5813703E-09
   22.92000      7.9380760E-09
   22.98000      7.1714448E-09
   23.04000      6.2440413E-09
   23.10000      5.1335229E-09
   23.16000      3.8439847E-09
   23.22000      2.4069928E-09
   23.28000      8.7296526E-10
   23.34000     -7.0126255E-10
   23.40000     -2.2615934E-09
   23.46000     -3.7586272E-09
   23.52000     -5.1439577E-09
   23.58000     -6.3665522E-09
   23.64000     -7.3752617E-09
   23.70000     -8.1296241E-09
   23.76000     -8.6153626E-09
   23.82000     -8.8568006E-09
   23.88000     -8.9184855E-09
   23.94000     -8.8928056E-09
   24.00000     -8.8770058E-09
   24.06000     -8.9482270E-09
   24.12000     -9.1461745E-09
   24.18000     -9.4693258E-09
   24.24000     -9.8842561E-09
   24.30000     -1.0342037E-08
   24.36000     -1.0793660E-08
   24.42000     -1.1198649E-08
   24.48000     -1.1525981E-08
   24.54000     -1.1750899E-08
   24.60000     -1.1852858E-08
   24.66000     -1.1817898E-08
   24.72000     -1.1644729E-08
   24.78000     -1.1350476E-08
   24.84000     -1.0971388E-08
   24.90000     -1.0556356E-08
   24.96000     -1.0155100E-08
   25.02000     -9.8059374E-09
   25.08000     -9.5282093E-09
   25.14000     -9.3217967E-09
   25.20000     -9.1723109E-09
   25.26000     -9.0579961E-09
   25.32000     -8.9545278E-09
   25.38000     -8.8365040E-09
   25.44000     -8.6775609E-09
   25.50000     -8.4524601E-09
   25.56000     -8.1431084E-09
   25.62000     -7.7469204E-09
   25.68000     -7.2827744E-09
   25.74000     -6.7891346E-09
   25.80000     -6.3119221E-09
   25.86000     -5.8850476E-09
   25.92000     -5.5113931E-09
   25.98000     -5.1534763E-09
   26.04000     -4.7397868E-09
   26.10000     -4.1860484E-09
   26.16000     -3.4236749E-09
   26.22000     -2.4240276E-09
   26.28000     -1.2087638E-09
   26.34000      1.5716341E-10
   26.40000      1.5855032E-09
   26.46000      2.9879665E-09
   26.52000      4.2926693E-09
   26.58000      5.4483178E-09
   26.64000      6.4176975E-09
   26.70000      7.1675337E-09
   26.76000      7.6629920E-09
   26.82000      7.8715390E-09
   26.88000      7.7748119E-09
   26.94000      7.3820443E-09
   27.00000      6.7372752E-09
   27.06000      5.9155876E-09
   27.12000      5.0090532E-09
   27.18000      4.1078652E-09
   27.24000      3.2836729E-09
   27.30000      2.5800235E-09
   27.36000      2.0106756E-09
   27.42000      1.5630069E-09
   27.48000      1.2028601E-09
   27.54000      8.7893454E-10
   27.60000      5.2766441E-10
   27.66000      8.1035983E-11
   27.72000     -5.2122118E-10
   27.78000     -1.3167611E-09
   27.84000     -2.3078828E-09
   27.90000     -3.4566892E-09
   27.96000     -4.6916977E-09
   28.02000     -5.9249321E-09
   28.08000     -7.0740551E-09
   28.14000     -8.0819378E-09
   28.20000     -8.9272953E-09
   28.26000     -9.6238066E-09
   28.32000     -1.0209531E-08
   28.38000     -1.0731415E-08
   28.44000     -1.1230205E-08
   28.50000     -1.1729656E-08
   28.56000     -1.2231763E-08
   28.62000     -1.2718019E-08
   28.68000     -1.3155772E-08
   28.74000     -1.3508233E-08
   28.80000     -1.3745973E-08
   28.86000     -1.3856759E-08
   28.92000     -1.3850022E-08
   28.98000     -1.3753062E-08
   29.04000     -1.3598899E-08
   29.10000     -1.3409563E-08
   29.16000     -1.3181860E-08
   29.22000     -1.2883151E-08
   29.28000     -1.2461310E-08
   29.34000     -1.1866808E-08
   29.40000     -1.1078449E-08
   29.46000     -1.0121108E-08
   29.52000     -9.0659231E-09
   29.58000     -8.0105647E-09
   29.64000     -7.0461428E-09
   29.70000     -6.2239938E-09
   29.76000     -5.5362674E-09
   29.82000     -4.9185052E-09
   29.88000     -4.2728514E-09
   29.94000     -3.5018233E-09
   30.00000     -2.5388349E-09
   30.06000     -1.3645052E-09
   30.12000     -5.2458814E-12
   30.18000      1.4814306E-09
   30.24000      3.0260707E-09
   30.30000      4.5628901E-09
   30.36000      6.0383818E-09
   30.42000      7.4144162E-09
   30.48000      8.6695149E-09
   30.54000      9.8006474E-09
   30.60000      1.0824585E-08
   30.66000      1.1775658E-08
   30.72000      1.2697527E-08
   30.78000      1.3630184E-08
   30.84000      1.4597170E-08
   30.90000      1.5599284E-08
   30.96000      1.6618404E-08
   31.02000      1.7629768E-08
   31.08000      1.8616392E-08
   31.14000      1.9577987E-08
   31.20000      2.0529734E-08
   31.26000      2.1491875E-08
   31.32000      2.2475842E-08
   31.38000      2.3474151E-08
   31.44000      2.4458648E-08
   31.50000      2.5387147E-08
   31.56000      2.6214638E-08
   31.62000      2.6904159E-08
   31.68000      2.7434133E-08
   31.74000      2.7801615E-08
   31.80000      2.8022541E-08
   31.86000      2.8129509E-08
   31.92000      2.8166260E-08
   31.98000      2.8177336E-08
   32.04000      2.8193259E-08
   32.10000      2.8215142E-08
   32.16000      2.8206006E-08
   32.22000      2.8096103E-08
   32.28000      2.7805086E-08
   32.34000      2.7276000E-08
   32.40000      2.6508584E-08
   32.46000      2.5576707E-08
   32.52000      2.4619071E-08
   32.58000      2.3802903E-08
   32.64000      2.3272394E-08
   32.70000      2.3101570E-08
   32.76000      2.3270603E-08
   32.82000      2.3675359E-08
   32.88000      2.4165921E-08
   32.94000      2.4597758E-08
   33.00000      2.4874607E-08
   33.06000      2.4967202E-08
   33.12000      2.4903761E-08
   33.18000      2.4740713E-08
   33.24000      2.4529454E-08
   33.30000      2.4293856E-08
   33.36000      2.4025466E-08
   33.42000      2.3693616E-08
   33.48000      2.3261208E-08
   33.54000      2.2696916E-08
   33.60000      2.1979426E-08
   33.66000      2.1095643E-08
   33.72000      2.0038270E-08
   33.78000      1.8806851E-08
   33.84000      1.7412127E-08
   33.90000      1.5879477E-08
   33.96000      1.4246584E-08
   34.02000      1.2553949E-08
   34.08000      1.0831968E-08
   34.14000      9.0916696E-09
   34.20000      7.3251174E-09
   34.26000      5.5162670E-09
   34.32000      3.6567298E-09
   34.38000      1.7572810E-09
   34.44000     -1.5236346E-10
   34.50000     -2.0367013E-09
   34.56000     -3.8741934E-09
   34.62000     -5.6727916E-09
   34.68000     -7.4717059E-09
   34.74000     -9.3264569E-09
   34.80000     -1.1282776E-08
   34.86000     -1.3350899E-08
   34.92000     -1.5492120E-08
   34.98000     -1.7623940E-08
   35.04000     -1.9641778E-08
   35.10000     -2.1448189E-08
   35.16000     -2.2978082E-08
   35.22000     -2.4211575E-08
   35.28000     -2.5172211E-08
   35.34000     -2.5914334E-08
   35.40000     -2.6506155E-08
   35.46000     -2.7014066E-08
   35.52000     -2.7490671E-08
   35.58000     -2.7966511E-08
   35.64000     -2.8445154E-08
   35.70000     -2.8903028E-08
   35.76000     -2.9296661E-08
   35.82000     -2.9578839E-08
   35.88000     -2.9721003E-08
   35.94000     -2.9733995E-08
   36.00000     -2.9676706E-08
   36.06000     -2.9645124E-08
   36.12000     -2.9742333E-08
   36.18000     -3.0039899E-08
   36.24000     -3.0547266E-08
   36.30000     -3.1204173E-08
   36.36000     -3.1901703E-08
   36.42000     -3.2524273E-08
   36.48000     -3.2994741E-08
   36.54000     -3.3302808E-08
   36.60000     -3.3504385E-08
   36.66000     -3.3693283E-08
   36.72000     -3.3958720E-08
   36.78000     -3.4348009E-08
   36.84000     -3.4849840E-08
   36.90000     -3.5403229E-08
   36.96000     -3.5925424E-08
   37.02000     -3.6345043E-08
   37.08000     -3.6626435E-08
   37.14000     -3.6777323E-08
   37.20000     -3.6839786E-08
   37.26000     -3.6870919E-08
   37.32000     -3.6921570E-08
   37.38000     -3.7019952E-08
   37.44000     -3.7163598E-08
   37.50000     -3.7320085E-08
   37.56000     -3.7435310E-08
   37.62000     -3.7447307E-08
   37.68000     -3.7302808E-08
   37.74000     -3.6972718E-08
   37.80000     -3.6461781E-08
   37.86000     -3.5808331E-08
   37.92000     -3.5072652E-08
   37.98000     -3.4316628E-08
   38.04000     -3.3581379E-08
   38.10000     -3.2871256E-08
   38.16000     -3.2150801E-08
   38.22000     -3.1356461E-08
   38.28000     -3.0418946E-08
   38.34000     -2.9287987E-08
   38.40000     -2.7950332E-08
   38.46000     -2.6435082E-08
   38.52000     -2.4805637E-08
   38.58000     -2.3142649E-08
   38.64000     -2.1524976E-08
   38.70000     -2.0014969E-08
   38.76000     -1.8651159E-08
   38.82000     -1.7447800E-08
   38.88000     -1.6398298E-08
   38.94000     -1.5479610E-08
   39.00000     -1.4656358E-08
   39.06000     -1.3885269E-08
   39.12000     -1.3121153E-08
   39.18000     -1.2324503E-08
   39.24000     -1.1468832E-08
   39.30000     -1.0544737E-08
   39.36000     -9.5584669E-09
   39.42000     -8.5254639E-09
   39.48000     -7.4622326E-09
   39.54000     -6.3812289E-09
   39.60000     -5.2919096E-09
   39.66000     -4.2074100E-09
   39.72000     -3.1525840E-09
   39.78000     -2.1677584E-09
   39.84000     -1.3045441E-09
   39.90000     -6.1447564E-10
   39.96000     -1.3548979E-10
   40.02000      1.1726334E-10
   40.08000      1.5204413E-10
   40.14000     -6.9615637E-12
   40.20000     -3.3046094E-10
   40.26000     -7.9207513E-10
   40.32000     -1.3697640E-09
   40.38000     -2.0413222E-09
   40.44000     -2.7784044E-09
   40.50000     -3.5442655E-09
   40.56000     -4.2977697E-09
   40.62000     -5.0019207E-09
   40.68000     -5.6320197E-09
   40.74000     -6.1785053E-09
   40.80000     -6.6425652E-09
   40.86000     -7.0268475E-09
   40.92000     -7.3263910E-09
   40.98000     -7.5246582E-09
   41.04000     -7.5965199E-09
   41.10000     -7.5161823E-09
   41.16000     -7.2656814E-09
   41.22000     -6.8400263E-09
   41.28000     -6.2477943E-09
   41.34000     -5.5091331E-09
   41.40000     -4.6544932E-09
   41.46000     -3.7261851E-09
   41.52000     -2.7816685E-09
   41.58000     -1.8946085E-09
   41.64000     -1.1492280E-09
   41.70000     -6.2625133E-10
   41.76000     -3.8360712E-10
   41.82000     -4.3944628E-10
   41.88000     -7.6604545E-10
   41.94000     -1.2995863E-09
   42.00000     -1.9637594E-09
   42.06000     -2.6979547E-09
   42.12000     -3.4774243E-09
   42.18000     -4.3155599E-09
   42.24000     -5.2466032E-09
   42.30000     -6.2969572E-09
   42.36000     -7.4596116E-09
   42.42000     -8.6853387E-09
   42.48000     -9.8961550E-09
   42.54000     -1.1015009E-08
   42.60000     -1.1996764E-08
   42.66000     -1.2844267E-08
   42.72000     -1.3600730E-08
   42.78000     -1.4321815E-08
   42.84000     -1.5041500E-08
   42.90000     -1.5748945E-08
   42.96000     -1.6387711E-08
   43.02000     -1.6876978E-08
   43.08000     -1.7143558E-08
   43.14000     -1.7149032E-08
   43.20000     -1.6900447E-08
   43.26000     -1.6442554E-08
   43.32000     -1.5838950E-08
   43.38000     -1.5153310E-08
   43.44000     -1.4439042E-08
   43.50000     -1.3738600E-08
   43.56000     -1.3087495E-08
   43.62000     -1.2516375E-08
   43.68000     -1.2047971E-08
   43.74000     -1.1691166E-08
   43.80000     -1.1437853E-08
   43.86000     -1.1267158E-08
   43.92000     -1.1156735E-08
   43.98000     -1.1095612E-08
   44.04000     -1.1091064E-08
   44.10000     -1.1164864E-08
   44.16000     -1.1340209E-08
   44.22000     -1.1626105E-08
   44.28000     -1.2007696E-08
   44.34000     -1.2447791E-08
   44.40000     -1.2898809E-08
   44.46000     -1.3318830E-08
   44.52000     -1.3683620E-08
   44.58000     -1.3989139E-08
   44.64000     -1.4244280E-08
   44.70000     -1.4458535E-08
   44.76000     -1.4631139E-08
   44.82000     -1.4746531E-08
   44.88000     -1.4777019E-08
   44.94000     -1.4689870E-08
   45.00000     -1.4454716E-08
   45.06000     -1.4048471E-08
   45.12000     -1.3457724E-08
   45.18000     -1.2680550E-08
   45.24000     -1.1729530E-08
   45.30000     -1.0635473E-08
   45.36000     -9.4485397E-09
   45.42000     -8.2323748E-09
   45.48000     -7.0486594E-09
   45.54000     -5.9340359E-09
   45.60000     -4.8760782E-09
   45.66000     -3.7974877E-09
   45.72000     -2.5558184E-09
   45.78000     -9.6030683E-10
   45.84000      1.1999632E-09
   45.90000      4.1276871E-09
   45.96000      8.0006677E-09
   46.02000      1.2974303E-08
   46.08000      1.9203014E-08
   46.14000      2.6872849E-08
   46.20000      3.6233690E-08
   46.26000      4.7620748E-08
   46.32000      6.1460909E-08
   46.38000      7.8266723E-08
   46.44000      9.8626806E-08
   46.50000      1.2320274E-07
   46.56000      1.5273945E-07
   46.62000      1.8809060E-07
   46.68000      2.3025413E-07
   46.74000      2.8041040E-07
   46.80000      3.3995562E-07
   46.86000      4.1052749E-07
   46.92000      4.9402479E-07
   46.98000      5.9262663E-07
   47.04000      7.0881708E-07
   47.10000      8.4542006E-07
   47.16000      1.0056436E-06
   47.22000      1.1931323E-06
   47.28000      1.4120242E-06
   47.34000      1.6670114E-06
   47.40000      1.9634062E-06
   47.46000      2.3072137E-06
   47.52000      2.7052149E-06
   47.58000      3.1650550E-06
   47.64000      3.6953365E-06
   47.70000      4.3057107E-06
   47.76000      5.0069571E-06
   47.82000      5.8110650E-06
   47.88000      6.7313126E-06
   47.94000      7.7823597E-06
   48.00000      8.9803589E-06
   48.06000      1.0343078E-05
   48.12000      1.1890044E-05
   48.18000      1.3642666E-05
   48.24000      1.5624366E-05
   48.30000      1.7860682E-05
   48.36000      2.0379353E-05
   48.42000      2.3210408E-05
   48.48000      2.6386235E-05
   48.54000      2.9941670E-05
   48.60000      3.3914046E-05
   48.66000      3.8343267E-05
   48.72000      4.3271830E-05
   48.78000      4.8744856E-05
   48.84000      5.4810069E-05
   48.90000      6.1517785E-05
   48.96000      6.8920854E-05
   49.02000      7.7074597E-05
   49.08000      8.6036671E-05
   49.14000      9.5866890E-05
   49.20000      1.0662706E-04
   49.26000      1.1838069E-04
   49.32000      1.3119275E-04
   49.38000      1.4512936E-04
   49.44000      1.6025746E-04
   49.50000      1.7664435E-04
   49.56000      1.9435730E-04
   49.62000      2.1346318E-04
   49.68000      2.3402770E-04
   49.74000      2.5611502E-04
   49.80000      2.7978694E-04
   49.86000      3.0510256E-04
   49.92000      3.3211731E-04
   49.98000      3.6088252E-04
   50.04000      3.9144448E-04
   50.10000      4.2384409E-04
   50.16000      4.5811577E-04
   50.22000      4.9428712E-04
   50.28000      5.3237804E-04
   50.34000      5.7240017E-04
   50.40000      6.1435596E-04
   50.46000      6.5823842E-04
   50.52000      7.0403045E-04
   50.58000      7.5170433E-04
   50.64000      8.0122135E-04
   50.70000      8.5253164E-04
   50.76000      9.0557366E-04
   50.82000      9.6027413E-04
   50.88000      1.0165485E-03
   50.94000      1.0743001E-03
   51.00000      1.1334217E-03
   51.06000      1.1937948E-03
   51.12000      1.2552901E-03
   51.18000      1.3177686E-03
   51.24000      1.3810819E-03
   51.30000      1.4450729E-03
   51.36000      1.5095779E-03
   51.42000      1.5744258E-03
   51.48000      1.6394417E-03
   51.54000      1.7044459E-03
   51.60000      1.7692568E-03
   51.66000      1.8336908E-03
   51.72000      1.8975658E-03
   51.78000      1.9607008E-03
   51.84000      2.0229190E-03
   51.90000      2.0840480E-03
   51.96000      2.1439232E-03
   52.02000      2.2023870E-03
   52.08000      2.2592924E-03
   52.14000      2.3145031E-03
   52.20000      2.3678946E-03
   52.26000      2.4193567E-03
   52.32000      2.4687939E-03
   52.38000      2.5161263E-03
   52.44000      2.5612903E-03
   52.50000      2.6042401E-03
   52.56000      2.6449459E-03
   52.62000      2.6833960E-03
   52.68000      2.7195963E-03
   52.74000      2.7535702E-03
   52.80000      2.7853583E-03
   52.86000      2.8150182E-03
   52.92000      2.8426233E-03
   52.98000      2.8682614E-03
   53.04000      2.8920339E-03
   53.10000      2.9140539E-03
   53.16000      2.9344459E-03
   53.22000      2.9533433E-03
   53.28000      2.9708876E-03
   53.34000      2.9872253E-03
   53.40000      3.0025078E-03
   53.46000      3.0168872E-03
   53.52000      3.0305157E-03
   53.58000      3.0435428E-03
   53.64000      3.0561143E-03
   53.70000      3.0683707E-03
   53.76000      3.0804444E-03
   53.82000      3.0924594E-03
   53.88000      3.1045279E-03
   53.94000      3.1167492E-03
   54.00000      3.1292108E-03
   54.06000      3.1419839E-03
   54.12000      3.1551251E-03
   54.18000      3.1686749E-03
   54.24000      3.1826578E-03
   54.30000      3.1970809E-03
   54.36000      3.2119351E-03
   54.42000      3.2271945E-03
   54.48000      3.2428189E-03
   54.54000      3.2587515E-03
   54.60000      3.2749223E-03
   54.66000      3.2912481E-03
   54.72000      3.3076338E-03
   54.78000      3.3239736E-03
   54.84000      3.3401533E-03
   54.90000      3.3560521E-03
   54.96000      3.3715426E-03
   55.02000      3.3864952E-03
   55.08000      3.4007784E-03
   55.14000      3.4142612E-03
   55.20000      3.4268156E-03
   55.26000      3.4383163E-03
   55.32000      3.4486447E-03
   55.38000      3.4576894E-03
   55.44000      3.4653479E-03
   55.50000      3.4715286E-03
   55.56000      3.4761517E-03