  -2.400000      0.0000000E+00
  -2.340000      0.0000000E+00
  -2.280000      0.0000000E+00
  -2.220000      0.0000000E+00
  -2.160000      0.0000000E+00
  -2.100000      0.0000000E+00
  -2.040000      2.9249766E-23
  -1.980000      6.8572373E-24
  -1.920000     -1.3601581E-21
  -1.860000     -8.9244775E-21
  -1.800000     -3.0981549E-20
  -1.740000     -6.7185147E-20
  -1.680000     -7.7534870E-20
  -1.620000      5.1307732E-20
  -1.560000      4.8706576E-19
  -1.500000      1.3080044E-18
  -1.440000      2.2229581E-18
  -1.380000      2.3013023E-18
  -1.320000      3.3258412E-20
  -1.260000     -5.9421847E-18
  -1.200000     -1.5407111E-17
  -1.140000     -2.5000781E-17
  -1.080000     -2.7690558E-17
  -1.020000     -1.4545819E-17
 -0.9600000      2.0713838E-17
 -0.9000000      7.5563558E-17
 -0.8400000      1.3388776E-16
 -0.7800000      1.6641168E-16
 -0.7200000      1.3910307E-16
 -0.6600000      2.8935853E-17
 -0.6000000     -1.5829221E-16
 -0.5400000     -3.7722914E-16
 -0.4800000     -5.4860821E-16
 -0.4200000     -5.8497705E-16
 -0.3600000     -4.2963115E-16
 -0.3000000     -9.0767032E-17
 -0.2400000      3.5121181E-16
 -0.1800000      7.7579663E-16
 -0.1200000      1.0834697E-15
 -5.9999999E-02  1.2496551E-15
  0.0000000E+00  1.3256947E-15
  5.9999999E-02  1.3634685E-15
  0.1200000      1.2936690E-15
  0.1800000      8.4521569E-16
  0.2400000     -3.8930640E-16
  0.3000000     -2.6950441E-15
  0.3600000     -5.8625962E-15
  0.4200000     -8.9151802E-15
  0.4800000     -1.0193254E-14
  0.5400000     -7.9377829E-15
  0.6000000     -1.2471223E-15
  0.6600000      9.0122756E-15
  0.7200000      1.9900107E-14
  0.7800000      2.7100142E-14
  0.8400000      2.6567512E-14
  0.9000000      1.6518171E-14
  0.9600000     -1.1942950E-15
   1.020000     -2.1160125E-14
   1.080000     -3.6202073E-14
   1.140000     -4.0283965E-14
   1.200000     -3.1300104E-14
   1.260000     -1.2413266E-14
   1.320000      8.8250770E-15
   1.380000      2.3362272E-14
   1.440000      2.4420800E-14
   1.500000      1.0640793E-14
   1.560000     -1.2670987E-14
   1.620000     -3.4708208E-14
   1.680000     -4.2447227E-14
   1.740000     -2.5166145E-14
   1.800000      2.0934177E-14
   1.860000      8.9223157E-14
   1.920000      1.6152035E-13
   1.980000      2.1057578E-13
   2.040000      2.0683997E-13
   2.100000      1.2887553E-13
   2.160000     -2.5269907E-14
   2.220000     -2.3030587E-13
   2.280000     -4.3455227E-13
   2.340000     -5.7224337E-13
   2.400000     -5.8544098E-13
   2.460000     -4.4819622E-13
   2.520000     -1.8212427E-13
   2.580000      1.4618498E-13
   2.640000      4.4870569E-13
   2.700000      6.5306186E-13
   2.760000      7.3685703E-13
   2.820000      7.4048200E-13
   2.880000      7.4655630E-13
   2.940000      8.2907059E-13
   3.000000      9.9227733E-13
   3.060000      1.1302431E-12
   3.120000      1.0358864E-12
   3.180000      4.7144650E-13
   3.240000     -7.1456794E-13
   3.300000     -2.4654400E-12
   3.360000     -4.4448538E-12
   3.420000     -6.0641071E-12
   3.480000     -6.6254866E-12
   3.540000     -5.5539293E-12
   3.600000     -2.6448043E-12
   3.660000      1.7681669E-12
   3.720000      6.8092585E-12
   3.780000      1.1255811E-11
   3.840000      1.3891384E-11
   3.900000      1.3903640E-11
   3.960000      1.1176056E-11
   4.020000      6.3437697E-12
   4.080000      5.6524316E-13
   4.140000     -4.9239671E-12
   4.200000     -9.3081948E-12
   4.260000     -1.2533617E-11
   4.320000     -1.5339393E-11
   4.380000     -1.8947647E-11
   4.440000     -2.4533103E-11
   4.500000     -3.2701487E-11
   4.560000     -4.3216083E-11
   4.620000     -5.5111433E-11
   4.680000     -6.7160159E-11
   4.740000     -7.8488861E-11
   4.800000     -8.9052356E-11
   4.860000     -9.9718386E-11
   4.920000     -1.1187504E-10
   4.980000     -1.2668470E-10
   5.040000     -1.4427681E-10
   5.100000     -1.6322055E-10
   5.160000     -1.8051999E-10
   5.220000     -1.9216921E-10
   5.280000     -1.9408056E-10
   5.340000     -1.8305657E-10
   5.400000     -1.5747549E-10
   5.460000     -1.1750195E-10
   5.520000     -6.4852748E-11
   5.580000     -2.3444137E-12
   5.640000      6.6461246E-11
   5.700000      1.3725349E-10
   5.760000      2.0452375E-10
   5.820000      2.6080302E-10
   5.880000      2.9589350E-10
   5.940000      2.9646480E-10
   6.000000      2.4631686E-10
   6.060000      1.2742706E-10
   6.120000     -7.8337538E-11
   6.180000     -3.8717218E-10
   6.240000     -8.1138507E-10
   6.300000     -1.3579383E-09
   6.360000     -2.0276856E-09
   6.420000     -2.8152536E-09
   6.480000     -3.7092949E-09
   6.540000     -4.6927897E-09
   6.600000     -5.7432215E-09
   6.660000     -6.8327388E-09
   6.720000     -7.9287208E-09
   6.780000     -8.9952277E-09
   6.840000     -9.9956479E-09
   6.900000     -1.0896350E-08
   6.960000     -1.1670625E-08
   7.020000     -1.2301856E-08
   7.080000     -1.2784882E-08
   7.140000     -1.3125018E-08
   7.200000     -1.3334923E-08
   7.260000     -1.3430248E-08
   7.320000     -1.3425440E-08
   7.380000     -1.3331034E-08
   7.440000     -1.3153228E-08
   7.500000     -1.2895746E-08
   7.560000     -1.2563190E-08
   7.620000     -1.2164519E-08
   7.680000     -1.1715278E-08
   7.740000     -1.1237622E-08
   7.800000     -1.0757981E-08
   7.860000     -1.0303014E-08
   7.920000     -9.8951602E-09
   7.980000     -9.5491082E-09
   8.040000     -9.2701962E-09
   8.100000     -9.0550047E-09
   8.160000     -8.8936574E-09
   8.220000     -8.7729193E-09
   8.280000     -8.6790815E-09
   8.340000     -8.5999545E-09
   8.400000     -8.5257961E-09
   8.460000     -8.4493896E-09
   8.520000     -8.3657792E-09
   8.580000     -8.2720710E-09
   8.640000     -8.1675413E-09
   8.700000     -8.0540241E-09
   8.760000     -7.9363236E-09
   8.820000     -7.8223614E-09
   8.880000     -7.7227975E-09
   8.940000     -7.6500886E-09
   9.000000     -7.6171300E-09
   9.060000     -7.6358058E-09
   9.120000     -7.7157392E-09
   9.180000     -7.8634494E-09
   9.240000     -8.0818570E-09
   9.300000     -8.3699847E-09
   9.360000     -8.7226706E-09
   9.420000     -9.1303747E-09
   9.480000     -9.5793924E-09
   9.540000     -1.0052960E-08
   9.600000     -1.0533588E-08
   9.660000     -1.1006488E-08
   9.720000     -1.1463364E-08
   9.780000     -1.1905364E-08
   9.840000     -1.2343879E-08
   9.900000     -1.2798369E-08
   9.960000     -1.3291229E-08
   10.02000     -1.3840769E-08
   10.08000     -1.4454192E-08
   10.14000     -1.5122708E-08
   10.20000     -1.5820525E-08
   10.26000     -1.6508384E-08
   10.32000     -1.7140952E-08
   10.38000     -1.7676127E-08
   10.44000     -1.8083602E-08
   10.50000     -1.8350066E-08
   10.56000     -1.8479463E-08
   10.62000     -1.8488086E-08
   10.68000     -1.8395962E-08
   10.74000     -1.8217120E-08
   10.80000     -1.7951788E-08
   10.86000     -1.7583032E-08
   10.92000     -1.7079113E-08
   10.98000     -1.6401115E-08
   11.04000     -1.5513749E-08
   11.10000     -1.4396186E-08
   11.16000     -1.3049598E-08
   11.22000     -1.1498989E-08
   11.28000     -9.7885460E-09
   11.34000     -7.9718054E-09
   11.40000     -6.0995284E-09
   11.46000     -4.2089541E-09
   11.52000     -2.3176583E-09
   11.58000     -4.2378931E-10
   11.64000      1.4875067E-09
   11.70000      3.4335226E-09
   11.76000      5.4225073E-09
   11.82000      7.4446831E-09
   11.88000      9.4684030E-09
   11.94000      1.1442628E-08
   12.00000      1.3305102E-08
   12.06000      1.4994022E-08
   12.12000      1.6459989E-08
   12.18000      1.7674926E-08
   12.24000      1.8635548E-08
   12.30000      1.9360526E-08
   12.36000      1.9882473E-08
   12.42000      2.0237312E-08
   12.48000      2.0454298E-08
   12.54000      2.0549574E-08
   12.60000      2.0524819E-08
   12.66000      2.0370884E-08
   12.72000      2.0074740E-08
   12.78000      1.9627247E-08
   12.84000      1.9029210E-08
   12.90000      1.8293976E-08
   12.96000      1.7446105E-08
   13.02000      1.6516838E-08
   13.08000      1.5538046E-08
   13.14000      1.4536515E-08
   13.20000      1.3530076E-08
   13.26000      1.2526232E-08
   13.32000      1.1523125E-08
   13.38000      1.0512042E-08
   13.44000      9.4806021E-09
   13.50000      8.4159248E-09
   13.56000      7.3074822E-09
   13.62000      6.1494707E-09
   13.68000      4.9425157E-09
   13.74000      3.6943306E-09
   13.80000      2.4189422E-09
   13.86000      1.1343975E-09
   13.92000     -1.4052277E-10
   13.98000     -1.3894803E-09
   14.04000     -2.6003482E-09
   14.10000     -3.7647410E-09
   14.16000     -4.8754836E-09
   14.22000     -5.9233036E-09
   14.28000     -6.8946457E-09
   14.34000     -7.7722211E-09
   14.40000     -8.5387457E-09
   14.46000     -9.1827923E-09
   14.52000     -9.7044817E-09
   14.58000     -1.0118522E-08
   14.64000     -1.0452938E-08
   14.70000     -1.0743407E-08
   14.76000     -1.1024660E-08
   14.82000     -1.1321363E-08
   14.88000     -1.1640929E-08
   14.94000     -1.1970100E-08
   15.00000     -1.2276145E-08
   15.06000     -1.2512597E-08
   15.12000     -1.2628601E-08
   15.18000     -1.2580143E-08
   15.24000     -1.2340674E-08
   15.30000     -1.1908281E-08
   15.36000     -1.1306954E-08
   15.42000     -1.0581008E-08
   15.48000     -9.7838795E-09
   15.54000     -8.9646894E-09
   15.60000     -8.1569267E-09
   15.66000     -7.3728610E-09
   15.72000     -6.6050698E-09
   15.78000     -5.8338148E-09
   15.84000     -5.0371396E-09
   15.90000     -4.2002490E-09
   15.96000     -3.3217551E-09
   16.02000     -2.4159719E-09
   16.08000     -1.5116398E-09
   16.14000     -6.4790295E-10
   16.20000      1.3167147E-10
   16.26000      7.8622930E-10
   16.32000      1.2847329E-09
   16.38000      1.6113554E-09
   16.44000      1.7674602E-09
   16.50000      1.7693123E-09
   16.56000      1.6421825E-09
   16.62000      1.4129348E-09
   16.68000      1.1037120E-09
   16.74000      7.2865153E-10
   16.80000      2.9407987E-10
   16.86000     -1.9877226E-10
   16.92000     -7.5015100E-10
   16.98000     -1.3586358E-09
   17.04000     -2.0191671E-09
   17.10000     -2.7223832E-09
   17.16000     -3.4552252E-09
   17.22000     -4.2027688E-09
   17.28000     -4.9511133E-09
   17.34000     -5.6906986E-09
   17.40000     -6.4189973E-09
   17.46000     -7.1414812E-09
   17.52000     -7.8703657E-09
   17.58000     -8.6215017E-09
   17.64000     -9.4104413E-09
   17.70000     -1.0248583E-08
   17.76000     -1.1139732E-08
   17.82000     -1.2076873E-08
   17.88000     -1.3039209E-08
   17.94000     -1.3990365E-08
   18.00000     -1.4879554E-08
   18.06000     -1.5647370E-08
   18.12000     -1.6236223E-08
   18.18000     -1.6603074E-08
   18.24000     -1.6730159E-08
   18.30000     -1.6629469E-08
   18.36000     -1.6338939E-08
   18.42000     -1.5911681E-08
   18.48000     -1.5402426E-08
   18.54000     -1.4856080E-08
   18.60000     -1.4301802E-08
   18.66000     -1.3753233E-08
   18.72000     -1.3213127E-08
   18.78000     -1.2679691E-08
   18.84000     -1.2152492E-08
   18.90000     -1.1636812E-08
   18.96000     -1.1146121E-08
   19.02000     -1.0702251E-08
   19.08000     -1.0332719E-08
   19.14000     -1.0064983E-08
   19.20000     -9.9186517E-09
   19.26000     -9.8981907E-09
   19.32000     -9.9892876E-09
   19.38000     -1.0161128E-08
   19.44000     -1.0374374E-08
   19.50000     -1.0591982E-08
   19.56000     -1.0788521E-08
   19.62000     -1.0954274E-08
   19.68000     -1.1092798E-08
   19.74000     -1.1213507E-08
   19.80000     -1.1322773E-08
   19.86000     -1.1417234E-08
   19.92000     -1.1481675E-08
   19.98000     -1.1491894E-08
   20.04000     -1.1421278E-08
   20.10000     -1.1248963E-08
   20.16000     -1.0967190E-08
   20.22000     -1.0585712E-08
   20.28000     -1.0131661E-08
   20.34000     -9.6442987E-09
   20.40000     -9.1656283E-09
   20.46000     -8.7294261E-09
   20.52000     -8.3523926E-09
   20.58000     -8.0306712E-09
   20.64000     -7.7432318E-09
   20.70000     -7.4608293E-09
   20.76000     -7.1570629E-09
   20.82000     -6.8173036E-09
   20.88000     -6.4424555E-09
   20.94000     -6.0469016E-09
   21.00000     -5.6522529E-09
   21.06000     -5.2797566E-09
   21.12000     -4.9439897E-09
   21.18000     -4.6493764E-09
   21.24000     -4.3898587E-09
   21.30000     -4.1513264E-09
   21.36000     -3.9160994E-09
   21.42000     -3.6685475E-09
   21.48000     -3.4005443E-09
   21.54000     -3.1150718E-09
   21.60000     -2.8263536E-09
   21.66000     -2.5558098E-09
   21.72000     -2.3246773E-09
   21.78000     -2.1456945E-09
   21.84000     -2.0168973E-09
   21.90000     -1.9198629E-09
   21.96000     -1.8229532E-09
   22.02000     -1.6881047E-09
   22.08000     -1.4784901E-09
   22.14000     -1.1644499E-09
   22.20000     -7.2628320E-10
   22.26000     -1.5408161E-10
   22.32000      5.5403154E-10
   22.38000      1.3935746E-09
   22.44000      2.3541180E-09
   22.50000      3.4181797E-09
   22.56000      4.5592294E-09
   22.62000      5.7399001E-09
   22.68000      6.9115482E-09
   22.74000      8.0159257E-09
   22.80000      8.9891552E-09
   22.86000      9.7675548E-09
   22.92000      1.0294347E-08
   22.98000      1.0526068E-08
   23.04000      1.0437593E-08
   23.10000      1.0025117E-08
   23.16000      9.3068913E-09
   23.22000      8.3218739E-09
   23.28000      7.1265003E-09
   23.34000      5.7897309E-09
   23.40000      4.3864867E-09
   23.46000      2.9898104E-09
   23.52000      1.6625982E-09
   23.58000      4.5021331E-10
   23.64000     -6.2451982E-10
   23.70000     -1.5628129E-09
   23.76000     -2.3875697E-09
   23.82000     -3.1378036E-09
   23.88000     -3.8610697E-09
   23.94000     -4.6053739E-09
   24.00000     -5.4118039E-09
   24.06000     -6.3087846E-09
   24.12000     -7.3085413E-09
   24.18000     -8.4061487E-09
   24.24000     -9.5812833E-09
   24.30000     -1.0802377E-08
   24.36000     -1.2032363E-08
   24.42000     -1.3234768E-08
   24.48000     -1.4378963E-08
   24.54000     -1.5443760E-08
   24.60000     -1.6419273E-08
   24.66000     -1.7307446E-08
   24.72000     -1.8121739E-08
   24.78000     -1.8886142E-08
   24.84000     -1.9633241E-08
   24.90000     -2.0400975E-08
   24.96000     -2.1228086E-08
   25.02000     -2.2148905E-08
   25.08000     -2.3188557E-08
   25.14000     -2.4359663E-08
   25.20000     -2.5661102E-08
   25.26000     -2.7078599E-08
   25.32000     -2.8586573E-08
   25.38000     -3.0150645E-08
   25.44000     -3.1730565E-08
   25.50000     -3.3283694E-08
   25.56000     -3.4769119E-08
   25.62000     -3.6152180E-08
   25.68000     -3.7408647E-08
   25.74000     -3.8527581E-08
   25.80000     -3.9512109E-08
   25.86000     -4.0377600E-08
   25.92000     -4.1147558E-08
   25.98000     -4.1847851E-08
   26.04000     -4.2500407E-08
   26.10000     -4.3117740E-08
   26.16000     -4.3699721E-08
   26.22000     -4.4233659E-08
   26.28000     -4.4697991E-08
   26.34000     -4.5068454E-08
   26.40000     -4.5324832E-08
   26.46000     -4.5455756E-08
   26.52000     -4.5459938E-08
   26.58000     -4.5343604E-08
   26.64000     -4.5115620E-08
   26.70000     -4.4782741E-08
   26.76000     -4.4347107E-08
   26.82000     -4.3806899E-08
   26.88000     -4.3159666E-08
   26.94000     -4.2406732E-08
   27.00000     -4.1556930E-08
   27.06000     -4.0628322E-08
   27.12000     -3.9647279E-08
   27.18000     -3.8644920E-08
   27.24000     -3.7651528E-08
   27.30000     -3.6690114E-08
   27.36000     -3.5771020E-08
   27.42000     -3.4889570E-08
   27.48000     -3.4028357E-08
   27.54000     -3.3164135E-08
   27.60000     -3.2277423E-08
   27.66000     -3.1361338E-08
   27.72000     -3.0425998E-08
   27.78000     -2.9496512E-08
   27.84000     -2.8605109E-08
   27.90000     -2.7780452E-08
   27.96000     -2.7038357E-08
   28.02000     -2.6377398E-08
   28.08000     -2.5780819E-08
   28.14000     -2.5223745E-08
   28.20000     -2.4682878E-08
   28.26000     -2.4145308E-08
   28.32000     -2.3613625E-08
   28.38000     -2.3105843E-08
   28.44000     -2.2650211E-08
   28.50000     -2.2276502E-08
   28.56000     -2.2006510E-08
   28.62000     -2.1846850E-08
   28.68000     -2.1786633E-08
   28.74000     -2.1800970E-08
   28.80000     -2.1859160E-08
   28.86000     -2.1934639E-08
   28.92000     -2.2013102E-08
   28.98000     -2.2096144E-08
   29.04000     -2.2199586E-08
   29.10000     -2.2347756E-08
   29.16000     -2.2565992E-08
   29.22000     -2.2873632E-08
   29.28000     -2.3278817E-08
   29.34000     -2.3775577E-08
   29.40000     -2.4343272E-08
   29.46000     -2.4948639E-08
   29.52000     -2.5550719E-08
   29.58000     -2.6108356E-08
   29.64000     -2.6588763E-08
   29.70000     -2.6974543E-08
   29.76000     -2.7266477E-08
   29.82000     -2.7480660E-08
   29.88000     -2.7640972E-08
   29.94000     -2.7769907E-08
   30.00000     -2.7881530E-08
   30.06000     -2.7979176E-08
   30.12000     -2.8058107E-08
   30.18000     -2.8111042E-08
   30.24000     -2.8133405E-08
   30.30000     -2.8125813E-08
   30.36000     -2.8093107E-08
   30.42000     -2.8040954E-08
   30.48000     -2.7971977E-08
   30.54000     -2.7883001E-08
   30.60000     -2.7764269E-08
   30.66000     -2.7600370E-08
   30.72000     -2.7372501E-08
   30.78000     -2.7061489E-08
   30.84000     -2.6651220E-08
   30.90000     -2.6131902E-08
   30.96000     -2.5502260E-08
   31.02000     -2.4769824E-08
   31.08000     -2.3948902E-08
   31.14000     -2.3056833E-08
   31.20000     -2.2110068E-08
   31.26000     -2.1121686E-08
   31.32000     -2.0101265E-08
   31.38000     -1.9056621E-08
   31.44000     -1.7995756E-08
   31.50000     -1.6927228E-08
   31.56000     -1.5858118E-08
   31.62000     -1.4790382E-08
   31.68000     -1.3717683E-08
   31.74000     -1.2624906E-08
   31.80000     -1.1491585E-08
   31.86000     -1.0298601E-08
   31.92000     -9.0360155E-09
   31.98000     -7.7091800E-09
   32.04000     -6.3407568E-09
   32.10000     -4.9676094E-09
   32.16000     -3.6331194E-09
   32.22000     -2.3769191E-09
   32.28000     -1.2248432E-09
   32.34000     -1.8205662E-10
   32.40000      7.6837553E-10
   32.46000      1.6606245E-09
   32.52000      2.5360034E-09
   32.58000      3.4305319E-09
   32.64000      4.3641029E-09
   32.70000      5.3349281E-09
   32.76000      6.3212688E-09
   32.82000      7.2899944E-09
   32.88000      8.2091143E-09
   32.94000      9.0601189E-09
   33.00000      9.8460609E-09
   33.06000      1.0592744E-08
   33.12000      1.1342594E-08
   33.18000      1.2142912E-08
   33.24000      1.3031949E-08
   33.30000      1.4026865E-08
   33.36000      1.5117276E-08
   33.42000      1.6266522E-08
   33.48000      1.7420343E-08
   33.54000      1.8520183E-08
   33.60000      1.9516426E-08
   33.66000      2.0376874E-08
   33.72000      2.1087384E-08
   33.78000      2.1644746E-08
   33.84000      2.2044832E-08
   33.90000      2.2270857E-08
   33.96000      2.2286402E-08
   34.02000      2.2035776E-08
   34.08000      2.1451733E-08
   34.14000      2.0468176E-08
   34.20000      1.9034292E-08
   34.26000      1.7126554E-08
   34.32000      1.4755582E-08
   34.38000      1.1966041E-08
   34.44000      8.8290930E-09
   34.50000      5.4286087E-09
   34.56000      1.8442899E-09
   34.62000     -1.8637325E-09
   34.68000     -5.6639715E-09
   34.74000     -9.5529540E-09
   34.80000     -1.3544549E-08
   34.86000     -1.7652418E-08
   34.92000     -2.1871355E-08
   34.98000     -2.6163869E-08
   35.04000     -3.0456654E-08
   35.10000     -3.4648259E-08
   35.16000     -3.8625739E-08
   35.22000     -4.2285421E-08
   35.28000     -4.5551886E-08
   35.34000     -4.8390064E-08
   35.40000     -5.0807365E-08
   35.46000     -5.2845607E-08
   35.52000     -5.4565117E-08
   35.58000     -5.6025730E-08
   35.64000     -5.7270128E-08
   35.70000     -5.8314367E-08
   35.76000     -5.9148231E-08
   35.82000     -5.9745055E-08
   35.88000     -6.0077475E-08
   35.94000     -6.0133807E-08
   36.00000     -5.9929668E-08
   36.06000     -5.9510995E-08
   36.12000     -5.8947645E-08
   36.18000     -5.8319561E-08
   36.24000     -5.7699843E-08
   36.30000     -5.7139779E-08
   36.36000     -5.6660191E-08
   36.42000     -5.6251459E-08
   36.48000     -5.5881937E-08
   36.54000     -5.5512025E-08
   36.60000     -5.5109410E-08
   36.66000     -5.4660752E-08
   36.72000     -5.4176358E-08
   36.78000     -5.3686691E-08
   36.84000     -5.3232281E-08
   36.90000     -5.2850517E-08
   36.96000     -5.2563514E-08
   37.02000     -5.2370385E-08
   37.08000     -5.2245731E-08
   37.14000     -5.2144078E-08
   37.20000     -5.2008819E-08
   37.26000     -5.1783275E-08
   37.32000     -5.1421438E-08
   37.38000     -5.0895970E-08
   37.44000     -5.0201550E-08
   37.50000     -4.9352643E-08
   37.56000     -4.8376013E-08
   37.62000     -4.7300126E-08
   37.68000     -4.6144805E-08
   37.74000     -4.4914472E-08
   37.80000     -4.3597140E-08
   37.86000     -4.2169010E-08
   37.92000     -4.0602401E-08
   37.98000     -3.8873946E-08
   38.04000     -3.6970409E-08
   38.10000     -3.4891283E-08
   38.16000     -3.2648718E-08
   38.22000     -3.0266087E-08
   38.28000     -2.7775785E-08
   38.34000     -2.5216277E-08
   38.40000     -2.2627761E-08
   38.46000     -2.0046722E-08
   38.52000     -1.7500669E-08
   38.58000     -1.5005243E-08
   38.64000     -1.2565412E-08
   38.70000     -1.0180765E-08
   38.76000     -7.8530284E-09
   38.82000     -5.5926170E-09
   38.88000     -3.4215264E-09
   38.94000     -1.3714648E-09
   39.00000      5.2183696E-10
   39.06000      2.2259126E-09
   39.12000      3.7180210E-09
   39.18000      4.9890412E-09
   39.24000      6.0439480E-09
   39.30000      6.8987158E-09
   39.36000      7.5740285E-09
   39.42000      8.0868752E-09
   39.48000      8.4420302E-09
   39.54000      8.6262215E-09
   39.60000      8.6076763E-09
   39.66000      8.3424174E-09
   39.72000      7.7862570E-09
   39.78000      6.9090627E-09
   39.84000      5.7066405E-09
   39.90000      4.2061927E-09
   39.96000      2.4634301E-09
   40.02000      5.5219951E-10
   40.08000     -1.4503839E-09
   40.14000     -3.4792695E-09
   40.20000     -5.4934408E-09
   40.26000     -7.4816464E-09
   40.32000     -9.4604244E-09
   40.38000     -1.1464623E-08
   40.44000     -1.3532568E-08
   40.50000     -1.5689791E-08
   40.56000     -1.7936289E-08
   40.62000     -2.0241746E-08
   40.68000     -2.2550919E-08
   40.74000     -2.4797922E-08
   40.80000     -2.6924846E-08
   40.86000     -2.8898489E-08
   40.92000     -3.0719573E-08
   40.98000     -3.2421628E-08
   41.04000     -3.4060331E-08
   41.10000     -3.5697017E-08
   41.16000     -3.7381625E-08
   41.22000     -3.9139795E-08
   41.28000     -4.0967191E-08
   41.34000     -4.2831800E-08
   41.40000     -4.4682956E-08
   41.46000     -4.6464191E-08
   41.52000     -4.8126346E-08
   41.58000     -4.9637354E-08
   41.64000     -5.0986209E-08
   41.70000     -5.2180287E-08
   41.76000     -5.3237386E-08
   41.82000     -5.4175516E-08
   41.88000     -5.5004083E-08
   41.94000     -5.5719614E-08
   42.00000     -5.6307130E-08
   42.06000     -5.6746284E-08
   42.12000     -5.7019527E-08
   42.18000     -5.7119145E-08
   42.24000     -5.7050620E-08
   42.30000     -5.6831386E-08
   42.36000     -5.6485852E-08
   42.42000     -5.6038626E-08
   42.48000     -5.5508373E-08
   42.54000     -5.4904039E-08
   42.60000     -5.4224305E-08
   42.66000     -5.3460031E-08
   42.72000     -5.2598779E-08
   42.78000     -5.1630199E-08
   42.84000     -5.0551126E-08
   42.90000     -4.9369341E-08
   42.96000     -4.8105147E-08
   43.02000     -4.6790198E-08
   43.08000     -4.5463487E-08
   43.14000     -4.4165105E-08
   43.20000     -4.2929216E-08
   43.26000     -4.1778151E-08
   43.32000     -4.0719517E-08
   43.38000     -3.9747217E-08
   43.44000     -3.8846036E-08
   43.50000     -3.7997960E-08
   43.56000     -3.7188101E-08
   43.62000     -3.6408171E-08
   43.68000     -3.5657067E-08
   43.74000     -3.4939319E-08
   43.80000     -3.4262968E-08
   43.86000     -3.3638404E-08
   43.92000     -3.3078365E-08
   43.98000     -3.2598351E-08
   44.04000     -3.2216001E-08
   44.10000     -3.1948495E-08
   44.16000     -3.1808380E-08
   44.22000     -3.1799427E-08
   44.28000     -3.1914549E-08
   44.34000     -3.2136985E-08
   44.40000     -3.2444330E-08
   44.46000     -3.2813414E-08
   44.52000     -3.3223660E-08
   44.58000     -3.3657500E-08
   44.64000     -3.4098242E-08
   44.70000     -3.4527350E-08
   44.76000     -3.4923467E-08
   44.82000     -3.5264527E-08
   44.88000     -3.5532302E-08
   44.94000     -3.5717431E-08
   45.00000     -3.5822442E-08
   45.06000     -3.5861540E-08
   45.12000     -3.5857230E-08
   45.18000     -3.5835292E-08
   45.24000     -3.5819561E-08
   45.30000     -3.5827558E-08
   45.36000     -3.5867039E-08
   45.42000     -3.5933493E-08
   45.48000     -3.6009087E-08
   45.54000     -3.6064257E-08
   45.60000     -3.6063170E-08
   45.66000     -3.5973283E-08
   45.72000     -3.5777393E-08
   45.78000     -3.5484991E-08
   45.84000     -3.5139216E-08
   45.90000     -3.4816718E-08
   45.96000     -3.4619898E-08
   46.02000     -3.4663472E-08
   46.08000     -3.5058811E-08
   46.14000     -3.5900204E-08
   46.20000     -3.7256520E-08
   46.26000     -3.9170477E-08
   46.32000     -4.1666009E-08
   46.38000     -4.4762583E-08
   46.44000     -4.8493426E-08
   46.50000     -5.2923561E-08
   46.56000     -5.8163270E-08
   46.62000     -6.4373623E-08
   46.68000     -7.1763175E-08
   46.74000     -8.0578062E-08
   46.80000     -9.1090037E-08
   46.86000     -1.0358821E-07
   46.92000     -1.1837896E-07
   46.98000     -1.3579597E-07
   47.04000     -1.5621879E-07
   47.10000     -1.8009554E-07
   47.16000     -2.0796439E-07
   47.22000     -2.4046918E-07
   47.28000     -2.7836671E-07
   47.34000     -3.2252652E-07
   47.40000     -3.7392650E-07
   47.46000     -4.3364975E-07
   47.52000     -5.0288736E-07
   47.58000     -5.8295086E-07
   47.64000     -6.7529385E-07
   47.70000     -7.8154136E-07
   47.76000     -9.0352120E-07
   47.82000     -1.0432927E-06
   47.88000     -1.2031695E-06
   47.94000     -1.3857334E-06
   48.00000     -1.5938432E-06
   48.06000     -1.8306387E-06
   48.12000     -2.0995478E-06
   48.18000     -2.4042961E-06
   48.24000     -2.7489248E-06
   48.30000     -3.1378156E-06
   48.36000     -3.5757184E-06
   48.42000     -4.0677814E-06
   48.48000     -4.6195796E-06
   48.54000     -5.2371342E-06
   48.60000     -5.9269319E-06
   48.66000     -6.6959274E-06
   48.72000     -7.5515431E-06
   48.78000     -8.5016609E-06
   48.84000     -9.5546102E-06
   48.90000     -1.0719153E-05
   48.96000     -1.2004471E-05
   49.02000     -1.3420151E-05
   49.08000     -1.4976174E-05
   49.14000     -1.6682885E-05
   49.20000     -1.8550965E-05
   49.26000     -2.0591393E-05
   49.32000     -2.2815400E-05
   49.38000     -2.5234418E-05
   49.44000     -2.7860011E-05
   49.50000     -3.0703810E-05
   49.56000     -3.3777429E-05
   49.62000     -3.7092377E-05
   49.68000     -4.0659954E-05
   49.74000     -4.4491175E-05
   49.80000     -4.8596634E-05
   49.86000     -5.2986397E-05
   49.92000     -5.7669888E-05
   49.98000     -6.2655759E-05
   50.04000     -6.7951762E-05
   50.10000     -7.3564646E-05
   50.16000     -7.9500031E-05
   50.22000     -8.5762273E-05
   50.28000     -9.2354363E-05
   50.34000     -9.9277771E-05
   50.40000     -1.0653237E-04
   50.46000     -1.1411632E-04
   50.52000     -1.2202589E-04
   50.58000     -1.3025552E-04
   50.64000     -1.3879761E-04
   50.70000     -1.4764255E-04
   50.76000     -1.5677865E-04
   50.82000     -1.6619210E-04
   50.88000     -1.7586695E-04
   50.94000     -1.8578513E-04
   51.00000     -1.9592652E-04
   51.06000     -2.0626892E-04
   51.12000     -2.1678831E-04
   51.18000     -2.2745879E-04
   51.24000     -2.3825286E-04
   51.30000     -2.4914142E-04
   51.36000     -2.6009406E-04
   51.42000     -2.7107919E-04
   51.48000     -2.8206420E-04
   51.54000     -2.9301579E-04
   51.60000     -3.0390028E-04
   51.66000     -3.1468365E-04
   51.72000     -3.2533219E-04
   51.78000     -3.3581242E-04
   51.84000     -3.4609166E-04
   51.90000     -3.5613822E-04
   51.96000     -3.6592165E-04
   52.02000     -3.7541316E-04
   52.08000     -3.8458573E-04
   52.14000     -3.9341435E-04
   52.20000     -4.0187649E-04
   52.26000     -4.0995225E-04
   52.32000     -4.1762475E-04
   52.38000     -4.2488007E-04
   52.44000     -4.3170759E-04
   52.50000     -4.3809996E-04
   52.56000     -4.4405321E-04
   52.62000     -4.4956690E-04
   52.68000     -4.5464409E-04
   52.74000     -4.5929127E-04
   52.80000     -4.6351837E-04
   52.86000     -4.6733851E-04
   52.92000     -4.7076796E-04
   52.98000     -4.7382599E-04
   53.04000     -4.7653477E-04
   53.10000     -4.7891913E-04
   53.16000     -4.8100614E-04
   53.22000     -4.8282466E-04
   53.28000     -4.8440494E-04
   53.34000     -4.8577835E-04
   53.40000     -4.8697690E-04
   53.46000     -4.8803326E-04
   53.52000     -4.8898009E-04
   53.58000     -4.8984977E-04
   53.64000     -4.9067358E-04
   53.70000     -4.9148174E-04
   53.76000     -4.9230247E-04
   53.82000     -4.9316208E-04
   53.88000     -4.9408438E-04
   53.94000     -4.9509050E-04
   54.00000     -4.9619895E-04
   54.06000     -4.9742474E-04
   54.12000     -4.9877982E-04
   54.18000     -5.0027255E-04
   54.24000     -5.0190731E-04
   54.30000     -5.0368527E-04
   54.36000     -5.0560338E-04
   54.42000     -5.0765520E-04
   54.48000     -5.0983054E-04
   54.54000     -5.1211583E-04
   54.60000     -5.1449426E-04
   54.66000     -5.1694585E-04
   54.72000     -5.1944784E-04
   54.78000     -5.2197499E-04
   54.84000     -5.2450015E-04
   54.90000     -5.2699447E-04
   54.96000     -5.2942825E-04
   55.02000     -5.3177081E-04
   55.08000     -5.3399114E-04
   55.14000     -5.3605798E-04
   55.20000     -5.3794053E-04
   55.26000     -5.3960888E-04
   55.32000     -5.4103433E-04
   55.38000     -5.4219039E-04
   55.44000     -5.4305291E-04
   55.50000     -5.4360018E-04
   55.56000     -5.4381351E-04