  -2.400000      0.0000000E+00
  -2.340000      0.0000000E+00
  -2.280000      0.0000000E+00
  -2.220000      0.0000000E+00
  -2.160000      0.0000000E+00
  -2.100000      0.0000000E+00
  -2.040000     -5.9931987E-22
  -1.980000     -4.6509664E-21
  -1.920000     -1.6241623E-20
  -1.860000     -2.7252751E-20
  -1.800000      1.1957372E-20
  -1.740000      2.0764917E-19
  -1.680000      6.4700894E-19
  -1.620000      1.1600430E-18
  -1.560000      9.8557805E-19
  -1.500000     -1.3194969E-18
  -1.440000     -7.1646795E-18
  -1.380000     -1.6021163E-17
  -1.320000     -2.2829470E-17
  -1.260000     -1.6658198E-17
  -1.200000      1.6356597E-17
  -1.140000      8.3482250E-17
  -1.080000      1.7063071E-16
  -1.020000      2.2983082E-16
 -0.9600000      1.8182326E-16
 -0.9000000     -5.3698044E-17
 -0.8400000     -4.9839911E-16
 -0.7800000     -1.0454676E-15
 -0.7200000     -1.4225250E-15
 -0.6600000     -1.2407703E-15
 -0.6000000     -1.6384686E-16
 -0.5400000      1.8290658E-15
 -0.4800000      4.1963232E-15
 -0.4200000      5.7830709E-15
 -0.3600000      5.1407806E-15
 -0.3000000      1.2593163E-15
 -0.2400000     -5.5003482E-15
 -0.1800000     -1.2766545E-14
 -0.1200000     -1.6432890E-14
 -5.9999999E-02 -1.2252452E-14
  0.0000000E+00  1.4899018E-15
  5.9999999E-02  2.1351229E-14
  0.1200000      3.7930257E-14
  0.1800000      3.8504962E-14
  0.2400000      1.3359535E-14
  0.3000000     -3.6246569E-14
  0.3600000     -9.2712987E-14
  0.4200000     -1.2415787E-13
  0.4800000     -9.6473597E-14
  0.5400000      7.0534848E-15
  0.6000000      1.6684545E-13
  0.6600000      3.2055676E-13
  0.7200000      3.7852100E-13
  0.7800000      2.6181439E-13
  0.8400000     -4.9165977E-14
  0.9000000     -4.7852033E-13
  0.9600000     -8.5585738E-13
   1.020000     -9.6805701E-13
   1.080000     -6.5282100E-13
   1.140000      1.0014511E-13
   1.200000      1.0896875E-12
   1.260000      1.9291420E-12
   1.320000      2.1716014E-12
   1.380000      1.5032376E-12
   1.440000     -6.8822376E-14
   1.500000     -2.1251139E-12
   1.560000     -3.9079889E-12
   1.620000     -4.5696355E-12
   1.680000     -3.5226962E-12
   1.740000     -7.5748235E-13
   1.800000      3.0256153E-12
   1.860000      6.5672255E-12
   1.920000      8.4715039E-12
   1.980000      7.7597477E-12
   2.040000      4.3277291E-12
   2.100000     -9.1524704E-13
   2.160000     -6.3334602E-12
   2.220000     -1.0198319E-11
   2.280000     -1.1407863E-11
   2.340000     -9.9515656E-12
   2.400000     -6.8606245E-12
   2.460000     -3.6136966E-12
   2.520000     -1.2533275E-12
   2.580000      3.3237936E-13
   2.640000      2.5176480E-12
   2.700000      7.2437611E-12
   2.760000      1.5733899E-11
   2.820000      2.7203179E-11
   2.880000      3.8283491E-11
   2.940000      4.3666931E-11
   3.000000      3.7956371E-11
   3.060000      1.8109960E-11
   3.120000     -1.4534205E-11
   3.180000     -5.3641456E-11
   3.240000     -8.9167042E-11
   3.300000     -1.1026233E-10
   3.360000     -1.0879070E-10
   3.420000     -8.2108313E-11
   3.480000     -3.4001267E-11
   3.540000      2.6597431E-11
   3.600000      8.8567646E-11
   3.660000      1.4199004E-10
   3.720000      1.8053792E-10
   3.780000      2.0188687E-10
   3.840000      2.0601591E-10
   3.900000      1.9218728E-10
   3.960000      1.5596149E-10
   4.020000      8.7599053E-11
   4.080000     -2.7370949E-11
   4.140000     -2.0551406E-10
   4.200000     -4.6169943E-10
   4.260000     -8.0548490E-10
   4.320000     -1.2388657E-09
   4.380000     -1.7559547E-09
   4.440000     -2.3443381E-09
   4.500000     -2.9871767E-09
   4.560000     -3.6648997E-09
   4.620000     -4.3556465E-09
   4.680000     -5.0343711E-09
   4.740000     -5.6713736E-09
   4.800000     -6.2316023E-09
   4.860000     -6.6760903E-09
   4.920000     -6.9661987E-09
   4.980000     -7.0702195E-09
   5.040000     -6.9706840E-09
   5.100000     -6.6700165E-09
   5.160000     -6.1923258E-09
   5.220000     -5.5802194E-09
   5.280000     -4.8872355E-09
   5.340000     -4.1681774E-09
   5.400000     -3.4705374E-09
   5.460000     -2.8298452E-09
   5.520000     -2.2701936E-09
   5.580000     -1.8089120E-09
   5.640000     -1.4624081E-09
   5.700000     -1.2494732E-09
   5.760000     -1.1893558E-09
   5.820000     -1.2943538E-09
   5.880000     -1.5595887E-09
   5.940000     -1.9546575E-09
   6.000000     -2.4219791E-09
   6.060000     -2.8845488E-09
   6.120000     -3.2622267E-09
   6.180000     -3.4919978E-09
   6.240000     -3.5455268E-09
   6.300000     -3.4376892E-09
   6.360000     -3.2226897E-09
   6.420000     -2.9786866E-09
   6.480000     -2.7858680E-09
   6.540000     -2.7050557E-09
   6.600000     -2.7633698E-09
   6.660000     -2.9505629E-09
   6.720000     -3.2256740E-09
   6.780000     -3.5302226E-09
   6.840000     -3.8026244E-09
   6.900000     -3.9891979E-09
   6.960000     -4.0494972E-09
   7.020000     -3.9565058E-09
   7.080000     -3.6941374E-09
   7.140000     -3.2548675E-09
   7.200000     -2.6391631E-09
   7.260000     -1.8565517E-09
   7.320000     -9.2668906E-10
   7.380000      1.2157685E-10
   7.440000      1.2542463E-09
   7.500000      2.4387556E-09
   7.560000      3.6510097E-09
   7.620000      4.8800928E-09
   7.680000      6.1285061E-09
   7.740000      7.4074014E-09
   7.800000      8.7282945E-09
   7.860000      1.0094320E-08
   7.920000      1.1494575E-08
   7.980000      1.2904207E-08
   8.040000      1.4290897E-08
   8.100000      1.5625867E-08
   8.160000      1.6895433E-08
   8.220000      1.8108357E-08
   8.280000      1.9295234E-08
   8.340000      2.0498840E-08
   8.400000      2.1757929E-08
   8.460000      2.3089875E-08
   8.520000      2.4478709E-08
   8.580000      2.5873616E-08
   8.640000      2.7199311E-08
   8.700000      2.8375259E-08
   8.760000      2.9337306E-08
   8.820000      3.0054355E-08
   8.880000      3.0534768E-08
   8.940000      3.0821070E-08
   9.000000      3.0975908E-08
   9.060000      3.1064765E-08
   9.120000      3.1141258E-08
   9.180000      3.1238748E-08
   9.240000      3.1368973E-08
   9.300000      3.1525843E-08
   9.360000      3.1691510E-08
   9.420000      3.1842262E-08
   9.480000      3.1953480E-08
   9.540000      3.2003843E-08
   9.600000      3.1979702E-08
   9.660000      3.1879434E-08
   9.720000      3.1716819E-08
   9.780000      3.1521502E-08
   9.840000      3.1335006E-08
   9.900000      3.1202262E-08
   9.960000      3.1160436E-08
   10.02000      3.1228424E-08
   10.08000      3.1400678E-08
   10.14000      3.1647652E-08
   10.20000      3.1923051E-08
   10.26000      3.2175556E-08
   10.32000      3.2361186E-08
   10.38000      3.2452625E-08
   10.44000      3.2443033E-08
   10.50000      3.2344051E-08
   10.56000      3.2179567E-08
   10.62000      3.1977720E-08
   10.68000      3.1763747E-08
   10.74000      3.1555363E-08
   10.80000      3.1361392E-08
   10.86000      3.1183522E-08
   10.92000      3.1020349E-08
   10.98000      3.0872457E-08
   11.04000      3.0746957E-08
   11.10000      3.0659731E-08
   11.16000      3.0634236E-08
   11.22000      3.0696498E-08
   11.28000      3.0867504E-08
   11.34000      3.1155420E-08
   11.40000      3.1550353E-08
   11.46000      3.2023969E-08
   11.52000      3.2534412E-08
   11.58000      3.3035157E-08
   11.64000      3.3485087E-08
   11.70000      3.3856740E-08
   11.76000      3.4140328E-08
   11.82000      3.4342722E-08
   11.88000      3.4481829E-08
   11.94000      3.4578104E-08
   12.00000      3.4645350E-08
   12.06000      3.4683278E-08
   12.12000      3.4674034E-08
   12.18000      3.4584147E-08
   12.24000      3.4372128E-08
   12.30000      3.4000070E-08
   12.36000      3.3445829E-08
   12.42000      3.2711451E-08
   12.48000      3.1824044E-08
   12.54000      3.0827675E-08
   12.60000      2.9768316E-08
   12.66000      2.8676915E-08
   12.72000      2.7557165E-08
   12.78000      2.6383191E-08
   12.84000      2.5108852E-08
   12.90000      2.3685594E-08
   12.96000      2.2082324E-08
   13.02000      2.0299625E-08
   13.08000      1.8372919E-08
   13.14000      1.6363508E-08
   13.20000      1.4341260E-08
   13.26000      1.2365627E-08
   13.32000      1.0471774E-08
   13.38000      8.6658458E-09
   13.44000      6.9293691E-09
   13.50000      5.2293778E-09
   13.56000      3.5295005E-09
   13.62000      1.7982232E-09
   13.68000      1.2934382E-11
   13.74000     -1.8393372E-09
   13.80000     -3.7625130E-09
   13.86000     -5.7518363E-09
   13.92000     -7.7937816E-09
   13.98000     -9.8663540E-09
   14.04000     -1.1940868E-08
   14.10000     -1.3985574E-08
   14.16000     -1.5970482E-08
   14.22000     -1.7871990E-08
   14.28000     -1.9676035E-08
   14.34000     -2.1378945E-08
   14.40000     -2.2985978E-08
   14.46000     -2.4507882E-08
   14.52000     -2.5956167E-08
   14.58000     -2.7337951E-08
   14.64000     -2.8651588E-08
   14.70000     -2.9884486E-08
   14.76000     -3.1014171E-08
   14.82000     -3.2012689E-08
   14.88000     -3.2852991E-08
   14.94000     -3.3514933E-08
   15.00000     -3.3988631E-08
   15.06000     -3.4274244E-08
   15.12000     -3.4379049E-08
   15.18000     -3.4313917E-08
   15.24000     -3.4091126E-08
   15.30000     -3.3723840E-08
   15.36000     -3.3226069E-08
   15.42000     -3.2611283E-08
   15.48000     -3.1888987E-08
   15.54000     -3.1060832E-08
   15.60000     -3.0119100E-08
   15.66000     -2.9050179E-08
   15.72000     -2.7842905E-08
   15.78000     -2.6498538E-08
   15.84000     -2.5037370E-08
   15.90000     -2.3497927E-08
   15.96000     -2.1928470E-08
   16.02000     -2.0374573E-08
   16.08000     -1.8868857E-08
   16.14000     -1.7427881E-08
   16.20000     -1.6057257E-08
   16.26000     -1.4761538E-08
   16.32000     -1.3552915E-08
   16.38000     -1.2453618E-08
   16.44000     -1.1490565E-08
   16.50000     -1.0685379E-08
   16.56000     -1.0045425E-08
   16.62000     -9.5611750E-09
   16.68000     -9.2118748E-09
   16.74000     -8.9771630E-09
   16.80000     -8.8491134E-09
   16.86000     -8.8386454E-09
   16.92000     -8.9726271E-09
   16.98000     -9.2820374E-09
   17.04000     -9.7855590E-09
   17.10000     -1.0475072E-08
   17.16000     -1.1309010E-08
   17.22000     -1.2216492E-08
   17.28000     -1.3111095E-08
   17.34000     -1.3909609E-08
   17.40000     -1.4549780E-08
   17.46000     -1.5002181E-08
   17.52000     -1.5274207E-08
   17.58000     -1.5407188E-08
   17.64000     -1.5469308E-08
   17.70000     -1.5546766E-08
   17.76000     -1.5734102E-08
   17.82000     -1.6123311E-08
   17.88000     -1.6791274E-08
   17.94000     -1.7786643E-08
   18.00000     -1.9119112E-08
   18.06000     -2.0754907E-08
   18.12000     -2.2621029E-08
   18.18000     -2.4617732E-08
   18.24000     -2.6635583E-08
   18.30000     -2.8571597E-08
   18.36000     -3.0339937E-08
   18.42000     -3.1875377E-08
   18.48000     -3.3131066E-08
   18.54000     -3.4074176E-08
   18.60000     -3.4682884E-08
   18.66000     -3.4946328E-08
   18.72000     -3.4867139E-08
   18.78000     -3.4464442E-08
   18.84000     -3.3775304E-08
   18.90000     -3.2853301E-08
   18.96000     -3.1763921E-08
   19.02000     -3.0577411E-08
   19.08000     -2.9359960E-08
   19.14000     -2.8164504E-08
   19.20000     -2.7022770E-08
   19.26000     -2.5940439E-08
   19.32000     -2.4897243E-08
   19.38000     -2.3852616E-08
   19.44000     -2.2755911E-08
   19.50000     -2.1558437E-08
   19.56000     -2.0223828E-08
   19.62000     -1.8733992E-08
   19.68000     -1.7089810E-08
   19.74000     -1.5308087E-08
   19.80000     -1.3417542E-08
   19.86000     -1.1456324E-08
   19.92000     -9.4716146E-09
   19.98000     -7.5196009E-09
   20.04000     -5.6627716E-09
   20.10000     -3.9622261E-09
   20.16000     -2.4652644E-09
   20.22000     -1.1917238E-09
   20.28000     -1.2453864E-10
   20.34000      7.9052526E-10
   20.40000      1.6341253E-09
   20.46000      2.4940947E-09
   20.52000      3.4437146E-09
   20.58000      4.5244732E-09
   20.64000      5.7383200E-09
   20.70000      7.0506423E-09
   20.76000      8.4015293E-09
   20.82000      9.7209369E-09
   20.88000      1.0943570E-08
   20.94000      1.2020834E-08
   21.00000      1.2928782E-08
   21.06000      1.3671717E-08
   21.12000      1.4281021E-08
   21.18000      1.4808910E-08
   21.24000      1.5317635E-08
   21.30000      1.5866311E-08
   21.36000      1.6498978E-08
   21.42000      1.7237547E-08
   21.48000      1.8081479E-08
   21.54000      1.9013202E-08
   21.60000      2.0005954E-08
   21.66000      2.1030360E-08
   21.72000      2.2057728E-08
   21.78000      2.3060904E-08
   21.84000      2.4015144E-08
   21.90000      2.4901293E-08
   21.96000      2.5711159E-08
   22.02000      2.6452373E-08
   22.08000      2.7149001E-08
   22.14000      2.7835693E-08
   22.20000      2.8546575E-08
   22.26000      2.9303374E-08
   22.32000      3.0108229E-08
   22.38000      3.0944644E-08
   22.44000      3.1785913E-08
   22.50000      3.2606465E-08
   22.56000      3.3390275E-08
   22.62000      3.4132242E-08
   22.68000      3.4832528E-08
   22.74000      3.5487780E-08
   22.80000      3.6084582E-08
   22.86000      3.6598845E-08
   22.92000      3.7001172E-08
   22.98000      3.7264691E-08
   23.04000      3.7370555E-08
   23.10000      3.7308155E-08
   23.16000      3.7070702E-08
   23.22000      3.6649858E-08
   23.28000      3.6033956E-08
   23.34000      3.5211865E-08
   23.40000      3.4180601E-08
   23.46000      3.2951743E-08
   23.52000      3.1551458E-08
   23.58000      3.0012199E-08
   23.64000      2.8358849E-08
   23.70000      2.6595819E-08
   23.76000      2.4701860E-08
   23.82000      2.2635826E-08
   23.88000      2.0351095E-08
   23.94000      1.7812004E-08
   24.00000      1.5004719E-08
   24.06000      1.1938196E-08
   24.12000      8.6361114E-09
   24.18000      5.1252611E-09
   24.24000      1.4270312E-09
   24.30000     -2.4439264E-09
   24.36000     -6.4743104E-09
   24.42000     -1.0644447E-08
   24.48000     -1.4923549E-08
   24.54000     -1.9270978E-08
   24.60000     -2.3642727E-08
   24.66000     -2.7999253E-08
   24.72000     -3.2310517E-08
   24.78000     -3.6556347E-08
   24.84000     -4.0723396E-08
   24.90000     -4.4802057E-08
   24.96000     -4.8785907E-08
   25.02000     -5.2673837E-08
   25.08000     -5.6472103E-08
   25.14000     -6.0192924E-08
   25.20000     -6.3848027E-08
   25.26000     -6.7439146E-08
   25.32000     -7.0950328E-08
   25.38000     -7.4346893E-08
   25.44000     -7.7582918E-08
   25.50000     -8.0614200E-08
   25.56000     -8.3410654E-08
   25.62000     -8.5961830E-08
   25.68000     -8.8272976E-08
   25.74000     -9.0354128E-08
   25.80000     -9.2208516E-08
   25.86000     -9.3826522E-08
   25.92000     -9.5187836E-08
   25.98000     -9.6269908E-08
   26.04000     -9.7057281E-08
   26.10000     -9.7546547E-08
   26.16000     -9.7745037E-08
   26.22000     -9.7665207E-08
   26.28000     -9.7318839E-08
   26.34000     -9.6714842E-08
   26.40000     -9.5861004E-08
   26.46000     -9.4767699E-08
   26.52000     -9.3450261E-08
   26.58000     -9.1928321E-08
   26.64000     -9.0223075E-08
   26.70000     -8.8354973E-08
   26.76000     -8.6344016E-08
   26.82000     -8.4212154E-08
   26.88000     -8.1985078E-08
   26.94000     -7.9690153E-08
   27.00000     -7.7349434E-08
   27.06000     -7.4970330E-08
   27.12000     -7.2539436E-08
   27.18000     -7.0024733E-08
   27.24000     -6.7387703E-08
   27.30000     -6.4601700E-08
   27.36000     -6.1668644E-08
   27.42000     -5.8626291E-08
   27.48000     -5.5542085E-08
   27.54000     -5.2496212E-08
   27.60000     -4.9561628E-08
   27.66000     -4.6790014E-08
   27.72000     -4.4209205E-08
   27.78000     -4.1831342E-08
   27.84000     -3.9665608E-08
   27.90000     -3.7727844E-08
   27.96000     -3.6042188E-08
   28.02000     -3.4635210E-08
   28.08000     -3.3527506E-08
   28.14000     -3.2728398E-08
   28.20000     -3.2236485E-08
   28.26000     -3.2044042E-08
   28.32000     -3.2140587E-08
   28.38000     -3.2511913E-08
   28.44000     -3.3135052E-08
   28.50000     -3.3974093E-08
   28.56000     -3.4982740E-08
   28.62000     -3.6116099E-08
   28.68000     -3.7347771E-08
   28.74000     -3.8683314E-08
   28.80000     -4.0160884E-08
   28.86000     -4.1835357E-08
   28.92000     -4.3750997E-08
   28.98000     -4.5914366E-08
   29.04000     -4.8280334E-08
   29.10000     -5.0758292E-08
   29.16000     -5.3236317E-08
   29.22000     -5.5613025E-08
   29.28000     -5.7824035E-08
   29.34000     -5.9853477E-08
   29.40000     -6.1728493E-08
   29.46000     -6.3501510E-08
   29.52000     -6.5228612E-08
   29.58000     -6.6951245E-08
   29.64000     -6.8685182E-08
   29.70000     -7.0416924E-08
   29.76000     -7.2106715E-08
   29.82000     -7.3696697E-08
   29.88000     -7.5123715E-08
   29.94000     -7.6334707E-08
   30.00000     -7.7300712E-08
   30.06000     -7.8024328E-08
   30.12000     -7.8535813E-08
   30.18000     -7.8877520E-08
   30.24000     -7.9081502E-08
   30.30000     -7.9149672E-08
   30.36000     -7.9045812E-08
   30.42000     -7.8704247E-08
   30.48000     -7.8052729E-08
   30.54000     -7.7040355E-08
   30.60000     -7.5659088E-08
   30.66000     -7.3950126E-08
   30.72000     -7.1993007E-08
   30.78000     -6.9882454E-08
   30.84000     -6.7701784E-08
   30.90000     -6.5501879E-08
   30.96000     -6.3291182E-08
   31.02000     -6.1037859E-08
   31.08000     -5.8681866E-08
   31.14000     -5.6153446E-08
   31.20000     -5.3393890E-08
   31.26000     -5.0374386E-08
   31.32000     -4.7108280E-08
   31.38000     -4.3652030E-08
   31.44000     -4.0092193E-08
   31.50000     -3.6520280E-08
   31.56000     -3.3002831E-08
   31.62000     -2.9558120E-08
   31.68000     -2.6150252E-08
   31.74000     -2.2705578E-08
   31.80000     -1.9146929E-08
   31.86000     -1.5432658E-08
   31.92000     -1.1584270E-08
   31.98000     -7.6904687E-09
   32.04000     -3.8852677E-09
   32.10000     -3.0876235E-10
   32.16000      2.9339464E-09
   32.22000      5.8003820E-09
   32.28000      8.3162091E-09
   32.34000      1.0559384E-08
   32.40000      1.2631230E-08
   32.46000      1.4625452E-08
   32.52000      1.6604019E-08
   32.58000      1.8584270E-08
   32.64000      2.0537648E-08
   32.70000      2.2398583E-08
   32.76000      2.4081652E-08
   32.82000      2.5504761E-08
   32.88000      2.6614005E-08
   32.94000      2.7403255E-08
   33.00000      2.7920079E-08
   33.06000      2.8252330E-08
   33.12000      2.8496450E-08
   33.18000      2.8717270E-08
   33.24000      2.8915114E-08
   33.30000      2.9015380E-08
   33.36000      2.8887701E-08
   33.42000      2.8389215E-08
   33.48000      2.7415432E-08
   33.54000      2.5938299E-08
   33.60000      2.4016362E-08
   33.66000      2.1774163E-08
   33.72000      1.9360826E-08
   33.78000      1.6905457E-08
   33.84000      1.4485932E-08
   33.90000      1.2119715E-08
   33.96000      9.7750004E-09
   34.02000      7.3934170E-09
   34.08000      4.9140185E-09
   34.14000      2.2918383E-09
   34.20000     -4.9089438E-10
   34.26000     -3.4199612E-09
   34.32000     -6.4501067E-09
   34.38000     -9.5126635E-09
   34.44000     -1.2530874E-08
   34.50000     -1.5441042E-08
   34.56000     -1.8212939E-08
   34.62000     -2.0859966E-08
   34.68000     -2.3431484E-08
   34.74000     -2.5987152E-08
   34.80000     -2.8562557E-08
   34.86000     -3.1141724E-08
   34.92000     -3.3650817E-08
   34.98000     -3.5978253E-08
   35.04000     -3.8013781E-08
   35.10000     -3.9689557E-08
   35.16000     -4.1004949E-08
   35.22000     -4.2024634E-08
   35.28000     -4.2852225E-08
   35.34000     -4.3592312E-08
   35.40000     -4.4317435E-08
   35.46000     -4.5051696E-08
   35.52000     -4.5773490E-08
   35.58000     -4.6431381E-08
   35.64000     -4.6964022E-08
   35.70000     -4.7317297E-08
   35.76000     -4.7456613E-08
   35.82000     -4.7375369E-08
   35.88000     -4.7100187E-08
   35.94000     -4.6690868E-08
   36.00000     -4.6231325E-08
   36.06000     -4.5810136E-08
   36.12000     -4.5495014E-08
   36.18000     -4.5311197E-08
   36.24000     -4.5234870E-08
   36.30000     -4.5207287E-08
   36.36000     -4.5165006E-08
   36.42000     -4.5072603E-08
   36.48000     -4.4941533E-08
   36.54000     -4.4825047E-08
   36.60000     -4.4791086E-08
   36.66000     -4.4886587E-08
   36.72000     -4.5110806E-08
   36.78000     -4.5410413E-08
   36.84000     -4.5697465E-08
   36.90000     -4.5880199E-08
   36.96000     -4.5891316E-08
   37.02000     -4.5701857E-08
   37.08000     -4.5317631E-08
   37.14000     -4.4764075E-08
   37.20000     -4.4069388E-08
   37.26000     -4.3253387E-08
   37.32000     -4.2323869E-08
   37.38000     -4.1277207E-08
   37.44000     -4.0099209E-08
   37.50000     -3.8765240E-08
   37.56000     -3.7242327E-08
   37.62000     -3.5496900E-08
   37.68000     -3.3508524E-08
   37.74000     -3.1284685E-08
   37.80000     -2.8867989E-08
   37.86000     -2.6328838E-08
   37.92000     -2.3743265E-08
   37.98000     -2.1164295E-08
   38.04000     -1.8600193E-08
   38.10000     -1.6011272E-08
   38.16000     -1.3328480E-08
   38.22000     -1.0486164E-08
   38.28000     -7.4541386E-09
   38.34000     -4.2544070E-09
   38.40000     -9.5573327E-10
   38.46000      2.3497828E-09
   38.52000      5.5757186E-09
   38.58000      8.6623508E-09
   38.64000      1.1582070E-08
   38.70000      1.4330744E-08
   38.76000      1.6913436E-08
   38.82000      1.9333839E-08
   38.88000      2.1591825E-08
   38.94000      2.3686784E-08
   39.00000      2.5620446E-08
   39.06000      2.7394295E-08
   39.12000      2.9002232E-08
   39.18000      3.0424456E-08
   39.24000      3.1629458E-08
   39.30000      3.2586403E-08
   39.36000      3.3282504E-08
   39.42000      3.3735038E-08
   39.48000      3.3988652E-08
   39.54000      3.4096473E-08
   39.60000      3.4093294E-08
   39.66000      3.3975017E-08
   39.72000      3.3696306E-08
   39.78000      3.3188844E-08
   39.84000      3.2391156E-08
   39.90000      3.1274297E-08
   39.96000      2.9850064E-08
   40.02000      2.8158494E-08
   40.08000      2.6243123E-08
   40.14000      2.4129145E-08
   40.20000      2.1816968E-08
   40.26000      1.9293962E-08
   40.32000      1.6556006E-08
   40.38000      1.3624796E-08
   40.44000      1.0549945E-08
   40.50000      7.3944353E-09
   40.56000      4.2121031E-09
   40.62000      1.0303757E-09
   40.68000     -2.1520830E-09
   40.74000     -5.3522919E-09
   40.80000     -8.5828766E-09
   40.86000     -1.1836820E-08
   40.92000     -1.5085041E-08
   40.98000     -1.8286478E-08
   41.04000     -2.1403027E-08
   41.10000     -2.4409678E-08
   41.16000     -2.7294410E-08
   41.22000     -3.0049712E-08
   41.28000     -3.2662943E-08
   41.34000     -3.5112862E-08
   41.40000     -3.7374715E-08
   41.46000     -3.9429622E-08
   41.52000     -4.1270667E-08
   41.58000     -4.2900165E-08
   41.64000     -4.4318792E-08
   41.70000     -4.5513637E-08
   41.76000     -4.6454176E-08
   41.82000     -4.7101032E-08
   41.88000     -4.7424557E-08
   41.94000     -4.7423374E-08
   42.00000     -4.7131870E-08
   42.06000     -4.6610911E-08
   42.12000     -4.5925422E-08
   42.18000     -4.5120046E-08
   42.24000     -4.4205784E-08
   42.30000     -4.3164679E-08
   42.36000     -4.1970068E-08
   42.42000     -4.0611614E-08
   42.48000     -3.9112049E-08
   42.54000     -3.7527677E-08
   42.60000     -3.5933382E-08
   42.66000     -3.4400955E-08
   42.72000     -3.2981763E-08
   42.78000     -3.1700868E-08
   42.84000     -3.0562450E-08
   42.90000     -2.9560260E-08
   42.96000     -2.8685713E-08
   43.02000     -2.7929911E-08
   43.08000     -2.7281651E-08
   43.14000     -2.6726864E-08
   43.20000     -2.6253508E-08
   43.26000     -2.5860842E-08
   43.32000     -2.5566761E-08
   43.38000     -2.5405786E-08
   43.44000     -2.5414868E-08
   43.50000     -2.5611827E-08
   43.56000     -2.5977346E-08
   43.62000     -2.6451570E-08
   43.68000     -2.6949513E-08
   43.74000     -2.7389486E-08
   43.80000     -2.7721264E-08
   43.86000     -2.7940454E-08
   43.92000     -2.8082713E-08
   43.98000     -2.8202212E-08
   44.04000     -2.8346291E-08
   44.10000     -2.8538748E-08
   44.16000     -2.8777579E-08
   44.22000     -2.9043919E-08
   44.28000     -2.9313291E-08
   44.34000     -2.9561445E-08
   44.40000     -2.9763386E-08
   44.46000     -2.9890934E-08
   44.52000     -2.9915963E-08
   44.58000     -2.9821820E-08
   44.64000     -2.9617681E-08
   44.70000     -2.9345141E-08
   44.76000     -2.9068536E-08
   44.82000     -2.8849145E-08
   44.88000     -2.8714467E-08
   44.94000     -2.8639322E-08
   45.00000     -2.8551568E-08
   45.06000     -2.8363052E-08
   45.12000     -2.8012222E-08
   45.18000     -2.7497453E-08
   45.24000     -2.6883601E-08
   45.30000     -2.6277597E-08
   45.36000     -2.5784622E-08
   45.42000     -2.5465853E-08
   45.48000     -2.5317316E-08
   45.54000     -2.5277776E-08
   45.60000     -2.5259228E-08
   45.66000     -2.5183937E-08
   45.72000     -2.5011886E-08
   45.78000     -2.4750690E-08
   45.84000     -2.4450422E-08
   45.90000     -2.4192177E-08
   45.96000     -2.4078334E-08
   46.02000     -2.4226461E-08
   46.08000     -2.4763125E-08
   46.14000     -2.5813023E-08
   46.20000     -2.7483845E-08
   46.26000     -2.9854160E-08
   46.32000     -3.2974587E-08
   46.38000     -3.6888387E-08
   46.44000     -4.1667370E-08
   46.50000     -4.7449074E-08
   46.56000     -5.4457768E-08
   46.62000     -6.2998701E-08
   46.68000     -7.3428232E-08
   46.74000     -8.6115925E-08
   46.80000     -1.0141926E-07
   46.86000     -1.1968586E-07
   46.92000     -1.4128391E-07
   46.98000     -1.6664796E-07
   47.04000     -1.9632179E-07
   47.10000     -2.3098374E-07
   47.16000     -2.7145251E-07
   47.22000     -3.1868095E-07
   47.28000     -3.7375119E-07
   47.34000     -4.3787912E-07
   47.40000     -5.1242847E-07
   47.46000     -5.9892847E-07
   47.52000     -6.9908759E-07
   47.58000     -8.1480357E-07
   47.64000     -9.4817591E-07
   47.70000     -1.1015318E-06
   47.76000     -1.2774696E-06
   47.82000     -1.4789149E-06
   47.88000     -1.7091759E-06
   47.94000     -1.9719796E-06
   48.00000     -2.2714828E-06
   48.06000     -2.6122586E-06
   48.12000     -2.9992798E-06
   48.18000     -3.4379150E-06
   48.24000     -3.9339561E-06
   48.30000     -4.4936705E-06
   48.36000     -5.1238690E-06
   48.42000     -5.8319670E-06
   48.48000     -6.6260209E-06
   48.54000     -7.5147418E-06
   48.60000     -8.5074917E-06
   48.66000     -9.6142667E-06
   48.72000     -1.0845700E-05
   48.78000     -1.2213050E-05
   48.84000     -1.3728199E-05
   48.90000     -1.5403648E-05
   48.96000     -1.7252494E-05
   49.02000     -1.9288424E-05
   49.08000     -2.1525693E-05
   49.14000     -2.3979132E-05
   49.20000     -2.6664116E-05
   49.26000     -2.9596511E-05
   49.32000     -3.2792595E-05
   49.38000     -3.6268928E-05
   49.44000     -4.0042225E-05
   49.50000     -4.4129218E-05
   49.56000     -4.8546553E-05
   49.62000     -5.3310716E-05
   49.68000     -5.8437920E-05
   49.74000     -6.3944019E-05
   49.80000     -6.9844355E-05
   49.86000     -7.6153628E-05
   49.92000     -8.2885657E-05
   49.98000     -9.0053254E-05
   50.04000     -9.7667995E-05
   50.10000     -1.0574002E-04
   50.16000     -1.1427789E-04
   50.22000     -1.2328845E-04
   50.28000     -1.3277653E-04
   50.34000     -1.4274496E-04
   50.40000     -1.5319430E-04
   50.46000     -1.6412277E-04
   50.52000     -1.7552616E-04
   50.58000     -1.8739775E-04
   50.64000     -1.9972815E-04
   50.70000     -2.1250529E-04
   50.76000     -2.2571420E-04
   50.82000     -2.3933710E-04
   50.88000     -2.5335321E-04
   50.94000     -2.6773897E-04
   51.00000     -2.8246801E-04
   51.06000     -2.9751137E-04
   51.12000     -3.1283754E-04
   51.18000     -3.2841260E-04
   51.24000     -3.4420050E-04
   51.30000     -3.6016325E-04
   51.36000     -3.7626107E-04
   51.42000     -3.9245258E-04
   51.48000     -4.0869534E-04
   51.54000     -4.2494581E-04
   51.60000     -4.4116008E-04
   51.66000     -4.5729399E-04
   51.72000     -4.7330378E-04
   51.78000     -4.8914627E-04
   51.84000     -5.0477940E-04
   51.90000     -5.2016252E-04
   51.96000     -5.3525640E-04
   52.02000     -5.5002439E-04
   52.08000     -5.6443206E-04
   52.14000     -5.7844806E-04
   52.20000     -5.9204450E-04
   52.26000     -6.0519692E-04
   52.32000     -6.1788451E-04
   52.38000     -6.3009042E-04
   52.44000     -6.4180186E-04
   52.50000     -6.5301085E-04
   52.56000     -6.6371390E-04
   52.62000     -6.7391217E-04
   52.68000     -6.8361132E-04
   52.74000     -6.9282122E-04
   52.80000     -7.0155627E-04
   52.86000     -7.0983480E-04
   52.92000     -7.1767933E-04
   52.98000     -7.2511652E-04
   53.04000     -7.3217601E-04
   53.10000     -7.3889107E-04
   53.16000     -7.4529723E-04
   53.22000     -7.5143250E-04
   53.28000     -7.5733673E-04
   53.34000     -7.6305139E-04
   53.40000     -7.6861848E-04
   53.46000     -7.7408057E-04
   53.52000     -7.7948021E-04
   53.58000     -7.8485894E-04
   53.64000     -7.9025736E-04
   53.70000     -7.9571398E-04
   53.76000     -8.0126512E-04
   53.82000     -8.0694491E-04
   53.88000     -8.1278424E-04
   53.94000     -8.1881083E-04
   54.00000     -8.2504837E-04
   54.06000     -8.3151658E-04
   54.12000     -8.3823100E-04
   54.18000     -8.4520248E-04
   54.24000     -8.5243728E-04
   54.30000     -8.5993699E-04
   54.36000     -8.6769863E-04
   54.42000     -8.7571470E-04
   54.48000     -8.8397315E-04
   54.54000     -8.9245761E-04
   54.60000     -9.0114737E-04
   54.66000     -9.1001793E-04
   54.72000     -9.1904117E-04
   54.78000     -9.2818623E-04
   54.84000     -9.3741959E-04
   54.90000     -9.4670535E-04
   54.96000     -9.5600565E-04
   55.02000     -9.6528104E-04
   55.08000     -9.7449136E-04
   55.14000     -9.8359585E-04
   55.20000     -9.9255436E-04
   55.26000     -1.0013274E-03
   55.32000     -1.0098767E-03
   55.38000     -1.0181656E-03
   55.44000     -1.0261589E-03
   55.50000     -1.0338236E-03
   55.56000     -1.0411292E-03