  -2.400000      0.0000000E+00
  -2.340000      0.0000000E+00
  -2.280000      0.0000000E+00
  -2.220000      0.0000000E+00
  -2.160000      0.0000000E+00
  -2.100000      0.0000000E+00
  -2.040000      0.0000000E+00
  -1.980000      0.0000000E+00
  -1.920000      1.4302204E-25
  -1.860000      4.4768655E-25
  -1.800000     -5.7939984E-24
  -1.740000     -5.9745504E-23
  -1.680000     -2.8516330E-22
  -1.620000     -8.6307633E-22
  -1.560000     -1.6815302E-21
  -1.500000     -1.4288994E-21
  -1.440000      3.4404013E-21
  -1.380000      1.7977863E-20
  -1.320000      4.3203414E-20
  -1.260000      6.4601223E-20
  -1.200000      4.0975157E-20
  -1.140000     -8.8995916E-20
  -1.080000     -3.6118704E-19
  -1.020000     -6.9925723E-19
 -0.9600000     -8.3381667E-19
 -0.9000000     -3.3168800E-19
 -0.8400000      1.1553643E-18
 -0.7800000      3.4269667E-18
 -0.7200000      5.2987953E-18
 -0.6600000      4.6759453E-18
 -0.6000000     -4.0215789E-19
 -0.5400000     -9.7883500E-18
 -0.4800000     -1.9319688E-17
 -0.4200000     -2.0840834E-17
 -0.3600000     -5.9139274E-18
 -0.3000000      2.6864252E-17
 -0.2400000      6.4329995E-17
 -0.1800000      7.7418825E-17
 -0.1200000      3.2305119E-17
 -5.9999999E-02 -8.5279727E-17
  0.0000000E+00 -2.4216865E-16
  5.9999999E-02 -3.4593874E-16
  0.1200000     -2.7020404E-16
  0.1800000      7.5891651E-17
  0.2400000      6.5547221E-16
  0.3000000      1.2412556E-15
  0.3600000      1.4460927E-15
  0.4200000      8.8283798E-16
  0.4800000     -5.7940293E-16
  0.5400000     -2.5805240E-15
  0.6000000     -4.2243134E-15
  0.6600000     -4.3542656E-15
  0.7200000     -2.1381420E-15
  0.7800000      2.2579666E-15
  0.8400000      7.2901796E-15
  0.9000000      1.0331252E-14
  0.9600000      8.7687451E-15
   1.020000      1.5922352E-15
   1.080000     -9.2891562E-15
   1.140000     -1.8922079E-14
   1.200000     -2.0965011E-14
   1.260000     -1.0878429E-14
   1.320000      1.0622359E-14
   1.380000      3.5791513E-14
   1.440000      5.1464604E-14
   1.500000      4.4438167E-14
   1.560000      8.9453295E-15
   1.620000     -4.7269480E-14
   1.680000     -1.0222491E-13
   1.740000     -1.2661219E-13
   1.800000     -9.7093625E-14
   1.860000     -1.0750278E-14
   1.920000      1.0688890E-13
   1.980000      2.0662141E-13
   2.040000      2.3443126E-13
   2.100000      1.5838162E-13
   2.160000     -8.6407127E-15
   2.220000     -2.0368452E-13
   2.280000     -3.3355827E-13
   2.340000     -3.1581411E-13
   2.400000     -1.2462979E-13
   2.460000      1.8142756E-13
   2.520000      4.6886930E-13
   2.580000      5.8005093E-13
   2.640000      4.0854399E-13
   2.700000     -3.4286630E-14
   2.760000     -5.9778159E-13
   2.820000     -1.0363763E-12
   2.880000     -1.1111300E-12
   2.940000     -7.0856526E-13
   3.000000      7.9707630E-14
   3.060000      9.6400362E-13
   3.120000      1.5625744E-12
   3.180000      1.5712745E-12
   3.240000      9.2336826E-13
   3.300000     -1.4157046E-13
   3.360000     -1.1487149E-12
   3.420000     -1.5862704E-12
   3.480000     -1.1531842E-12
   3.540000      5.7827359E-14
   3.600000      1.5412221E-12
   3.660000      2.5570318E-12
   3.720000      2.4489755E-12
   3.780000      9.6947212E-13
   3.840000     -1.5413595E-12
   3.900000     -4.2243548E-12
   3.960000     -6.0133747E-12
   4.020000     -6.0715226E-12
   4.080000     -4.1627708E-12
   4.140000     -7.8446451E-13
   4.200000      3.0151081E-12
   4.260000      6.0668371E-12
   4.320000      7.5695752E-12
   4.380000      7.4088947E-12
   4.440000      6.1455971E-12
   4.500000      4.6656108E-12
   4.560000      3.6506709E-12
   4.620000      3.1320853E-12
   4.680000      2.3723770E-12
   4.740000      1.8009475E-13
   4.800000     -4.4410291E-12
   4.860000     -1.1583638E-11
   4.920000     -2.0006588E-11
   4.980000     -2.7231587E-11
   5.040000     -3.0205158E-11
   5.100000     -2.6321934E-11
   5.160000     -1.4437116E-11
   5.220000      4.5199899E-12
   5.280000      2.7572241E-11
   5.340000      5.0352444E-11
   5.400000      6.8141076E-11
   5.460000      7.6900986E-11
   5.520000      7.3962621E-11
   5.580000      5.8199862E-11
   5.640000      2.9786569E-11
   5.700000     -1.0176354E-11
   5.760000     -5.9818601E-11
   5.820000     -1.1621541E-10
   5.880000     -1.7467650E-10
   5.940000     -2.2788683E-10
   6.000000     -2.6533958E-10
   6.060000     -2.7347893E-10
   6.120000     -2.3675981E-10
   6.180000     -1.3950348E-10
   6.240000      3.1888627E-11
   6.300000      2.8697394E-10
   6.360000      6.3012362E-10
   6.420000      1.0604866E-09
   6.480000      1.5729613E-09
   6.540000      2.1597020E-09
   6.600000      2.8114837E-09
   6.660000      3.5183170E-09
   6.720000      4.2690087E-09
   6.780000      5.0498388E-09
   6.840000      5.8429430E-09
   6.900000      6.6252230E-09
   6.960000      7.3685258E-09
   7.020000      8.0414377E-09
   7.080000      8.6124956E-09
   7.140000      9.0540935E-09
   7.200000      9.3460759E-09
   7.260000      9.4781090E-09
   7.320000      9.4502992E-09
   7.380000      9.2721368E-09
   7.440000      8.9603436E-09
   7.500000      8.5364480E-09
   7.560000      8.0247657E-09
   7.620000      7.4510655E-09
   7.680000      6.8416579E-09
   7.740000      6.2223342E-09
   7.800000      5.6166010E-09
   7.860000      5.0430637E-09
   7.920000      4.5124393E-09
   7.980000      4.0252210E-09
   8.040000      3.5712109E-09
   8.100000      3.1317593E-09
   8.160000      2.6847551E-09
   8.220000      2.2113680E-09
   8.280000      1.7027291E-09
   8.340000      1.1644632E-09
   8.400000      6.1743977E-10
   8.460000      9.4204873E-11
   8.520000     -3.6808395E-10
   8.580000     -7.3624323E-10
   8.640000     -9.8868647E-10
   8.700000     -1.1199384E-09
   8.760000     -1.1409623E-09
   8.820000     -1.0756090E-09
   8.880000     -9.5469088E-10
   8.940000     -8.0972312E-10
   9.000000     -6.6813055E-10
   9.060000     -5.5081756E-10
   9.120000     -4.7192400E-10
   9.180000     -4.3978310E-10
   9.240000     -4.5792017E-10
   9.300000     -5.2538118E-10
   9.360000     -6.3648192E-10
   9.420000     -7.8075951E-10
   9.480000     -9.4410380E-10
   9.540000     -1.1116059E-09
   9.600000     -1.2717689E-09
   9.660000     -1.4208160E-09
   9.720000     -1.5653771E-09
   9.780000     -1.7221228E-09
   9.840000     -1.9139053E-09
   9.900000     -2.1632838E-09
   9.960000     -2.4854288E-09
   10.02000     -2.8827909E-09
   10.08000     -3.3434242E-09
   10.14000     -3.8435717E-09
   10.20000     -4.3536006E-09
   10.26000     -4.8451856E-09
   10.32000     -5.2972395E-09
   10.38000     -5.6987148E-09
   10.44000     -6.0476597E-09
   10.50000     -6.3474181E-09
   10.56000     -6.6018679E-09
   10.62000     -6.8117769E-09
   10.68000     -6.9736079E-09
   10.74000     -7.0808031E-09
   10.80000     -7.1262947E-09
   10.86000     -7.1043278E-09
   10.92000     -7.0099908E-09
   10.98000     -6.8360175E-09
   11.04000     -6.5679657E-09
   11.10000     -6.1801662E-09
   11.16000     -5.6351195E-09
   11.22000     -4.8881903E-09
   11.28000     -3.8976222E-09
   11.34000     -2.6377522E-09
   11.40000     -1.1117612E-09
   11.46000      6.4013722E-10
   11.52000      2.5400761E-09
   11.58000      4.4803476E-09
   11.64000      6.3379950E-09
   11.70000      7.9925568E-09
   11.76000      9.3425818E-09
   11.82000      1.0317199E-08
   11.88000      1.0880800E-08
   11.94000      1.1031053E-08
   12.00000      1.0792279E-08
   12.06000      1.0207095E-08
   12.12000      9.3290193E-09
   12.18000      8.2176106E-09
   12.24000      6.9362911E-09
   12.30000      5.5517324E-09
   12.36000      4.1331338E-09
   12.42000      2.7499054E-09
   12.48000      1.4672131E-09
   12.54000      3.3997810E-10
   12.60000     -5.9312039E-10
   12.66000     -1.3137994E-09
   12.72000     -1.8251403E-09
   12.78000     -2.1491182E-09
   12.84000     -2.3216506E-09
   12.90000     -2.3868894E-09
   12.96000     -2.3924531E-09
   13.02000     -2.3864659E-09
   13.08000     -2.4160978E-09
   13.14000     -2.5263693E-09
   13.20000     -2.7578677E-09
   13.26000     -3.1427587E-09
   13.32000     -3.6997554E-09
   13.38000     -4.4297876E-09
   13.44000     -5.3143756E-09
   13.50000     -6.3179790E-09
   13.56000     -7.3940480E-09
   13.62000     -8.4930054E-09
   13.68000     -9.5695789E-09
   13.74000     -1.0587206E-08
   13.80000     -1.1518611E-08
   13.86000     -1.2343355E-08
   13.92000     -1.3044495E-08
   13.98000     -1.3606800E-08
   14.04000     -1.4018084E-08
   14.10000     -1.4273541E-08
   14.16000     -1.4381169E-08
   14.22000     -1.4365402E-08
   14.28000     -1.4266238E-08
   14.34000     -1.4132715E-08
   14.40000     -1.4011831E-08
   14.46000     -1.3936086E-08
   14.52000     -1.3913872E-08
   14.58000     -1.3926265E-08
   14.64000     -1.3931709E-08
   14.70000     -1.3877190E-08
   14.76000     -1.3712157E-08
   14.82000     -1.3400475E-08
   14.88000     -1.2926637E-08
   14.94000     -1.2294858E-08
   15.00000     -1.1522406E-08
   15.06000     -1.0630610E-08
   15.12000     -9.6373540E-09
   15.18000     -8.5537097E-09
   15.24000     -7.3852315E-09
   15.30000     -6.1364114E-09
   15.36000     -4.8156967E-09
   15.42000     -3.4387118E-09
   15.48000     -2.0284812E-09
   15.54000     -6.1297967E-10
   15.60000      7.7862800E-10
   15.66000      2.1194329E-09
   15.72000      3.3868448E-09
   15.78000      4.5631432E-09
   15.84000      5.6351879E-09
   15.90000      6.5942514E-09
   15.96000      7.4365829E-09
   16.02000      8.1645979E-09
   16.08000      8.7878274E-09
   16.14000      9.3224948E-09
   16.20000      9.7888968E-09
   16.26000      1.0206732E-08
   16.32000      1.0589585E-08
   16.38000      1.0940600E-08
   16.44000      1.1251424E-08
   16.50000      1.1505548E-08
   16.56000      1.1685718E-08
   16.62000      1.1783349E-08
   16.68000      1.1806837E-08
   16.74000      1.1785676E-08
   16.80000      1.1768440E-08
   16.86000      1.1814709E-08
   16.92000      1.1983159E-08
   16.98000      1.2319461E-08
   17.04000      1.2847852E-08
   17.10000      1.3569077E-08
   17.16000      1.4465182E-08
   17.22000      1.5509226E-08
   17.28000      1.6676204E-08
   17.34000      1.7951008E-08
   17.40000      1.9330372E-08
   17.46000      2.0818122E-08
   17.52000      2.2415719E-08
   17.58000      2.4112111E-08
   17.64000      2.5877348E-08
   17.70000      2.7663111E-08
   17.76000      2.9410552E-08
   17.82000      3.1062815E-08
   17.88000      3.2577546E-08
   17.94000      3.3934427E-08
   18.00000      3.5134743E-08
   18.06000      3.6193107E-08
   18.12000      3.7124920E-08
   18.18000      3.7935003E-08
   18.24000      3.8612459E-08
   18.30000      3.9134228E-08
   18.36000      3.9475825E-08
   18.42000      3.9624528E-08
   18.48000      3.9588720E-08
   18.54000      3.9398678E-08
   18.60000      3.9097735E-08
   18.66000      3.8727045E-08
   18.72000      3.8310347E-08
   18.78000      3.7845325E-08
   18.84000      3.7305522E-08
   18.90000      3.6652143E-08
   18.96000      3.5850967E-08
   19.02000      3.4887307E-08
   19.08000      3.3773066E-08
   19.14000      3.2543621E-08
   19.20000      3.1246568E-08
   19.26000      2.9927794E-08
   19.32000      2.8620743E-08
   19.38000      2.7342894E-08
   19.44000      2.6099620E-08
   19.50000      2.4892401E-08
   19.56000      2.3726725E-08
   19.62000      2.2615726E-08
   19.68000      2.1578074E-08
   19.74000      2.0631481E-08
   19.80000      1.9785123E-08
   19.86000      1.9034585E-08
   19.92000      1.8361540E-08
   19.98000      1.7738339E-08
   20.04000      1.7135672E-08
   20.10000      1.6530363E-08
   20.16000      1.5910663E-08
   20.22000      1.5277452E-08
   20.28000      1.4641398E-08
   20.34000      1.4017465E-08
   20.40000      1.3418879E-08
   20.46000      1.2852547E-08
   20.52000      1.2317115E-08
   20.58000      1.1803833E-08
   20.64000      1.1299321E-08
   20.70000      1.0788813E-08
   20.76000      1.0258444E-08
   20.82000      9.6958130E-09
   20.88000      9.0888630E-09
   20.94000      8.4240952E-09
   21.00000      7.6855668E-09
   21.06000      6.8560047E-09
   21.12000      5.9204956E-09
   21.18000      4.8719206E-09
   21.24000      3.7159695E-09
   21.30000      2.4729738E-09
   21.36000      1.1743229E-09
   21.42000     -1.4698254E-10
   21.48000     -1.4695393E-09
   21.54000     -2.7961404E-09
   21.60000     -4.1605341E-09
   21.66000     -5.6244009E-09
   21.72000     -7.2638593E-09
   21.78000     -9.1489154E-09
   21.84000     -1.1322487E-08
   21.90000     -1.3786460E-08
   21.96000     -1.6500072E-08
   22.02000     -1.9391495E-08
   22.08000     -2.2378538E-08
   22.14000     -2.5390966E-08
   22.20000     -2.8386488E-08
   22.26000     -3.1355025E-08
   22.32000     -3.4310361E-08
   22.38000     -3.7272933E-08
   22.44000     -4.0250313E-08
   22.50000     -4.3222350E-08
   22.56000     -4.6135593E-08
   22.62000     -4.8908156E-08
   22.68000     -5.1442541E-08
   22.74000     -5.3641738E-08
   22.80000     -5.5423520E-08
   22.86000     -5.6729245E-08
   22.92000     -5.7526147E-08
   22.98000     -5.7804428E-08
   23.04000     -5.7572329E-08
   23.10000     -5.6852297E-08
   23.16000     -5.5679990E-08
   23.22000     -5.4105911E-08
   23.28000     -5.2197272E-08
   23.34000     -5.0037244E-08
   23.40000     -4.7719471E-08
   23.46000     -4.5337977E-08
   23.52000     -4.2974847E-08
   23.58000     -4.0689532E-08
   23.64000     -3.8513452E-08
   23.70000     -3.6451546E-08
   23.76000     -3.4490007E-08
   23.82000     -3.2607115E-08
   23.88000     -3.0783308E-08
   23.94000     -2.9007460E-08
   24.00000     -2.7278226E-08
   24.06000     -2.5601340E-08
   24.12000     -2.3985077E-08
   24.18000     -2.2436186E-08
   24.24000     -2.0957852E-08
   24.30000     -1.9549917E-08
   24.36000     -1.8210612E-08
   24.42000     -1.6938598E-08
   24.48000     -1.5734230E-08
   24.54000     -1.4599471E-08
   24.60000     -1.3536541E-08
   24.66000     -1.2545835E-08
   24.72000     -1.1623981E-08
   24.78000     -1.0762847E-08
   24.84000     -9.9500213E-09
   24.90000     -9.1706696E-09
   24.96000     -8.4100877E-09
   25.02000     -7.6558360E-09
   25.08000     -6.8983890E-09
   25.14000     -6.1298771E-09
   25.20000     -5.3414335E-09
   25.26000     -4.5205124E-09
   25.32000     -3.6498136E-09
   25.38000     -2.7088933E-09
   25.44000     -1.6783845E-09
   25.50000     -5.4550003E-10
   25.56000      6.9118633E-10
   25.62000      2.0194673E-09
   25.68000      3.4144401E-09
   25.74000      4.8419722E-09
   25.80000      6.2629879E-09
   25.86000      7.6366913E-09
   25.92000      8.9216057E-09
   25.98000      1.0074626E-08
   26.04000      1.1049533E-08
   26.10000      1.1797004E-08
   26.16000      1.2267763E-08
   26.22000      1.2419289E-08
   26.28000      1.2224848E-08
   26.34000      1.1682138E-08
   26.40000      1.0818338E-08
   26.46000      9.6889456E-09
   26.52000      8.3696126E-09
   26.58000      6.9426087E-09
   26.64000      5.4816520E-09
   26.70000      4.0397619E-09
   26.76000      2.6440117E-09
   26.82000      1.2986132E-09
   26.88000     -5.3528354E-12
   26.94000     -1.2778144E-09
   27.00000     -2.5203384E-09
   27.06000     -3.7233630E-09
   27.12000     -4.8709565E-09
   27.18000     -5.9506986E-09
   27.24000     -6.9640369E-09
   27.30000     -7.9322948E-09
   27.36000     -8.8955012E-09
   27.42000     -9.9043636E-09
   27.48000     -1.1008704E-08
   27.54000     -1.2246995E-08
   27.60000     -1.3640869E-08
   27.66000     -1.5195896E-08
   27.72000     -1.6906924E-08
   27.78000     -1.8764236E-08
   27.84000     -2.0756767E-08
   27.90000     -2.2870594E-08
   27.96000     -2.5083979E-08
   28.02000     -2.7362582E-08
   28.08000     -2.9659018E-08
   28.14000     -3.1918965E-08
   28.20000     -3.4092594E-08
   28.26000     -3.6146904E-08
   28.32000     -3.8073253E-08
   28.38000     -3.9885943E-08
   28.44000     -4.1611784E-08
   28.50000     -4.3274763E-08
   28.56000     -4.4882679E-08
   28.62000     -4.6422056E-08
   28.68000     -4.7863931E-08
   28.74000     -4.9177956E-08
   28.80000     -5.0348270E-08
   28.86000     -5.1383559E-08
   28.92000     -5.2316274E-08
   28.98000     -5.3191009E-08
   29.04000     -5.4047089E-08
   29.10000     -5.4903037E-08
   29.16000     -5.5749677E-08
   29.22000     -5.6554736E-08
   29.28000     -5.7276459E-08
   29.34000     -5.7880115E-08
   29.40000     -5.8349983E-08
   29.46000     -5.8691960E-08
   29.52000     -5.8925949E-08
   29.58000     -5.9071830E-08
   29.64000     -5.9135147E-08
   29.70000     -5.9098721E-08
   29.76000     -5.8923593E-08
   29.82000     -5.8558975E-08
   29.88000     -5.7957397E-08
   29.94000     -5.7089306E-08
   30.00000     -5.5951784E-08
   30.06000     -5.4568194E-08
   30.12000     -5.2978997E-08
   30.18000     -5.1227182E-08
   30.24000     -4.9343864E-08
   30.30000     -4.7339668E-08
   30.36000     -4.5205649E-08
   30.42000     -4.2923887E-08
   30.48000     -4.0483830E-08
   30.54000     -3.7897983E-08
   30.60000     -3.5209816E-08
   30.66000     -3.2489574E-08
   30.72000     -2.9818143E-08
   30.78000     -2.7264285E-08
   30.84000     -2.4863857E-08
   30.90000     -2.2609576E-08
   30.96000     -2.0456152E-08
   31.02000     -1.8339550E-08
   31.08000     -1.6203160E-08
   31.14000     -1.4020515E-08
   31.20000     -1.1805407E-08
   31.26000     -9.6053903E-09
   31.32000     -7.4818356E-09
   31.38000     -5.4853939E-09
   31.44000     -3.6375918E-09
   31.50000     -1.9261579E-09
   31.56000     -3.1521172E-10
   31.62000      1.2354811E-09
   31.68000      2.7518561E-09
   31.74000      4.2362460E-09
   31.80000      5.6709220E-09
   31.86000      7.0312383E-09
   31.92000      8.3003542E-09
   31.98000      9.4772004E-09
   32.04000      1.0573558E-08
   32.10000      1.1602425E-08
   32.16000      1.2564872E-08
   32.22000      1.3443485E-08
   32.28000      1.4206896E-08
   32.34000      1.4823692E-08
   32.40000      1.5278694E-08
   32.46000      1.5582863E-08
   32.52000      1.5771082E-08
   32.58000      1.5888022E-08
   32.64000      1.5968297E-08
   32.70000      1.6020167E-08
   32.76000      1.6020627E-08
   32.82000      1.5924691E-08
   32.88000      1.5685281E-08
   32.94000      1.5275402E-08
   33.00000      1.4703163E-08
   33.06000      1.4013088E-08
   33.12000      1.3272785E-08
   33.18000      1.2550062E-08
   33.24000      1.1889499E-08
   33.30000      1.1297819E-08
   33.36000      1.0744028E-08
   33.42000      1.0174451E-08
   33.48000      9.5368495E-09
   33.54000      8.8041618E-09
   33.60000      7.9884748E-09
   33.66000      7.1396671E-09
   33.72000      6.3292500E-09
   33.78000      5.6256679E-09
   33.84000      5.0705631E-09
   33.90000      4.6648241E-09
   33.96000      4.3692348E-09
   34.02000      4.1187995E-09
   34.08000      3.8447938E-09
   34.14000      3.4961356E-09
   34.20000      3.0525311E-09
   34.26000      2.5254743E-09
   34.32000      1.9479751E-09
   34.38000      1.3580467E-09
   34.44000      7.8296336E-10
   34.50000      2.3050023E-10
   34.56000     -3.0985900E-10
   34.62000     -8.5707369E-10
   34.68000     -1.4250885E-09
   34.74000     -2.0123072E-09
   34.80000     -2.5991331E-09
   34.86000     -3.1549141E-09
   34.92000     -3.6510852E-09
   34.98000     -4.0741281E-09
   35.04000     -4.4318083E-09
   35.10000     -4.7492130E-09
   35.16000     -5.0560662E-09
   35.22000     -5.3712306E-09
   35.28000     -5.6919940E-09
   35.34000     -5.9937397E-09
   35.40000     -6.2407737E-09
   35.46000     -6.4037748E-09
   35.52000     -6.4760806E-09
   35.58000     -6.4814212E-09
   35.64000     -6.4695169E-09
   35.70000     -6.5013626E-09
   35.76000     -6.6304633E-09
   35.82000     -6.8877957E-09
   35.88000     -7.2762725E-09
   35.94000     -7.7761015E-09
   36.00000     -8.3577012E-09
   36.06000     -8.9959213E-09
   36.12000     -9.6793524E-09
   36.18000     -1.0411271E-08
   36.24000     -1.1202865E-08
   36.30000     -1.2062822E-08
   36.36000     -1.2988679E-08
   36.42000     -1.3964061E-08
   36.48000     -1.4962840E-08
   36.54000     -1.5957882E-08
   36.60000     -1.6930040E-08
   36.66000     -1.7873203E-08
   36.72000     -1.8793449E-08
   36.78000     -1.9703167E-08
   36.84000     -2.0613438E-08
   36.90000     -2.1528392E-08
   36.96000     -2.2443979E-08
   37.02000     -2.3351227E-08
   37.08000     -2.4241706E-08
   37.14000     -2.5112035E-08
   37.20000     -2.5964825E-08
   37.26000     -2.6805470E-08
   37.32000     -2.7636325E-08
   37.38000     -2.8451407E-08
   37.44000     -2.9234675E-08
   37.50000     -2.9963505E-08
   37.56000     -3.0616594E-08
   37.62000     -3.1183291E-08
   37.68000     -3.1670368E-08
   37.74000     -3.2102808E-08
   37.80000     -3.2517587E-08
   37.86000     -3.2952276E-08
   37.92000     -3.3432702E-08
   37.98000     -3.3964593E-08
   38.04000     -3.4532658E-08
   38.10000     -3.5107547E-08
   38.16000     -3.5658058E-08
   38.22000     -3.6163556E-08
   38.28000     -3.6621895E-08
   38.34000     -3.7049897E-08
   38.40000     -3.7476628E-08
   38.46000     -3.7932558E-08
   38.52000     -3.8439019E-08
   38.58000     -3.9001755E-08
   38.64000     -3.9610512E-08
   38.70000     -4.0243798E-08
   38.76000     -4.0876206E-08
   38.82000     -4.1484668E-08
   38.88000     -4.2051159E-08
   38.94000     -4.2561279E-08
   39.00000     -4.3000441E-08
   39.06000     -4.3350965E-08
   39.12000     -4.3593293E-08
   39.18000     -4.3712568E-08
   39.24000     -4.3708845E-08
   39.30000     -4.3606189E-08
   39.36000     -4.3455188E-08
   39.42000     -4.3324967E-08
   39.48000     -4.3285183E-08
   39.54000     -4.3383256E-08
   39.60000     -4.3625409E-08
   39.66000     -4.3969752E-08
   39.72000     -4.4335490E-08
   39.78000     -4.4625818E-08
   39.84000     -4.4756398E-08
   39.90000     -4.4678846E-08
   39.96000     -4.4390656E-08
   40.02000     -4.3928882E-08
   40.08000     -4.3351321E-08
   40.14000     -4.2713854E-08
   40.20000     -4.2053021E-08
   40.26000     -4.1379753E-08
   40.32000     -4.0684693E-08
   40.38000     -3.9950464E-08
   40.44000     -3.9164100E-08
   40.50000     -3.8323623E-08
   40.56000     -3.7436724E-08
   40.62000     -3.6513573E-08
   40.68000     -3.5558749E-08
   40.74000     -3.4567446E-08
   40.80000     -3.3528554E-08
   40.86000     -3.2433444E-08
   40.92000     -3.1285804E-08
   40.98000     -3.0106982E-08
   41.04000     -2.8933016E-08
   41.10000     -2.7803518E-08
   41.16000     -2.6746818E-08
   41.22000     -2.5768099E-08
   41.28000     -2.4846374E-08
   41.34000     -2.3942356E-08
   41.40000     -2.3014096E-08
   41.46000     -2.2033493E-08
   41.52000     -2.0996078E-08
   41.58000     -1.9919435E-08
   41.64000     -1.8830912E-08
   41.70000     -1.7750240E-08
   41.76000     -1.6675234E-08
   41.82000     -1.5577413E-08
   41.88000     -1.4410203E-08
   41.94000     -1.3126843E-08
   42.00000     -1.1701103E-08
   42.06000     -1.0142556E-08
   42.12000     -8.5002885E-09
   42.18000     -6.8532979E-09
   42.24000     -5.2908780E-09
   42.30000     -3.8899972E-09
   42.36000     -2.6978180E-09
   42.42000     -1.7254932E-09
   42.48000     -9.5503261E-10
   42.54000     -3.5578812E-10
   42.60000      9.6855510E-11
   42.66000      4.0903975E-10
   42.72000      5.6806321E-10
   42.78000      5.5448329E-10
   42.84000      3.6113323E-10
   42.90000      9.7391557E-12
   42.96000     -4.4378851E-10
   43.02000     -9.1961500E-10
   43.08000     -1.3369693E-09
   43.14000     -1.6408125E-09
   43.20000     -1.8207166E-09
   43.26000     -1.9131541E-09
   43.32000     -1.9851027E-09
   43.38000     -2.1046787E-09
   43.44000     -2.3100053E-09
   43.50000     -2.5883036E-09
   43.56000     -2.8729994E-09
   43.62000     -3.0593115E-09
   43.68000     -3.0314438E-09
   43.74000     -2.6901350E-09
   43.80000     -1.9695812E-09
   43.86000     -8.3737473E-10
   43.92000      7.2195416E-10
   43.98000      2.7328109E-09
   44.04000      5.2535758E-09
   44.10000      8.3916669E-09
   44.16000      1.2304286E-08
   44.22000      1.7186935E-08
   44.28000      2.3256925E-08
   44.34000      3.0740956E-08
   44.40000      3.9873647E-08
   44.46000      5.0908906E-08
   44.52000      6.4140927E-08
   44.58000      7.9928292E-08
   44.64000      9.8714757E-08
   44.70000      1.2104360E-07
   44.76000      1.4756627E-07
   44.82000      1.7905001E-07
   44.88000      2.1638888E-07
   44.94000      2.6062222E-07
   45.00000      3.1296028E-07
   45.06000      3.7481504E-07
   45.12000      4.4783235E-07
   45.18000      5.3392313E-07
   45.24000      6.3529319E-07
   45.30000      7.5447480E-07
   45.36000      8.9436298E-07
   45.42000      1.0582605E-06
   45.48000      1.2499323E-06
   45.54000      1.4736672E-06
   45.60000      1.7343443E-06
   45.66000      2.0374994E-06
   45.72000      2.3893904E-06
   45.78000      2.7970605E-06
   45.84000      3.2684054E-06
   45.90000      3.8122466E-06
   45.96000      4.4384187E-06
   46.02000      5.1578672E-06
   46.08000      5.9827580E-06
   46.14000      6.9265943E-06
   46.20000      8.0043337E-06
   46.26000      9.2325008E-06
   46.32000      1.0629298E-05
   46.38000      1.2214706E-05
   46.44000      1.4010586E-05
   46.50000      1.6040782E-05
   46.56000      1.8331224E-05
   46.62000      2.0910029E-05
   46.68000      2.3807606E-05
   46.74000      2.7056747E-05
   46.80000      3.0692685E-05
   46.86000      3.4753164E-05
   46.92000      3.9278464E-05
   46.98000      4.4311400E-05
   47.04000      4.9897313E-05
   47.10000      5.6084049E-05
   47.16000      6.2921914E-05
   47.22000      7.0463619E-05
   47.28000      7.8764177E-05
   47.34000      8.7880784E-05
   47.40000      9.7872638E-05
   47.46000      1.0880070E-04
   47.52000      1.2072738E-04
   47.58000      1.3371628E-04
   47.64000      1.4783179E-04
   47.70000      1.6313868E-04
   47.76000      1.7970173E-04
   47.82000      1.9758525E-04
   47.88000      2.1685258E-04
   47.94000      2.3756550E-04
   48.00000      2.5978370E-04
   48.06000      2.8356412E-04
   48.12000      3.0896024E-04
   48.18000      3.3602130E-04
   48.24000      3.6479175E-04
   48.30000      3.9531049E-04
   48.36000      4.2761018E-04
   48.42000      4.6171644E-04
   48.48000      4.9764733E-04
   48.54000      5.3541258E-04
   48.60000      5.7501299E-04
   48.66000      6.1643985E-04
   48.72000      6.5967429E-04
   48.78000      7.0468686E-04
   48.84000      7.5143715E-04
   48.90000      7.9987344E-04
   48.96000      8.4993272E-04
   49.02000      9.0154004E-04
   49.08000      9.5460896E-04
   49.14000      1.0090416E-03
   49.20000      1.0647287E-03
   49.26000      1.1215502E-03
   49.32000      1.1793757E-03
   49.38000      1.2380651E-03
   49.44000      1.2974693E-03
   49.50000      1.3574309E-03
   49.56000      1.4177858E-03
   49.62000      1.4783636E-03
   49.68000      1.5389896E-03
   49.74000      1.5994859E-03
   49.80000      1.6596722E-03
   49.86000      1.7193687E-03
   49.92000      1.7783965E-03
   49.98000      1.8365793E-03
   50.04000      1.8937455E-03
   50.10000      1.9497301E-03
   50.16000      2.0043754E-03
   50.22000      2.0575339E-03
   50.28000      2.1090682E-03
   50.34000      2.1588539E-03
   50.40000      2.2067802E-03
   50.46000      2.2527513E-03
   50.52000      2.2966869E-03
   50.58000      2.3385249E-03
   50.64000      2.3782202E-03
   50.70000      2.4157460E-03
   50.76000      2.4510943E-03
   50.82000      2.4842748E-03
   50.88000      2.5153176E-03
   50.94000      2.5442697E-03
   51.00000      2.5711961E-03
   51.06000      2.5961790E-03
   51.12000      2.6193168E-03
   51.18000      2.6407219E-03
   51.24000      2.6605211E-03
   51.30000      2.6788521E-03
   51.36000      2.6958631E-03
   51.42000      2.7117117E-03
   51.48000      2.7265602E-03
   51.54000      2.7405764E-03
   51.60000      2.7539292E-03
   51.66000      2.7667875E-03
   51.72000      2.7793185E-03
   51.78000      2.7916844E-03
   51.84000      2.8040416E-03
   51.90000      2.8165386E-03
   51.96000      2.8293126E-03
   52.02000      2.8424892E-03
   52.08000      2.8561803E-03
   52.14000      2.8704824E-03
   52.20000      2.8854758E-03
   52.26000      2.9012240E-03
   52.32000      2.9177719E-03
   52.38000      2.9351467E-03
   52.44000      2.9533571E-03
   52.50000      2.9723931E-03
   52.56000      2.9922265E-03
   52.62000      3.0128111E-03
   52.68000      3.0340836E-03
   52.74000      3.0559655E-03
   52.80000      3.0783629E-03
   52.86000      3.1011691E-03
   52.92000      3.1242655E-03
   52.98000      3.1475241E-03
   53.04000      3.1708083E-03
   53.10000      3.1939768E-03
   53.16000      3.2168839E-03
   53.22000      3.2393816E-03
   53.28000      3.2613222E-03
   53.34000      3.2825607E-03
   53.40000      3.3029574E-03
   53.46000      3.3223771E-03
   53.52000      3.3406939E-03
   53.58000      3.3577916E-03
   53.64000      3.3735652E-03
   53.70000      3.3879227E-03
   53.76000      3.4007852E-03
   53.82000      3.4120891E-03
   53.88000      3.4217855E-03
   53.94000      3.4298410E-03
   54.00000      3.4362390E-03
   54.06000      3.4409782E-03
   54.12000      3.4440728E-03
   54.18000      3.4455524E-03
   54.24000      3.4454609E-03
   54.30000      3.4438551E-03
   54.36000      3.4408031E-03
   54.42000      3.4363850E-03
   54.48000      3.4306892E-03
   54.54000      3.4238133E-03
   54.60000      3.4158595E-03
   54.66000      3.4069344E-03
   54.72000      3.3971479E-03
   54.78000      3.3866090E-03
   54.84000      3.3754264E-03
   54.90000      3.3637055E-03
   54.96000      3.3515478E-03
   55.02000      3.3390478E-03
   55.08000      3.3262926E-03
   55.14000      3.3133603E-03
   55.20000      3.3003185E-03
   55.26000      3.2872236E-03
   55.32000      3.2741204E-03
   55.38000      3.2610416E-03
   55.44000      3.2480061E-03
   55.50000      3.2350202E-03
   55.56000      3.2220769E-03