  -2.400000      0.0000000E+00
  -2.340000      0.0000000E+00
  -2.280000      0.0000000E+00
  -2.220000      0.0000000E+00
  -2.160000      0.0000000E+00
  -2.100000      0.0000000E+00
  -2.040000      0.0000000E+00
  -1.980000      0.0000000E+00
  -1.920000     -6.7306914E-27
  -1.860000     -2.4515226E-25
  -1.800000     -2.4410437E-24
  -1.740000     -1.3040583E-23
  -1.680000     -4.3861607E-23
  -1.620000     -9.1075992E-23
  -1.560000     -6.4076628E-23
  -1.500000      3.2019319E-22
  -1.440000      1.5159401E-21
  -1.380000      3.6556443E-21
  -1.320000      5.3153241E-21
  -1.260000      2.0222900E-21
  -1.200000     -1.3533576E-20
  -1.140000     -4.6477382E-20
  -1.080000     -8.8244119E-20
  -1.020000     -1.0292259E-19
 -0.9600000     -2.5053643E-20
 -0.9000000      2.1199679E-19
 -0.8400000      6.0723437E-19
 -0.7800000      1.0038022E-18
 -0.7200000      1.0456779E-18
 -0.6600000      2.6881074E-19
 -0.6000000     -1.6180863E-18
 -0.5400000     -4.3228417E-18
 -0.4800000     -6.6506148E-18
 -0.4200000     -6.6056158E-18
 -0.3600000     -2.1701935E-18
 -0.3000000      7.3046020E-18
 -0.2400000      1.9652948E-17
 -0.1800000      2.9350863E-17
 -0.1200000      2.8811372E-17
 -5.9999999E-02  1.1787305E-17
  0.0000000E+00 -2.2056443E-17
  5.9999999E-02 -6.3579643E-17
  0.1200000     -9.4300648E-17
  0.1800000     -9.2041750E-17
  0.2400000     -4.1531845E-17
  0.3000000      5.3730787E-17
  0.3600000      1.6450378E-16
  0.4200000      2.3991266E-16
  0.4800000      2.2540039E-16
  0.5400000      9.0702419E-17
  0.6000000     -1.4331935E-16
  0.6600000     -3.9443786E-16
  0.7200000     -5.3821103E-16
  0.7800000     -4.5809051E-16
  0.8400000     -1.1104969E-16
  0.9000000      4.2190801E-16
  0.9600000      9.3442028E-16
   1.020000      1.1612360E-15
   1.080000      8.9854324E-16
   1.140000      1.2790334E-16
   1.200000     -9.2523018E-16
   1.260000     -1.8503238E-15
   1.320000     -2.2248252E-15
   1.380000     -1.8277067E-15
   1.440000     -7.7417419E-16
   1.500000      5.2952270E-16
   1.560000      1.6207672E-15
   1.620000      2.2867283E-15
   1.680000      2.7356032E-15
   1.740000      3.4530266E-15
   1.800000      4.7294606E-15
   1.860000      6.0871502E-15
   1.920000      6.0168782E-15
   1.980000      2.4065739E-15
   2.040000     -6.2593308E-15
   2.100000     -1.9338333E-14
   2.160000     -3.2945252E-14
   2.220000     -4.0266130E-14
   2.280000     -3.3748598E-14
   2.340000     -8.7544480E-15
   2.400000      3.2716451E-14
   2.460000      8.0160942E-14
   2.520000      1.1616996E-13
   2.580000      1.2183062E-13
   2.640000      8.4489266E-14
   2.700000      4.9099298E-15
   2.760000     -9.9566521E-14
   2.820000     -1.9814510E-13
   2.880000     -2.5584968E-13
   2.940000     -2.4602849E-13
   3.000000     -1.6129449E-13
   3.060000     -1.8165474E-14
   3.120000      1.4708396E-13
   3.180000      2.9020783E-13
   3.240000      3.7381364E-13
   3.300000      3.7905895E-13
   3.360000      3.0931022E-13
   3.420000      1.8458247E-13
   3.480000      3.0114861E-14
   3.540000     -1.3449073E-13
   3.600000     -2.9930669E-13
   3.660000     -4.5871071E-13
   3.720000     -5.9964197E-13
   3.780000     -6.9120084E-13
   3.840000     -6.8427761E-13
   3.900000     -5.2594360E-13
   3.960000     -1.8574519E-13
   4.020000      3.1670714E-13
   4.080000      8.9719638E-13
   4.140000      1.4167038E-12
   4.200000      1.7173783E-12
   4.260000      1.6743028E-12
   4.320000      1.2434830E-12
   4.380000      4.8529632E-13
   4.440000     -4.4887043E-13
   4.500000     -1.3638190E-12
   4.560000     -2.0832175E-12
   4.620000     -2.5013472E-12
   4.680000     -2.6013399E-12
   4.740000     -2.4322532E-12
   4.800000     -2.0570182E-12
   4.860000     -1.4985235E-12
   4.920000     -7.1408184E-13
   4.980000      3.8315396E-13
   5.040000      1.8590971E-12
   5.100000      3.6756297E-12
   5.160000      5.6276052E-12
   5.220000      7.3342808E-12
   5.280000      8.3003639E-12
   5.340000      8.0351619E-12
   5.400000      6.1951026E-12
   5.460000      2.7046160E-12
   5.520000     -2.1834297E-12
   5.580000     -7.9068410E-12
   5.640000     -1.3686602E-11
   5.700000     -1.8664632E-11
   5.760000     -2.2046302E-11
   5.820000     -2.3207094E-11
   5.880000     -2.1734116E-11
   5.940000     -1.7392887E-11
   6.000000     -1.0034117E-11
   6.060000      5.2191709E-13
   6.120000      1.4571667E-11
   6.180000      3.2536078E-11
   6.240000      5.4864349E-11
   6.300000      8.1849617E-11
   6.360000      1.1341783E-10
   6.420000      1.4897954E-10
   6.480000      1.8742748E-10
   6.540000      2.2731481E-10
   6.600000      2.6717489E-10
   6.660000      3.0587419E-10
   6.720000      3.4286152E-10
   6.780000      3.7820821E-10
   6.840000      4.1241699E-10
   6.900000      4.4607612E-10
   6.960000      4.7950199E-10
   7.020000      5.1251436E-10
   7.080000      5.4441923E-10
   7.140000      5.7417215E-10
   7.200000      6.0061189E-10
   7.260000      6.2263356E-10
   7.320000      6.3922811E-10
   7.380000      6.4940908E-10
   7.440000      6.5213451E-10
   7.500000      6.4634992E-10
   7.560000      6.3121719E-10
   7.620000      6.0648536E-10
   7.680000      5.7285787E-10
   7.740000      5.3218291E-10
   7.800000      4.8735405E-10
   7.860000      4.4193535E-10
   7.920000      3.9964920E-10
   7.980000      3.6391912E-10
   8.040000      3.3761607E-10
   8.100000      3.2303388E-10
   8.160000      3.2199060E-10
   8.220000      3.3589045E-10
   8.280000      3.6562239E-10
   8.340000      4.1129994E-10
   8.400000      4.7198395E-10
   8.460000      5.4559729E-10
   8.520000      6.2918537E-10
   8.580000      7.1952494E-10
   8.640000      8.1390289E-10
   8.700000      9.1078634E-10
   8.760000      1.0101303E-09
   8.820000      1.1132224E-09
   8.880000      1.2221631E-09
   8.940000      1.3392232E-09
   9.000000      1.4663462E-09
   9.060000      1.6049573E-09
   9.120000      1.7560670E-09
   9.180000      1.9205206E-09
   9.240000      2.0991939E-09
   9.300000      2.2930002E-09
   9.360000      2.5026847E-09
   9.420000      2.7284950E-09
   9.480000      2.9698468E-09
   9.540000      3.2250678E-09
   9.600000      3.4912413E-09
   9.660000      3.7641348E-09
   9.720000      4.0382191E-09
   9.780000      4.3068447E-09
   9.840000      4.5627049E-09
   9.900000      4.7986983E-09
   9.960000      5.0091855E-09
   10.02000      5.1914957E-09
   10.08000      5.3473639E-09
   10.14000      5.4839044E-09
   10.20000      5.6137872E-09
   10.26000      5.7544187E-09
   10.32000      5.9261436E-09
   10.38000      6.1496603E-09
   10.44000      6.4429315E-09
   10.50000      6.8179093E-09
   10.56000      7.2773769E-09
   10.62000      7.8122095E-09
   10.68000      8.3994136E-09
   10.74000      9.0013854E-09
   10.80000      9.5669002E-09
   10.86000      1.0034259E-08
   10.92000      1.0336749E-08
   10.98000      1.0410180E-08
   11.04000      1.0201651E-08
   11.10000      9.6783364E-09
   11.16000      8.8347871E-09
   11.22000      7.6974107E-09
   11.28000      6.3252599E-09
   11.34000      4.8068669E-09
   11.40000      3.2535550E-09
   11.46000      1.7900730E-09
   11.52000      5.4362087E-10
   11.58000     -3.6771072E-10
   11.64000     -8.4617224E-10
   11.70000     -8.2440194E-10
   11.76000     -2.7336808E-10
   11.82000      7.9283791E-10
   11.88000      2.3164120E-09
   11.94000      4.2002433E-09
   12.00000      6.3174630E-09
   12.06000      8.5253475E-09
   12.12000      1.0681767E-08
   12.18000      1.2661619E-08
   12.24000      1.4370455E-08
   12.30000      1.5752965E-08
   12.36000      1.6795052E-08
   12.42000      1.7519563E-08
   12.48000      1.7977062E-08
   12.54000      1.8233866E-08
   12.60000      1.8359732E-08
   12.66000      1.8417255E-08
   12.72000      1.8454157E-08
   12.78000      1.8498870E-08
   12.84000      1.8559147E-08
   12.90000      1.8623235E-08
   12.96000      1.8663030E-08
   13.02000      1.8638875E-08
   13.08000      1.8505563E-08
   13.14000      1.8219067E-08
   13.20000      1.7743281E-08
   13.26000      1.7055937E-08
   13.32000      1.6152830E-08
   13.38000      1.5049693E-08
   13.44000      1.3781382E-08
   13.50000      1.2398321E-08
   13.56000      1.0960423E-08
   13.62000      9.5290993E-09
   13.68000      8.1581781E-09
   13.74000      6.8851063E-09
   13.80000      5.7240279E-09
   13.86000      4.6624180E-09
   13.92000      3.6624861E-09
   13.98000      2.6676588E-09
   14.04000      1.6132609E-09
   14.10000      4.3943427E-10
   14.16000     -8.9628988E-10
   14.22000     -2.4093028E-09
   14.28000     -4.0830130E-09
   14.34000     -5.8695804E-09
   14.40000     -7.6960633E-09
   14.46000     -9.4748147E-09
   14.52000     -1.1116294E-08
   14.58000     -1.2542093E-08
   14.64000     -1.3695879E-08
   14.70000     -1.4550264E-08
   14.76000     -1.5108208E-08
   14.82000     -1.5398681E-08
   14.88000     -1.5467508E-08
   14.94000     -1.5365547E-08
   15.00000     -1.5137003E-08
   15.06000     -1.4810691E-08
   15.12000     -1.4396229E-08
   15.18000     -1.3885682E-08
   15.24000     -1.3259686E-08
   15.30000     -1.2495743E-08
   15.36000     -1.1575966E-08
   15.42000     -1.0491923E-08
   15.48000     -9.2454888E-09
   15.54000     -7.8461300E-09
   15.60000     -6.3064638E-09
   15.66000     -4.6384776E-09
   15.72000     -2.8524472E-09
   15.78000     -9.5929142E-10
   15.84000      1.0245347E-09
   15.90000      3.0718457E-09
   15.96000      5.1419122E-09
   16.02000      7.1820283E-09
   16.08000      9.1338883E-09
   16.14000      1.0943349E-08
   16.20000      1.2570723E-08
   16.26000      1.3998280E-08
   16.32000      1.5232400E-08
   16.38000      1.6299387E-08
   16.44000      1.7236006E-08
   16.50000      1.8077502E-08
   16.56000      1.8846743E-08
   16.62000      1.9547883E-08
   16.68000      2.0166567E-08
   16.74000      2.0676628E-08
   16.80000      2.1051092E-08
   16.86000      2.1273792E-08
   16.92000      2.1347565E-08
   16.98000      2.1296072E-08
   17.04000      2.1158264E-08
   17.10000      2.0977073E-08
   17.16000      2.0785754E-08
   17.22000      2.0596124E-08
   17.28000      2.0392463E-08
   17.34000      2.0133081E-08
   17.40000      1.9759462E-08
   17.46000      1.9210729E-08
   17.52000      1.8439769E-08
   17.58000      1.7426864E-08
   17.64000      1.6187110E-08
   17.70000      1.4769247E-08
   17.76000      1.3245578E-08
   17.82000      1.1694928E-08
   17.88000      1.0182728E-08
   17.94000      8.7435641E-09
   18.00000      7.3714128E-09
   18.06000      6.0210659E-09
   18.12000      4.6212154E-09
   18.18000      3.0961622E-09
   18.24000      1.3902112E-09
   18.30000     -5.1239479E-10
   18.36000     -2.5781728E-09
   18.42000     -4.7289079E-09
   18.48000     -6.8590005E-09
   18.54000     -8.8606589E-09
   18.60000     -1.0649401E-08
   18.66000     -1.2182058E-08
   18.72000     -1.3461656E-08
   18.78000     -1.4527696E-08
   18.84000     -1.5434980E-08
   18.90000     -1.6227999E-08
   18.96000     -1.6919513E-08
   19.02000     -1.7480795E-08
   19.08000     -1.7847229E-08
   19.14000     -1.7937900E-08
   19.20000     -1.7683027E-08
   19.26000     -1.7050317E-08
   19.32000     -1.6061533E-08
   19.38000     -1.4793700E-08
   19.44000     -1.3364409E-08
   19.50000     -1.1905815E-08
   19.56000     -1.0535444E-08
   19.62000     -9.3327257E-09
   19.68000     -8.3279703E-09
   19.74000     -7.5061921E-09
   19.80000     -6.8232593E-09
   19.86000     -6.2279653E-09
   19.92000     -5.6820673E-09
   19.98000     -5.1715934E-09
   20.04000     -4.7062634E-09
   20.10000     -4.3084434E-09
   20.16000     -3.9969628E-09
   20.22000     -3.7729371E-09
   20.28000     -3.6138053E-09
   20.34000     -3.4783647E-09
   20.40000     -3.3210610E-09
   20.46000     -3.1098455E-09
   20.52000     -2.8401588E-09
   20.58000     -2.5387936E-09
   20.64000     -2.2551192E-09
   20.70000     -2.0420592E-09
   20.76000     -1.9333979E-09
   20.82000     -1.9258604E-09
   20.88000     -1.9731712E-09
   20.94000     -1.9953401E-09
   21.00000     -1.9011814E-09
   21.06000     -1.6173267E-09
   21.12000     -1.1145188E-09
   21.18000     -4.2257928E-10
   21.24000      3.7103026E-10
   21.30000      1.1388945E-09
   21.36000      1.7422607E-09
   21.42000      2.0618762E-09
   21.48000      2.0218596E-09
   21.54000      1.5998928E-09
   21.60000      8.2160950E-10
   21.66000     -2.5785563E-10
   21.72000     -1.5782404E-09
   21.78000     -3.0960050E-09
   21.84000     -4.7964623E-09
   21.90000     -6.6925652E-09
   21.96000     -8.8113401E-09
   22.02000     -1.1173166E-08
   22.08000     -1.3771460E-08
   22.14000     -1.6560278E-08
   22.20000     -1.9454685E-08
   22.26000     -2.2344535E-08
   22.32000     -2.5117735E-08
   22.38000     -2.7685696E-08
   22.44000     -3.0002749E-08
   22.50000     -3.2073018E-08
   22.56000     -3.3942413E-08
   22.62000     -3.5678401E-08
   22.68000     -3.7344396E-08
   22.74000     -3.8977575E-08
   22.80000     -4.0577657E-08
   22.86000     -4.2110315E-08
   22.92000     -4.3523638E-08
   22.98000     -4.4771511E-08
   23.04000     -4.5835254E-08
   23.10000     -4.6735671E-08
   23.16000     -4.7530971E-08
   23.22000     -4.8301082E-08
   23.28000     -4.9123535E-08
   23.34000     -5.0048889E-08
   23.40000     -5.1083919E-08
   23.46000     -5.2188039E-08
   23.52000     -5.3284200E-08
   23.58000     -5.4280576E-08
   23.64000     -5.5095924E-08
   23.70000     -5.5680289E-08
   23.76000     -5.6024344E-08
   23.82000     -5.6154636E-08
   23.88000     -5.6116814E-08
   23.94000     -5.5953361E-08
   24.00000     -5.5684168E-08
   24.06000     -5.5297299E-08
   24.12000     -5.4753581E-08
   24.18000     -5.4003515E-08
   24.24000     -5.3010300E-08
   24.30000     -5.1770698E-08
   24.36000     -5.0325756E-08
   24.42000     -4.8757212E-08
   24.48000     -4.7170186E-08
   24.54000     -4.5667562E-08
   24.60000     -4.4324352E-08
   24.66000     -4.3170516E-08
   24.72000     -4.2188240E-08
   24.78000     -4.1324935E-08
   24.84000     -4.0518270E-08
   24.90000     -3.9725236E-08
   24.96000     -3.8945547E-08
   25.02000     -3.8231054E-08
   25.08000     -3.7677076E-08
   25.14000     -3.7397708E-08
   25.20000     -3.7492697E-08
   25.26000     -3.8016864E-08
   25.32000     -3.8962490E-08
   25.38000     -4.0260886E-08
   25.44000     -4.1802796E-08
   25.50000     -4.3470902E-08
   25.56000     -4.5173707E-08
   25.62000     -4.6869815E-08
   25.68000     -4.8575295E-08
   25.74000     -5.0352359E-08
   25.80000     -5.2283667E-08
   25.86000     -5.4440605E-08
   25.92000     -5.6855228E-08
   25.98000     -5.9503897E-08
   26.04000     -6.2306839E-08
   26.10000     -6.5143119E-08
   26.16000     -6.7876435E-08
   26.22000     -7.0384111E-08
   26.28000     -7.2581614E-08
   26.34000     -7.4436265E-08
   26.40000     -7.5967179E-08
   26.46000     -7.7232656E-08
   26.52000     -7.8309114E-08
   26.58000     -7.9267679E-08
   26.64000     -8.0154379E-08
   26.70000     -8.0978289E-08
   26.76000     -8.1709558E-08
   26.82000     -8.2286839E-08
   26.88000     -8.2631928E-08
   26.94000     -8.2668073E-08
   27.00000     -8.2337991E-08
   27.06000     -8.1617927E-08
   27.12000     -8.0524615E-08
   27.18000     -7.9113342E-08
   27.24000     -7.7467568E-08
   27.30000     -7.5682330E-08
   27.36000     -7.3845790E-08
   27.42000     -7.2023511E-08
   27.48000     -7.0249847E-08
   27.54000     -6.8528244E-08
   27.60000     -6.6839952E-08
   27.66000     -6.5157586E-08
   27.72000     -6.3459062E-08
   27.78000     -6.1737047E-08
   27.84000     -6.0001064E-08
   27.90000     -5.8272054E-08
   27.96000     -5.6571874E-08
   28.02000     -5.4911876E-08
   28.08000     -5.3285163E-08
   28.14000     -5.1665349E-08
   28.20000     -5.0012371E-08
   28.26000     -4.8283443E-08
   28.32000     -4.6445432E-08
   28.38000     -4.4485031E-08
   28.44000     -4.2413834E-08
   28.50000     -4.0267391E-08
   28.56000     -3.8098886E-08
   28.62000     -3.5969251E-08
   28.68000     -3.3936040E-08
   28.74000     -3.2043260E-08
   28.80000     -3.0314173E-08
   28.86000     -2.8748415E-08
   28.92000     -2.7324184E-08
   28.98000     -2.6005042E-08
   29.04000     -2.4749731E-08
   29.10000     -2.3522498E-08
   29.16000     -2.2300984E-08
   29.22000     -2.1079584E-08
   29.28000     -1.9867564E-08
   29.34000     -1.8683117E-08
   29.40000     -1.7545801E-08
   29.46000     -1.6470350E-08
   29.52000     -1.5464014E-08
   29.58000     -1.4528164E-08
   29.64000     -1.3662972E-08
   29.70000     -1.2872724E-08
   29.76000     -1.2168765E-08
   29.82000     -1.1567888E-08
   29.88000     -1.1085614E-08
   29.94000     -1.0726003E-08
   30.00000     -1.0471625E-08
   30.06000     -1.0278105E-08
   30.12000     -1.0076947E-08
   30.18000     -9.7878958E-09
   30.24000     -9.3386197E-09
   30.30000     -8.6862428E-09
   30.36000     -7.8334192E-09
   30.42000     -6.8324018E-09
   30.48000     -5.7738232E-09
   30.54000     -4.7619504E-09
   30.60000     -3.8832177E-09
   30.66000     -3.1780529E-09
   30.72000     -2.6259832E-09
   30.78000     -2.1504636E-09
   30.84000     -1.6436630E-09
   30.90000     -1.0045546E-09
   30.96000     -1.7843049E-10
   31.02000      8.1564516E-10
   31.08000      1.8799904E-09
   31.14000      2.8597722E-09
   31.20000      3.5857801E-09
   31.26000      3.9258419E-09
   31.32000      3.8283834E-09
   31.38000      3.3432417E-09
   31.44000      2.6117009E-09
   31.50000      1.8276296E-09
   31.56000      1.1812775E-09
   31.62000      8.0328649E-10
   31.68000      7.2667133E-10
   31.74000      8.7879892E-10
   31.80000      1.1057270E-09
   31.86000      1.2209459E-09
   31.92000      1.0630414E-09
   31.98000      5.4439769E-10
   32.04000     -3.2362185E-10
   32.10000     -1.4358861E-09
   32.16000     -2.6264688E-09
   32.22000     -3.7184424E-09
   32.28000     -4.5748916E-09
   32.34000     -5.1357669E-09
   32.40000     -5.4300608E-09
   32.46000     -5.5606897E-09
   32.52000     -5.6679546E-09
   32.58000     -5.8838756E-09
   32.64000     -6.2921353E-09
   32.70000     -6.9060864E-09
   32.76000     -7.6710576E-09
   32.82000     -8.4891658E-09
   32.88000     -9.2575805E-09
   32.94000     -9.9071071E-09
   33.00000     -1.0428287E-08
   33.06000     -1.0876628E-08
   33.12000     -1.1355620E-08
   33.18000     -1.1983430E-08
   33.24000     -1.2854291E-08
   33.30000     -1.4007193E-08
   33.36000     -1.5412043E-08
   33.42000     -1.6977834E-08
   33.48000     -1.8580275E-08
   33.54000     -2.0100057E-08
   33.60000     -2.1459282E-08
   33.66000     -2.2643970E-08
   33.72000     -2.3705002E-08
   33.78000     -2.4736989E-08
   33.84000     -2.5842127E-08
   33.90000     -2.7091527E-08
   33.96000     -2.8497567E-08
   34.02000     -3.0007136E-08
   34.08000     -3.1518418E-08
   34.14000     -3.2915356E-08
   34.20000     -3.4107661E-08
   34.26000     -3.5062129E-08
   34.32000     -3.5814086E-08
   34.38000     -3.6454725E-08
   34.44000     -3.7098637E-08
   34.50000     -3.7842625E-08
   34.56000     -3.8729965E-08
   34.62000     -3.9732331E-08
   34.68000     -4.0755552E-08
   34.74000     -4.1667267E-08
   34.80000     -4.2337224E-08
   34.86000     -4.2676685E-08
   34.92000     -4.2664034E-08
   34.98000     -4.2348336E-08
   35.04000     -4.1830493E-08
   35.10000     -4.1229097E-08
   35.16000     -4.0643179E-08
   35.22000     -4.0124586E-08
   35.28000     -3.9668627E-08
   35.34000     -3.9224801E-08
   35.40000     -3.8721925E-08
   35.46000     -3.8097447E-08
   35.52000     -3.7319815E-08
   35.58000     -3.6396287E-08
   35.64000     -3.5364788E-08
   35.70000     -3.4274436E-08
   35.76000     -3.3163634E-08
   35.82000     -3.2044714E-08
   35.88000     -3.0901219E-08
   35.94000     -2.9698342E-08
   36.00000     -2.8401688E-08
   36.06000     -2.6996348E-08
   36.12000     -2.5498130E-08
   36.18000     -2.3952227E-08
   36.24000     -2.2419718E-08
   36.30000     -2.0957252E-08
   36.36000     -1.9598135E-08
   36.42000     -1.8342325E-08
   36.48000     -1.7159339E-08
   36.54000     -1.6002769E-08
   36.60000     -1.4830721E-08
   36.66000     -1.3624173E-08
   36.72000     -1.2396423E-08
   36.78000     -1.1190338E-08
   36.84000     -1.0064817E-08
   36.90000     -9.0756602E-09
   36.96000     -8.2578291E-09
   37.02000     -7.6151752E-09
   37.08000     -7.1209674E-09
   37.14000     -6.7287322E-09
   37.20000     -6.3896231E-09
   37.26000     -6.0704908E-09
   37.32000     -5.7667506E-09
   37.38000     -5.5058997E-09
   37.44000     -5.3406182E-09
   37.50000     -5.3338165E-09
   37.56000     -5.5406266E-09
   37.62000     -5.9932739E-09
   37.68000     -6.6936154E-09
   37.74000     -7.6153022E-09
   37.80000     -8.7140535E-09
   37.86000     -9.9417727E-09
   37.92000     -1.1259165E-08
   37.98000     -1.2642563E-08
   38.04000     -1.4083206E-08
   38.10000     -1.5580305E-08
   38.16000     -1.7131592E-08
   38.22000     -1.8725846E-08
   38.28000     -2.0340972E-08
   38.34000     -2.1948880E-08
   38.40000     -2.3525589E-08
   38.46000     -2.5062635E-08
   38.52000     -2.6574847E-08
   38.58000     -2.8100368E-08
   38.64000     -2.9691208E-08
   38.70000     -3.1396187E-08
   38.76000     -3.3241299E-08
   38.82000     -3.5214327E-08
   38.88000     -3.7260037E-08
   38.94000     -3.9289183E-08
   39.00000     -4.1199947E-08
   39.06000     -4.2905874E-08
   39.12000     -4.4361489E-08
   39.18000     -4.5576716E-08
   39.24000     -4.6614577E-08
   39.30000     -4.7571906E-08
   39.36000     -4.8548529E-08
   39.42000     -4.9614531E-08
   39.48000     -5.0786280E-08
   39.54000     -5.2019296E-08
   39.60000     -5.3220834E-08
   39.66000     -5.4278473E-08
   39.72000     -5.5095672E-08
   39.78000     -5.5622628E-08
   39.84000     -5.5872121E-08
   39.90000     -5.5914825E-08
   39.96000     -5.5855374E-08
   40.02000     -5.5796793E-08
   40.08000     -5.5804989E-08
   40.14000     -5.5884847E-08
   40.20000     -5.5975882E-08
   40.26000     -5.5968894E-08
   40.32000     -5.5738475E-08
   40.38000     -5.5181097E-08
   40.44000     -5.4247071E-08
   40.50000     -5.2956512E-08
   40.56000     -5.1394757E-08
   40.62000     -4.9688904E-08
   40.68000     -4.7972939E-08
   40.74000     -4.6352177E-08
   40.80000     -4.4877662E-08
   40.86000     -4.3537806E-08
   40.92000     -4.2268869E-08
   40.98000     -4.0980090E-08
   41.04000     -3.9584975E-08
   41.10000     -3.8028727E-08
   41.16000     -3.6303859E-08
   41.22000     -3.4450139E-08
   41.28000     -3.2540360E-08
   41.34000     -3.0657500E-08
   41.40000     -2.8871128E-08
   41.46000     -2.7220265E-08
   41.52000     -2.5707287E-08
   41.58000     -2.4303574E-08
   41.64000     -2.2964008E-08
   41.70000     -2.1644919E-08
   41.76000     -2.0319584E-08
   41.82000     -1.8986670E-08
   41.88000     -1.7669636E-08
   41.94000     -1.6408269E-08
   42.00000     -1.5245872E-08
   42.06000     -1.4216821E-08
   42.12000     -1.3338544E-08
   42.18000     -1.2610077E-08
   42.24000     -1.2016834E-08
   42.30000     -1.1539152E-08
   42.36000     -1.1161122E-08
   42.42000     -1.0876599E-08
   42.48000     -1.0690635E-08
   42.54000     -1.0616435E-08
   42.60000     -1.0669474E-08
   42.66000     -1.0861262E-08
   42.72000     -1.1195093E-08
   42.78000     -1.1665250E-08
   42.84000     -1.2259818E-08
   42.90000     -1.2965886E-08
   42.96000     -1.3775063E-08
   43.02000     -1.4687032E-08
   43.08000     -1.5709501E-08
   43.14000     -1.6854225E-08
   43.20000     -1.8130336E-08
   43.26000     -1.9537476E-08
   43.32000     -2.1061608E-08
   43.38000     -2.2675847E-08
   43.44000     -2.4346841E-08
   43.50000     -2.6045223E-08
   43.56000     -2.7756865E-08
   43.62000     -2.9490774E-08
   43.68000     -3.1280305E-08
   43.74000     -3.3176381E-08
   43.80000     -3.5234205E-08
   43.86000     -3.7497603E-08
   43.92000     -3.9986418E-08
   43.98000     -4.2691799E-08
   44.04000     -4.5581924E-08
   44.10000     -4.8617071E-08
   44.16000     -5.1769540E-08
   44.22000     -5.5041923E-08
   44.28000     -5.8477461E-08
   44.34000     -6.2158584E-08
   44.40000     -6.6194076E-08
   44.46000     -7.0699386E-08
   44.52000     -7.5777486E-08
   44.58000     -8.1508013E-08
   44.64000     -8.7949715E-08
   44.70000     -9.5156942E-08
   44.76000     -1.0320576E-07
   44.82000     -1.1222188E-07
   44.88000     -1.2240210E-07
   44.94000     -1.3402332E-07
   45.00000     -1.4743837E-07
   45.06000     -1.6306247E-07
   45.12000     -1.8135823E-07
   45.18000     -2.0282673E-07
   45.24000     -2.2801007E-07
   45.30000     -2.5750646E-07
   45.36000     -2.9199424E-07
   45.42000     -3.3225933E-07
   45.48000     -3.7922004E-07
   45.54000     -4.3394630E-07
   45.60000     -4.9767169E-07
   45.66000     -5.7180159E-07
   45.72000     -6.5792000E-07
   45.78000     -7.5779866E-07
   45.84000     -8.7341192E-07
   45.90000     -1.0069572E-06
   45.96000     -1.1608812E-06
   46.02000     -1.3379100E-06
   46.08000     -1.5410792E-06
   46.14000     -1.7737609E-06
   46.20000     -2.0396888E-06
   46.26000     -2.3429791E-06
   46.32000     -2.6881503E-06
   46.38000     -3.0801496E-06
   46.44000     -3.5243813E-06
   46.50000     -4.0267428E-06
   46.56000     -4.5936645E-06
   46.62000     -5.2321457E-06
   46.68000     -5.9497884E-06
   46.74000     -6.7548162E-06
   46.80000     -7.6560827E-06
   46.86000     -8.6630725E-06
   46.92000     -9.7859029E-06
   46.98000     -1.1035323E-05
   47.04000     -1.2422715E-05
   47.10000     -1.3960103E-05
   47.16000     -1.5660160E-05
   47.22000     -1.7536206E-05
   47.28000     -1.9602194E-05
   47.34000     -2.1872685E-05
   47.40000     -2.4362784E-05
   47.46000     -2.7088092E-05
   47.52000     -3.0064608E-05
   47.58000     -3.3308654E-05
   47.64000     -3.6836784E-05
   47.70000     -4.0665687E-05
   47.76000     -4.4812128E-05
   47.82000     -4.9292827E-05
   47.88000     -5.4124372E-05
   47.94000     -5.9323076E-05
   48.00000     -6.4904831E-05
   48.06000     -7.0884926E-05
   48.12000     -7.7277866E-05
   48.18000     -8.4097184E-05
   48.24000     -9.1355221E-05
   48.30000     -9.9062949E-05
   48.36000     -1.0722985E-04
   48.42000     -1.1586377E-04
   48.48000     -1.2497073E-04
   48.54000     -1.3455488E-04
   48.60000     -1.4461827E-04
   48.66000     -1.5516070E-04
   48.72000     -1.6617960E-04
   48.78000     -1.7766975E-04
   48.84000     -1.8962323E-04
   48.90000     -2.0202924E-04
   48.96000     -2.1487410E-04
   49.02000     -2.2814120E-04
   49.08000     -2.4181101E-04
   49.14000     -2.5586112E-04
   49.20000     -2.7026635E-04
   49.26000     -2.8499882E-04
   49.32000     -3.0002807E-04
   49.38000     -3.1532091E-04
   49.44000     -3.3084195E-04
   49.50000     -3.4655342E-04
   49.56000     -3.6241559E-04
   49.62000     -3.7838702E-04
   49.68000     -3.9442480E-04
   49.74000     -4.1048502E-04
   49.80000     -4.2652301E-04
   49.86000     -4.4249377E-04
   49.92000     -4.5835233E-04
   49.98000     -4.7405416E-04
   50.04000     -4.8955547E-04
   50.10000     -5.0481368E-04
   50.16000     -5.1978766E-04
   50.22000     -5.3443818E-04
   50.28000     -5.4872845E-04
   50.34000     -5.6262431E-04
   50.40000     -5.7609478E-04
   50.46000     -5.8911252E-04
   50.52000     -6.0165371E-04
   50.58000     -6.1369856E-04
   50.64000     -6.2523154E-04
   50.70000     -6.3624134E-04
   50.76000     -6.4672093E-04
   50.82000     -6.5666798E-04
   50.88000     -6.6608435E-04
   50.94000     -6.7497650E-04
   51.00000     -6.8335544E-04
   51.06000     -6.9123623E-04
   51.12000     -6.9863815E-04
   51.18000     -7.0558424E-04
   51.24000     -7.1210117E-04
   51.30000     -7.1821868E-04
   51.36000     -7.2396925E-04
   51.42000     -7.2938774E-04
   51.48000     -7.3451072E-04
   51.54000     -7.3937624E-04
   51.60000     -7.4402301E-04
   51.66000     -7.4849045E-04
   51.72000     -7.5281766E-04
   51.78000     -7.5704319E-04
   51.84000     -7.6120440E-04
   51.90000     -7.6533691E-04
   51.96000     -7.6947408E-04
   52.02000     -7.7364675E-04
   52.08000     -7.7788276E-04
   52.14000     -7.8220654E-04
   52.20000     -7.8663888E-04
   52.26000     -7.9119659E-04
   52.32000     -7.9589209E-04
   52.38000     -8.0073345E-04
   52.44000     -8.0572435E-04
   52.50000     -8.1086397E-04
   52.56000     -8.1614708E-04
   52.62000     -8.2156423E-04
   52.68000     -8.2710193E-04
   52.74000     -8.3274266E-04
   52.80000     -8.3846506E-04
   52.86000     -8.4424438E-04
   52.92000     -8.5005304E-04
   52.98000     -8.5586088E-04
   53.04000     -8.6163566E-04
   53.10000     -8.6734368E-04
   53.16000     -8.7295013E-04
   53.22000     -8.7841961E-04
   53.28000     -8.8371674E-04
   53.34000     -8.8880642E-04
   53.40000     -8.9365477E-04
   53.46000     -8.9822913E-04
   53.52000     -9.0249907E-04
   53.58000     -9.0643670E-04
   53.64000     -9.1001682E-04
   53.70000     -9.1321761E-04
   53.76000     -9.1602042E-04
   53.82000     -9.1841060E-04
   53.88000     -9.2037715E-04
   53.94000     -9.2191296E-04
   54.00000     -9.2301506E-04
   54.06000     -9.2368480E-04
   54.12000     -9.2392764E-04
   54.18000     -9.2375302E-04
   54.24000     -9.2317449E-04
   54.30000     -9.2220918E-04
   54.36000     -9.2087733E-04
   54.42000     -9.1920234E-04
   54.48000     -9.1720995E-04
   54.54000     -9.1492810E-04
   54.60000     -9.1238669E-04
   54.66000     -9.0961676E-04
   54.72000     -9.0665050E-04
   54.78000     -9.0352033E-04
   54.84000     -9.0025889E-04
   54.90000     -8.9689833E-04
   54.96000     -8.9346955E-04
   55.02000     -8.9000247E-04
   55.08000     -8.8652485E-04
   55.14000     -8.8306237E-04
   55.20000     -8.7963842E-04
   55.26000     -8.7627349E-04
   55.32000     -8.7298540E-04
   55.38000     -8.6978875E-04
   55.44000     -8.6669484E-04
   55.50000     -8.6371152E-04
   55.56000     -8.6084317E-04