  -2.400000      0.0000000E+00
  -2.340000      0.0000000E+00
  -2.280000      0.0000000E+00
  -2.220000      0.0000000E+00
  -2.160000      0.0000000E+00
  -2.100000      0.0000000E+00
  -2.040000      0.0000000E+00
  -1.980000      0.0000000E+00
  -1.920000     -3.4780636E-25
  -1.860000     -3.9007278E-24
  -1.800000     -2.1011179E-23
  -1.740000     -6.8625112E-23
  -1.680000     -1.3223952E-22
  -1.620000     -5.3446519E-23
  -1.560000      6.0378793E-22
  -1.500000      2.4089888E-21
  -1.440000      5.1071908E-21
  -1.380000      5.6449814E-21
  -1.320000     -3.4387126E-21
  -1.260000     -3.1320835E-20
  -1.200000     -7.7015982E-20
  -1.140000     -1.0875513E-19
  -1.080000     -4.9511157E-20
  -1.020000      1.9908792E-19
 -0.9600000      6.6190067E-19
 -0.9000000      1.1344859E-18
 -0.8400000      1.0677682E-18
 -0.7800000     -3.1216698E-19
 -0.7200000     -3.4663936E-18
 -0.6600000     -7.6348663E-18
 -0.6000000     -1.0052292E-17
 -0.5400000     -6.2157325E-18
 -0.4800000      7.9025287E-18
 -0.4200000      3.1730724E-17
 -0.3600000      5.5877500E-17
 -0.3000000      6.1396210E-17
 -0.2400000      2.6270429E-17
 -0.1800000     -6.0048045E-17
 -0.1200000     -1.7912379E-16
 -5.9999999E-02 -2.7439399E-16
  0.0000000E+00 -2.6356979E-16
  5.9999999E-02 -7.8597901E-17
  0.1200000      2.7738090E-16
  0.1800000      6.8605296E-16
  0.2400000      9.2236509E-16
  0.3000000      7.4134012E-16
  0.3600000      2.9283104E-17
  0.4200000     -1.0474667E-15
  0.4800000     -1.9986549E-15
  0.5400000     -2.1578090E-15
  0.6000000     -1.0252534E-15
  0.6600000      1.3180927E-15
  0.7200000      3.9609433E-15
  0.7800000      5.3212558E-15
  0.8400000      3.8167927E-15
  0.9000000     -1.1293820E-15
  0.9600000     -8.2199491E-15
   1.020000     -1.4156933E-14
   1.080000     -1.4681651E-14
   1.140000     -6.6806463E-15
   1.200000      9.4336448E-15
   1.260000      2.8365904E-14
   1.320000      4.0843915E-14
   1.380000      3.7206346E-14
   1.440000      1.2692148E-14
   1.500000     -2.7927322E-14
   1.560000     -6.9273966E-14
   1.620000     -8.9818059E-14
   1.680000     -7.1425389E-14
   1.740000     -1.0516957E-14
   1.800000      7.4797556E-14
   1.860000      1.4698759E-13
   1.920000      1.6277446E-13
   1.980000      9.4586326E-14
   2.040000     -4.9302434E-14
   2.100000     -2.1727342E-13
   2.160000     -3.2756586E-13
   2.220000     -3.0158604E-13
   2.280000     -1.0582151E-13
   2.340000      2.1705932E-13
   2.400000      5.4716068E-13
   2.460000      7.2522484E-13
   2.520000      6.2051070E-13
   2.580000      2.0213064E-13
   2.640000     -4.2099719E-13
   2.700000     -1.0188223E-12
   2.760000     -1.3214958E-12
   2.820000     -1.1370769E-12
   2.880000     -4.5584223E-13
   2.940000      5.1188996E-13
   3.000000      1.3950202E-12
   3.060000      1.8067250E-12
   3.120000      1.5201678E-12
   3.180000      5.9542123E-13
   3.240000     -6.1111386E-13
   3.300000     -1.5772517E-12
   3.360000     -1.8432619E-12
   3.420000     -1.2413764E-12
   3.480000     -1.4806360E-14
   3.540000      1.2484757E-12
   3.600000      1.8627790E-12
   3.660000      1.3791571E-12
   3.720000     -1.4316998E-13
   3.780000     -2.0717252E-12
   3.840000     -3.4080844E-12
   3.900000     -3.2133330E-12
   3.960000     -1.0851555E-12
   4.020000      2.5299790E-12
   4.080000      6.3620493E-12
   4.140000      8.7227352E-12
   4.200000      8.1667095E-12
   4.260000      4.1536518E-12
   4.320000     -2.5765258E-12
   4.380000     -1.0110402E-11
   4.440000     -1.5956788E-11
   4.500000     -1.7929581E-11
   4.560000     -1.4977301E-11
   4.620000     -7.6178517E-12
   4.680000      2.2157673E-12
   4.740000      1.1873030E-11
   4.800000      1.8948411E-11
   4.860000      2.2109113E-11
   4.920000      2.1437446E-11
   4.980000      1.8143270E-11
   5.040000      1.3780475E-11
   5.100000      9.3315538E-12
   5.160000      4.6015409E-12
   5.220000     -1.7539733E-12
   5.280000     -1.1510278E-11
   5.340000     -2.5717362E-11
   5.400000     -4.3578367E-11
   5.460000     -6.1867150E-11
   5.520000     -7.5213891E-11
   5.580000     -7.7269628E-11
   5.640000     -6.2425010E-11
   5.700000     -2.7539559E-11
   5.760000      2.6876451E-11
   5.820000      9.6386912E-11
   5.880000      1.7328725E-10
   5.940000      2.4788113E-10
   6.000000      3.0985631E-10
   6.060000      3.4924449E-10
   6.120000      3.5667111E-10
   6.180000      3.2294567E-10
   6.240000      2.3837504E-10
   6.300000      9.2355783E-11
   6.360000     -1.2626226E-10
   6.420000     -4.2783665E-10
   6.480000     -8.1981749E-10
   6.540000     -1.3044141E-09
   6.600000     -1.8767565E-09
   6.660000     -2.5241405E-09
   6.720000     -3.2265897E-09
   6.780000     -3.9585073E-09
   6.840000     -4.6908348E-09
   6.900000     -5.3930260E-09
   6.960000     -6.0343788E-09
   7.020000     -6.5846826E-09
   7.080000     -7.0146466E-09
   7.140000     -7.2968307E-09
   7.200000     -7.4077060E-09
   7.260000     -7.3310220E-09
   7.320000     -7.0619333E-09
   7.380000     -6.6107124E-09
   7.440000     -6.0046088E-09
   7.500000     -5.2866378E-09
   7.560000     -4.5108712E-09
   7.620000     -3.7348400E-09
   7.680000     -3.0106062E-09
   7.740000     -2.3765876E-09
   7.800000     -1.8520745E-09
   7.860000     -1.4356568E-09
   7.920000     -1.1076874E-09
   7.980000     -8.3585289E-10
   8.040000     -5.8224969E-10
   8.100000     -3.1025046E-10
   8.160000      1.0129470E-11
   8.220000      3.9893852E-10
   8.280000      8.6492380E-10
   8.340000      1.4055134E-09
   8.400000      2.0075182E-09
   8.460000      2.6482128E-09
   8.520000      3.2968694E-09
   8.580000      3.9171257E-09
   8.640000      4.4705706E-09
   8.700000      4.9216302E-09
   8.760000      5.2432694E-09
   8.820000      5.4224936E-09
   8.880000      5.4643081E-09
   8.940000      5.3928937E-09
   9.000000      5.2492628E-09
   9.060000      5.0855147E-09
   9.120000      4.9566884E-09
   9.180000      4.9119260E-09
   9.240000      4.9868878E-09
   9.300000      5.1990741E-09
   9.360000      5.5469473E-09
   9.420000      6.0127121E-09
   9.480000      6.5676726E-09
   9.540000      7.1784965E-09
   9.600000      7.8126527E-09
   9.660000      8.4418641E-09
   9.720000      9.0432444E-09
   9.780000      9.5987822E-09
   9.840000      1.0094350E-08
   9.900000      1.0519501E-08
   9.960000      1.0868706E-08
   10.02000      1.1143776E-08
   10.08000      1.1356302E-08
   10.14000      1.1528534E-08
   10.20000      1.1691354E-08
   10.26000      1.1878984E-08
   10.32000      1.2121332E-08
   10.38000      1.2436014E-08
   10.44000      1.2822564E-08
   10.50000      1.3260930E-08
   10.56000      1.3715064E-08
   10.62000      1.4140798E-08
   10.68000      1.4495773E-08
   10.74000      1.4748440E-08
   10.80000      1.4883485E-08
   10.86000      1.4902270E-08
   10.92000      1.4818476E-08
   10.98000      1.4650749E-08
   11.04000      1.4414935E-08
   11.10000      1.4118564E-08
   11.16000      1.3759250E-08
   11.22000      1.3327327E-08
   11.28000      1.2811610E-08
   11.34000      1.2206171E-08
   11.40000      1.1515771E-08
   11.46000      1.0758048E-08
   11.52000      9.9616653E-09
   11.58000      9.1608836E-09
   11.64000      8.3881080E-09
   11.70000      7.6665749E-09
   11.76000      7.0052613E-09
   11.82000      6.3973706E-09
   11.88000      5.8227703E-09
   11.94000      5.2536375E-09
   12.00000      4.6618664E-09
   12.06000      4.0264805E-09
   12.12000      3.3395107E-09
   12.18000      2.6092564E-09
   12.24000      1.8604686E-09
   12.30000      1.1315229E-09
   12.36000      4.6907572E-10
   12.42000     -7.9006510E-11
   12.48000     -4.7142273E-10
   12.54000     -6.8073547E-10
   12.60000     -6.9892153E-10
   12.66000     -5.3997234E-10
   12.72000     -2.3862290E-10
   12.78000      1.5512071E-10
   12.84000      5.8509964E-10
   12.90000      1.0001459E-09
   12.96000      1.3646697E-09
   13.02000      1.6656652E-09
   13.08000      1.9135860E-09
   13.14000      2.1360738E-09
   13.20000      2.3658193E-09
   13.26000      2.6261282E-09
   13.32000      2.9191063E-09
   13.38000      3.2209777E-09
   13.44000      3.4868168E-09
   13.50000      3.6636161E-09
   13.56000      3.7074070E-09
   13.62000      3.5984409E-09
   13.68000      3.3489762E-09
   13.74000      3.0008069E-09
   13.80000      2.6132987E-09
   13.86000      2.2459450E-09
   13.92000      1.9411663E-09
   13.98000      1.7127526E-09
   14.04000      1.5433194E-09
   14.10000      1.3912290E-09
   14.16000      1.2046235E-09
   14.22000      9.3831520E-10
   14.28000      5.6872201E-10
   14.34000      1.0281657E-10
   14.40000     -4.2111031E-10
   14.46000     -9.4073516E-10
   14.52000     -1.3827468E-09
   14.58000     -1.6779674E-09
   14.64000     -1.7746393E-09
   14.70000     -1.6468604E-09
   14.76000     -1.2967944E-09
   14.82000     -7.5105533E-10
   14.88000     -5.3010121E-11
   14.94000      7.4664652E-10
   15.00000      1.5987903E-09
   15.06000      2.4625784E-09
   15.12000      3.3090841E-09
   15.18000      4.1218033E-09
   15.24000      4.8946780E-09
   15.30000      5.6288281E-09
   15.36000      6.3293646E-09
   15.42000      7.0033854E-09
   15.48000      7.6595663E-09
   15.54000      8.3088665E-09
   15.60000      8.9652223E-09
   15.66000      9.6450270E-09
   15.72000      1.0364792E-08
   15.78000      1.1137374E-08
   15.84000      1.1967980E-08
   15.90000      1.2851434E-08
   15.96000      1.3771794E-08
   16.02000      1.4704528E-08
   16.08000      1.5620630E-08
   16.14000      1.6491617E-08
   16.20000      1.7294326E-08
   16.26000      1.8014777E-08
   16.32000      1.8650553E-08
   16.38000      1.9211283E-08
   16.44000      1.9716907E-08
   16.50000      2.0193594E-08
   16.56000      2.0667779E-08
   16.62000      2.1159538E-08
   16.68000      2.1677199E-08
   16.74000      2.2214904E-08
   16.80000      2.2754216E-08
   16.86000      2.3269347E-08
   16.92000      2.3734160E-08
   16.98000      2.4128409E-08
   17.04000      2.4440901E-08
   17.10000      2.4668489E-08
   17.16000      2.4811721E-08
   17.22000      2.4869177E-08
   17.28000      2.4833302E-08
   17.34000      2.4689610E-08
   17.40000      2.4419892E-08
   17.46000      2.4008163E-08
   17.52000      2.3447139E-08
   17.58000      2.2742785E-08
   17.64000      2.1915405E-08
   17.70000      2.0997081E-08
   17.76000      2.0026471E-08
   17.82000      1.9042599E-08
   17.88000      1.8079252E-08
   17.94000      1.7160865E-08
   18.00000      1.6300177E-08
   18.06000      1.5497490E-08
   18.12000      1.4741237E-08
   18.18000      1.4009879E-08
   18.24000      1.3275184E-08
   18.30000      1.2506969E-08
   18.36000      1.1678996E-08
   18.42000      1.0775122E-08
   18.48000      9.7943484E-09
   18.54000      8.7532595E-09
   18.60000      7.6847044E-09
   18.66000      6.6324568E-09
   18.72000      5.6427543E-09
   18.78000      4.7546971E-09
   18.84000      3.9920307E-09
   18.90000      3.3585845E-09
   18.96000      2.8386167E-09
   19.02000      2.4018416E-09
   19.08000      2.0115765E-09
   19.14000      1.6336835E-09
   19.20000      1.2440567E-09
   19.26000      8.3309515E-10
   19.32000      4.0657247E-10
   19.38000     -1.6877843E-11
   19.44000     -4.1093531E-10
   19.50000     -7.4841777E-10
   19.56000     -1.0085360E-09
   19.62000     -1.1831102E-09
   19.68000     -1.2801752E-09
   19.74000     -1.3237018E-09
   19.80000     -1.3490147E-09
   19.86000     -1.3947583E-09
   19.92000     -1.4934864E-09
   19.98000     -1.6635731E-09
   20.04000     -1.9048383E-09
   20.10000     -2.1991260E-09
   20.16000     -2.5155273E-09
   20.22000     -2.8186167E-09
   20.28000     -3.0773628E-09
   20.34000     -3.2724319E-09
   20.40000     -3.4002041E-09
   20.46000     -3.4727132E-09
   20.52000     -3.5136607E-09
   20.58000     -3.5515419E-09
   20.64000     -3.6116528E-09
   20.70000     -3.7091690E-09
   20.76000     -3.8453920E-09
   20.82000     -4.0084802E-09
   20.88000     -4.1786410E-09
   20.94000     -4.3362696E-09
   21.00000     -4.4704302E-09
   21.06000     -4.5849298E-09
   21.12000     -4.7000870E-09
   21.18000     -4.8498543E-09
   21.24000     -5.0755466E-09
   21.30000     -5.4183951E-09
   21.36000     -5.9131970E-09
   21.42000     -6.5845804E-09
   21.48000     -7.4462756E-09
   21.54000     -8.5028287E-09
   21.60000     -9.7527169E-09
   21.66000     -1.1191805E-08
   21.72000     -1.2816384E-08
   21.78000     -1.4625281E-08
   21.84000     -1.6620790E-08
   21.90000     -1.8808247E-08
   21.96000     -2.1194314E-08
   22.02000     -2.3784217E-08
   22.08000     -2.6578537E-08
   22.14000     -2.9570144E-08
   22.20000     -3.2741873E-08
   22.26000     -3.6065082E-08
   22.32000     -3.9499071E-08
   22.38000     -4.2991147E-08
   22.44000     -4.6477268E-08
   22.50000     -4.9883536E-08
   22.56000     -5.3128851E-08
   22.62000     -5.6129043E-08
   22.68000     -5.8802293E-08
   22.74000     -6.1075134E-08
   22.80000     -6.2888049E-08
   22.86000     -6.4199590E-08
   22.92000     -6.4988264E-08
   22.98000     -6.5252003E-08
   23.04000     -6.5005551E-08
   23.10000     -6.4276470E-08
   23.16000     -6.3100870E-08
   23.22000     -6.1520069E-08
   23.28000     -5.9578920E-08
   23.34000     -5.7326293E-08
   23.40000     -5.4817139E-08
   23.46000     -5.2114800E-08
   23.52000     -4.9291728E-08
   23.58000     -4.6427125E-08
   23.64000     -4.3601037E-08
   23.70000     -4.0885897E-08
   23.76000     -3.8337788E-08
   23.82000     -3.5989967E-08
   23.88000     -3.3850608E-08
   23.94000     -3.1905316E-08
   24.00000     -3.0123527E-08
   24.06000     -2.8466985E-08
   24.12000     -2.6898283E-08
   24.18000     -2.5387889E-08
   24.24000     -2.3918670E-08
   24.30000     -2.2487450E-08
   24.36000     -2.1103617E-08
   24.42000     -1.9785166E-08
   24.48000     -1.8553123E-08
   24.54000     -1.7425812E-08
   24.60000     -1.6414509E-08
   24.66000     -1.5521636E-08
   24.72000     -1.4741591E-08
   24.78000     -1.4063204E-08
   24.84000     -1.3472217E-08
   24.90000     -1.2952426E-08
   24.96000     -1.2485190E-08
   25.02000     -1.2048289E-08
   25.08000     -1.1615798E-08
   25.14000     -1.1160415E-08
   25.20000     -1.0658452E-08
   25.26000     -1.0096319E-08
   25.32000     -9.4763468E-09
   25.38000     -8.8198169E-09
   25.44000     -8.1660865E-09
   25.50000     -7.5680235E-09
   25.56000     -7.0851054E-09
   25.62000     -6.7759029E-09
   25.68000     -6.6913310E-09
   25.74000     -6.8692869E-09
   25.80000     -7.3307009E-09
   25.86000     -8.0768565E-09
   25.92000     -9.0881169E-09
   25.98000     -1.0324627E-08
   26.04000     -1.1729686E-08
   26.10000     -1.3236090E-08
   26.16000     -1.4774831E-08
   26.22000     -1.6284522E-08
   26.28000     -1.7719255E-08
   26.34000     -1.9052784E-08
   26.40000     -2.0277907E-08
   26.46000     -2.1401455E-08
   26.52000     -2.2436749E-08
   26.58000     -2.3396140E-08
   26.64000     -2.4285981E-08
   26.70000     -2.5105299E-08
   26.76000     -2.5847902E-08
   26.82000     -2.6506470E-08
   26.88000     -2.7076632E-08
   26.94000     -2.7559471E-08
   27.00000     -2.7961665E-08
   27.06000     -2.8293599E-08
   27.12000     -2.8566362E-08
   27.18000     -2.8788786E-08
   27.24000     -2.8965427E-08
   27.30000     -2.9095956E-08
   27.36000     -2.9175988E-08
   27.42000     -2.9199075E-08
   27.48000     -2.9159269E-08
   27.54000     -2.9053686E-08
   27.60000     -2.8884331E-08
   27.66000     -2.8658663E-08
   27.72000     -2.8388571E-08
   27.78000     -2.8087914E-08
   27.84000     -2.7769090E-08
   27.90000     -2.7439487E-08
   27.96000     -2.7098674E-08
   28.02000     -2.6736990E-08
   28.08000     -2.6335966E-08
   28.14000     -2.5870513E-08
   28.20000     -2.5312543E-08
   28.26000     -2.4635412E-08
   28.32000     -2.3818334E-08
   28.38000     -2.2849960E-08
   28.44000     -2.1730342E-08
   28.50000     -2.0470976E-08
   28.56000     -1.9093092E-08
   28.62000     -1.7624959E-08
   28.68000     -1.6099369E-08
   28.74000     -1.4552202E-08
   28.80000     -1.3022514E-08
   28.86000     -1.1553534E-08
   28.92000     -1.0193262E-08
   28.98000     -8.9930916E-09
   29.04000     -8.0033979E-09
   29.10000     -7.2662449E-09
   29.16000     -6.8066854E-09
   29.22000     -6.6250547E-09
   29.28000     -6.6927490E-09
   29.34000     -6.9531199E-09
   29.40000     -7.3276336E-09
   29.46000     -7.7259577E-09
   29.52000     -8.0576212E-09
   29.58000     -8.2427478E-09
   29.64000     -8.2198923E-09
   29.70000     -7.9500913E-09
   29.76000     -7.4172299E-09
   29.82000     -6.6255827E-09
   29.88000     -5.5957048E-09
   29.94000     -4.3597757E-09
   30.00000     -2.9572813E-09
   30.06000     -1.4316091E-09
   30.12000      1.7215848E-10
   30.18000      1.8082751E-09
   30.24000      3.4305703E-09
   30.30000      4.9926188E-09
   30.36000      6.4487495E-09
   30.42000      7.7566220E-09
   30.48000      8.8814947E-09
   30.54000      9.8013579E-09
   30.60000      1.0511285E-08
   30.66000      1.1025001E-08
   30.72000      1.1372276E-08
   30.78000      1.1592119E-08
   30.84000      1.1723432E-08
   30.90000      1.1795978E-08
   30.96000      1.1824577E-08
   31.02000      1.1808249E-08
   31.08000      1.1734170E-08
   31.14000      1.1584553E-08
   31.20000      1.1343881E-08
   31.26000      1.1004368E-08
   31.32000      1.0568754E-08
   31.38000      1.0050659E-08
   31.44000      9.4732098E-09
   31.50000      8.8663059E-09
   31.56000      8.2623943E-09
   31.62000      7.6905886E-09
   31.68000      7.1696942E-09
   31.74000      6.7019008E-09
   31.80000      6.2695955E-09
   31.86000      5.8373386E-09
   31.92000      5.3593023E-09
   31.98000      4.7902082E-09
   32.04000      4.0961399E-09
   32.10000      3.2615288E-09
   32.16000      2.2901721E-09
   32.22000      1.2006426E-09
   32.28000      1.8628248E-11
   32.34000     -1.2304248E-09
   32.40000     -2.5257374E-09
   32.46000     -3.8518628E-09
   32.52000     -5.1966351E-09
   32.58000     -6.5484849E-09
   32.64000     -7.8950730E-09
   32.70000     -9.2241361E-09
   32.76000     -1.0526048E-08
   32.82000     -1.1796662E-08
   32.88000     -1.3038811E-08
   32.94000     -1.4261522E-08
   33.00000     -1.5477172E-08
   33.06000     -1.6697838E-08
   33.12000     -1.7932555E-08
   33.18000     -1.9186729E-08
   33.24000     -2.0463787E-08
   33.30000     -2.1767830E-08
   33.36000     -2.3105430E-08
   33.42000     -2.4484917E-08
   33.48000     -2.5912998E-08
   33.54000     -2.7389977E-08
   33.60000     -2.8905959E-08
   33.66000     -3.0440138E-08
   33.72000     -3.1963879E-08
   33.78000     -3.3446636E-08
   33.84000     -3.4862296E-08
   33.90000     -3.6193761E-08
   33.96000     -3.7434475E-08
   34.02000     -3.8587118E-08
   34.08000     -3.9660719E-08
   34.14000     -4.0667651E-08
   34.20000     -4.1621167E-08
   34.26000     -4.2533564E-08
   34.32000     -4.3414662E-08
   34.38000     -4.4270482E-08
   34.44000     -4.5102574E-08
   34.50000     -4.5908479E-08
   34.56000     -4.6683539E-08
   34.62000     -4.7423534E-08
   34.68000     -4.8126946E-08
   34.74000     -4.8795933E-08
   34.80000     -4.9435393E-08
   34.86000     -5.0050708E-08
   34.92000     -5.0645134E-08
   34.98000     -5.1217967E-08
   35.04000     -5.1763994E-08
   35.10000     -5.2274224E-08
   35.16000     -5.2737409E-08
   35.22000     -5.3141836E-08
   35.28000     -5.3477180E-08
   35.34000     -5.3736123E-08
   35.40000     -5.3915588E-08
   35.46000     -5.4017157E-08
   35.52000     -5.4046239E-08
   35.58000     -5.4009710E-08
   35.64000     -5.3912451E-08
   35.70000     -5.3753642E-08
   35.76000     -5.3524275E-08
   35.82000     -5.3207220E-08
   35.88000     -5.2780695E-08
   35.94000     -5.2224962E-08
   36.00000     -5.1530897E-08
   36.06000     -5.0707815E-08
   36.12000     -4.9787566E-08
   36.18000     -4.8822415E-08
   36.24000     -4.7875915E-08
   36.30000     -4.7008587E-08
   36.36000     -4.6262734E-08
   36.42000     -4.5651660E-08
   36.48000     -4.5157666E-08
   36.54000     -4.4740101E-08
   36.60000     -4.4350834E-08
   36.66000     -4.3951449E-08
   36.72000     -4.3525702E-08
   36.78000     -4.3082892E-08
   36.84000     -4.2651557E-08
   36.90000     -4.2266802E-08
   36.96000     -4.1956675E-08
   37.02000     -4.1732662E-08
   37.08000     -4.1586983E-08
   37.14000     -4.1496424E-08
   37.20000     -4.1430308E-08
   37.26000     -4.1359449E-08
   37.32000     -4.1263760E-08
   37.38000     -4.1137117E-08
   37.44000     -4.0989182E-08
   37.50000     -4.0844043E-08
   37.56000     -4.0735795E-08
   37.62000     -4.0701490E-08
   37.68000     -4.0772740E-08
   37.74000     -4.0968075E-08
   37.80000     -4.1288512E-08
   37.86000     -4.1718131E-08
   37.92000     -4.2229743E-08
   37.98000     -4.2793825E-08
   38.04000     -4.3387441E-08
   38.10000     -4.3999911E-08
   38.16000     -4.4633271E-08
   38.22000     -4.5297814E-08
   38.28000     -4.6004885E-08
   38.34000     -4.6760064E-08
   38.40000     -4.7559343E-08
   38.46000     -4.8389385E-08
   38.52000     -4.9231073E-08
   38.58000     -5.0064358E-08
   38.64000     -5.0872380E-08
   38.70000     -5.1643518E-08
   38.76000     -5.2371526E-08
   38.82000     -5.3054535E-08
   38.88000     -5.3694034E-08
   38.94000     -5.4294144E-08
   39.00000     -5.4860699E-08
   39.06000     -5.5399237E-08
   39.12000     -5.5911720E-08
   39.18000     -5.6392611E-08
   39.24000     -5.6826185E-08
   39.30000     -5.7186899E-08
   39.36000     -5.7443721E-08
   39.42000     -5.7567302E-08
   39.48000     -5.7537378E-08
   39.54000     -5.7347307E-08
   39.60000     -5.7003799E-08
   39.66000     -5.6522225E-08
   39.72000     -5.5919873E-08
   39.78000     -5.5210585E-08
   39.84000     -5.4403230E-08
   39.90000     -5.3504305E-08
   39.96000     -5.2522715E-08
   40.02000     -5.1473773E-08
   40.08000     -5.0379757E-08
   40.14000     -4.9266578E-08
   40.20000     -4.8157844E-08
   40.26000     -4.7069140E-08
   40.32000     -4.6004846E-08
   40.38000     -4.4958682E-08
   40.44000     -4.3917264E-08
   40.50000     -4.2864983E-08
   40.56000     -4.1788216E-08
   40.62000     -4.0677730E-08
   40.68000     -3.9529052E-08
   40.74000     -3.8341419E-08
   40.80000     -3.7116102E-08
   40.86000     -3.5854672E-08
   40.92000     -3.4557647E-08
   40.98000     -3.3223721E-08
   41.04000     -3.1850060E-08
   41.10000     -3.0433934E-08
   41.16000     -2.8975897E-08
   41.22000     -2.7483761E-08
   41.28000     -2.5975986E-08
   41.34000     -2.4482580E-08
   41.40000     -2.3042215E-08
   41.46000     -2.1695582E-08
   41.52000     -2.0476765E-08
   41.58000     -1.9405729E-08
   41.64000     -1.8484872E-08
   41.70000     -1.7701142E-08
   41.76000     -1.7032720E-08
   41.82000     -1.6457221E-08
   41.88000     -1.5957667E-08
   41.94000     -1.5523757E-08
   42.00000     -1.5148604E-08
   42.06000     -1.4823505E-08
   42.12000     -1.4534481E-08
   42.18000     -1.4263230E-08
   42.24000     -1.3992573E-08
   42.30000     -1.3713843E-08
   42.36000     -1.3432427E-08
   42.42000     -1.3168562E-08
   42.48000     -1.2952856E-08
   42.54000     -1.2818527E-08
   42.60000     -1.2793558E-08
   42.66000     -1.2895324E-08
   42.72000     -1.3128391E-08
   42.78000     -1.3484457E-08
   42.84000     -1.3942917E-08
   42.90000     -1.4471478E-08
   42.96000     -1.5027810E-08
   43.02000     -1.5564014E-08
   43.08000     -1.6034903E-08
   43.14000     -1.6408967E-08
   43.20000     -1.6678523E-08
   43.26000     -1.6864774E-08
   43.32000     -1.7014708E-08
   43.38000     -1.7189988E-08
   43.44000     -1.7451393E-08
   43.50000     -1.7844354E-08
   43.56000     -1.8390583E-08
   43.62000     -1.9088134E-08
   43.68000     -1.9918549E-08
   43.74000     -2.0857176E-08
   43.80000     -2.1882169E-08
   43.86000     -2.2979158E-08
   43.92000     -2.4141325E-08
   43.98000     -2.5366832E-08
   44.04000     -2.6656480E-08
   44.10000     -2.8013707E-08
   44.16000     -2.9447447E-08
   44.22000     -3.0976683E-08
   44.28000     -3.2634894E-08
   44.34000     -3.4472887E-08
   44.40000     -3.6559506E-08
   44.46000     -3.8980549E-08
   44.52000     -4.1836703E-08
   44.58000     -4.5240988E-08
   44.64000     -4.9315933E-08
   44.70000     -5.4190618E-08
   44.76000     -5.9998079E-08
   44.82000     -6.6874584E-08
   44.88000     -7.4962486E-08
   44.94000     -8.4418183E-08
   45.00000     -9.5425250E-08
   45.06000     -1.0821074E-07
   45.12000     -1.2306111E-07
   45.18000     -1.4033371E-07
   45.24000     -1.6046148E-07
   45.30000     -1.8395080E-07
   45.36000     -2.1137612E-07
   45.42000     -2.4337592E-07
   45.48000     -2.8065546E-07
   45.54000     -3.2399828E-07
   45.60000     -3.7428583E-07
   45.66000     -4.3252152E-07
   45.72000     -4.9985391E-07
   45.78000     -5.7759576E-07
   45.84000     -6.6723675E-07
   45.90000     -7.7045280E-07
   45.96000     -8.8911310E-07
   46.02000     -1.0252899E-06
   46.08000     -1.1812710E-06
   46.14000     -1.3595793E-06
   46.20000     -1.5629934E-06
   46.26000     -1.7945721E-06
   46.32000     -2.0576808E-06
   46.38000     -2.3560178E-06
   46.44000     -2.6936405E-06
   46.50000     -3.0749886E-06
   46.56000     -3.5049070E-06
   46.62000     -3.9886586E-06
   46.68000     -4.5319371E-06
   46.74000     -5.1408729E-06
   46.80000     -5.8220385E-06
   46.86000     -6.5824584E-06
   46.92000     -7.4296149E-06
   46.98000     -8.3714613E-06
   47.04000     -9.4164288E-06
   47.10000     -1.0573430E-05
   47.16000     -1.1851848E-05
   47.22000     -1.3261524E-05
   47.28000     -1.4812727E-05
   47.34000     -1.6516116E-05
   47.40000     -1.8382707E-05
   47.46000     -2.0423815E-05
   47.52000     -2.2651020E-05
   47.58000     -2.5076102E-05
   47.64000     -2.7710996E-05
   47.70000     -3.0567709E-05
   47.76000     -3.3658253E-05
   47.82000     -3.6994559E-05
   47.88000     -4.0588369E-05
   47.94000     -4.4451146E-05
   48.00000     -4.8593931E-05
   48.06000     -5.3027245E-05
   48.12000     -5.7760946E-05
   48.18000     -6.2804109E-05
   48.24000     -6.8164882E-05
   48.30000     -7.3850410E-05
   48.36000     -7.9866630E-05
   48.42000     -8.6218206E-05
   48.48000     -9.2908369E-05
   48.54000     -9.9938814E-05
   48.60000     -1.0730960E-04
   48.66000     -1.1501896E-04
   48.72000     -1.2306326E-04
   48.78000     -1.3143684E-04
   48.84000     -1.4013198E-04
   48.90000     -1.4913885E-04
   48.96000     -1.5844553E-04
   49.02000     -1.6803788E-04
   49.08000     -1.7789964E-04
   49.14000     -1.8801245E-04
   49.20000     -1.9835577E-04
   49.26000     -2.0890715E-04
   49.32000     -2.1964204E-04
   49.38000     -2.3053412E-04
   49.44000     -2.4155535E-04
   49.50000     -2.5267620E-04
   49.56000     -2.6386566E-04
   49.62000     -2.7509168E-04
   49.68000     -2.8632113E-04
   49.74000     -2.9752040E-04
   49.80000     -3.0865526E-04
   49.86000     -3.1969161E-04
   49.92000     -3.3059553E-04
   49.98000     -3.4133365E-04
   50.04000     -3.5187337E-04
   50.10000     -3.6218311E-04
   50.16000     -3.7223269E-04
   50.22000     -3.8199371E-04
   50.28000     -3.9143962E-04
   50.34000     -4.0054627E-04
   50.40000     -4.0929197E-04
   50.46000     -4.1765778E-04
   50.52000     -4.2562780E-04
   50.58000     -4.3318924E-04
   50.64000     -4.4033266E-04
   50.70000     -4.4705209E-04
   50.76000     -4.5334510E-04
   50.82000     -4.5921266E-04
   50.88000     -4.6465918E-04
   50.94000     -4.6969252E-04
   51.00000     -4.7432390E-04
   51.06000     -4.7856785E-04
   51.12000     -4.8244212E-04
   51.18000     -4.8596723E-04
   51.24000     -4.8916630E-04
   51.30000     -4.9206475E-04
   51.36000     -4.9468986E-04
   51.42000     -4.9707061E-04
   51.48000     -4.9923733E-04
   51.54000     -5.0122116E-04
   51.60000     -5.0305389E-04
   51.66000     -5.0476741E-04
   51.72000     -5.0639338E-04
   51.78000     -5.0796254E-04
   51.84000     -5.0950446E-04
   51.90000     -5.1104720E-04
   51.96000     -5.1261700E-04
   52.02000     -5.1423773E-04
   52.08000     -5.1593082E-04
   52.14000     -5.1771477E-04
   52.20000     -5.1960506E-04
   52.26000     -5.2161398E-04
   52.32000     -5.2375020E-04
   52.38000     -5.2601891E-04
   52.44000     -5.2842178E-04
   52.50000     -5.3095684E-04
   52.56000     -5.3361879E-04
   52.62000     -5.3639879E-04
   52.68000     -5.3928461E-04
   52.74000     -5.4226088E-04
   52.80000     -5.4530945E-04
   52.86000     -5.4840941E-04
   52.92000     -5.5153755E-04
   52.98000     -5.5466872E-04
   53.04000     -5.5777613E-04
   53.10000     -5.6083180E-04
   53.16000     -5.6380697E-04
   53.22000     -5.6667253E-04
   53.28000     -5.6939939E-04
   53.34000     -5.7195895E-04
   53.40000     -5.7432376E-04
   53.46000     -5.7646749E-04
   53.52000     -5.7836523E-04
   53.58000     -5.7999411E-04
   53.64000     -5.8133353E-04
   53.70000     -5.8236526E-04
   53.76000     -5.8307417E-04
   53.82000     -5.8344810E-04
   53.88000     -5.8347825E-04
   53.94000     -5.8315904E-04
   54.00000     -5.8248831E-04
   54.06000     -5.8146706E-04
   54.12000     -5.8009959E-04
   54.18000     -5.7839329E-04
   54.24000     -5.7635870E-04
   54.30000     -5.7400897E-04
   54.36000     -5.7136035E-04
   54.42000     -5.6843116E-04
   54.48000     -5.6524220E-04
   54.54000     -5.6181574E-04
   54.60000     -5.5817573E-04
   54.66000     -5.5434718E-04
   54.72000     -5.5035576E-04
   54.78000     -5.4622767E-04
   54.84000     -5.4198917E-04
   54.90000     -5.3766620E-04
   54.96000     -5.3328375E-04
   55.02000     -5.2886596E-04
   55.08000     -5.2443543E-04
   55.14000     -5.2001327E-04
   55.20000     -5.1561865E-04
   55.26000     -5.1126856E-04
   55.32000     -5.0697755E-04
   55.38000     -5.0275790E-04
   55.44000     -4.9861928E-04
   55.50000     -4.9456861E-04
   55.56000     -4.9061055E-04