  -2.400000      0.0000000E+00
  -2.340000      0.0000000E+00
  -2.280000      0.0000000E+00
  -2.220000      0.0000000E+00
  -2.160000      0.0000000E+00
  -2.100000      0.0000000E+00
  -2.040000      0.0000000E+00
  -1.980000      0.0000000E+00
  -1.920000      0.0000000E+00
  -1.860000      0.0000000E+00
  -1.800000      0.0000000E+00
  -1.740000      0.0000000E+00
  -1.680000      1.2475047E-34
  -1.620000      2.2064565E-33
  -1.560000      1.9423115E-32
  -1.500000      1.1211256E-31
  -1.440000      4.6862808E-31
  -1.380000      1.4629007E-30
  -1.320000      3.2900639E-30
  -1.260000      4.1322644E-30
  -1.200000     -4.6126097E-30
  -1.140000     -4.5674187E-29
  -1.080000     -1.5779461E-28
  -1.020000     -3.6861088E-28
 -0.9600000     -5.9986295E-28
 -0.9000000     -4.8156208E-28
 -0.8400000      8.5081730E-28
 -0.7800000      4.6878876E-27
 -0.7200000      1.1865388E-26
 -0.6600000      2.0542132E-26
 -0.6000000      2.2907874E-26
 -0.5400000      3.0648481E-27
 -0.4800000     -5.9069923E-26
 -0.4200000     -1.7210465E-25
 -0.3600000     -3.0486987E-25
 -0.3000000     -3.5835158E-25
 -0.2400000     -1.7032615E-25
 -0.1800000      4.0446380E-25
 -0.1200000      1.3208549E-24
 -5.9999999E-02  2.1414032E-24
  0.0000000E+00  1.9966310E-24
  5.9999999E-02 -1.8607747E-26
  0.1200000     -3.8522646E-24
  0.1800000     -7.1995746E-24
  0.2400000     -4.9508555E-24
  0.3000000      8.9449893E-24
  0.3600000      3.5863011E-23
  0.4200000      6.3967917E-23
  0.4800000      6.1694028E-23
  0.5400000     -1.7570061E-23
  0.6000000     -2.0993991E-22
  0.6600000     -4.9314131E-22
  0.7200000     -7.3358319E-22
  0.7800000     -6.6958680E-22
  0.8400000      1.5147874E-23
  0.9000000      1.4943943E-21
  0.9600000      3.5147563E-21
   1.020000      5.1664138E-21
   1.080000      4.9413779E-21
   1.140000      1.2939539E-21
   1.200000     -6.2855395E-21
   1.260000     -1.6057647E-20
   1.320000     -2.3466156E-20
   1.380000     -2.2136978E-20
   1.440000     -6.9071657E-21
   1.500000      2.1799802E-20
   1.560000      5.4409692E-20
   1.620000      7.2531125E-20
   1.680000      5.5606144E-20
   1.740000     -6.5377981E-21
   1.800000     -1.0000805E-19
   1.860000     -1.8058003E-19
   1.920000     -1.8363809E-19
   1.980000     -5.3712026E-20
   2.040000      2.1359038E-19
   2.100000      5.3620045E-19
   2.160000      7.4199564E-19
   2.220000      6.1686219E-19
   2.280000      5.1014159E-21
   2.340000     -1.0656342E-18
   2.400000     -2.2897550E-18
   2.460000     -3.0861869E-18
   2.520000     -2.7492212E-18
   2.580000     -7.5143129E-19
   2.640000      2.8721659E-18
   2.700000      7.2114425E-18
   2.760000      1.0447261E-17
   2.820000      1.0284482E-17
   2.880000      4.9053378E-18
   2.940000     -5.7608435E-18
   3.000000     -1.8971531E-17
   3.060000     -2.9050401E-17
   3.120000     -2.8873755E-17
   3.180000     -1.3082895E-17
   3.240000      1.7828894E-17
   3.300000      5.4462528E-17
   3.360000      7.8921196E-17
   3.420000      7.0435071E-17
   3.480000      1.5806695E-17
   3.540000     -7.8842098E-17
   3.600000     -1.8123080E-16
   3.660000     -2.3755783E-16
   3.720000     -1.9178234E-16
   3.780000     -1.5721835E-17
   3.840000      2.6198748E-16
   3.900000      5.4494082E-16
   3.960000      6.9021237E-16
   4.020000      5.6390234E-16
   4.080000      1.1466821E-16
   4.140000     -5.6768392E-16
   4.200000     -1.2458755E-15
   4.260000     -1.6033626E-15
   4.320000     -1.3762964E-15
   4.380000     -5.0004341E-16
   4.440000      8.0250787E-16
   4.500000      2.0540956E-15
   4.560000      2.6934796E-15
   4.620000      2.3293573E-15
   4.680000      9.6573879E-16
   4.740000     -9.2456208E-16
   4.800000     -2.5481015E-15
   4.860000     -3.1272740E-15
   4.920000     -2.2861258E-15
   4.980000     -2.9662689E-16
   5.040000      1.9607745E-15
   5.100000      3.3425673E-15
   5.160000      2.9622102E-15
   5.220000      6.5441935E-16
   5.280000     -2.8373888E-15
   5.340000     -6.0551226E-15
   5.400000     -7.3418741E-15
   5.460000     -5.4908890E-15
   5.520000     -3.0079831E-16
   5.580000      7.1407351E-15
   5.640000      1.4539197E-14
   5.700000      1.8869949E-14
   5.760000      1.7233890E-14
   5.820000      8.0003778E-15
   5.880000     -8.0170711E-15
   5.940000     -2.6830329E-14
   6.000000     -4.1605896E-14
   6.060000     -4.4505371E-14
   6.120000     -2.9904607E-14
   6.180000      2.0149883E-15
   6.240000      4.3046458E-14
   6.300000      7.7895664E-14
   6.360000      8.9062594E-14
   6.420000      6.4577758E-14
   6.480000      5.5555464E-15
   6.540000     -7.0387977E-14
   6.600000     -1.3283285E-13
   6.660000     -1.4949820E-13
   6.720000     -1.0091121E-13
   6.780000      7.3883033E-15
   6.840000      1.4138812E-13
   6.900000      2.4717793E-13
   6.960000      2.6982206E-13
   7.020000      1.7596799E-13
   7.080000     -2.8659109E-14
   7.140000     -2.9425271E-13
   7.200000     -5.3715658E-13
   7.260000     -6.6243067E-13
   7.320000     -5.9174356E-13
   7.380000     -2.8859676E-13
   7.440000      2.2516623E-13
   7.500000      8.6441927E-13
   7.560000      1.4878093E-12
   7.620000      1.9165342E-12
   7.680000      1.9648532E-12
   7.740000      1.4816915E-12
   7.800000      3.9955168E-13
   7.860000     -1.2185317E-12
   7.920000     -3.1485838E-12
   7.980000     -5.0079463E-12
   8.040000     -6.3013596E-12
   8.100000     -6.5107607E-12
   8.160000     -5.2148034E-12
   8.220000     -2.2131403E-12
   8.280000      2.3728818E-12
   8.340000      8.0462746E-12
   8.400000      1.3940025E-11
   8.460000      1.8885346E-11
   8.520000      2.1541007E-11
   8.580000      2.0582480E-11
   8.640000      1.4949129E-11
   8.700000      4.1385554E-12
   8.760000     -1.1485313E-11
   8.820000     -3.0436070E-11
   8.880000     -4.9994512E-11
   8.940000     -6.6343979E-11
   9.000000     -7.5019740E-11
   9.060000     -7.1670073E-11
   9.120000     -5.3032911E-11
   9.180000     -1.7944731E-11
   9.240000      3.1849651E-11
   9.300000      9.1304263E-11
   9.360000      1.5224079E-10
   9.420000      2.0411231E-10
   9.480000      2.3528202E-10
   9.540000      2.3465582E-10
   9.600000      1.9347277E-10
   9.660000      1.0706441E-10
   9.720000     -2.3584175E-11
   9.780000     -1.9062478E-10
   9.840000     -3.7865044E-10
   9.900000     -5.6469573E-10
   9.960000     -7.1911971E-10
   10.02000     -8.0751139E-10
   10.08000     -7.9364321E-10
   10.14000     -6.4332017E-10
   10.20000     -3.2876962E-10
   10.26000      1.6696648E-10
   10.32000      8.4627627E-10
   10.38000      1.6944979E-09
   10.44000      2.6792311E-09
   10.50000      3.7517336E-09
   10.56000      4.8504161E-09
   10.62000      5.9061409E-09
   10.68000      6.8487611E-09
   10.74000      7.6141244E-09
   10.80000      8.1506855E-09
   10.86000      8.4248724E-09
   10.92000      8.4245659E-09
   10.98000      8.1602636E-09
   11.04000      7.6638713E-09
   11.10000      6.9853403E-09
   11.16000      6.1876393E-09
   11.22000      5.3406715E-09
   11.28000      4.5147961E-09
   11.34000      3.7745891E-09
   11.40000      3.1733980E-09
   11.46000      2.7491718E-09
   11.52000      2.5219400E-09
   11.58000      2.4931726E-09
   11.64000      2.6470539E-09
   11.70000      2.9534406E-09
   11.76000      3.3720349E-09
   11.82000      3.8571040E-09
   11.88000      4.3620494E-09
   11.94000      4.8432258E-09
   12.00000      5.2626801E-09
   12.06000      5.5897615E-09
   12.12000      5.8018097E-09
   12.18000      5.8842429E-09
   12.24000      5.8303482E-09
   12.30000      5.6409326E-09
   12.36000      5.3238485E-09
   12.42000      4.8932951E-09
   12.48000      4.3687662E-09
   12.54000      3.7736179E-09
   12.60000      3.1333069E-09
   12.66000      2.4735061E-09
   12.72000      1.8182985E-09
   12.78000      1.1886595E-09
   12.84000      6.0133254E-10
   12.90000      6.8098270E-11
   12.96000     -4.0463691E-10
   13.02000     -8.1601997E-10
   13.08000     -1.1707233E-09
   13.14000     -1.4786193E-09
   13.20000     -1.7539570E-09
   13.26000     -2.0137993E-09
   13.32000     -2.2755786E-09
   13.38000     -2.5538631E-09
   13.44000     -2.8567739E-09
   13.50000     -3.1828080E-09
   13.56000     -3.5189880E-09
   13.62000     -3.8411603E-09
   13.68000     -4.1168349E-09
   13.74000     -4.3103565E-09
   13.80000     -4.3895247E-09
   13.86000     -4.3323189E-09
   13.92000     -4.1322825E-09
   13.98000     -3.8013805E-09
   14.04000     -3.3697749E-09
   14.10000     -2.8826403E-09
   14.16000     -2.3947586E-09
   14.22000     -1.9639774E-09
   14.28000     -1.6446536E-09
   14.34000     -1.4820077E-09
   14.40000     -1.5079962E-09
   14.46000     -1.7389826E-09
   14.52000     -2.1752307E-09
   14.58000     -2.8020422E-09
   14.64000     -3.5922272E-09
   14.70000     -4.5094728E-09
   14.76000     -5.5121223E-09
   14.82000     -6.5568755E-09
   14.88000     -7.6020505E-09
   14.94000     -8.6102387E-09
   15.00000     -9.5503854E-09
   15.06000     -1.0399473E-08
   15.12000     -1.1143910E-08
   15.18000     -1.1780517E-08
   15.24000     -1.2316740E-08
   15.30000     -1.2769476E-08
   15.36000     -1.3162063E-08
   15.42000     -1.3519352E-08
   15.48000     -1.3861536E-08
   15.54000     -1.4198155E-08
   15.60000     -1.4524097E-08
   15.66000     -1.4819284E-08
   15.72000     -1.5052798E-08
   15.78000     -1.5190906E-08
   15.84000     -1.5206870E-08
   15.90000     -1.5089572E-08
   15.96000     -1.4847902E-08
   16.02000     -1.4509004E-08
   16.08000     -1.4110455E-08
   16.14000     -1.3688584E-08
   16.20000     -1.3266752E-08
   16.26000     -1.2847743E-08
   16.32000     -1.2413277E-08
   16.38000     -1.1931287E-08
   16.44000     -1.1368924E-08
   16.50000     -1.0707009E-08
   16.56000     -9.9509911E-09
   16.62000     -9.1344328E-09
   16.68000     -8.3135054E-09
   16.74000     -7.5541360E-09
   16.80000     -6.9159940E-09
   16.86000     -6.4386128E-09
   16.92000     -6.1341794E-09
   16.98000     -5.9890048E-09
   17.04000     -5.9725074E-09
   17.10000     -6.0497753E-09
   17.16000     -6.1925634E-09
   17.22000     -6.3843579E-09
   17.28000     -6.6176620E-09
   17.34000     -6.8848753E-09
   17.40000     -7.1668751E-09
   17.46000     -7.4244864E-09
   17.52000     -7.5970892E-09
   17.58000     -7.6100077E-09
   17.64000     -7.3889765E-09
   17.70000     -6.8773467E-09
   17.76000     -6.0505325E-09
   17.82000     -4.9231095E-09
   17.88000     -3.5464227E-09
   17.94000     -1.9976809E-09
   18.00000     -3.6412284E-10
   18.06000      1.2729617E-09
   18.12000      2.8500891E-09
   18.18000      4.3269752E-09
   18.24000      5.6856195E-09
   18.30000      6.9253319E-09
   18.36000      8.0568601E-09
   18.42000      9.0983123E-09
   18.48000      1.0073930E-08
   18.54000      1.1014897E-08
   18.60000      1.1959962E-08
   18.66000      1.2953488E-08
   18.72000      1.4039555E-08
   18.78000      1.5252660E-08
   18.84000      1.6607338E-08
   18.90000      1.8090036E-08
   18.96000      1.9656207E-08
   19.02000      2.1234024E-08
   19.08000      2.2734037E-08
   19.14000      2.4062190E-08
   19.20000      2.5132856E-08
   19.26000      2.5878920E-08
   19.32000      2.6257336E-08
   19.38000      2.6250227E-08
   19.44000      2.5862867E-08
   19.50000      2.5120190E-08
   19.56000      2.4063066E-08
   19.62000      2.2744587E-08
   19.68000      2.1225951E-08
   19.74000      1.9571218E-08
   19.80000      1.7840879E-08
   19.86000      1.6085030E-08
   19.92000      1.4337874E-08
   19.98000      1.2615501E-08
   20.04000      1.0918250E-08
   20.10000      9.2375938E-09
   20.16000      7.5657827E-09
   20.22000      5.9052421E-09
   20.28000      4.2744639E-09
   20.34000      2.7080687E-09
   20.40000      1.2507033E-09
   20.46000     -5.3364230E-11
   20.52000     -1.1714043E-09
   20.58000     -2.0902169E-09
   20.64000     -2.8181131E-09
   20.70000     -3.3802354E-09
   20.76000     -3.8090162E-09
   20.82000     -4.1332937E-09
   20.88000     -4.3699488E-09
   20.94000     -4.5207131E-09
   21.00000     -4.5746433E-09
   21.06000     -4.5145150E-09
   21.12000     -4.3240478E-09
   21.18000     -3.9929873E-09
   21.24000     -3.5184999E-09
   21.30000     -2.9034299E-09
   21.36000     -2.1536664E-09
   21.42000     -1.2773822E-09
   21.48000     -2.8787053E-10
   21.54000      7.9039097E-10
   21.60000      1.9150392E-09
   21.66000      3.0222673E-09
   21.72000      4.0296393E-09
   21.78000      4.8462612E-09
   21.84000      5.3882228E-09
   21.90000      5.5946932E-09
   21.96000      5.4392379E-09
   22.02000      4.9324100E-09
   22.08000      4.1148365E-09
   22.14000      3.0436906E-09
   22.20000      1.7778968E-09
   22.26000      3.6764494E-10
   22.32000     -1.1483742E-09
   22.38000     -2.7382203E-09
   22.44000     -4.3680961E-09
   22.50000     -5.9952945E-09
   22.56000     -7.5673823E-09
   22.62000     -9.0293693E-09
   22.68000     -1.0336769E-08
   22.74000     -1.1469352E-08
   22.80000     -1.2439453E-08
   22.86000     -1.3290402E-08
   22.92000     -1.4084371E-08
   22.98000     -1.4883293E-08
   23.04000     -1.5729547E-08
   23.10000     -1.6633706E-08
   23.16000     -1.7574285E-08
   23.22000     -1.8509878E-08
   23.28000     -1.9399303E-08
   23.34000     -2.0221988E-08
   23.40000     -2.0990507E-08
   23.46000     -2.1750097E-08
   23.52000     -2.2564896E-08
   23.58000     -2.3495828E-08
   23.64000     -2.4578284E-08
   23.70000     -2.5807681E-08
   23.76000     -2.7137753E-08
   23.82000     -2.8491405E-08
   23.88000     -2.9779091E-08
   23.94000     -3.0917263E-08
   24.00000     -3.1839967E-08
   24.06000     -3.2500203E-08
   24.12000     -3.2862346E-08
   24.18000     -3.2890672E-08
   24.24000     -3.2540708E-08
   24.30000     -3.1758479E-08
   24.36000     -3.0489112E-08
   24.42000     -2.8691984E-08
   24.48000     -2.6356384E-08
   24.54000     -2.3511166E-08
   24.60000     -2.0223911E-08
   24.66000     -1.6589135E-08
   24.72000     -1.2709306E-08
   24.78000     -8.6753245E-09
   24.84000     -4.5533057E-09
   24.90000     -3.8217352E-10
   24.96000      3.8176928E-09
   25.02000      8.0287643E-09
   25.08000      1.2220401E-08
   25.14000      1.6339447E-08
   25.20000      2.0311546E-08
   25.26000      2.4053028E-08
   25.32000      2.7488927E-08
   25.38000      3.0570188E-08
   25.44000      3.3283463E-08
   25.50000      3.5649819E-08
   25.56000      3.7713157E-08
   25.62000      3.9523158E-08
   25.68000      4.1119552E-08
   25.74000      4.2523670E-08
   25.80000      4.3739945E-08
   25.86000      4.4765752E-08
   25.92000      4.5604473E-08
   25.98000      4.6275520E-08
   26.04000      4.6816403E-08
   26.10000      4.7275623E-08
   26.16000      4.7699000E-08
   26.22000      4.8114824E-08
   26.28000      4.8523994E-08
   26.34000      4.8899061E-08
   26.40000      4.9192973E-08
   26.46000      4.9354512E-08
   26.52000      4.9345214E-08
   26.58000      4.9152174E-08
   26.64000      4.8792984E-08
   26.70000      4.8311868E-08
   26.76000      4.7769220E-08
   26.82000      4.7228454E-08
   26.88000      4.6744539E-08
   26.94000      4.6357130E-08
   27.00000      4.6089163E-08
   27.06000      4.5949605E-08
   27.12000      4.5937934E-08
   27.18000      4.6047724E-08
   27.24000      4.6267893E-08
   27.30000      4.6581558E-08
   27.36000      4.6963613E-08
   27.42000      4.7378748E-08
   27.48000      4.7781228E-08
   27.54000      4.8117073E-08
   27.60000      4.8328250E-08
   27.66000      4.8357965E-08
   27.72000      4.8156050E-08
   27.78000      4.7683582E-08
   27.84000      4.6916249E-08
   27.90000      4.5846186E-08
   27.96000      4.4482071E-08
   28.02000      4.2847436E-08
   28.08000      4.0977159E-08
   28.14000      3.8912731E-08
   28.20000      3.6697113E-08
   28.26000      3.4370416E-08
   28.32000      3.1967399E-08
   28.38000      2.9517411E-08
   28.44000      2.7046415E-08
   28.50000      2.4580102E-08
   28.56000      2.2146526E-08
   28.62000      1.9776991E-08
   28.68000      1.7504442E-08
   28.74000      1.5359715E-08
   28.80000      1.3366750E-08
   28.86000      1.1538381E-08
   28.92000      9.8741042E-09
   28.98000      8.3605114E-09
   29.04000      6.9741182E-09
   29.10000      5.6855476E-09
   29.16000      4.4637574E-09
   29.22000      3.2793150E-09
   29.28000      2.1064519E-09
   29.34000      9.2433117E-10
   29.40000     -2.8175759E-10
   29.46000     -1.5188488E-09
   29.52000     -2.7846629E-09
   29.58000     -4.0668069E-09
   29.64000     -5.3438898E-09
   29.70000     -6.5890338E-09
   29.76000     -7.7751734E-09
   29.82000     -8.8804342E-09
   29.88000     -9.8914743E-09
   29.94000     -1.0803239E-08
   30.00000     -1.1615090E-08
   30.06000     -1.2324921E-08
   30.12000     -1.2924102E-08
   30.18000     -1.3396028E-08
   30.24000     -1.3719723E-08
   30.30000     -1.3877805E-08
   30.36000     -1.3866036E-08
   30.42000     -1.3700594E-08
   30.48000     -1.3419581E-08
   30.54000     -1.3077261E-08
   30.60000     -1.2732190E-08
   30.66000     -1.2432936E-08
   30.72000     -1.2206426E-08
   30.78000     -1.2053392E-08
   30.84000     -1.1953167E-08
   30.90000     -1.1876738E-08
   30.96000     -1.1803771E-08
   31.02000     -1.1737465E-08
   31.08000     -1.1711341E-08
   31.14000     -1.1784584E-08
   31.20000     -1.2026399E-08
   31.26000     -1.2493922E-08
   31.32000     -1.3210837E-08
   31.38000     -1.4154112E-08
   31.44000     -1.5253901E-08
   31.50000     -1.6407361E-08
   31.56000     -1.7502456E-08
   31.62000     -1.8444391E-08
   31.68000     -1.9176422E-08
   31.74000     -1.9688741E-08
   31.80000     -2.0013307E-08
   31.86000     -2.0207242E-08
   31.92000     -2.0331091E-08
   31.98000     -2.0429491E-08
   32.04000     -2.0520284E-08
   32.10000     -2.0594625E-08
   32.16000     -2.0626496E-08
   32.22000     -2.0586992E-08
   32.28000     -2.0457612E-08
   32.34000     -2.0238073E-08
   32.40000     -1.9946674E-08
   32.46000     -1.9614360E-08
   32.52000     -1.9275562E-08
   32.58000     -1.8959664E-08
   32.64000     -1.8685800E-08
   32.70000     -1.8462094E-08
   32.76000     -1.8288500E-08
   32.82000     -1.8161350E-08
   32.88000     -1.8077754E-08
   32.94000     -1.8038595E-08
   33.00000     -1.8049947E-08
   33.06000     -1.8123295E-08
   33.12000     -1.8274937E-08
   33.18000     -1.8524414E-08
   33.24000     -1.8891420E-08
   33.30000     -1.9390704E-08
   33.36000     -2.0025462E-08
   33.42000     -2.0780996E-08
   33.48000     -2.1621423E-08
   33.54000     -2.2492010E-08
   33.60000     -2.3328038E-08
   33.66000     -2.4068534E-08
   33.72000     -2.4670712E-08
   33.78000     -2.5119997E-08
   33.84000     -2.5431552E-08
   33.90000     -2.5642313E-08
   33.96000     -2.5796142E-08
   34.02000     -2.5927513E-08
   34.08000     -2.6049793E-08
   34.14000     -2.6152390E-08
   34.20000     -2.6207509E-08
   34.26000     -2.6183704E-08
   34.32000     -2.6060926E-08
   34.38000     -2.5841500E-08
   34.44000     -2.5553284E-08
   34.50000     -2.5244248E-08
   34.56000     -2.4970840E-08
   34.62000     -2.4784473E-08
   34.68000     -2.4720816E-08
   34.74000     -2.4795254E-08
   34.80000     -2.5005454E-08
   34.86000     -2.5339476E-08
   34.92000     -2.5785901E-08
   34.98000     -2.6342001E-08
   35.04000     -2.7016805E-08
   35.10000     -2.7828030E-08
   35.16000     -2.8793922E-08
   35.22000     -2.9923036E-08
   35.28000     -3.1205445E-08
   35.34000     -3.2608391E-08
   35.40000     -3.4077779E-08
   35.46000     -3.5545145E-08
   35.52000     -3.6938111E-08
   35.58000     -3.8191693E-08
   35.64000     -3.9257827E-08
   35.70000     -4.0111054E-08
   35.76000     -4.0749516E-08
   35.82000     -4.1191253E-08
   35.88000     -4.1466880E-08
   35.94000     -4.1610196E-08
   36.00000     -4.1648789E-08
   36.06000     -4.1596763E-08
   36.12000     -4.1451280E-08
   36.18000     -4.1193967E-08
   36.24000     -4.0797090E-08
   36.30000     -4.0232983E-08
   36.36000     -3.9484156E-08
   36.42000     -3.8550819E-08
   36.48000     -3.7453098E-08
   36.54000     -3.6226584E-08
   36.60000     -3.4912265E-08
   36.66000     -3.3544030E-08
   36.72000     -3.2138427E-08
   36.78000     -3.0690973E-08
   36.84000     -2.9181194E-08
   36.90000     -2.7585322E-08
   36.96000     -2.5892362E-08
   37.02000     -2.4117362E-08
   37.08000     -2.2306295E-08
   37.14000     -2.0529654E-08
   37.20000     -1.8866100E-08
   37.26000     -1.7381311E-08
   37.32000     -1.6109315E-08
   37.38000     -1.5043025E-08
   37.44000     -1.4137571E-08
   37.50000     -1.3325558E-08
   37.56000     -1.2539002E-08
   37.62000     -1.1730337E-08
   37.68000     -1.0885138E-08
   37.74000     -1.0022327E-08
   37.80000     -9.1821972E-09
   37.86000     -8.4071008E-09
   37.92000     -7.7222406E-09
   37.98000     -7.1237674E-09
   38.04000     -6.5783179E-09
   38.10000     -6.0336260E-09
   38.16000     -5.4355778E-09
   38.22000     -4.7448712E-09
   38.28000     -3.9470467E-09
   38.34000     -3.0526894E-09
   38.40000     -2.0886772E-09
   38.46000     -1.0847430E-09
   38.52000     -6.0979173E-11
   38.58000      9.7905295E-10
   38.64000      2.0476429E-09
   38.70000      3.1658174E-09
   38.76000      4.3532182E-09
   38.82000      5.6190763E-09
   38.88000      6.9574608E-09
   38.94000      8.3480209E-09
   39.00000      9.7612682E-09
   39.06000      1.1165876E-08
   39.12000      1.2534929E-08
   39.18000      1.3848637E-08
   39.24000      1.5092562E-08
   39.30000      1.6252198E-08
   39.36000      1.7306396E-08
   39.42000      1.8222849E-08
   39.48000      1.8958275E-08
   39.54000      1.9464355E-08
   39.60000      1.9698055E-08
   39.66000      1.9633076E-08
   39.72000      1.9268244E-08
   39.78000      1.8629466E-08
   39.84000      1.7764146E-08
   39.90000      1.6729715E-08
   39.96000      1.5580282E-08
   40.02000      1.4356118E-08
   40.08000      1.3079545E-08
   40.14000      1.1758336E-08
   40.20000      1.0394770E-08
   40.26000      8.9963192E-09
   40.32000      7.5834308E-09
   40.38000      6.1910215E-09
   40.44000      4.8627844E-09
   40.50000      3.6400756E-09
   40.56000      2.5492208E-09
   40.62000      1.5916628E-09
   40.68000      7.4050349E-10
   40.74000     -5.5058083E-11
   40.80000     -8.5836527E-10
   40.86000     -1.7300931E-09
   40.92000     -2.7133946E-09
   40.98000     -3.8234931E-09
   41.04000     -5.0445625E-09
   41.10000     -6.3347438E-09
   41.16000     -7.6379489E-09
   41.22000     -8.8993009E-09
   41.28000     -1.0079971E-08
   41.34000     -1.1167256E-08
   41.40000     -1.2176847E-08
   41.46000     -1.3146359E-08
   41.52000     -1.4121719E-08
   41.58000     -1.5140387E-08
   41.64000     -1.6216651E-08
   41.70000     -1.7334004E-08
   41.76000     -1.8447569E-08
   41.82000     -1.9496273E-08
   41.88000     -2.0421012E-08
   41.94000     -2.1182801E-08
   42.00000     -2.1774541E-08
   42.06000     -2.2222288E-08
   42.12000     -2.2575534E-08
   42.18000     -2.2890090E-08
   42.24000     -2.3209765E-08
   42.30000     -2.3553440E-08
   42.36000     -2.3911888E-08
   42.42000     -2.4254989E-08
   42.48000     -2.4546123E-08
   42.54000     -2.4757979E-08
   42.60000     -2.4883942E-08
   42.66000     -2.4941269E-08
   42.72000     -2.4965615E-08
   42.78000     -2.4999808E-08
   42.84000     -2.5081553E-08
   42.90000     -2.5234657E-08
   42.96000     -2.5466314E-08
   43.02000     -2.5770168E-08
   43.08000     -2.6132641E-08
   43.14000     -2.6539016E-08
   43.20000     -2.6976680E-08
   43.26000     -2.7434846E-08
   43.32000     -2.7902084E-08
   43.38000     -2.8364139E-08
   43.44000     -2.8804003E-08
   43.50000     -2.9204831E-08
   43.56000     -2.9554450E-08
   43.62000     -2.9849144E-08
   43.68000     -3.0094682E-08
   43.74000     -3.0303770E-08
   43.80000     -3.0490902E-08
   43.86000     -3.0666765E-08
   43.92000     -3.0834485E-08
   43.98000     -3.0989046E-08
   44.04000     -3.1119896E-08
   44.10000     -3.1215322E-08
   44.16000     -3.1266957E-08
   44.22000     -3.1272762E-08
   44.28000     -3.1237963E-08
   44.34000     -3.1173997E-08
   44.40000     -3.1096299E-08
   44.46000     -3.1021703E-08
   44.52000     -3.0966042E-08
   44.58000     -3.0942253E-08
   44.64000     -3.0958912E-08
   44.70000     -3.1019120E-08
   44.76000     -3.1119807E-08
   44.82000     -3.1251631E-08
   44.88000     -3.1399974E-08
   44.94000     -3.1547390E-08
   45.00000     -3.1677455E-08
   45.06000     -3.1779500E-08
   45.12000     -3.1852871E-08
   45.18000     -3.1909028E-08
   45.24000     -3.1970092E-08
   45.30000     -3.2063305E-08
   45.36000     -3.2212508E-08
   45.42000     -3.2428794E-08
   45.48000     -3.2703326E-08
   45.54000     -3.3004692E-08
   45.60000     -3.3281708E-08
   45.66000     -3.3470776E-08
   45.72000     -3.3505120E-08
   45.78000     -3.3322756E-08
   45.84000     -3.2870354E-08
   45.90000     -3.2101486E-08
   45.96000     -3.0969495E-08
   46.02000     -2.9416539E-08
   46.08000     -2.7361299E-08
   46.14000     -2.4687985E-08
   46.20000     -2.1238582E-08
   46.26000     -1.6809318E-08
   46.32000     -1.1150916E-08
   46.38000     -3.9709871E-09
   46.44000      5.0639346E-09
   46.50000      1.6329428E-08
   46.56000      3.0249304E-08
   46.62000      4.7307594E-08
   46.68000      6.8065717E-08
   46.74000      9.3183019E-08
   46.80000      1.2343840E-07
   46.86000      1.5975148E-07
   46.92000      2.0320262E-07
   46.98000      2.5505258E-07
   47.04000      3.1676387E-07
   47.10000      3.9002603E-07
   47.16000      4.7678640E-07
   47.22000      5.7928889E-07
   47.28000      7.0011964E-07
   47.34000      8.4225985E-07
   47.40000      1.0091431E-06
   47.46000      1.2047152E-06
   47.52000      1.4334944E-06
   47.58000      1.7006314E-06
   47.64000      2.0119687E-06
   47.70000      2.3741052E-06
   47.76000      2.7944643E-06
   47.82000      3.2813784E-06
   47.88000      3.8441840E-06
   47.94000      4.4933295E-06
   48.00000      5.2404985E-06
   48.06000      6.0987309E-06
   48.12000      7.0825522E-06
   48.18000      8.2080951E-06
   48.24000      9.4932157E-06
   48.30000      1.0957621E-05
   48.36000      1.2622980E-05
   48.42000      1.4513049E-05
   48.48000      1.6653796E-05
   48.54000      1.9073521E-05
   48.60000      2.1802980E-05
   48.66000      2.4875506E-05
   48.72000      2.8327120E-05
   48.78000      3.2196640E-05
   48.84000      3.6525751E-05
   48.90000      4.1359101E-05
   48.96000      4.6744310E-05
   49.02000      5.2732012E-05
   49.08000      5.9375834E-05
   49.14000      6.6732362E-05
   49.20000      7.4861091E-05
   49.26000      8.3824314E-05
   49.32000      9.3687020E-05
   49.38000      1.0451669E-04
   49.44000      1.1638310E-04
   49.50000      1.2935800E-04
   49.56000      1.4351486E-04
   49.62000      1.5892844E-04
   49.68000      1.7567442E-04
   49.74000      1.9382901E-04
   49.80000      2.1346832E-04
   49.86000      2.3466794E-04
   49.92000      2.5750219E-04
   49.98000      2.8204353E-04
   50.04000      3.0836195E-04
   50.10000      3.3652401E-04
   50.16000      3.6659226E-04
   50.22000      3.9862434E-04
   50.28000      4.3267236E-04
   50.34000      4.6878183E-04
   50.40000      5.0699105E-04
   50.46000      5.4733024E-04
   50.52000      5.8982067E-04
   50.58000      6.3447404E-04
   50.64000      6.8129163E-04
   50.70000      7.3026377E-04
   50.76000      7.8136916E-04
   50.82000      8.3457452E-04
   50.88000      8.8983390E-04
   50.94000      9.4708829E-04
   51.00000      1.0062658E-03
   51.06000      1.0672810E-03
   51.12000      1.1300355E-03
   51.18000      1.1944176E-03
   51.24000      1.2603032E-03
   51.30000      1.3275557E-03
   51.36000      1.3960272E-03
   51.42000      1.4655583E-03
   51.48000      1.5359803E-03
   51.54000      1.6071147E-03
   51.60000      1.6787756E-03
   51.66000      1.7507708E-03
   51.72000      1.8229028E-03
   51.78000      1.8949705E-03
   51.84000      1.9667714E-03
   51.90000      2.0381028E-03
   51.96000      2.1087634E-03
   52.02000      2.1785554E-03
   52.08000      2.2472858E-03
   52.14000      2.3147699E-03
   52.20000      2.3808312E-03
   52.26000      2.4453038E-03
   52.32000      2.5080342E-03
   52.38000      2.5688824E-03
   52.44000      2.6277236E-03
   52.50000      2.6844498E-03
   52.56000      2.7389703E-03
   52.62000      2.7912143E-03
   52.68000      2.8411290E-03
   52.74000      2.8886821E-03
   52.80000      2.9338610E-03
   52.86000      2.9766732E-03
   52.92000      3.0171464E-03
   52.98000      3.0553271E-03
   53.04000      3.0912813E-03
   53.10000      3.1250927E-03
   53.16000      3.1568618E-03
   53.22000      3.1867041E-03
   53.28000      3.2147500E-03
   53.34000      3.2411406E-03
   53.40000      3.2660274E-03
   53.46000      3.2895703E-03
   53.52000      3.3119349E-03
   53.58000      3.3332903E-03
   53.64000      3.3538076E-03
   53.70000      3.3736569E-03
   53.76000      3.3930051E-03
   53.82000      3.4120139E-03
   53.88000      3.4308373E-03
   53.94000      3.4496195E-03
   54.00000      3.4684925E-03
   54.06000      3.4875756E-03
   54.12000      3.5069729E-03
   54.18000      3.5267733E-03
   54.24000      3.5470468E-03
   54.30000      3.5678467E-03
   54.36000      3.5892064E-03
   54.42000      3.6111395E-03
   54.48000      3.6336405E-03
   54.54000      3.6566847E-03
   54.60000      3.6802285E-03
   54.66000      3.7042103E-03
   54.72000      3.7285511E-03
   54.78000      3.7531557E-03
   54.84000      3.7779140E-03
   54.90000      3.8027028E-03
   54.96000      3.8273875E-03
   55.02000      3.8518237E-03
   55.08000      3.8758598E-03
   55.14000      3.8993377E-03
   55.20000      3.9220969E-03
   55.26000      3.9439751E-03
   55.32000      3.9648116E-03
   55.38000      3.9844480E-03
   55.44000      4.0027313E-03
   55.50000      4.0195156E-03
   55.56000      4.0346626E-03