  -2.400000      0.0000000E+00
  -2.340000      0.0000000E+00
  -2.280000      0.0000000E+00
  -2.220000      0.0000000E+00
  -2.160000      0.0000000E+00
  -2.100000      0.0000000E+00
  -2.040000      0.0000000E+00
  -1.980000      0.0000000E+00
  -1.920000      0.0000000E+00
  -1.860000      0.0000000E+00
  -1.800000      0.0000000E+00
  -1.740000      0.0000000E+00
  -1.680000      3.8475489E-36
  -1.620000      7.1338192E-35
  -1.560000      6.7415689E-34
  -1.500000      4.2913144E-33
  -1.440000      2.0534032E-32
  -1.380000      7.7765446E-32
  -1.320000      2.3774898E-31
  -1.260000      5.8048003E-31
  -1.200000      1.0516130E-30
  -1.140000      9.4638890E-31
  -1.080000     -2.2450153E-30
  -1.020000     -1.4507752E-29
 -0.9600000     -4.5769430E-29
 -0.9000000     -1.0385018E-28
 -0.8400000     -1.7162659E-28
 -0.7800000     -1.5615409E-28
 -0.7200000      1.8481392E-28
 -0.6600000      1.2787783E-27
 -0.6000000      3.5755182E-27
 -0.5400000      6.9226396E-27
 -0.4800000      9.2719414E-27
 -0.4200000      4.9870893E-27
 -0.3600000     -1.5851749E-26
 -0.3000000     -6.4184306E-26
 -0.2400000     -1.4091860E-25
 -0.1800000     -2.1636502E-25
 -0.1200000     -2.0609681E-25
 -5.9999999E-02  3.6985953E-26
  0.0000000E+00  6.7948702E-25
  5.9999999E-02  1.7750765E-24
  0.1200000      3.0334798E-24
  0.1800000      3.5607907E-24
  0.2400000      1.7676910E-24
  0.3000000     -4.2335179E-24
  0.3600000     -1.5415737E-23
  0.4200000     -2.9756310E-23
  0.4800000     -3.9922480E-23
  0.5400000     -3.2371024E-23
  0.6000000      9.6297915E-24
  0.6600000      9.6779400E-23
  0.7200000      2.1844742E-22
  0.7800000      3.2638551E-22
  0.8400000      3.2871723E-22
  0.9000000      1.0920412E-22
  0.9600000     -4.1707851E-22
   1.020000     -1.2157983E-21
   1.080000     -2.0426664E-21
   1.140000     -2.4058593E-21
   1.200000     -1.6491219E-21
   1.260000      7.9636511E-22
   1.320000      5.0029022E-21
   1.380000      1.0085930E-20
   1.440000      1.3905111E-20
   1.500000      1.3218782E-20
   1.560000      4.5786317E-21
   1.620000     -1.3908192E-20
   1.680000     -4.0198545E-20
   1.740000     -6.6151204E-20
   1.800000     -7.7058931E-20
   1.860000     -5.4654570E-20
   1.920000      1.5216176E-20
   1.980000      1.3099617E-19
   2.040000      2.6380496E-19
   2.100000      3.5300995E-19
   2.160000      3.1739282E-19
   2.220000      8.6973356E-20
   2.280000     -3.4864686E-19
   2.340000     -8.9283859E-19
   2.400000     -1.3244366E-18
   2.460000     -1.3405610E-18
   2.520000     -6.7361339E-19
   2.580000      7.3919760E-19
   2.640000      2.5995863E-18
   2.700000      4.2017930E-18
   2.760000      4.5838565E-18
   2.820000      2.8992405E-18
   2.880000     -1.0809271E-18
   2.940000     -6.5420060E-18
   3.000000     -1.1539474E-17
   3.060000     -1.3449825E-17
   3.120000     -9.9559227E-18
   3.180000     -2.8727533E-19
   3.240000      1.3793183E-17
   3.300000      2.7808886E-17
   3.360000      3.5538640E-17
   3.420000      3.1060566E-17
   3.480000      1.1334201E-17
   3.540000     -2.1532823E-17
   3.600000     -5.9242457E-17
   3.660000     -8.8200058E-17
   3.720000     -9.2687831E-17
   3.780000     -6.0154990E-17
   3.840000      1.2259761E-17
   3.900000      1.1186003E-16
   3.960000      2.0812394E-16
   4.020000      2.5737054E-16
   4.080000      2.1635792E-16
   4.140000      6.3101480E-17
   4.200000     -1.8214087E-16
   4.260000     -4.4713890E-16
   4.320000     -6.2034644E-16
   4.380000     -5.8956733E-16
   4.440000     -2.9669425E-16
   4.500000      2.1502725E-16
   4.560000      7.8958034E-16
   4.620000      1.2003635E-15
   4.680000      1.2388207E-15
   4.740000      8.1414949E-16
   4.800000      1.4030858E-17
   4.860000     -9.1198852E-16
   4.920000     -1.6477871E-15
   4.980000     -1.9416022E-15
   5.040000     -1.7049191E-15
   5.100000     -1.0260876E-15
   5.160000     -9.5600532E-17
   5.220000      9.0297619E-16
   5.280000      1.8574706E-15
   5.340000      2.6981335E-15
   5.400000      3.2985009E-15
   5.460000      3.3963683E-15
   5.520000      2.6340518E-15
   5.580000      7.4761542E-16
   5.640000     -2.1780381E-15
   5.700000     -5.5513354E-15
   5.760000     -8.3555091E-15
   5.820000     -9.4824644E-15
   5.880000     -8.1685443E-15
   5.940000     -4.2984068E-15
   6.000000      1.5832088E-15
   6.060000      8.5113174E-15
   6.120000      1.5361615E-14
   6.180000      2.0884888E-14
   6.240000      2.3485400E-14
   6.300000      2.1048798E-14
   6.360000      1.1317914E-14
   6.420000     -6.8732743E-15
   6.480000     -3.1787927E-14
   6.540000     -5.7381481E-14
   6.600000     -7.3614061E-14
   6.660000     -6.9331320E-14
   6.720000     -3.7314380E-14
   6.780000      2.0415617E-14
   6.840000      8.9864287E-14
   6.900000      1.4728312E-13
   6.960000      1.6678823E-13
   7.020000      1.3111720E-13
   7.080000      4.1101935E-14
   7.140000     -8.0886422E-14
   7.200000     -1.9623239E-13
   7.260000     -2.6310537E-13
   7.320000     -2.5247385E-13
   7.380000     -1.6046185E-13
   7.440000     -1.1488592E-14
   7.500000      1.4960385E-13
   7.560000      2.7344267E-13
   7.620000      3.2350113E-13
   7.680000      2.8785340E-13
   7.740000      1.8089711E-13
   7.800000      3.5271414E-14
   7.860000     -1.1150637E-13
   7.920000     -2.2929727E-13
   7.980000     -3.0147063E-13
   8.040000     -3.2361703E-13
   8.100000     -2.9757587E-13
   8.160000     -2.2567409E-13
   8.220000     -1.0931002E-13
   8.280000      4.7119701E-14
   8.340000      2.2961093E-13
   8.400000      4.1000300E-13
   8.460000      5.4756617E-13
   8.520000      5.9778669E-13
   8.580000      5.2572568E-13
   8.640000      3.1898992E-13
   8.700000     -4.4951679E-15
   8.760000     -3.9638502E-13
   8.820000     -7.8496796E-13
   8.880000     -1.0868963E-12
   8.940000     -1.2210289E-12
   9.000000     -1.1230010E-12
   9.060000     -7.6008834E-13
   9.120000     -1.4535935E-13
   9.180000      6.5202216E-13
   9.240000      1.5056303E-12
   9.300000      2.2449779E-12
   9.360000      2.6847296E-12
   9.420000      2.6651261E-12
   9.480000      2.0925297E-12
   9.540000      9.6663747E-13
   9.600000     -6.1509798E-13
   9.660000     -2.4757572E-12
   9.720000     -4.3890482E-12
   9.780000     -6.1042560E-12
   9.840000     -7.3524581E-12
   9.900000     -7.8334257E-12
   9.960000     -7.1999134E-12
   10.02000     -5.0688407E-12
   10.08000     -1.0882813E-12
   10.14000      4.9282496E-12
   10.20000      1.2818782E-11
   10.26000      2.1890956E-11
   10.32000      3.0809046E-11
   10.38000      3.7612288E-11
   10.44000      3.9896031E-11
   10.50000      3.5141213E-11
   10.56000      2.1132839E-11
   10.62000     -3.6186405E-12
   10.68000     -3.9537061E-11
   10.74000     -8.5780862E-11
   10.80000     -1.4020525E-10
   10.86000     -1.9947591E-10
   10.92000     -2.5930849E-10
   10.98000     -3.1480857E-10
   11.04000     -3.6089465E-10
   11.10000     -3.9278270E-10
   11.16000     -4.0649603E-10
   11.22000     -3.9933443E-10
   11.28000     -3.7021436E-10
   11.34000     -3.1979303E-10
   11.40000     -2.5032679E-10
   11.46000     -1.6527640E-10
   11.52000     -6.8744233E-11
   11.58000      3.5124761E-11
   11.64000      1.4264026E-10
   11.70000      2.5086425E-10
   11.76000      3.5768130E-10
   11.82000      4.6168583E-10
   11.88000      5.6197624E-10
   11.94000      6.5795713E-10
   12.00000      7.4922329E-10
   12.06000      8.3555618E-10
   12.12000      9.1701768E-10
   12.18000      9.9409658E-10
   12.24000      1.0678531E-09
   12.30000      1.1400130E-09
   12.36000      1.2129806E-09
   12.42000      1.2897573E-09
   12.48000      1.3737663E-09
   12.54000      1.4685921E-09
   12.60000      1.5776467E-09
   12.66000      1.7037676E-09
   12.72000      1.8487568E-09
   12.78000      2.0128716E-09
   12.84000      2.1943021E-09
   12.90000      2.3886975E-09
   12.96000      2.5888409E-09
   13.02000      2.7845874E-09
   13.08000      2.9631888E-09
   13.14000      3.1100753E-09
   13.20000      3.2100960E-09
   13.26000      3.2491283E-09
   13.32000      3.2158625E-09
   13.38000      3.1035032E-09
   13.44000      2.9111162E-09
   13.50000      2.6443658E-09
   13.56000      2.3154951E-09
   13.62000      1.9425124E-09
   13.68000      1.5476801E-09
   13.74000      1.1555221E-09
   13.80000      7.9061641E-10
   13.86000      4.7546017E-10
   13.92000      2.2864968E-10
   13.98000      6.3547091E-11
   14.04000     -1.2466259E-11
   14.10000      1.8800068E-12
   14.16000      1.0220863E-10
   14.22000      2.7947442E-10
   14.28000      5.2132448E-10
   14.34000      8.1364171E-10
   14.40000      1.1420279E-09
   14.46000      1.4929812E-09
   14.52000      1.8545853E-09
   14.58000      2.2166475E-09
   14.64000      2.5703724E-09
   14.70000      2.9077780E-09
   14.76000      3.2211149E-09
   14.82000      3.5024987E-09
   14.88000      3.7438568E-09
   14.94000      3.9371510E-09
   15.00000      4.0747401E-09
   15.06000      4.1497197E-09
   15.12000      4.1561576E-09
   15.18000      4.0892547E-09
   15.24000      3.9455581E-09
   15.30000      3.7234151E-09
   15.36000      3.4237801E-09
   15.42000      3.0513290E-09
   15.48000      2.6156499E-09
   15.54000      2.1320832E-09
   15.60000      1.6217324E-09
   15.66000      1.1102566E-09
   15.72000      6.2532129E-10
   15.78000      1.9296943E-10
   15.84000     -1.6645731E-10
   15.90000     -4.4194373E-10
   15.96000     -6.3405742E-10
   16.02000     -7.5515461E-10
   16.08000     -8.2732055E-10
   16.14000     -8.7837665E-10
   16.20000     -9.3676089E-10
   16.26000     -1.0263419E-09
   16.32000     -1.1621916E-09
   16.38000     -1.3480466E-09
   16.44000     -1.5757413E-09
   16.50000     -1.8264468E-09
   16.56000     -2.0732231E-09
   16.62000     -2.2842648E-09
   16.68000     -2.4262823E-09
   16.74000     -2.4676508E-09
   16.80000     -2.3811852E-09
   16.86000     -2.1465645E-09
   16.92000     -1.7524953E-09
   16.98000     -1.1986463E-09
   17.04000     -4.9724758E-10
   17.10000      3.2591449E-10
   17.16000      1.2314827E-09
   17.22000      2.1678688E-09
   17.28000      3.0741734E-09
   17.34000      3.8846464E-09
   17.40000      4.5343147E-09
   17.46000      4.9651172E-09
   17.52000      5.1317186E-09
   17.58000      5.0061897E-09
   17.64000      4.5809361E-09
   17.70000      3.8695527E-09
   17.76000      2.9055824E-09
   17.82000      1.7394123E-09
   17.88000      4.3367787E-10
   17.94000     -9.4235564E-10
   18.00000     -2.3188982E-09
   18.06000     -3.6315948E-09
   18.12000     -4.8266240E-09
   18.18000     -5.8642105E-09
   18.24000     -6.7200059E-09
   18.30000     -7.3841573E-09
   18.36000     -7.8583495E-09
   18.42000     -8.1516216E-09
   18.48000     -8.2759604E-09
   18.54000     -8.2426377E-09
   18.60000     -8.0598959E-09
   18.66000     -7.7320603E-09
   18.72000     -7.2597417E-09
   18.78000     -6.6406387E-09
   18.84000     -5.8705742E-09
   18.90000     -4.9447237E-09
   18.96000     -3.8593169E-09
   19.02000     -2.6141218E-09
   19.08000     -1.2157969E-09
   19.14000      3.1833122E-10
   19.20000      1.9570185E-09
   19.26000      3.6536254E-09
   19.32000      5.3474944E-09
   19.38000      6.9686741E-09
   19.44000      8.4455367E-09
   19.50000      9.7139345E-09
   19.56000      1.0725855E-08
   19.62000      1.1455496E-08
   19.68000      1.1901128E-08
   19.74000      1.2082211E-08
   19.80000      1.2032434E-08
   19.86000      1.1790495E-08
   19.92000      1.1391043E-08
   19.98000      1.0858149E-08
   20.04000      1.0202935E-08
   20.10000      9.4256976E-09
   20.16000      8.5215826E-09
   20.22000      7.4877953E-09
   20.28000      6.3299539E-09
   20.34000      5.0656124E-09
   20.40000      3.7239885E-09
   20.46000      2.3423155E-09
   20.52000      9.6039388E-10
   20.58000     -3.8447606E-10
   20.64000     -1.6602366E-09
   20.70000     -2.8395519E-09
   20.76000     -3.8964858E-09
   20.82000     -4.8021200E-09
   20.88000     -5.5215010E-09
   20.94000     -6.0139671E-09
   21.00000     -6.2377397E-09
   21.06000     -6.1580101E-09
   21.12000     -5.7562715E-09
   21.18000     -5.0379492E-09
   21.24000     -4.0356927E-09
   21.30000     -2.8070095E-09
   21.36000     -1.4266409E-09
   21.42000      2.4307596E-11
   21.48000      1.4695807E-09
   21.54000      2.8465257E-09
   21.60000      4.1105062E-09
   21.66000      5.2345275E-09
   21.72000      6.2050223E-09
   21.78000      7.0157062E-09
   21.84000      7.6617095E-09
   21.90000      8.1358102E-09
   21.96000      8.4277554E-09
   22.02000      8.5265883E-09
   22.08000      8.4249825E-09
   22.14000      8.1239593E-09
   22.20000      7.6362738E-09
   22.26000      6.9871002E-09
   22.32000      6.2114163E-09
   22.38000      5.3484044E-09
   22.44000      4.4340243E-09
   22.50000      3.4934871E-09
   22.56000      2.5354749E-09
   22.62000      1.5496551E-09
   22.68000      5.0834376E-10
   22.74000     -6.2772776E-10
   22.80000     -1.9005251E-09
   22.86000     -3.3444572E-09
   22.92000     -4.9769642E-09
   22.98000     -6.7921251E-09
   23.04000     -8.7589420E-09
   23.10000     -1.0824963E-08
   23.16000     -1.2924645E-08
   23.22000     -1.4990645E-08
   23.28000     -1.6965368E-08
   23.34000     -1.8809930E-08
   23.40000     -2.0508343E-08
   23.46000     -2.2065951E-08
   23.52000     -2.3502807E-08
   23.58000     -2.4844107E-08
   23.64000     -2.6110529E-08
   23.70000     -2.7311224E-08
   23.76000     -2.8441177E-08
   23.82000     -2.9483097E-08
   23.88000     -3.0412505E-08
   23.94000     -3.1203776E-08
   24.00000     -3.1834958E-08
   24.06000     -3.2289968E-08
   24.12000     -3.2558269E-08
   24.18000     -3.2633231E-08
   24.24000     -3.2511089E-08
   24.30000     -3.2191867E-08
   24.36000     -3.1682777E-08
   24.42000     -3.1002870E-08
   24.48000     -3.0186929E-08
   24.54000     -2.9286282E-08
   24.60000     -2.8364973E-08
   24.66000     -2.7491472E-08
   24.72000     -2.6727809E-08
   24.78000     -2.6119276E-08
   24.84000     -2.5688113E-08
   24.90000     -2.5433474E-08
   24.96000     -2.5337988E-08
   25.02000     -2.5378908E-08
   25.08000     -2.5540103E-08
   25.14000     -2.5820645E-08
   25.20000     -2.6236808E-08
   25.26000     -2.6816661E-08
   25.32000     -2.7589174E-08
   25.38000     -2.8571934E-08
   25.44000     -2.9762296E-08
   25.50000     -3.1135549E-08
   25.56000     -3.2651126E-08
   25.62000     -3.4264648E-08
   25.68000     -3.5941262E-08
   25.74000     -3.7665032E-08
   25.80000     -3.9440380E-08
   25.86000     -4.1284700E-08
   25.92000     -4.3214488E-08
   25.98000     -4.5230106E-08
   26.04000     -4.7304916E-08
   26.10000     -4.9383193E-08
   26.16000     -5.1388142E-08
   26.22000     -5.3237553E-08
   26.28000     -5.4861836E-08
   26.34000     -5.6218063E-08
   26.40000     -5.7294976E-08
   26.46000     -5.8107169E-08
   26.52000     -5.8680584E-08
   26.58000     -5.9034910E-08
   26.64000     -5.9169654E-08
   26.70000     -5.9059687E-08
   26.76000     -5.8662415E-08
   26.82000     -5.7934599E-08
   26.88000     -5.6853001E-08
   26.94000     -5.5431304E-08
   27.00000     -5.3726847E-08
   27.06000     -5.1833961E-08
   27.12000     -4.9865232E-08
   27.18000     -4.7926076E-08
   27.24000     -4.6090413E-08
   27.30000     -4.4384837E-08
   27.36000     -4.2786084E-08
   27.42000     -4.1232553E-08
   27.48000     -3.9646142E-08
   27.54000     -3.7957815E-08
   27.60000     -3.6129180E-08
   27.66000     -3.4163847E-08
   27.72000     -3.2105664E-08
   27.78000     -3.0025056E-08
   27.84000     -2.7998281E-08
   27.90000     -2.6086516E-08
   27.96000     -2.4321299E-08
   28.02000     -2.2700618E-08
   28.08000     -2.1196181E-08
   28.14000     -1.9768843E-08
   28.20000     -1.8386633E-08
   28.26000     -1.7039234E-08
   28.32000     -1.5744172E-08
   28.38000     -1.4542837E-08
   28.44000     -1.3487776E-08
   28.50000     -1.2625503E-08
   28.56000     -1.1980519E-08
   28.62000     -1.1545904E-08
   28.68000     -1.1283843E-08
   28.74000     -1.1136327E-08
   28.80000     -1.1042908E-08
   28.86000     -1.0959880E-08
   28.92000     -1.0874425E-08
   28.98000     -1.0808557E-08
   29.04000     -1.0810921E-08
   29.10000     -1.0938579E-08
   29.16000     -1.1234517E-08
   29.22000     -1.1708572E-08
   29.28000     -1.2328688E-08
   29.34000     -1.3026313E-08
   29.40000     -1.3715098E-08
   29.46000     -1.4317513E-08
   29.52000     -1.4791024E-08
   29.58000     -1.5145249E-08
   29.64000     -1.5443982E-08
   29.70000     -1.5790659E-08
   29.76000     -1.6300996E-08
   29.82000     -1.7070784E-08
   29.88000     -1.8148603E-08
   29.94000     -1.9521950E-08
   30.00000     -2.1121261E-08
   30.06000     -2.2840792E-08
   30.12000     -2.4569914E-08
   30.18000     -2.6224988E-08
   30.24000     -2.7771815E-08
   30.30000     -2.9231614E-08
   30.36000     -3.0668961E-08
   30.42000     -3.2165975E-08
   30.48000     -3.3791544E-08
   30.54000     -3.5575685E-08
   30.60000     -3.7497383E-08
   30.66000     -3.9489429E-08
   30.72000     -4.1457994E-08
   30.78000     -4.3310120E-08
   30.84000     -4.4979608E-08
   30.90000     -4.6442782E-08
   30.96000     -4.7719201E-08
   31.02000     -4.8857391E-08
   31.08000     -4.9910952E-08
   31.14000     -5.0913378E-08
   31.20000     -5.1860621E-08
   31.26000     -5.2707687E-08
   31.32000     -5.3381086E-08
   31.38000     -5.3803404E-08
   31.44000     -5.3922069E-08
   31.50000     -5.3732638E-08
   31.56000     -5.3288435E-08
   31.62000     -5.2692670E-08
   31.68000     -5.2074874E-08
   31.74000     -5.1558821E-08
   31.80000     -5.1231986E-08
   31.86000     -5.1126229E-08
   31.92000     -5.1215796E-08
   31.98000     -5.1432945E-08
   32.04000     -5.1695732E-08
   32.10000     -5.1938379E-08
   32.16000     -5.2133998E-08
   32.22000     -5.2301928E-08
   32.28000     -5.2497374E-08
   32.34000     -5.2787165E-08
   32.40000     -5.3220045E-08
   32.46000     -5.3802165E-08
   32.52000     -5.4486382E-08
   32.58000     -5.5179438E-08
   32.64000     -5.5764954E-08
   32.70000     -5.6134812E-08
   32.76000     -5.6218791E-08
   32.82000     -5.6003071E-08
   32.88000     -5.5532134E-08
   32.94000     -5.4894102E-08
   33.00000     -5.4194878E-08
   33.06000     -5.3529654E-08
   33.12000     -5.2960793E-08
   33.18000     -5.2508405E-08
   33.24000     -5.2155610E-08
   33.30000     -5.1865719E-08
   33.36000     -5.1604861E-08
   33.42000     -5.1362015E-08
   33.48000     -5.1159670E-08
   33.54000     -5.1051273E-08
   33.60000     -5.1106280E-08
   33.66000     -5.1387609E-08
   33.72000     -5.1929181E-08
   33.78000     -5.2721209E-08
   33.84000     -5.3708657E-08
   33.90000     -5.4803795E-08
   33.96000     -5.5909087E-08
   34.02000     -5.6942863E-08
   34.08000     -5.7859342E-08
   34.14000     -5.8656273E-08
   34.20000     -5.9367771E-08
   34.26000     -6.0045032E-08
   34.32000     -6.0731587E-08
   34.38000     -6.1441646E-08
   34.44000     -6.2149013E-08
   34.50000     -6.2790264E-08
   34.56000     -6.3281519E-08
   34.62000     -6.3543496E-08
   34.68000     -6.3527018E-08
   34.74000     -6.3231013E-08
   34.80000     -6.2706931E-08
   34.86000     -6.2047796E-08
   34.92000     -6.1364389E-08
   34.98000     -6.0755376E-08
   35.04000     -6.0279937E-08
   35.10000     -5.9941385E-08
   35.16000     -5.9686990E-08
   35.22000     -5.9424298E-08
   35.28000     -5.9049214E-08
   35.34000     -5.8477035E-08
   35.40000     -5.7666778E-08
   35.46000     -5.6631276E-08
   35.52000     -5.5430359E-08
   35.58000     -5.4149851E-08
   35.64000     -5.2873840E-08
   35.70000     -5.1659200E-08
   35.76000     -5.0520477E-08
   35.82000     -4.9429133E-08
   35.88000     -4.8326555E-08
   35.94000     -4.7145818E-08
   36.00000     -4.5834756E-08
   36.06000     -4.4372893E-08
   36.12000     -4.2777103E-08
   36.18000     -4.1094570E-08
   36.24000     -3.9385863E-08
   36.30000     -3.7703987E-08
   36.36000     -3.6076720E-08
   36.42000     -3.4498314E-08
   36.48000     -3.2933698E-08
   36.54000     -3.1333986E-08
   36.60000     -2.9658063E-08
   36.66000     -2.7892924E-08
   36.72000     -2.6065376E-08
   36.78000     -2.4240558E-08
   36.84000     -2.2506903E-08
   36.90000     -2.0951793E-08
   36.96000     -1.9635298E-08
   37.02000     -1.8570303E-08
   37.08000     -1.7715509E-08
   37.14000     -1.6983853E-08
   37.20000     -1.6264138E-08
   37.26000     -1.5449645E-08
   37.32000     -1.4465292E-08
   37.38000     -1.3285656E-08
   37.44000     -1.1939065E-08
   37.50000     -1.0497415E-08
   37.56000     -9.0555190E-09
   37.62000     -7.7065048E-09
   37.68000     -6.5202914E-09
   37.74000     -5.5305485E-09
   37.80000     -4.7326605E-09
   37.86000     -4.0920667E-09
   37.92000     -3.5597791E-09
   37.98000     -3.0904033E-09
   38.04000     -2.6576599E-09
   38.10000     -2.2632032E-09
   38.16000     -1.9362763E-09
   38.22000     -1.7242157E-09
   38.28000     -1.6765043E-09
   38.34000     -1.8272208E-09
   38.40000     -2.1815296E-09
   38.46000     -2.7107574E-09
   38.52000     -3.3578309E-09
   38.58000     -4.0513108E-09
   38.64000     -4.7232853E-09
   38.70000     -5.3251981E-09
   38.76000     -5.8366418E-09
   38.82000     -6.2648877E-09
   38.88000     -6.6362253E-09
   38.94000     -6.9828503E-09
   39.00000     -7.3302275E-09
   39.06000     -7.6892066E-09
   39.12000     -8.0552258E-09
   39.18000     -8.4143004E-09
   39.24000     -8.7530605E-09
   39.30000     -9.0686889E-09
   39.36000     -9.3745900E-09
   39.42000     -9.6991997E-09
   39.48000     -1.0077970E-08
   39.54000     -1.0541313E-08
   39.60000     -1.1103103E-08
   39.66000     -1.1754326E-08
   39.72000     -1.2464580E-08
   39.78000     -1.3191078E-08
   39.84000     -1.3891921E-08
   39.90000     -1.4538792E-08
   39.96000     -1.5124641E-08
   40.02000     -1.5663943E-08
   40.08000     -1.6185956E-08
   40.14000     -1.6723769E-08
   40.20000     -1.7303277E-08
   40.26000     -1.7935898E-08
   40.32000     -1.8617470E-08
   40.38000     -1.9333456E-08
   40.44000     -2.0068299E-08
   40.50000     -2.0815266E-08
   40.56000     -2.1582638E-08
   40.62000     -2.2393492E-08
   40.68000     -2.3278707E-08
   40.74000     -2.4265807E-08
   40.80000     -2.5368164E-08
   40.86000     -2.6579235E-08
   40.92000     -2.7874465E-08
   40.98000     -2.9220207E-08
   41.04000     -3.0585923E-08
   41.10000     -3.1954578E-08
   41.16000     -3.3327026E-08
   41.22000     -3.4718937E-08
   41.28000     -3.6151896E-08
   41.34000     -3.7642476E-08
   41.40000     -3.9193552E-08
   41.46000     -4.0790919E-08
   41.52000     -4.2406143E-08
   41.58000     -4.4004654E-08
   41.64000     -4.5556366E-08
   41.70000     -4.7045571E-08
   41.76000     -4.8476799E-08
   41.82000     -4.9874213E-08
   41.88000     -5.1273766E-08
   41.94000     -5.2709741E-08
   42.00000     -5.4199489E-08
   42.06000     -5.5731597E-08
   42.12000     -5.7262294E-08
   42.18000     -5.8722570E-08
   42.24000     -6.0034779E-08
   42.30000     -6.1133839E-08
   42.36000     -6.1986078E-08
   42.42000     -6.2599078E-08
   42.48000     -6.3018845E-08
   42.54000     -6.3314765E-08
   42.60000     -6.3557096E-08
   42.66000     -6.3794239E-08
   42.72000     -6.4037366E-08
   42.78000     -6.4257506E-08
   42.84000     -6.4396467E-08
   42.90000     -6.4388210E-08
   42.96000     -6.4183929E-08
   43.02000     -6.3772653E-08
   43.08000     -6.3190264E-08
   43.14000     -6.2513315E-08
   43.20000     -6.1838989E-08
   43.26000     -6.1256742E-08
   43.32000     -6.0820518E-08
   43.38000     -6.0530446E-08
   43.44000     -6.0330514E-08
   43.50000     -6.0123760E-08
   43.56000     -5.9801309E-08
   43.62000     -5.9276665E-08
   43.68000     -5.8514519E-08
   43.74000     -5.7544430E-08
   43.80000     -5.6454326E-08
   43.86000     -5.5365103E-08
   43.92000     -5.4394132E-08
   43.98000     -5.3619480E-08
   44.04000     -5.3056500E-08
   44.10000     -5.2654588E-08
   44.16000     -5.2314736E-08
   44.22000     -5.1921678E-08
   44.28000     -5.1379860E-08
   44.34000     -5.0641553E-08
   44.40000     -4.9718793E-08
   44.46000     -4.8676480E-08
   44.52000     -4.7609838E-08
   44.58000     -4.6614069E-08
   44.64000     -4.5755879E-08
   44.70000     -4.5055316E-08
   44.76000     -4.4483130E-08
   44.82000     -4.3973984E-08
   44.88000     -4.3451077E-08
   44.94000     -4.2854165E-08
   45.00000     -4.2161840E-08
   45.06000     -4.1400632E-08
   45.12000     -4.0637921E-08
   45.18000     -3.9961051E-08
   45.24000     -3.9449834E-08
   45.30000     -3.9151939E-08
   45.36000     -3.9069295E-08
   45.42000     -3.9159875E-08
   45.48000     -3.9353608E-08
   45.54000     -3.9576609E-08
   45.60000     -3.9775490E-08
   45.66000     -3.9934019E-08
   45.72000     -4.0077342E-08
   45.78000     -4.0263298E-08
   45.84000     -4.0564302E-08
   45.90000     -4.1046064E-08
   45.96000     -4.1750003E-08
   46.02000     -4.2684849E-08
   46.08000     -4.3829850E-08
   46.14000     -4.5148305E-08
   46.20000     -4.6607084E-08
   46.26000     -4.8195883E-08
   46.32000     -4.9940464E-08
   46.38000     -5.1906120E-08
   46.44000     -5.4191119E-08
   46.50000     -5.6912985E-08
   46.56000     -6.0192917E-08
   46.62000     -6.4143897E-08
   46.68000     -6.8866896E-08
   46.74000     -7.4456992E-08
   46.80000     -8.1018079E-08
   46.86000     -8.8682611E-08
   46.92000     -9.7631251E-08
   46.98000     -1.0810763E-07
   47.04000     -1.2042509E-07
   47.10000     -1.3496482E-07
   47.16000     -1.5216776E-07
   47.22000     -1.7252488E-07
   47.28000     -1.9657115E-07
   47.34000     -2.2488759E-07
   47.40000     -2.5811377E-07
   47.46000     -2.9696997E-07
   47.52000     -3.4228475E-07
   47.58000     -3.9502413E-07
   47.64000     -4.5631677E-07
   47.70000     -5.2747265E-07
   47.76000     -6.0999463E-07
   47.82000     -7.0558440E-07
   47.88000     -8.1614633E-07
   47.94000     -9.4379300E-07
   48.00000     -1.0908564E-06
   48.06000     -1.2599050E-06
   48.12000     -1.4537713E-06
   48.18000     -1.6755830E-06
   48.24000     -1.9288013E-06
   48.30000     -2.2172596E-06
   48.36000     -2.5451984E-06
   48.42000     -2.9172975E-06
   48.48000     -3.3386989E-06
   48.54000     -3.8150270E-06
   48.60000     -4.3523996E-06
   48.66000     -4.9574428E-06
   48.72000     -5.6373019E-06
   48.78000     -6.3996567E-06
   48.84000     -7.2527387E-06
   48.90000     -8.2053475E-06
   48.96000     -9.2668706E-06
   49.02000     -1.0447296E-05
   49.08000     -1.1757213E-05
   49.14000     -1.3207816E-05
   49.20000     -1.4810884E-05
   49.26000     -1.6578764E-05
   49.32000     -1.8524335E-05
   49.38000     -2.0660964E-05
   49.44000     -2.3002465E-05
   49.50000     -2.5563037E-05
   49.56000     -2.8357204E-05
   49.62000     -3.1399744E-05
   49.68000     -3.4705619E-05
   49.74000     -3.8289887E-05
   49.80000     -4.2167620E-05
   49.86000     -4.6353762E-05
   49.92000     -5.0863033E-05
   49.98000     -5.5709774E-05
   50.04000     -6.0907812E-05
   50.10000     -6.6470326E-05
   50.16000     -7.2409639E-05
   50.22000     -7.8737088E-05
   50.28000     -8.5462882E-05
   50.34000     -9.2595903E-05
   50.40000     -1.0014360E-04
   50.46000     -1.0811182E-04
   50.52000     -1.1650466E-04
   50.58000     -1.2532437E-04
   50.64000     -1.3457106E-04
   50.70000     -1.4424267E-04
   50.76000     -1.5433475E-04
   50.82000     -1.6484036E-04
   50.88000     -1.7574994E-04
   50.94000     -1.8705131E-04
   51.00000     -1.9872961E-04
   51.06000     -2.1076736E-04
   51.12000     -2.2314438E-04
   51.18000     -2.3583788E-04
   51.24000     -2.4882256E-04
   51.30000     -2.6207048E-04
   51.36000     -2.7555134E-04
   51.42000     -2.8923253E-04
   51.48000     -3.0307926E-04
   51.54000     -3.1705483E-04
   51.60000     -3.3112100E-04
   51.66000     -3.4523790E-04
   51.72000     -3.5936481E-04
   51.78000     -3.7345997E-04
   51.84000     -3.8748141E-04
   51.90000     -4.0138679E-04
   51.96000     -4.1513419E-04
   52.02000     -4.2868228E-04
   52.08000     -4.4199059E-04
   52.14000     -4.5502000E-04
   52.20000     -4.6773310E-04
   52.26000     -4.8009455E-04
   52.32000     -4.9207138E-04
   52.38000     -5.0363346E-04
   52.44000     -5.1475357E-04
   52.50000     -5.2540813E-04
   52.56000     -5.3557684E-04
   52.62000     -5.4524344E-04
   52.68000     -5.5439566E-04
   52.74000     -5.6302542E-04
   52.80000     -5.7112845E-04
   52.86000     -5.7870499E-04
   52.92000     -5.8575935E-04
   52.98000     -5.9230038E-04
   53.04000     -5.9834064E-04
   53.10000     -6.0389703E-04
   53.16000     -6.0898974E-04
   53.22000     -6.1364268E-04
   53.28000     -6.1788288E-04
   53.34000     -6.2174007E-04
   53.40000     -6.2524679E-04
   53.46000     -6.2843767E-04
   53.52000     -6.3134916E-04
   53.58000     -6.3401880E-04
   53.64000     -6.3648488E-04
   53.70000     -6.3878595E-04
   53.76000     -6.4096029E-04
   53.82000     -6.4304576E-04
   53.88000     -6.4507907E-04
   53.94000     -6.4709550E-04
   54.00000     -6.4912817E-04
   54.06000     -6.5120804E-04
   54.12000     -6.5336342E-04
   54.18000     -6.5561949E-04
   54.24000     -6.5799803E-04
   54.30000     -6.6051737E-04
   54.36000     -6.6319207E-04
   54.42000     -6.6603295E-04
   54.48000     -6.6904677E-04
   54.54000     -6.7223632E-04
   54.60000     -6.7560055E-04
   54.66000     -6.7913427E-04
   54.72000     -6.8282860E-04
   54.78000     -6.8667100E-04
   54.84000     -6.9064560E-04
   54.90000     -6.9473346E-04
   54.96000     -6.9891277E-04
   55.02000     -7.0315960E-04
   55.08000     -7.0744765E-04
   55.14000     -7.1174896E-04
   55.20000     -7.1603415E-04
   55.26000     -7.2027277E-04
   55.32000     -7.2443380E-04
   55.38000     -7.2848622E-04
   55.44000     -7.3239935E-04
   55.50000     -7.3614344E-04
   55.56000     -7.3968980E-04