  -2.400000      0.0000000E+00
  -2.340000      0.0000000E+00
  -2.280000      0.0000000E+00
  -2.220000      0.0000000E+00
  -2.160000      0.0000000E+00
  -2.100000      0.0000000E+00
  -2.040000      0.0000000E+00
  -1.980000      0.0000000E+00
  -1.920000      0.0000000E+00
  -1.860000      0.0000000E+00
  -1.800000      0.0000000E+00
  -1.740000      0.0000000E+00
  -1.680000      5.3334469E-35
  -1.620000      9.0197601E-34
  -1.560000      7.5483731E-33
  -1.500000      4.1200862E-32
  -1.440000      1.6274824E-31
  -1.380000      4.8697153E-31
  -1.320000      1.1221553E-30
  -1.260000      2.0068858E-30
  -1.200000      2.9969973E-30
  -1.140000      5.3885199E-30
  -1.080000      1.6107819E-29
  -1.020000      5.0695682E-29
 -0.9600000      1.1409293E-28
 -0.9000000      1.0933611E-28
 -0.8400000     -3.8510941E-28
 -0.7800000     -2.4286907E-27
 -0.7200000     -7.7402370E-27
 -0.6600000     -1.7425287E-26
 -0.6000000     -2.7879577E-26
 -0.5400000     -2.3023106E-26
 -0.4800000      3.4308596E-26
 -0.4200000      2.0114829E-25
 -0.3600000      5.2291716E-25
 -0.3000000      9.4861194E-25
 -0.2400000      1.1906516E-24
 -0.1800000      5.8881958E-25
 -0.1200000     -1.8626736E-24
 -5.9999999E-02 -7.0760571E-24
  0.0000000E+00 -1.4799237E-23
  5.9999999E-02 -2.1988291E-23
  0.1200000     -2.1342264E-23
  0.1800000     -1.5727371E-24
  0.2400000      4.8478166E-23
  0.3000000      1.3041659E-22
  0.3600000      2.2285884E-22
  0.4200000      2.7015545E-22
  0.4800000      1.8477011E-22
  0.5400000     -1.2347511E-22
  0.6000000     -6.8522483E-22
  0.6600000     -1.3897769E-21
  0.7200000     -1.9250595E-21
  0.7800000     -1.8037398E-21
  0.8400000     -5.3432641E-22
  0.9000000      2.0595018E-21
  0.9600000      5.4750063E-21
   1.020000      8.3446546E-21
   1.080000      8.6997000E-21
   1.140000      4.8353327E-21
   1.200000     -3.4003097E-21
   1.260000     -1.3522959E-20
   1.320000     -2.0480630E-20
   1.380000     -1.8645625E-20
   1.440000     -5.5987126E-21
   1.500000      1.3903229E-20
   1.560000      2.6710189E-20
   1.620000      1.5776843E-20
   1.680000     -2.8885874E-20
   1.740000     -9.6445537E-20
   1.800000     -1.4702651E-19
   1.860000     -1.1915392E-19
   1.920000      4.1439994E-20
   1.980000      3.3732831E-19
   2.040000      6.7947159E-19
   2.100000      8.8168509E-19
   2.160000      7.1452265E-19
   2.220000      1.9775097E-20
   2.280000     -1.1506975E-18
   2.340000     -2.4424495E-18
   2.400000     -3.2315852E-18
   2.460000     -2.8289258E-18
   2.520000     -8.2489165E-19
   2.580000      2.5477372E-18
   2.640000      6.2218975E-18
   2.700000      8.4576720E-18
   2.760000      7.4361899E-18
   2.820000      2.1777070E-18
   2.880000     -6.5383259E-18
   2.940000     -1.5722391E-17
   3.000000     -2.0649727E-17
   3.060000     -1.6471082E-17
   3.120000     -6.9933023E-19
   3.180000      2.4264410E-17
   3.240000      4.9849411E-17
   3.300000      6.2583420E-17
   3.360000      4.8564700E-17
   3.420000      4.5333184E-19
   3.480000     -7.5381638E-17
   3.540000     -1.5520837E-16
   3.600000     -2.0140644E-16
   3.660000     -1.7472834E-16
   3.720000     -5.3169194E-17
   3.780000      1.4924734E-16
   3.840000      3.7350347E-16
   3.900000      5.2540014E-16
   3.960000      5.0717453E-16
   4.020000      2.6378252E-16
   4.080000     -1.7400447E-16
   4.140000     -6.7316376E-16
   4.200000     -1.0274105E-15
   4.260000     -1.0336222E-15
   4.320000     -5.9326066E-16
   4.380000      2.0530191E-16
   4.440000      1.0733743E-15
   4.500000      1.6078259E-15
   4.560000      1.4635771E-15
   4.620000      5.4901753E-16
   4.680000     -8.5248757E-16
   4.740000     -2.1225602E-15
   4.800000     -2.5365583E-15
   4.860000     -1.6149477E-15
   4.920000      5.5362269E-16
   4.980000      3.1953035E-15
   5.040000      5.0565741E-15
   5.100000      4.9103190E-15
   5.160000      2.1805508E-15
   5.220000     -2.5978310E-15
   5.280000     -7.7469972E-15
   5.340000     -1.0949691E-14
   5.400000     -1.0162533E-14
   5.460000     -4.6032166E-15
   5.520000      4.6101509E-15
   5.580000      1.4500887E-14
   5.640000      2.1053841E-14
   5.700000      2.0616189E-14
   5.760000      1.1438096E-14
   5.820000     -5.1952321E-15
   5.880000     -2.4726709E-14
   5.940000     -4.0252540E-14
   6.000000     -4.4539591E-14
   6.060000     -3.2673869E-14
   6.120000     -4.5281755E-15
   6.180000      3.3937906E-14
   6.240000      7.1380374E-14
   6.300000      9.4046170E-14
   6.360000      9.0401177E-14
   6.420000      5.5881433E-14
   6.480000     -4.2252794E-15
   6.540000     -7.5375402E-14
   6.600000     -1.3814998E-13
   6.660000     -1.7494128E-13
   6.720000     -1.7605034E-13
   6.780000     -1.4213870E-13
   6.840000     -8.1487361E-14
   6.900000     -3.2526950E-15
   6.960000      8.9395274E-14
   7.020000      2.0128452E-13
   7.080000      3.3902555E-13
   7.140000      4.9728667E-13
   7.200000      6.4330095E-13
   7.260000      7.0884905E-13
   7.320000      5.9871200E-13
   7.380000      2.1971380E-13
   7.440000     -4.7389994E-13
   7.500000     -1.4319645E-12
   7.560000     -2.4759071E-12
   7.620000     -3.3012974E-12
   7.680000     -3.5272826E-12
   7.740000     -2.7918225E-12
   7.800000     -8.7626640E-13
   7.860000      2.1706463E-12
   7.920000      5.9467279E-12
   7.980000      9.6842031E-12
   8.040000      1.2336217E-11
   8.100000      1.2766717E-11
   8.160000      1.0022792E-11
   8.220000      3.6420814E-12
   8.280000     -6.0732131E-12
   8.340000     -1.7893392E-11
   8.400000     -2.9679186E-11
   8.460000     -3.8622942E-11
   8.520000     -4.1711204E-11
   8.580000     -3.6353361E-11
   8.640000     -2.1070678E-11
   8.700000      3.8941055E-12
   8.760000      3.6193118E-11
   8.820000      7.1337228E-11
   8.880000      1.0307544E-10
   8.940000      1.2418630E-10
   9.000000      1.2760216E-10
   9.060000      1.0772221E-10
   9.120000      6.1723793E-11
   9.180000     -9.3375611E-12
   9.240000     -9.9842953E-11
   9.300000     -1.9951009E-10
   9.360000     -2.9399033E-10
   9.420000     -3.6619424E-10
   9.480000     -3.9828002E-10
   9.540000     -3.7413764E-10
   9.600000     -2.8211167E-10
   9.660000     -1.1764481E-10
   9.720000      1.1449577E-10
   9.780000      3.9872347E-10
   9.840000      7.0812178E-10
   9.900000      1.0050901E-09
   9.960000      1.2432262E-09
   10.02000      1.3704294E-09
   10.08000      1.3331074E-09
   10.14000      1.0812429E-09
   10.20000      5.7393490E-10
   10.26000     -2.1513066E-10
   10.32000     -1.2929546E-09
   10.38000     -2.6439835E-09
   10.44000     -4.2290331E-09
   10.50000     -5.9868577E-09
   10.56000     -7.8384970E-09
   10.62000     -9.6940900E-09
   10.68000     -1.1461419E-08
   10.74000     -1.3055046E-08
   10.80000     -1.4404753E-08
   10.86000     -1.5462012E-08
   10.92000     -1.6203501E-08
   10.98000     -1.6631160E-08
   11.04000     -1.6768919E-08
   11.10000     -1.6656761E-08
   11.16000     -1.6343346E-08
   11.22000     -1.5878587E-08
   11.28000     -1.5307524E-08
   11.34000     -1.4666500E-08
   11.40000     -1.3982018E-08
   11.46000     -1.3272026E-08
   11.52000     -1.2548812E-08
   11.58000     -1.1822411E-08
   11.64000     -1.1103413E-08
   11.70000     -1.0404413E-08
   11.76000     -9.7398507E-09
   11.82000     -9.1245376E-09
   11.88000     -8.5715532E-09
   11.94000     -8.0902893E-09
   12.00000     -7.6852595E-09
   12.06000     -7.3558968E-09
   12.12000     -7.0970758E-09
   12.18000     -6.8998443E-09
   12.24000     -6.7517045E-09
   12.30000     -6.6360908E-09
   12.36000     -6.5311210E-09
   12.42000     -6.4082930E-09
   12.48000     -6.2321570E-09
   12.54000     -5.9620686E-09
   12.60000     -5.5567391E-09
   12.66000     -4.9815077E-09
   12.72000     -4.2173109E-09
   12.78000     -3.2694265E-09
   12.84000     -2.1736430E-09
   12.90000     -9.9766118E-10
   12.96000      1.6364196E-10
   13.02000      1.1991131E-09
   13.08000      1.9969182E-09
   13.14000      2.4620812E-09
   13.20000      2.5325206E-09
   13.26000      2.1902511E-09
   13.32000      1.4653294E-09
   13.38000      4.3166862E-10
   13.44000     -8.0439694E-10
   13.50000     -2.1203270E-09
   13.56000     -3.3949377E-09
   13.62000     -4.5237543E-09
   13.68000     -5.4293654E-09
   13.74000     -6.0654357E-09
   13.80000     -6.4147443E-09
   13.86000     -6.4830936E-09
   13.92000     -6.2917529E-09
   13.98000     -5.8710303E-09
   14.04000     -5.2566329E-09
   14.10000     -4.4890514E-09
   14.16000     -3.6147734E-09
   14.22000     -2.6872096E-09
   14.28000     -1.7651751E-09
   14.34000     -9.0762081E-10
   14.40000     -1.6481452E-10
   14.46000      4.3220011E-10
   14.52000      8.8085306E-10
   14.58000      1.2117005E-09
   14.64000      1.4859707E-09
   14.70000      1.7852149E-09
   14.76000      2.1944835E-09
   14.82000      2.7824909E-09
   14.88000      3.5835128E-09
   14.94000      4.5857824E-09
   15.00000      5.7298366E-09
   15.06000      6.9178405E-09
   15.12000      8.0320239E-09
   15.18000      8.9578078E-09
   15.24000      9.6057677E-09
   15.30000      9.9268247E-09
   15.36000      9.9169046E-09
   15.42000      9.6104120E-09
   15.48000      9.0651264E-09
   15.54000      8.3436458E-09
   15.60000      7.4973023E-09
   15.66000      6.5573458E-09
   15.72000      5.5354090E-09
   15.78000      4.4319277E-09
   15.84000      3.2482923E-09
   15.90000      1.9972834E-09
   15.96000      7.0712075E-10
   16.02000     -5.8296512E-10
   16.08000     -1.8343193E-09
   16.14000     -3.0232663E-09
   16.20000     -4.1525126E-09
   16.26000     -5.2543601E-09
   16.32000     -6.3831584E-09
   16.38000     -7.5981497E-09
   16.44000     -8.9414778E-09
   16.50000     -1.0418360E-08
   16.56000     -1.1986459E-08
   16.62000     -1.3559189E-08
   16.68000     -1.5023597E-08
   16.74000     -1.6268856E-08
   16.80000     -1.7217646E-08
   16.86000     -1.7850988E-08
   16.92000     -1.8218389E-08
   16.98000     -1.8428809E-08
   17.04000     -1.8623650E-08
   17.10000     -1.8938415E-08
   17.16000     -1.9463723E-08
   17.22000     -2.0217195E-08
   17.28000     -2.1135152E-08
   17.34000     -2.2087553E-08
   17.40000     -2.2912714E-08
   17.46000     -2.3462327E-08
   17.52000     -2.3643837E-08
   17.58000     -2.3447720E-08
   17.64000     -2.2951490E-08
   17.70000     -2.2299103E-08
   17.76000     -2.1661821E-08
   17.82000     -2.1192117E-08
   17.88000     -2.0984290E-08
   17.94000     -2.1053332E-08
   18.00000     -2.1337842E-08
   18.06000     -2.1725452E-08
   18.12000     -2.2092237E-08
   18.18000     -2.2343466E-08
   18.24000     -2.2442787E-08
   18.30000     -2.2420810E-08
   18.36000     -2.2360672E-08
   18.42000     -2.2365459E-08
   18.48000     -2.2518151E-08
   18.54000     -2.2847034E-08
   18.60000     -2.3307843E-08
   18.66000     -2.3788706E-08
   18.72000     -2.4136863E-08
   18.78000     -2.4199480E-08
   18.84000     -2.3866487E-08
   18.90000     -2.3102766E-08
   18.96000     -2.1960085E-08
   19.02000     -2.0565222E-08
   19.08000     -1.9087599E-08
   19.14000     -1.7695656E-08
   19.20000     -1.6514191E-08
   19.26000     -1.5594374E-08
   19.32000     -1.4904090E-08
   19.38000     -1.4340413E-08
   19.44000     -1.3759728E-08
   19.50000     -1.3016529E-08
   19.56000     -1.2000211E-08
   19.62000     -1.0660568E-08
   19.68000     -9.0165431E-09
   19.74000     -7.1477011E-09
   19.80000     -5.1723594E-09
   19.86000     -3.2191931E-09
   19.92000     -1.3998264E-09
   19.98000      2.1139156E-10
   20.04000      1.5868595E-09
   20.10000      2.7439124E-09
   20.16000      3.7337964E-09
   20.22000      4.6251496E-09
   20.28000      5.4862670E-09
   20.34000      6.3699894E-09
   20.40000      7.3040134E-09
   20.46000      8.2880014E-09
   20.52000      9.2974037E-09
   20.58000      1.0292562E-08
   20.64000      1.1230614E-08
   20.70000      1.2077117E-08
   20.76000      1.2814397E-08
   20.82000      1.3444324E-08
   20.88000      1.3984748E-08
   20.94000      1.4460549E-08
   21.00000      1.4892002E-08
   21.06000      1.5284229E-08
   21.12000      1.5621415E-08
   21.18000      1.5868286E-08
   21.24000      1.5979046E-08
   21.30000      1.5911491E-08
   21.36000      1.5641945E-08
   21.42000      1.5175921E-08
   21.48000      1.4550313E-08
   21.54000      1.3825480E-08
   21.60000      1.3068892E-08
   21.66000      1.2335138E-08
   21.72000      1.1648854E-08
   21.78000      1.0996613E-08
   21.84000      1.0331196E-08
   21.90000      9.5875450E-09
   21.96000      8.7055021E-09
   22.02000      7.6518516E-09
   22.08000      6.4339871E-09
   22.14000      5.1002456E-09
   22.20000      3.7263659E-09
   22.26000      2.3924007E-09
   22.32000      1.1577247E-09
   22.38000      4.2522336E-11
   22.44000     -9.7804131E-10
   22.50000     -1.9650688E-09
   22.56000     -2.9955995E-09
   22.62000     -4.1375237E-09
   22.68000     -5.4280425E-09
   22.74000     -6.8626518E-09
   22.80000     -8.3980103E-09
   22.86000     -9.9673896E-09
   22.92000     -1.1503249E-08
   22.98000     -1.2959222E-08
   23.04000     -1.4324175E-08
   23.10000     -1.5623803E-08
   23.16000     -1.6909581E-08
   23.22000     -1.8239161E-08
   23.28000     -1.9655053E-08
   23.34000     -2.1168860E-08
   23.40000     -2.2756128E-08
   23.46000     -2.4363066E-08
   23.52000     -2.5922345E-08
   23.58000     -2.7372186E-08
   23.64000     -2.8672256E-08
   23.70000     -2.9811250E-08
   23.76000     -3.0804248E-08
   23.82000     -3.1681459E-08
   23.88000     -3.2472741E-08
   23.94000     -3.3193512E-08
   24.00000     -3.3836802E-08
   24.06000     -3.4373922E-08
   24.12000     -3.4763080E-08
   24.18000     -3.4962785E-08
   24.24000     -3.4945288E-08
   24.30000     -3.4705597E-08
   24.36000     -3.4263373E-08
   24.42000     -3.3657638E-08
   24.48000     -3.2936697E-08
   24.54000     -3.2147426E-08
   24.60000     -3.1327833E-08
   24.66000     -3.0505507E-08
   24.72000     -2.9701978E-08
   24.78000     -2.8940526E-08
   24.84000     -2.8253361E-08
   24.90000     -2.7684225E-08
   24.96000     -2.7283910E-08
   25.02000     -2.7099100E-08
   25.08000     -2.7157666E-08
   25.14000     -2.7455627E-08
   25.20000     -2.7950987E-08
   25.26000     -2.8567994E-08
   25.32000     -2.9211991E-08
   25.38000     -2.9791364E-08
   25.44000     -3.0240322E-08
   25.50000     -3.0535425E-08
   25.56000     -3.0700356E-08
   25.62000     -3.0797093E-08
   25.68000     -3.0905934E-08
   25.74000     -3.1100541E-08
   25.80000     -3.1425891E-08
   25.86000     -3.1885993E-08
   25.92000     -3.2445048E-08
   25.98000     -3.3041225E-08
   26.04000     -3.3607975E-08
   26.10000     -3.4095461E-08
   26.16000     -3.4484668E-08
   26.22000     -3.4789331E-08
   26.28000     -3.5045122E-08
   26.34000     -3.5290089E-08
   26.40000     -3.5543486E-08
   26.46000     -3.5791079E-08
   26.52000     -3.5982843E-08
   26.58000     -3.6044842E-08
   26.64000     -3.5901710E-08
   26.70000     -3.5502119E-08
   26.76000     -3.4837850E-08
   26.82000     -3.3948918E-08
   26.88000     -3.2911824E-08
   26.94000     -3.1814317E-08
   27.00000     -3.0725154E-08
   27.06000     -2.9669797E-08
   27.12000     -2.8621354E-08
   27.18000     -2.7510813E-08
   27.24000     -2.6253579E-08
   27.30000     -2.4783155E-08
   27.36000     -2.3079783E-08
   27.42000     -2.1183252E-08
   27.48000     -1.9184597E-08
   27.54000     -1.7198996E-08
   27.60000     -1.5329107E-08
   27.66000     -1.3631879E-08
   27.72000     -1.2100996E-08
   27.78000     -1.0671821E-08
   27.84000     -9.2478540E-09
   27.90000     -7.7399873E-09
   27.96000     -6.1049805E-09
   28.02000     -4.3694364E-09
   28.08000     -2.6301059E-09
   28.14000     -1.0292748E-09
   28.20000      2.8746139E-10
   28.26000      1.2174051E-09
   28.32000      1.7354174E-09
   28.38000      1.9047879E-09
   28.44000      1.8595545E-09
   28.50000      1.7628458E-09
   28.56000      1.7539381E-09
   28.62000      1.9009561E-09
   28.68000      2.1749293E-09
   28.74000      2.4545199E-09
   28.80000      2.5610283E-09
   28.86000      2.3133628E-09
   28.92000      1.5857838E-09
   28.98000      3.4977596E-10
   29.04000     -1.3139105E-09
   29.10000     -3.2375769E-09
   29.16000     -5.2165610E-09
   29.22000     -7.0709634E-09
   29.28000     -8.6990823E-09
   29.34000     -1.0105092E-08
   29.40000     -1.1391946E-08
   29.46000     -1.2721999E-08
   29.52000     -1.4258543E-08
   29.58000     -1.6107666E-08
   29.64000     -1.8279483E-08
   29.70000     -2.0681046E-08
   29.76000     -2.3142652E-08
   29.82000     -2.5468127E-08
   29.88000     -2.7492231E-08
   29.94000     -2.9126445E-08
   30.00000     -3.0378942E-08
   30.06000     -3.1343404E-08
   30.12000     -3.2161736E-08
   30.18000     -3.2973922E-08
   30.24000     -3.3871814E-08
   30.30000     -3.4871555E-08
   30.36000     -3.5912564E-08
   30.42000     -3.6881982E-08
   30.48000     -3.7655266E-08
   30.54000     -3.8138968E-08
   30.60000     -3.8301842E-08
   30.66000     -3.8184929E-08
   30.72000     -3.7888753E-08
   30.78000     -3.7543074E-08
   30.84000     -3.7269906E-08
   30.90000     -3.7151715E-08
   30.96000     -3.7214161E-08
   31.02000     -3.7427146E-08
   31.08000     -3.7721808E-08
   31.14000     -3.8016015E-08
   31.20000     -3.8239254E-08
   31.26000     -3.8348759E-08
   31.32000     -3.8333173E-08
   31.38000     -3.8204504E-08
   31.44000     -3.7983455E-08
   31.50000     -3.7684721E-08
   31.56000     -3.7307974E-08
   31.62000     -3.6837083E-08
   31.68000     -3.6246639E-08
   31.74000     -3.5512091E-08
   31.80000     -3.4619084E-08
   31.86000     -3.3568725E-08
   31.92000     -3.2377780E-08
   31.98000     -3.1075054E-08
   32.04000     -2.9696269E-08
   32.10000     -2.8279722E-08
   32.16000     -2.6863528E-08
   32.22000     -2.5484209E-08
   32.28000     -2.4175462E-08
   32.34000     -2.2966260E-08
   32.40000     -2.1878339E-08
   32.46000     -2.0924091E-08
   32.52000     -2.0106436E-08
   32.58000     -1.9421746E-08
   32.64000     -1.8865771E-08
   32.70000     -1.8441064E-08
   32.76000     -1.8163396E-08
   32.82000     -1.8064453E-08
   32.88000     -1.8189057E-08
   32.94000     -1.8586869E-08
   33.00000     -1.9300497E-08
   33.06000     -2.0353511E-08
   33.12000     -2.1742260E-08
   33.18000     -2.3434591E-08
   33.24000     -2.5376574E-08
   33.30000     -2.7505791E-08
   33.36000     -2.9767556E-08
   33.42000     -3.2129233E-08
   33.48000     -3.4588052E-08
   33.54000     -3.7169677E-08
   33.60000     -3.9917282E-08
   33.66000     -4.2873900E-08
   33.72000     -4.6062880E-08
   33.78000     -4.9472220E-08
   33.84000     -5.3047664E-08
   33.90000     -5.6697317E-08
   33.96000     -6.0307102E-08
   34.02000     -6.3763189E-08
   34.08000     -6.6975034E-08
   34.14000     -6.9892096E-08
   34.20000     -7.2508740E-08
   34.26000     -7.4855492E-08
   34.32000     -7.6979063E-08
   34.38000     -7.8917346E-08
   34.44000     -8.0678106E-08
   34.50000     -8.2228617E-08
   34.56000     -8.3500673E-08
   34.62000     -8.4410026E-08
   34.68000     -8.4884341E-08
   34.74000     -8.4890402E-08
   34.80000     -8.4451280E-08
   34.86000     -8.3647123E-08
   34.92000     -8.2598454E-08
   34.98000     -8.1436781E-08
   35.04000     -8.0271654E-08
   35.10000     -7.9164671E-08
   35.16000     -7.8118880E-08
   35.22000     -7.7086739E-08
   35.28000     -7.5993853E-08
   35.34000     -7.4770007E-08
   35.40000     -7.3376683E-08
   35.46000     -7.1821489E-08
   35.52000     -7.0154591E-08
   35.58000     -6.8448557E-08
   35.64000     -6.6769410E-08
   35.70000     -6.5149543E-08
   35.76000     -6.3572912E-08
   35.82000     -6.1978348E-08
   35.88000     -6.0280314E-08
   35.94000     -5.8400008E-08
   36.00000     -5.6295889E-08
   36.06000     -5.3982856E-08
   36.12000     -5.1533235E-08
   36.18000     -4.9059075E-08
   36.24000     -4.6681912E-08
   36.30000     -4.4500172E-08
   36.36000     -4.2565148E-08
   36.42000     -4.0873079E-08
   36.48000     -3.9375234E-08
   36.54000     -3.8001669E-08
   36.60000     -3.6689944E-08
   36.66000     -3.5408917E-08
   36.72000     -3.4169929E-08
   36.78000     -3.3022435E-08
   36.84000     -3.2036610E-08
   36.90000     -3.1279690E-08
   36.96000     -3.0794510E-08
   37.02000     -3.0587408E-08
   37.08000     -3.0628893E-08
   37.14000     -3.0865916E-08
   37.20000     -3.1240386E-08
   37.26000     -3.1706769E-08
   37.32000     -3.2242095E-08
   37.38000     -3.2844987E-08
   37.44000     -3.3524277E-08
   37.50000     -3.4281957E-08
   37.56000     -3.5097298E-08
   37.62000     -3.5918713E-08
   37.68000     -3.6667181E-08
   37.74000     -3.7250864E-08
   37.80000     -3.7586485E-08
   37.86000     -3.7620538E-08
   37.92000     -3.7343085E-08
   37.98000     -3.6789533E-08
   38.04000     -3.6029665E-08
   38.10000     -3.5147526E-08
   38.16000     -3.4218793E-08
   38.22000     -3.3292995E-08
   38.28000     -3.2385977E-08
   38.34000     -3.1484507E-08
   38.40000     -3.0560475E-08
   38.46000     -2.9589003E-08
   38.52000     -2.8563639E-08
   38.58000     -2.7503232E-08
   38.64000     -2.6448486E-08
   38.70000     -2.5450131E-08
   38.76000     -2.4553710E-08
   38.82000     -2.3787045E-08
   38.88000     -2.3155028E-08
   38.94000     -2.2643356E-08
   39.00000     -2.2229115E-08
   39.06000     -2.1893579E-08
   39.12000     -2.1631628E-08
   39.18000     -2.1453728E-08
   39.24000     -2.1379302E-08
   39.30000     -2.1423942E-08
   39.36000     -2.1585738E-08
   39.42000     -2.1836808E-08
   39.48000     -2.2124825E-08
   39.54000     -2.2385716E-08
   39.60000     -2.2564453E-08
   39.66000     -2.2636959E-08
   39.72000     -2.2624818E-08
   39.78000     -2.2596000E-08
   39.84000     -2.2649360E-08
   39.90000     -2.2886560E-08
   39.96000     -2.3380053E-08
   40.02000     -2.4148020E-08
   40.08000     -2.5145320E-08
   40.14000     -2.6274478E-08
   40.20000     -2.7413822E-08
   40.26000     -2.8454059E-08
   40.32000     -2.9331570E-08
   40.38000     -3.0047765E-08
   40.44000     -3.0668332E-08
   40.50000     -3.1302783E-08
   40.56000     -3.2070854E-08
   40.62000     -3.3066513E-08
   40.68000     -3.4330913E-08
   40.74000     -3.5842728E-08
   40.80000     -3.7528757E-08
   40.86000     -3.9291098E-08
   40.92000     -4.1041691E-08
   40.98000     -4.2732655E-08
   41.04000     -4.4372058E-08
   41.10000     -4.6019665E-08
   41.16000     -4.7764171E-08
   41.22000     -4.9689849E-08
   41.28000     -5.1844271E-08
   41.34000     -5.4218553E-08
   41.40000     -5.6747233E-08
   41.46000     -5.9327832E-08
   41.52000     -6.1853491E-08
   41.58000     -6.4247246E-08
   41.64000     -6.6485953E-08
   41.70000     -6.8605601E-08
   41.76000     -7.0685836E-08
   41.82000     -7.2819361E-08
   41.88000     -7.5076656E-08
   41.94000     -7.7478482E-08
   42.00000     -7.9985725E-08
   42.06000     -8.2510127E-08
   42.12000     -8.4941838E-08
   42.18000     -8.7184048E-08
   42.24000     -8.9182329E-08
   42.30000     -9.0938691E-08
   42.36000     -9.2506014E-08
   42.42000     -9.3965639E-08
   42.48000     -9.5396686E-08
   42.54000     -9.6848225E-08
   42.60000     -9.8323781E-08
   42.66000     -9.9782667E-08
   42.72000     -1.0115672E-07
   42.78000     -1.0237539E-07
   42.84000     -1.0338991E-07
   42.90000     -1.0418781E-07
   42.96000     -1.0479298E-07
   43.02000     -1.0525174E-07
   43.08000     -1.0561055E-07
   43.14000     -1.0589368E-07
   43.20000     -1.0608984E-07
   43.26000     -1.0615270E-07
   43.32000     -1.0601608E-07
   43.38000     -1.0561808E-07
   43.44000     -1.0492556E-07
   43.50000     -1.0394942E-07
   43.56000     -1.0274435E-07
   43.62000     -1.0139275E-07
   43.68000     -9.9977939E-08
   43.74000     -9.8556512E-08
   43.80000     -9.7139903E-08
   43.86000     -9.5692208E-08
   43.92000     -9.4145413E-08
   43.98000     -9.2426824E-08
   44.04000     -9.0489110E-08
   44.10000     -8.8332285E-08
   44.16000     -8.6009919E-08
   44.22000     -8.3616882E-08
   44.28000     -8.1262819E-08
   44.34000     -7.9039786E-08
   44.40000     -7.6994915E-08
   44.46000     -7.5116809E-08
   44.52000     -7.3340146E-08
   44.58000     -7.1566959E-08
   44.64000     -6.9697869E-08
   44.70000     -6.7663592E-08
   44.76000     -6.5447189E-08
   44.82000     -6.3090575E-08
   44.88000     -6.0683647E-08
   44.94000     -5.8339559E-08
   45.00000     -5.6163799E-08
   45.06000     -5.4226170E-08
   45.12000     -5.2544127E-08
   45.18000     -5.1082221E-08
   45.24000     -4.9767632E-08
   45.30000     -4.8516807E-08
   45.36000     -4.7264749E-08
   45.42000     -4.5987598E-08
   45.48000     -4.4711424E-08
   45.54000     -4.3504755E-08
   45.60000     -4.2457785E-08
   45.66000     -4.1655657E-08
   45.72000     -4.1155136E-08
   45.78000     -4.0972335E-08
   45.84000     -4.1085183E-08
   45.90000     -4.1449123E-08
   45.96000     -4.2020037E-08
   46.02000     -4.2776339E-08
   46.08000     -4.3732989E-08
   46.14000     -4.4943150E-08
   46.20000     -4.6487731E-08
   46.26000     -4.8457018E-08
   46.32000     -5.0931149E-08
   46.38000     -5.3966620E-08
   46.44000     -5.7594008E-08
   46.50000     -6.1828672E-08
   46.56000     -6.6692024E-08
   46.62000     -7.2237782E-08
   46.68000     -7.8575631E-08
   46.74000     -8.5885937E-08
   46.80000     -9.4421686E-08
   46.86000     -1.0449833E-07
   46.92000     -1.1647612E-07
   46.98000     -1.3074254E-07
   47.04000     -1.4770215E-07
   47.10000     -1.6777948E-07
   47.16000     -1.9143602E-07
   47.22000     -2.1919880E-07
   47.28000     -2.5169371E-07
   47.34000     -2.8967602E-07
   47.40000     -3.3405203E-07
   47.46000     -3.8588823E-07
   47.52000     -4.4641041E-07
   47.58000     -5.1699766E-07
   47.64000     -5.9917983E-07
   47.70000     -6.9464517E-07
   47.76000     -8.0526399E-07
   47.82000     -9.3312610E-07
   47.88000     -1.0805882E-06
   47.94000     -1.2503226E-06
   48.00000     -1.4453620E-06
   48.06000     -1.6691311E-06
   48.12000     -1.9254671E-06
   48.18000     -2.2186332E-06
   48.24000     -2.5533252E-06
   48.30000     -2.9346850E-06
   48.36000     -3.3683204E-06
   48.42000     -3.8603366E-06
   48.48000     -4.4173798E-06
   48.54000     -5.0466888E-06
   48.60000     -5.7561506E-06
   48.66000     -6.5543459E-06
   48.72000     -7.4505888E-06
   48.78000     -8.4549438E-06
   48.84000     -9.5782352E-06
   48.90000     -1.0832039E-05
   48.96000     -1.2228670E-05
   49.02000     -1.3781180E-05
   49.08000     -1.5503350E-05
   49.14000     -1.7409682E-05
   49.20000     -1.9515395E-05
   49.26000     -2.1836426E-05
   49.32000     -2.4389392E-05
   49.38000     -2.7191561E-05
   49.44000     -3.0260793E-05
   49.50000     -3.3615474E-05
   49.56000     -3.7274396E-05
   49.62000     -4.1256659E-05
   49.68000     -4.5581561E-05
   49.74000     -5.0268431E-05
   49.80000     -5.5336532E-05
   49.86000     -6.0804898E-05
   49.92000     -6.6692177E-05
   49.98000     -7.3016483E-05
   50.04000     -7.9795238E-05
   50.10000     -8.7044951E-05
   50.16000     -9.4781091E-05
   50.22000     -1.0301777E-04
   50.28000     -1.1176761E-04
   50.34000     -1.2104147E-04
   50.40000     -1.3084825E-04
   50.46000     -1.4119467E-04
   50.52000     -1.5208508E-04
   50.58000     -1.6352125E-04
   50.64000     -1.7550217E-04
   50.70000     -1.8802391E-04
   50.76000     -2.0107947E-04
   50.82000     -2.1465866E-04
   50.88000     -2.2874797E-04
   50.94000     -2.4333048E-04
   51.00000     -2.5838579E-04
   51.06000     -2.7389007E-04
   51.12000     -2.8981594E-04
   51.18000     -3.0613263E-04
   51.24000     -3.2280598E-04
   51.30000     -3.3979843E-04
   51.36000     -3.5706942E-04
   51.42000     -3.7457544E-04
   51.48000     -3.9227027E-04
   51.54000     -4.1010560E-04
   51.60000     -4.2803085E-04
   51.66000     -4.4599400E-04
   51.72000     -4.6394154E-04
   51.78000     -4.8181909E-04
   51.84000     -4.9957185E-04
   51.90000     -5.1714497E-04
   51.96000     -5.3448416E-04
   52.02000     -5.5153616E-04
   52.08000     -5.6824886E-04
   52.14000     -5.8457220E-04
   52.20000     -6.0045841E-04
   52.26000     -6.1586261E-04
   52.32000     -6.3074363E-04
   52.38000     -6.4506405E-04
   52.44000     -6.5879099E-04
   52.50000     -6.7189586E-04
   52.56000     -6.8435498E-04
   52.62000     -6.9614971E-04
   52.68000     -7.0726679E-04
   52.74000     -7.1769865E-04
   52.80000     -7.2744320E-04
   52.86000     -7.3650409E-04
   52.92000     -7.4489077E-04
   52.98000     -7.5261790E-04
   53.04000     -7.5970578E-04
   53.10000     -7.6617982E-04
   53.16000     -7.7207014E-04
   53.22000     -7.7741186E-04
   53.28000     -7.8224367E-04
   53.34000     -7.8660838E-04
   53.40000     -7.9055183E-04
   53.46000     -7.9412229E-04
   53.52000     -7.9737022E-04
   53.58000     -8.0034736E-04
   53.64000     -8.0310629E-04
   53.70000     -8.0569921E-04
   53.76000     -8.0817810E-04
   53.82000     -8.1059354E-04
   53.88000     -8.1299426E-04
   53.94000     -8.1542681E-04
   54.00000     -8.1793458E-04
   54.06000     -8.2055747E-04
   54.12000     -8.2333130E-04
   54.18000     -8.2628720E-04
   54.24000     -8.2945178E-04
   54.30000     -8.3284645E-04
   54.36000     -8.3648693E-04
   54.42000     -8.4038335E-04
   54.48000     -8.4454007E-04
   54.54000     -8.4895571E-04
   54.60000     -8.5362309E-04
   54.66000     -8.5852982E-04
   54.72000     -8.6365797E-04
   54.78000     -8.6898491E-04
   54.84000     -8.7448303E-04
   54.90000     -8.8012061E-04
   54.96000     -8.8586198E-04
   55.02000     -8.9166797E-04
   55.08000     -8.9749688E-04
   55.14000     -9.0330461E-04
   55.20000     -9.0904551E-04
   55.26000     -9.1467268E-04
   55.32000     -9.2013890E-04
   55.38000     -9.2539721E-04
   55.44000     -9.3040155E-04
   55.50000     -9.3510753E-04
   55.56000     -9.3947269E-04