  -2.400000      0.0000000E+00
  -2.340000      0.0000000E+00
  -2.280000      0.0000000E+00
  -2.220000      0.0000000E+00
  -2.160000      0.0000000E+00
  -2.100000      0.0000000E+00
  -2.040000      0.0000000E+00
  -1.980000      1.8738410E-22
  -1.920000      1.9707059E-21
  -1.860000      1.0575470E-20
  -1.800000      3.7731630E-20
  -1.740000      9.6563132E-20
  -1.680000      1.7215548E-19
  -1.620000      1.5426853E-19
  -1.560000     -2.4010965E-19
  -1.500000     -1.4359547E-18
  -1.440000     -3.6662063E-18
  -1.380000     -6.2426378E-18
  -1.320000     -6.7702727E-18
  -1.260000     -1.2514519E-18
  -1.200000      1.3836261E-17
  -1.140000      3.7548564E-17
  -1.080000      6.1032595E-17
  -1.020000      6.8930317E-17
 -0.9600000      4.8078963E-17
 -0.9000000     -1.0182752E-18
 -0.8400000     -6.2597780E-17
 -0.7800000     -1.2592017E-16
 -0.7200000     -2.2108789E-16
 -0.6600000     -4.3263949E-16
 -0.6000000     -8.3512679E-16
 -0.5400000     -1.3281923E-15
 -0.4800000     -1.4493027E-15
 -0.4200000     -3.6493118E-16
 -0.3600000      2.7280621E-15
 -0.3000000      7.7422564E-15
 -0.2400000      1.2742810E-14
 -0.1800000      1.3695356E-14
 -0.1200000      5.7994953E-15
 -5.9999999E-02 -1.3353158E-14
  0.0000000E+00 -3.9908459E-14
  5.9999999E-02 -6.1703477E-14
  0.1200000     -6.0948256E-14
  0.1800000     -2.2849681E-14
  0.2400000      5.2318786E-14
  0.3000000      1.4027595E-13
  0.3600000      1.9505135E-13
  0.4200000      1.6716836E-13
  0.4800000      3.3583559E-14
  0.5400000     -1.7494961E-13
  0.6000000     -3.6858450E-13
  0.6600000     -4.2872382E-13
  0.7200000     -2.6972250E-13
  0.7800000      9.4942100E-14
  0.8400000      5.2282012E-13
  0.9000000      7.8205693E-13
  0.9600000      6.6108593E-13
   1.020000      1.0449763E-13
   1.080000     -7.0073618E-13
   1.140000     -1.3584744E-12
   1.200000     -1.4335378E-12
   1.260000     -6.9681516E-13
   1.320000      6.8071910E-13
   1.380000      2.1152416E-12
   1.440000      2.8340418E-12
   1.500000      2.2642068E-12
   1.560000      3.9915965E-13
   1.620000     -2.0732400E-12
   1.680000     -4.0047648E-12
   1.740000     -4.3224174E-12
   1.800000     -2.6202703E-12
   1.860000      5.1389882E-13
   1.920000      3.6629454E-12
   1.980000      5.2213416E-12
   2.040000      4.2299315E-12
   2.100000      9.7368533E-13
   2.160000     -3.0156797E-12
   2.220000     -5.6299622E-12
   2.280000     -5.2485486E-12
   2.340000     -1.6718761E-12
   2.400000      3.5885899E-12
   2.460000      7.8896403E-12
   2.520000      8.6964203E-12
   2.580000      4.9108035E-12
   2.640000     -2.3821997E-12
   2.700000     -1.0181090E-11
   2.760000     -1.4802392E-11
   2.820000     -1.3552011E-11
   2.880000     -6.0526801E-12
   2.940000      5.4275456E-12
   3.000000      1.6842966E-11
   3.060000      2.4055176E-11
   3.120000      2.4547074E-11
   3.180000      1.8350677E-11
   3.240000      7.7598683E-12
   3.300000     -3.9824003E-12
   3.360000     -1.4295433E-11
   3.420000     -2.2276897E-11
   3.480000     -2.8544105E-11
   3.540000     -3.3974368E-11
   3.600000     -3.8076296E-11
   3.660000     -3.8025388E-11
   3.720000     -2.9152201E-11
   3.780000     -6.9728255E-12
   3.840000      2.9958543E-11
   3.900000      7.7601404E-11
   3.960000      1.2554936E-10
   4.020000      1.5828006E-10
   4.080000      1.5825394E-10
   4.140000      1.0990757E-10
   4.200000      3.3666676E-12
   4.260000     -1.6303695E-10
   4.320000     -3.8184425E-10
   4.380000     -6.3706862E-10
   4.440000     -9.0600494E-10
   4.500000     -1.1619181E-09
   4.560000     -1.3773197E-09
   4.620000     -1.5274668E-09
   4.680000     -1.5935320E-09
   4.740000     -1.5647539E-09
   4.800000     -1.4390125E-09
   4.860000     -1.2217500E-09
   4.920000     -9.2381364E-10
   4.980000     -5.5926841E-10
   5.040000     -1.4418544E-10
   5.100000      3.0322511E-10
   5.160000      7.6169621E-10
   5.220000      1.2064629E-09
   5.280000      1.6105540E-09
   5.340000      1.9482509E-09
   5.400000      2.1998809E-09
   5.460000      2.3560922E-09
   5.520000      2.4196203E-09
   5.580000      2.4035303E-09
   5.640000      2.3265738E-09
   5.700000      2.2078195E-09
   5.760000      2.0632140E-09
   5.820000      1.9058219E-09
   5.880000      1.7495340E-09
   5.940000      1.6139998E-09
   6.000000      1.5275284E-09
   6.060000      1.5253806E-09
   6.120000      1.6430206E-09
   6.180000      1.9064936E-09
   6.240000      2.3238089E-09
   6.300000      2.8810994E-09
   6.360000      3.5453893E-09
   6.420000      4.2729553E-09
   6.480000      5.0199489E-09
   6.540000      5.7512510E-09
   6.600000      6.4447416E-09
   6.660000      7.0904806E-09
   6.720000      7.6865385E-09
   6.780000      8.2342257E-09
   6.840000      8.7350402E-09
   6.900000      9.1901899E-09
   6.960000      9.6020996E-09
   7.020000      9.9765165E-09
   7.080000      1.0323916E-08
   7.140000      1.0659512E-08
   7.200000      1.1001751E-08
   7.260000      1.1369486E-08
   7.320000      1.1778162E-08
   7.380000      1.2235566E-08
   7.440000      1.2738126E-08
   7.500000      1.3269167E-08
   7.560000      1.3800462E-08
   7.620000      1.4297554E-08
   7.680000      1.4727979E-08
   7.740000      1.5070038E-08
   7.800000      1.5319179E-08
   7.860000      1.5489480E-08
   7.920000      1.5609354E-08
   7.980000      1.5712583E-08
   8.040000      1.5827567E-08
   8.100000      1.5968334E-08
   8.160000      1.6130302E-08
   8.220000      1.6292047E-08
   8.280000      1.6422092E-08
   8.340000      1.6487864E-08
   8.400000      1.6463376E-08
   8.460000      1.6333184E-08
   8.520000      1.6092521E-08
   8.580000      1.5745712E-08
   8.640000      1.5305821E-08
   8.700000      1.4797115E-08
   8.760000      1.4259015E-08
   8.820000      1.3747726E-08
   8.880000      1.3331604E-08
   8.940000      1.3079346E-08
   9.000000      1.3044616E-08
   9.060000      1.3254075E-08
   9.120000      1.3705190E-08
   9.180000      1.4375455E-08
   9.240000      1.5238365E-08
   9.300000      1.6277413E-08
   9.360000      1.7490381E-08
   9.420000      1.8881899E-08
   9.480000      2.0449212E-08
   9.540000      2.2169832E-08
   9.600000      2.3998089E-08
   9.660000      2.5871771E-08
   9.720000      2.7723809E-08
   9.780000      2.9491691E-08
   9.840000      3.1119932E-08
   9.900000      3.2556361E-08
   9.960000      3.3747359E-08
   10.02000      3.4637580E-08
   10.08000      3.5176058E-08
   10.14000      3.5326131E-08
   10.20000      3.5074251E-08
   10.26000      3.4433651E-08
   10.32000      3.3442454E-08
   10.38000      3.2158283E-08
   10.44000      3.0652352E-08
   10.50000      2.9004218E-08
   10.56000      2.7296695E-08
   10.62000      2.5610142E-08
   10.68000      2.4016373E-08
   10.74000      2.2573932E-08
   10.80000      2.1326395E-08
   10.86000      2.0303826E-08
   10.92000      1.9525595E-08
   10.98000      1.9002234E-08
   11.04000      1.8735422E-08
   11.10000      1.8717209E-08
   11.16000      1.8930589E-08
   11.22000      1.9352310E-08
   11.28000      1.9956644E-08
   11.34000      2.0717422E-08
   11.40000      2.1606743E-08
   11.46000      2.2591474E-08
   11.52000      2.3630800E-08
   11.58000      2.4677652E-08
   11.64000      2.5683754E-08
   11.70000      2.6604885E-08
   11.76000      2.7402342E-08
   11.82000      2.8039691E-08
   11.88000      2.8478446E-08
   11.94000      2.8678523E-08
   12.00000      2.8606964E-08
   12.06000      2.8252323E-08
   12.12000      2.7636752E-08
   12.18000      2.6817299E-08
   12.24000      2.5873408E-08
   12.30000      2.4885837E-08
   12.36000      2.3917481E-08
   12.42000      2.3005260E-08
   12.48000      2.2165041E-08
   12.54000      2.1403409E-08
   12.60000      2.0726667E-08
   12.66000      2.0141009E-08
   12.72000      1.9645373E-08
   12.78000      1.9224586E-08
   12.84000      1.8850598E-08
   12.90000      1.8493651E-08
   12.96000      1.8137781E-08
   13.02000      1.7791210E-08
   13.08000      1.7484899E-08
   13.14000      1.7259531E-08
   13.20000      1.7147851E-08
   13.26000      1.7161259E-08
   13.32000      1.7286119E-08
   13.38000      1.7489294E-08
   13.44000      1.7728121E-08
   13.50000      1.7959628E-08
   13.56000      1.8146402E-08
   13.62000      1.8259655E-08
   13.68000      1.8281055E-08
   13.74000      1.8203920E-08
   13.80000      1.8033026E-08
   13.86000      1.7782238E-08
   13.92000      1.7470642E-08
   13.98000      1.7119349E-08
   14.04000      1.6750720E-08
   14.10000      1.6389613E-08
   14.16000      1.6063760E-08
   14.22000      1.5800159E-08
   14.28000      1.5616953E-08
   14.34000      1.5514258E-08
   14.40000      1.5469645E-08
   14.46000      1.5442293E-08
   14.52000      1.5385067E-08
   14.58000      1.5258811E-08
   14.64000      1.5041641E-08
   14.70000      1.4729336E-08
   14.76000      1.4328494E-08
   14.82000      1.3848517E-08
   14.88000      1.3298158E-08
   14.94000      1.2687919E-08
   15.00000      1.2034269E-08
   15.06000      1.1359695E-08
   15.12000      1.0685759E-08
   15.18000      1.0022305E-08
   15.24000      9.3604839E-09
   15.30000      8.6763210E-09
   15.36000      7.9453200E-09
   15.42000      7.1608661E-09
   15.48000      6.3454904E-09
   15.54000      5.5472373E-09
   15.60000      4.8219695E-09
   15.66000      4.2110315E-09
   15.72000      3.7267722E-09
   15.78000      3.3538385E-09
   15.84000      3.0648597E-09
   15.90000      2.8409410E-09
   15.96000      2.6853755E-09
   16.02000      2.6239264E-09
   16.08000      2.6932452E-09
   16.14000      2.9250631E-09
   16.20000      3.3341683E-09
   16.26000      3.9136907E-09
   16.32000      4.6358397E-09
   16.38000      5.4541145E-09
   16.44000      6.3051804E-09
   16.50000      7.1125550E-09
   16.56000      7.7958724E-09
   16.62000      8.2866949E-09
   16.68000      8.5463023E-09
   16.74000      8.5769347E-09
   16.80000      8.4192360E-09
   16.86000      8.1352773E-09
   16.92000      7.7844913E-09
   16.98000      7.4038002E-09
   17.04000      7.0005020E-09
   17.10000      6.5586754E-09
   17.16000      6.0523950E-09
   17.22000      5.4566369E-09
   17.28000      4.7506932E-09
   17.34000      3.9157468E-09
   17.40000      2.9327949E-09
   17.46000      1.7860985E-09
   17.52000      4.7184101E-10
   17.58000     -9.9383601E-10
   17.64000     -2.5743694E-09
   17.70000     -4.2225192E-09
   17.76000     -5.8963292E-09
   17.82000     -7.5731501E-09
   17.88000     -9.2548058E-09
   17.94000     -1.0962454E-08
   18.00000     -1.2725446E-08
   18.06000     -1.4570579E-08
   18.12000     -1.6515626E-08
   18.18000     -1.8566739E-08
   18.24000     -2.0716657E-08
   18.30000     -2.2941872E-08
   18.36000     -2.5200180E-08
   18.42000     -2.7432323E-08
   18.48000     -2.9570103E-08
   18.54000     -3.1549092E-08
   18.60000     -3.3320298E-08
   18.66000     -3.4854999E-08
   18.72000     -3.6141007E-08
   18.78000     -3.7174090E-08
   18.84000     -3.7951043E-08
   18.90000     -3.8469061E-08
   18.96000     -3.8730629E-08
   19.02000     -3.8748986E-08
   19.08000     -3.8548794E-08
   19.14000     -3.8160842E-08
   19.20000     -3.7614566E-08
   19.26000     -3.6934185E-08
   19.32000     -3.6141444E-08
   19.38000     -3.5262381E-08
   19.44000     -3.4331940E-08
   19.50000     -3.3390990E-08
   19.56000     -3.2475619E-08
   19.62000     -3.1604241E-08
   19.68000     -3.0769925E-08
   19.74000     -2.9942306E-08
   19.80000     -2.9077887E-08
   19.86000     -2.8133174E-08
   19.92000     -2.7075295E-08
   19.98000     -2.5888003E-08
   20.04000     -2.4574366E-08
   20.10000     -2.3157989E-08
   20.16000     -2.1682220E-08
   20.22000     -2.0204389E-08
   20.28000     -1.8783100E-08
   20.34000     -1.7460954E-08
   20.40000     -1.6250036E-08
   20.46000     -1.5128682E-08
   20.52000     -1.4053153E-08
   20.58000     -1.2979551E-08
   20.64000     -1.1884993E-08
   20.70000     -1.0777326E-08
   20.76000     -9.6897299E-09
   20.82000     -8.6657961E-09
   20.88000     -7.7456495E-09
   20.94000     -6.9611286E-09
   21.00000     -6.3400067E-09
   21.06000     -5.9117626E-09
   21.12000     -5.7060880E-09
   21.18000     -5.7411036E-09
   21.24000     -6.0068825E-09
   21.30000     -6.4549996E-09
   21.36000     -7.0026069E-09
   21.42000     -7.5514031E-09
   21.48000     -8.0132594E-09
   21.54000     -8.3307050E-09
   21.60000     -8.4838945E-09
   21.66000     -8.4832630E-09
   21.72000     -8.3539531E-09
   21.78000     -8.1204288E-09
   21.84000     -7.7974232E-09
   21.90000     -7.3888384E-09
   21.96000     -6.8925865E-09
   22.02000     -6.3079013E-09
   22.08000     -5.6418008E-09
   22.14000     -4.9119930E-09
   22.20000     -4.1444559E-09
   22.26000     -3.3655740E-09
   22.32000     -2.5915203E-09
   22.38000     -1.8201767E-09
   22.44000     -1.0311495E-09
   22.50000     -1.9595640E-10
   22.56000      7.0554779E-10
   22.62000      1.6712569E-09
   22.68000      2.6740550E-09
   22.74000      3.6729526E-09
   22.80000      4.6324411E-09
   22.86000      5.5389662E-09
   22.92000      6.4049028E-09
   22.98000      7.2581323E-09
   23.04000      8.1241671E-09
   23.10000      9.0118082E-09
   23.16000      9.9099422E-09
   23.22000      1.0794984E-08
   23.28000      1.1641604E-08
   23.34000      1.2428527E-08
   23.40000      1.3136609E-08
   23.46000      1.3743468E-08
   23.52000      1.4222113E-08
   23.58000      1.4547763E-08
   23.64000      1.4709948E-08
   23.70000      1.4721719E-08
   23.76000      1.4618600E-08
   23.82000      1.4446572E-08
   23.88000      1.4246133E-08
   23.94000      1.4042547E-08
   24.00000      1.3848481E-08
   24.06000      1.3676831E-08
   24.12000      1.3554549E-08
   24.18000      1.3527413E-08
   24.24000      1.3651507E-08
   24.30000      1.3975559E-08
   24.36000      1.4523785E-08
   24.42000      1.5288107E-08
   24.48000      1.6232649E-08
   24.54000      1.7306414E-08
   24.60000      1.8456516E-08
   24.66000      1.9636047E-08
   24.72000      2.0805450E-08
   24.78000      2.1930981E-08
   24.84000      2.2984869E-08
   24.90000      2.3949376E-08
   24.96000      2.4822674E-08
   25.02000      2.5621686E-08
   25.08000      2.6377505E-08
   25.14000      2.7122693E-08
   25.20000      2.7874576E-08
   25.26000      2.8621816E-08
   25.32000      2.9321482E-08
   25.38000      2.9909835E-08
   25.44000      3.0323989E-08
   25.50000      3.0526035E-08
   25.56000      3.0518979E-08
   25.62000      3.0346563E-08
   25.68000      3.0075899E-08
   25.74000      2.9770149E-08
   25.80000      2.9463806E-08
   25.86000      2.9152776E-08
   25.92000      2.8804424E-08
   25.98000      2.8382772E-08
   26.04000      2.7875780E-08
   26.10000      2.7310026E-08
   26.16000      2.6744349E-08
   26.22000      2.6244983E-08
   26.28000      2.5854501E-08
   26.34000      2.5570280E-08
   26.40000      2.5343031E-08
   26.46000      2.5095535E-08
   26.52000      2.4751714E-08
   26.58000      2.4262119E-08
   26.64000      2.3615421E-08
   26.70000      2.2833957E-08
   26.76000      2.1959309E-08
   26.82000      2.1037057E-08
   26.88000      2.0107203E-08
   26.94000      1.9201291E-08
   27.00000      1.8342799E-08
   27.06000      1.7547123E-08
   27.12000      1.6820232E-08
   27.18000      1.6158385E-08
   27.24000      1.5551706E-08
   27.30000      1.4991848E-08
   27.36000      1.4480032E-08
   27.42000      1.4030148E-08
   27.48000      1.3663738E-08
   27.54000      1.3398576E-08
   27.60000      1.3236871E-08
   27.66000      1.3159899E-08
   27.72000      1.3132509E-08
   27.78000      1.3115667E-08
   27.84000      1.3081165E-08
   27.90000      1.3022226E-08
   27.96000      1.2956313E-08
   28.02000      1.2920091E-08
   28.08000      1.2958786E-08
   28.14000      1.3112682E-08
   28.20000      1.3403106E-08
   28.26000      1.3820528E-08
   28.32000      1.4318374E-08
   28.38000      1.4816522E-08
   28.44000      1.5216575E-08
   28.50000      1.5426670E-08
   28.56000      1.5388652E-08
   28.62000      1.5097964E-08
   28.68000      1.4608436E-08
   28.74000      1.4019876E-08
   28.80000      1.3452862E-08
   28.86000      1.3019280E-08
   28.92000      1.2797118E-08
   28.98000      1.2814920E-08
   29.04000      1.3047502E-08
   29.10000      1.3422211E-08
   29.16000      1.3834207E-08
   29.22000      1.4168822E-08
   29.28000      1.4327416E-08
   29.34000      1.4250748E-08
   29.40000      1.3932495E-08
   29.46000      1.3417340E-08
   29.52000      1.2783284E-08
   29.58000      1.2114402E-08
   29.64000      1.1474556E-08
   29.70000      1.0891922E-08
   29.76000      1.0358765E-08
   29.82000      9.8436868E-09
   29.88000      9.3086028E-09
   29.94000      8.7224095E-09
   30.00000      8.0672358E-09
   30.06000      7.3381945E-09
   30.12000      6.5406134E-09
   30.18000      5.6880611E-09
   30.24000      4.8014828E-09
   30.30000      3.9070533E-09
   30.36000      3.0302785E-09
   30.42000      2.1867015E-09
   30.48000      1.3732484E-09
   30.54000      5.6591021E-10
   30.60000     -2.7257194E-10
   30.66000     -1.1763950E-09
   30.72000     -2.1583735E-09
   30.78000     -3.1985485E-09
   30.84000     -4.2463593E-09
   30.90000     -5.2370046E-09
   30.96000     -6.1158780E-09
   31.02000     -6.8609189E-09
   31.08000     -7.4933739E-09
   31.14000     -8.0722815E-09
   31.20000     -8.6747161E-09
   31.26000     -9.3692503E-09
   31.32000     -1.0192213E-08
   31.38000     -1.1134667E-08
   31.44000     -1.2143875E-08
   31.50000     -1.3138052E-08
   31.56000     -1.4029277E-08
   31.62000     -1.4747353E-08
   31.68000     -1.5257484E-08
   31.74000     -1.5566830E-08
   31.80000     -1.5718372E-08
   31.86000     -1.5774582E-08
   31.92000     -1.5796518E-08
   31.98000     -1.5825281E-08
   32.04000     -1.5871708E-08
   32.10000     -1.5917090E-08
   32.16000     -1.5923991E-08
   32.22000     -1.5852860E-08
   32.28000     -1.5678740E-08
   32.34000     -1.5402394E-08
   32.40000     -1.5051970E-08
   32.46000     -1.4674136E-08
   32.52000     -1.4316880E-08
   32.58000     -1.4009516E-08
   32.64000     -1.3747359E-08
   32.70000     -1.3488076E-08
   32.76000     -1.3162880E-08
   32.82000     -1.2699684E-08
   32.88000     -1.2049444E-08
   32.94000     -1.1204563E-08
   33.00000     -1.0201081E-08
   33.06000     -9.1036840E-09
   33.12000     -7.9804803E-09
   33.18000     -6.8788242E-09
   33.24000     -5.8118661E-09
   33.30000     -4.7591815E-09
   33.36000     -3.6778967E-09
   33.42000     -2.5172429E-09
   33.48000     -1.2309163E-09
   33.54000      2.1415579E-10
   33.60000      1.8308662E-09
   33.66000      3.6055510E-09
   33.72000      5.4943219E-09
   33.78000      7.4269453E-09
   33.84000      9.3215817E-09
   33.90000      1.1107667E-08
   33.96000      1.2747433E-08
   34.02000      1.4244308E-08
   34.08000      1.5631748E-08
   34.14000      1.6946801E-08
   34.20000      1.8202476E-08
   34.26000      1.9375110E-08
   34.32000      2.0415111E-08
   34.38000      2.1275806E-08
   34.44000      2.1943857E-08
   34.50000      2.2453287E-08
   34.56000      2.2874303E-08
   34.62000      2.3282741E-08
   34.68000      2.3726832E-08
   34.74000      2.4208791E-08
   34.80000      2.4689337E-08
   34.86000      2.5110042E-08
   34.92000      2.5419713E-08
   34.98000      2.5591364E-08
   35.04000      2.5624567E-08
   35.10000      2.5537574E-08
   35.16000      2.5358029E-08
   35.22000      2.5118412E-08
   35.28000      2.4855561E-08
   35.34000      2.4608619E-08
   35.40000      2.4410886E-08
   35.46000      2.4277075E-08
   35.52000      2.4193708E-08
   35.58000      2.4121212E-08
   35.64000      2.4010156E-08
   35.70000      2.3824684E-08
   35.76000      2.3559986E-08
   35.82000      2.3242434E-08
   35.88000      2.2910610E-08
   35.94000      2.2587088E-08
   36.00000      2.2257236E-08
   36.06000      2.1868344E-08
   36.12000      2.1351385E-08
   36.18000      2.0655225E-08
   36.24000      1.9776223E-08
   36.30000      1.8768523E-08
   36.36000      1.7730237E-08
   36.42000      1.6772322E-08
   36.48000      1.5984080E-08
   36.54000      1.5409189E-08
   36.60000      1.5039873E-08
   36.66000      1.4828516E-08
   36.72000      1.4709766E-08
   36.78000      1.4624052E-08
   36.84000      1.4535143E-08
   36.90000      1.4437989E-08
   36.96000      1.4356723E-08
   37.02000      1.4335056E-08
   37.08000      1.4422356E-08
   37.14000      1.4658749E-08
   37.20000      1.5062275E-08
   37.26000      1.5620712E-08
   37.32000      1.6290359E-08
   37.38000      1.7003179E-08
   37.44000      1.7682014E-08
   37.50000      1.8260785E-08
   37.56000      1.8703400E-08
   37.62000      1.9013575E-08
   37.68000      1.9229455E-08
   37.74000      1.9402604E-08
   37.80000      1.9568443E-08
   37.86000      1.9720865E-08
   37.92000      1.9803563E-08
   37.98000      1.9723696E-08
   38.04000      1.9382808E-08
   38.10000      1.8711157E-08
   38.16000      1.7690102E-08
   38.22000      1.6353765E-08
   38.28000      1.4772250E-08
   38.34000      1.3027293E-08
   38.40000      1.1192749E-08
   38.46000      9.3263841E-09
   38.52000      7.4708719E-09
   38.58000      5.6568337E-09
   38.64000      3.9023567E-09
   38.70000      2.2097892E-09
   38.76000      5.6613497E-10
   38.82000     -1.0468597E-09
   38.88000     -2.6333717E-09
   38.94000     -4.1638479E-09
   39.00000     -5.5679239E-09
   39.06000     -6.7485249E-09
   39.12000     -7.6148696E-09
   39.18000     -8.1208800E-09
   39.24000     -8.2908072E-09
   39.30000     -8.2188381E-09
   39.36000     -8.0414795E-09
   39.42000     -7.8941680E-09
   39.48000     -7.8701863E-09
   39.54000     -7.9978690E-09
   39.60000     -8.2429521E-09
   39.66000     -8.5320755E-09
   39.72000     -8.7859391E-09
   39.78000     -8.9491312E-09
   39.84000     -9.0074579E-09
   39.90000     -8.9899999E-09
   39.96000     -8.9587715E-09
   40.02000     -8.9917451E-09
   40.08000     -9.1650394E-09
   40.14000     -9.5382218E-09
   40.20000     -1.0144585E-08
   40.26000     -1.0987153E-08
   40.32000     -1.2040936E-08
   40.38000     -1.3261864E-08
   40.44000     -1.4601702E-08
   40.50000     -1.6025817E-08
   40.56000     -1.7527761E-08
   40.62000     -1.9133703E-08
   40.68000     -2.0892319E-08
   40.74000     -2.2852060E-08
   40.80000     -2.5034774E-08
   40.86000     -2.7418503E-08
   40.92000     -2.9939400E-08
   40.98000     -3.2513654E-08
   41.04000     -3.5069394E-08
   41.10000     -3.7572153E-08
   41.16000     -4.0030329E-08
   41.22000     -4.2477811E-08
   41.28000     -4.4944166E-08
   41.34000     -4.7429943E-08
   41.40000     -4.9901328E-08
   41.46000     -5.2306451E-08
   41.52000     -5.4602104E-08
   41.58000     -5.6773445E-08
   41.64000     -5.8834331E-08
   41.70000     -6.0808929E-08
   41.76000     -6.2707699E-08
   41.82000     -6.4514474E-08
   41.88000     -6.6193884E-08
   41.94000     -6.7714360E-08
   42.00000     -6.9071127E-08
   42.06000     -7.0292842E-08
   42.12000     -7.1425859E-08
   42.18000     -7.2504442E-08
   42.24000     -7.3524745E-08
   42.30000     -7.4438844E-08
   42.36000     -7.5173396E-08
   42.42000     -7.5662982E-08
   42.48000     -7.5880358E-08
   42.54000     -7.5847851E-08
   42.60000     -7.5625792E-08
   42.66000     -7.5286152E-08
   42.72000     -7.4886131E-08
   42.78000     -7.4453986E-08
   42.84000     -7.3990371E-08
   42.90000     -7.3479299E-08
   42.96000     -7.2899283E-08
   43.02000     -7.2227998E-08
   43.08000     -7.1440525E-08
   43.14000     -7.0506545E-08
   43.20000     -6.9392456E-08
   43.26000     -6.8070378E-08
   43.32000     -6.6530347E-08
   43.38000     -6.4789099E-08
   43.44000     -6.2889718E-08
   43.50000     -6.0891360E-08
   43.56000     -5.8853178E-08
   43.62000     -5.6819069E-08
   43.68000     -5.4809103E-08
   43.74000     -5.2819384E-08
   43.80000     -5.0828465E-08
   43.86000     -4.8806079E-08
   43.92000     -4.6720700E-08
   43.98000     -4.4544606E-08
   44.04000     -4.2257604E-08
   44.10000     -3.9851177E-08
   44.16000     -3.7333542E-08
   44.22000     -3.4733826E-08
   44.28000     -3.2101727E-08
   44.34000     -2.9499907E-08
   44.40000     -2.6989474E-08
   44.46000     -2.4613447E-08
   44.52000     -2.2385709E-08
   44.58000     -2.0291884E-08
   44.64000     -1.8303130E-08
   44.70000     -1.6396694E-08
   44.76000     -1.4572214E-08
   44.82000     -1.2853808E-08
   44.88000     -1.1275240E-08
   44.94000     -9.8553388E-09
   45.00000     -8.5776755E-09
   45.06000     -7.3877584E-09
   45.12000     -6.2121206E-09
   45.18000     -4.9914712E-09
   45.24000     -3.7114352E-09
   45.30000     -2.4146682E-09
   45.36000     -1.1875423E-09
   45.42000     -1.2783991E-10
   45.48000      6.9049522E-10
   45.54000      1.2388760E-09
   45.60000      1.5334717E-09
   45.66000      1.6160591E-09
   45.72000      1.5285321E-09
   45.78000      1.2942702E-09
   45.84000      9.1337699E-10
   45.90000      3.7026252E-10
   45.96000     -3.5361580E-10
   46.02000     -1.2691302E-09
   46.08000     -2.3741824E-09
   46.14000     -3.6525285E-09
   46.20000     -5.0740301E-09
   46.26000     -6.5953896E-09
   46.32000     -8.1631200E-09
   46.38000     -9.7210870E-09
   46.44000     -1.1222471E-08
   46.50000     -1.2642078E-08
   46.56000     -1.3982875E-08
   46.62000     -1.5272514E-08
   46.68000     -1.6550690E-08
   46.74000     -1.7853361E-08
   46.80000     -1.9201362E-08
   46.86000     -2.0597914E-08
   46.92000     -2.2033827E-08
   46.98000     -2.3494662E-08
   47.04000     -2.4963976E-08
   47.10000     -2.6420736E-08
   47.16000     -2.7834249E-08
   47.22000     -2.9162596E-08
   47.28000     -3.0358713E-08
   47.34000     -3.1383316E-08
   47.40000     -3.2219141E-08
   47.46000     -3.2879594E-08
   47.52000     -3.3407797E-08
   47.58000     -3.3866758E-08
   47.64000     -3.4324959E-08
   47.70000     -3.4842369E-08
   47.76000     -3.5459941E-08
   47.82000     -3.6193441E-08
   47.88000     -3.7031644E-08
   47.94000     -3.7939433E-08
   48.00000     -3.8866460E-08
   48.06000     -3.9760639E-08
   48.12000     -4.0582638E-08
   48.18000     -4.1315264E-08
   48.24000     -4.1962558E-08
   48.30000     -4.2537813E-08
   48.36000     -4.3045997E-08
   48.42000     -4.3469775E-08
   48.48000     -4.3767336E-08
   48.54000     -4.3884366E-08
   48.60000     -4.3775355E-08
   48.66000     -4.3424567E-08
   48.72000     -4.2857152E-08
   48.78000     -4.2135444E-08
   48.84000     -4.1341224E-08
   48.90000     -4.0549946E-08
   48.96000     -3.9804704E-08
   49.02000     -3.9097706E-08
   49.08000     -3.8364945E-08
   49.14000     -3.7496427E-08
   49.20000     -3.6359886E-08
   49.26000     -3.4830958E-08
   49.32000     -3.2819361E-08
   49.38000     -3.0280976E-08
   49.44000     -2.7210470E-08
   49.50000     -2.3616687E-08
   49.56000     -1.9489656E-08
   49.62000     -1.4770128E-08
   49.68000     -9.3297121E-09
   49.74000     -2.9637515E-09
   49.80000      4.6054942E-09
   49.86000      1.3719579E-08
   49.92000      2.4771836E-08
   49.98000      3.8195417E-08
   50.04000      5.4455548E-08
   50.10000      7.4052167E-08
   50.16000      9.7538859E-08
   50.22000      1.2555908E-07
   50.28000      1.5889276E-07
   50.34000      1.9850043E-07
   50.40000      2.4555249E-07
   50.46000      3.0143937E-07
   50.52000      3.6776927E-07
   50.58000      4.4636866E-07
   50.64000      5.3929875E-07
   50.70000      6.4889548E-07
   50.76000      7.7782761E-07
   50.82000      9.2916696E-07
   50.88000      1.1064590E-06
   50.94000      1.3137892E-06
   51.00000      1.5558447E-06
   51.06000      1.8379681E-06
   51.12000      2.1662083E-06
   51.18000      2.5473730E-06
   51.24000      2.9890919E-06
   51.30000      3.4999046E-06
   51.36000      4.0893760E-06
   51.42000      4.7682397E-06
   51.48000      5.5485430E-06
   51.54000      6.4437854E-06
   51.60000      7.4690379E-06
   51.66000      8.6410428E-06
   51.72000      9.9783292E-06
   51.78000      1.1501337E-05
   51.84000      1.3232569E-05
   51.90000      1.5196746E-05
   51.96000      1.7420951E-05
   52.02000      1.9934752E-05
   52.08000      2.2770349E-05
   52.14000      2.5962698E-05
   52.20000      2.9549677E-05
   52.26000      3.3572273E-05
   52.32000      3.8074733E-05
   52.38000      4.3104668E-05
   52.44000      4.8713136E-05
   52.50000      5.4954653E-05
   52.56000      6.1887244E-05
   52.62000      6.9572496E-05
   52.68000      7.8075624E-05
   52.74000      8.7465531E-05
   52.80000      9.7814744E-05
   52.86000      1.0919930E-04
   52.92000      1.2169865E-04
   52.98000      1.3539538E-04
   53.04000      1.5037507E-04
   53.10000      1.6672601E-04
   53.16000      1.8453896E-04
   53.22000      2.0390675E-04
   53.28000      2.2492383E-04
   53.34000      2.4768588E-04
   53.40000      2.7228930E-04
   53.46000      2.9883059E-04
   53.52000      3.2740584E-04
   53.58000      3.5810997E-04
   53.64000      3.9103604E-04
   53.70000      4.2627455E-04
   53.76000      4.6391250E-04
   53.82000      5.0403277E-04
   53.88000      5.4671301E-04
   53.94000      5.9202506E-04
   54.00000      6.4003374E-04
   54.06000      6.9079612E-04
   54.12000      7.4436056E-04
   54.18000      8.0076564E-04
   54.24000      8.6003944E-04
   54.30000      9.2219893E-04
   54.36000      9.8724873E-04
   54.42000      1.0551808E-03
   54.48000      1.1259735E-03
   54.54000      1.1995905E-03
   54.60000      1.2759812E-03
   54.66000      1.3550796E-03
   54.72000      1.4368044E-03
   54.78000      1.5210592E-03
   54.84000      1.6077313E-03
   54.90000      1.6966925E-03
   54.96000      1.7877985E-03
   55.02000      1.8808894E-03
   55.08000      1.9757906E-03
   55.14000      2.0723138E-03
   55.20000      2.1702566E-03
   55.26000      2.2694042E-03
   55.32000      2.3695300E-03
   55.38000      2.4703967E-03
   55.44000      2.5717567E-03
   55.50000      2.6733549E-03
   55.56000      2.7749292E-03