  -2.400000      0.0000000E+00
  -2.340000      0.0000000E+00
  -2.280000      0.0000000E+00
  -2.220000      0.0000000E+00
  -2.160000      0.0000000E+00
  -2.100000      0.0000000E+00
  -2.040000      0.0000000E+00
  -1.980000     -8.5040480E-23
  -1.920000     -8.8902761E-22
  -1.860000     -4.5047287E-21
  -1.800000     -1.4061465E-20
  -1.740000     -2.6971718E-20
  -1.680000     -1.7135518E-20
  -1.620000      8.6522090E-20
  -1.560000      3.9309099E-19
  -1.500000      9.6550992E-19
  -1.440000      1.6399882E-18
  -1.380000      1.8245907E-18
  -1.320000      4.6419168E-19
  -1.260000     -3.6268305E-18
  -1.200000     -1.1033734E-17
  -1.140000     -2.0865454E-17
  -1.080000     -3.0123238E-17
  -1.020000     -3.3452557E-17
 -0.9600000     -2.2929402E-17
 -0.9000000      1.2442888E-17
 -0.8400000      8.6355042E-17
 -0.7800000      2.0980833E-16
 -0.7200000      3.7458057E-16
 -0.6600000      5.2325720E-16
 -0.6000000      5.1791994E-16
 -0.5400000      1.4236109E-16
 -0.4800000     -8.1176445E-16
 -0.4200000     -2.3443803E-15
 -0.3600000     -3.9810006E-15
 -0.3000000     -4.6166180E-15
 -0.2400000     -2.7406111E-15
 -0.1800000      2.7507386E-15
 -0.1200000      1.1274247E-14
 -5.9999999E-02  1.9464468E-14
  0.0000000E+00  2.1346723E-14
  5.9999999E-02  1.0714721E-14
  0.1200000     -1.4424520E-14
  0.1800000     -4.7268480E-14
  0.2400000     -7.0952684E-14
  0.3000000     -6.3848930E-14
  0.3600000     -1.1754456E-14
  0.4200000      7.7730567E-14
  0.4800000      1.6778918E-13
  0.5400000      2.0117435E-13
  0.6000000      1.2769129E-13
  0.6600000     -5.9208897E-14
  0.7200000     -2.9744260E-13
  0.7800000     -4.6524476E-13
  0.8400000     -4.3299793E-13
  0.9000000     -1.4152980E-13
  0.9600000      3.3396346E-13
   1.020000      7.8139828E-13
   1.080000      9.3456113E-13
   1.140000      6.1771893E-13
   1.200000     -1.1925294E-13
   1.260000     -9.6341674E-13
   1.320000     -1.4521584E-12
   1.380000     -1.2109811E-12
   1.440000     -2.0374135E-13
   1.500000      1.1550327E-12
   1.560000      2.1306895E-12
   1.620000      2.0250227E-12
   1.680000      6.0103224E-13
   1.740000     -1.6600318E-12
   1.800000     -3.6593016E-12
   1.860000     -4.1602585E-12
   1.920000     -2.4545531E-12
   1.980000      1.1246250E-12
   2.040000      5.1580090E-12
   2.100000      7.6766146E-12
   2.160000      7.0904797E-12
   2.220000      3.0775629E-12
   2.280000     -3.0438740E-12
   2.340000     -8.7302578E-12
   2.400000     -1.1308780E-11
   2.460000     -9.2800021E-12
   2.520000     -3.1878859E-12
   2.580000      4.4345803E-12
   2.640000      1.0120424E-11
   2.700000      1.1102219E-11
   2.760000      6.7655339E-12
   2.820000     -8.2555588E-13
   2.880000     -7.6933512E-12
   2.940000     -9.7608284E-12
   3.000000     -4.9312915E-12
   3.060000      5.5601621E-12
   3.120000      1.7259976E-11
   3.180000      2.4172397E-11
   3.240000      2.1356616E-11
   3.300000      7.3143705E-12
   3.360000     -1.4941727E-11
   3.420000     -3.8693913E-11
   3.480000     -5.5904757E-11
   3.540000     -6.0147838E-11
   3.600000     -4.8791568E-11
   3.660000     -2.3518375E-11
   3.720000      1.0898648E-11
   3.780000      4.8748748E-11
   3.840000      8.5170850E-11
   3.900000      1.1647229E-10
   3.960000      1.3867076E-10
   4.020000      1.4496124E-10
   4.080000      1.2352988E-10
   4.140000      5.7193614E-11
   4.200000     -7.4314936E-11
   4.260000     -2.8968500E-10
   4.320000     -6.0029415E-10
   4.380000     -1.0052587E-09
   4.440000     -1.4889755E-09
   4.500000     -2.0220898E-09
   4.560000     -2.5657489E-09
   4.620000     -3.0779841E-09
   4.680000     -3.5204595E-09
   4.740000     -3.8637955E-09
   4.800000     -4.0902237E-09
   4.860000     -4.1933217E-09
   4.920000     -4.1756314E-09
   4.980000     -4.0457677E-09
   5.040000     -3.8167154E-09
   5.100000     -3.5063394E-09
   5.160000     -3.1398635E-09
   5.220000     -2.7526861E-09
   5.280000     -2.3911950E-09
   5.340000     -2.1095825E-09
   5.400000     -1.9621489E-09
   5.460000     -1.9926112E-09
   5.520000     -2.2236135E-09
   5.580000     -2.6500997E-09
   5.640000     -3.2391339E-09
   5.700000     -3.9365071E-09
   5.760000     -4.6780171E-09
   5.820000     -5.4016840E-09
   5.880000     -6.0571415E-09
   5.940000     -6.6099060E-09
   6.000000     -7.0405810E-09
   6.060000     -7.3411255E-09
   6.120000     -7.5112494E-09
   6.180000     -7.5573325E-09
   6.240000     -7.4943705E-09
   6.300000     -7.3492976E-09
   6.360000     -7.1626109E-09
   6.420000     -6.9854504E-09
   6.480000     -6.8711068E-09
   6.540000     -6.8626811E-09
   6.600000     -6.9809136E-09
   6.660000     -7.2169732E-09
   6.720000     -7.5335569E-09
   6.780000     -7.8746014E-09
   6.840000     -8.1804981E-09
   6.900000     -8.4035419E-09
   6.960000     -8.5183807E-09
   7.020000     -8.5244398E-09
   7.080000     -8.4405913E-09
   7.140000     -8.2952116E-09
   7.200000     -8.1160376E-09
   7.260000     -7.9235161E-09
   7.320000     -7.7293638E-09
   7.380000     -7.5396738E-09
   7.440000     -7.3602027E-09
   7.500000     -7.2009403E-09
   7.560000     -7.0775377E-09
   7.620000     -7.0085817E-09
   7.680000     -7.0093562E-09
   7.740000     -7.0843318E-09
   7.800000     -7.2215429E-09
   7.860000     -7.3917761E-09
   7.920000     -7.5539610E-09
   7.980000     -7.6657107E-09
   8.040000     -7.6955944E-09
   8.100000     -7.6326172E-09
   8.160000     -7.4892235E-09
   8.220000     -7.2966673E-09
   8.280000     -7.0945840E-09
   8.340000     -6.9186545E-09
   8.400000     -6.7903976E-09
   8.460000     -6.7116011E-09
   8.520000     -6.6637131E-09
   8.580000     -6.6109731E-09
   8.640000     -6.5056680E-09
   8.700000     -6.2944960E-09
   8.760000     -5.9256653E-09
   8.820000     -5.3564824E-09
   8.880000     -4.5606527E-09
   8.940000     -3.5339269E-09
   9.000000     -2.2965709E-09
   9.060000     -8.9171676E-10
   9.120000      6.2039673E-10
   9.180000      2.1713735E-09
   9.240000      3.6952927E-09
   9.300000      5.1391442E-09
   9.360000      6.4709353E-09
   9.420000      7.6832976E-09
   9.480000      8.7909804E-09
   9.540000      9.8221484E-09
   9.600000      1.0805556E-08
   9.660000      1.1757614E-08
   9.720000      1.2673933E-08
   9.780000      1.3528489E-08
   9.840000      1.4280654E-08
   9.900000      1.4887324E-08
   9.960000      1.5315672E-08
   10.02000      1.5552393E-08
   10.08000      1.5607130E-08
   10.14000      1.5510025E-08
   10.20000      1.5304924E-08
   10.26000      1.5040410E-08
   10.32000      1.4760922E-08
   10.38000      1.4499982E-08
   10.44000      1.4277229E-08
   10.50000      1.4099989E-08
   10.56000      1.3968498E-08
   10.62000      1.3882114E-08
   10.68000      1.3843044E-08
   10.74000      1.3855141E-08
   10.80000      1.3918022E-08
   10.86000      1.4019785E-08
   10.92000      1.4132996E-08
   10.98000      1.4217368E-08
   11.04000      1.4229156E-08
   11.10000      1.4133666E-08
   11.16000      1.3915555E-08
   11.22000      1.3582705E-08
   11.28000      1.3162548E-08
   11.34000      1.2692914E-08
   11.40000      1.2211077E-08
   11.46000      1.1744279E-08
   11.52000      1.1303475E-08
   11.58000      1.0880794E-08
   11.64000      1.0450751E-08
   11.70000      9.9754214E-09
   11.76000      9.4135117E-09
   11.82000      8.7321199E-09
   11.88000      7.9182234E-09
   11.94000      6.9859221E-09
   12.00000      5.9760268E-09
   12.06000      4.9471098E-09
   12.12000      3.9604324E-09
   12.18000      3.0638649E-09
   12.24000      2.2805819E-09
   12.30000      1.6066677E-09
   12.36000      1.0184051E-09
   12.42000      4.8632159E-10
   12.48000     -9.5707565E-12
   12.54000     -4.6933535E-10
   12.60000     -8.7146834E-10
   12.66000     -1.1802604E-09
   12.72000     -1.3584109E-09
   12.78000     -1.3788747E-09
   12.84000     -1.2306522E-09
   12.90000     -9.1675545E-10
   12.96000     -4.4705131E-10
   13.02000      1.6848387E-10
   13.08000      9.2119185E-10
   13.14000      1.7987158E-09
   13.20000      2.7769820E-09
   13.26000      3.8149510E-09
   13.32000      4.8564055E-09
   13.38000      5.8386260E-09
   13.44000      6.7034986E-09
   13.50000      7.4053412E-09
   13.56000      7.9122637E-09
   13.62000      8.2023810E-09
   13.68000      8.2593425E-09
   13.74000      8.0712530E-09
   13.80000      7.6336573E-09
   13.86000      6.9534978E-09
   13.92000      6.0497962E-09
   13.98000      4.9491216E-09
   14.04000      3.6779877E-09
   14.10000      2.2569733E-09
   14.16000      7.0067274E-10
   14.22000     -9.7611663E-10
   14.28000     -2.7496601E-09
   14.34000     -4.5814610E-09
   14.40000     -6.4192278E-09
   14.46000     -8.2048279E-09
   14.52000     -9.8859978E-09
   14.58000     -1.1427164E-08
   14.64000     -1.2815555E-08
   14.70000     -1.4060821E-08
   14.76000     -1.5188448E-08
   14.82000     -1.6229077E-08
   14.88000     -1.7207148E-08
   14.94000     -1.8133164E-08
   15.00000     -1.9003272E-08
   15.06000     -1.9807304E-08
   15.12000     -2.0542263E-08
   15.18000     -2.1224754E-08
   15.24000     -2.1895234E-08
   15.30000     -2.2610646E-08
   15.36000     -2.3428100E-08
   15.42000     -2.4387351E-08
   15.48000     -2.5500354E-08
   15.54000     -2.6751890E-08
   15.60000     -2.8108843E-08
   15.66000     -2.9531632E-08
   15.72000     -3.0981951E-08
   15.78000     -3.2425675E-08
   15.84000     -3.3834180E-08
   15.90000     -3.5187959E-08
   15.96000     -3.6482959E-08
   16.02000     -3.7735266E-08
   16.08000     -3.8978243E-08
   16.14000     -4.0249784E-08
   16.20000     -4.1573983E-08
   16.26000     -4.2946333E-08
   16.32000     -4.4330768E-08
   16.38000     -4.5670667E-08
   16.44000     -4.6908141E-08
   16.50000     -4.8001940E-08
   16.56000     -4.8936304E-08
   16.62000     -4.9719205E-08
   16.68000     -5.0373970E-08
   16.74000     -5.0929895E-08
   16.80000     -5.1414833E-08
   16.86000     -5.1849355E-08
   16.92000     -5.2240861E-08
   16.98000     -5.2578308E-08
   17.04000     -5.2830934E-08
   17.10000     -5.2954690E-08
   17.16000     -5.2906344E-08
   17.22000     -5.2659921E-08
   17.28000     -5.2217434E-08
   17.34000     -5.1608133E-08
   17.40000     -5.0876874E-08
   17.46000     -5.0068284E-08
   17.52000     -4.9215142E-08
   17.58000     -4.8335501E-08
   17.64000     -4.7437062E-08
   17.70000     -4.6523180E-08
   17.76000     -4.5595542E-08
   17.82000     -4.4652840E-08
   17.88000     -4.3688853E-08
   17.94000     -4.2693820E-08
   18.00000     -4.1660087E-08
   18.06000     -4.0588841E-08
   18.12000     -3.9493326E-08
   18.18000     -3.8396184E-08
   18.24000     -3.7322422E-08
   18.30000     -3.6292345E-08
   18.36000     -3.5318013E-08
   18.42000     -3.4403755E-08
   18.48000     -3.3548449E-08
   18.54000     -3.2747117E-08
   18.60000     -3.1991277E-08
   18.66000     -3.1269934E-08
   18.72000     -3.0573080E-08
   18.78000     -2.9897524E-08
   18.84000     -2.9252076E-08
   18.90000     -2.8658555E-08
   18.96000     -2.8147234E-08
   19.02000     -2.7748678E-08
   19.08000     -2.7486086E-08
   19.14000     -2.7371337E-08
   19.20000     -2.7405155E-08
   19.26000     -2.7579102E-08
   19.32000     -2.7876833E-08
   19.38000     -2.8273838E-08
   19.44000     -2.8737073E-08
   19.50000     -2.9226417E-08
   19.56000     -2.9698480E-08
   19.62000     -3.0111430E-08
   19.68000     -3.0428968E-08
   19.74000     -3.0622935E-08
   19.80000     -3.0675874E-08
   19.86000     -3.0585081E-08
   19.92000     -3.0367797E-08
   19.98000     -3.0064477E-08
   20.04000     -2.9736126E-08
   20.10000     -2.9453842E-08
   20.16000     -2.9283139E-08
   20.22000     -2.9268909E-08
   20.28000     -2.9427001E-08
   20.34000     -2.9744676E-08
   20.40000     -3.0187412E-08
   20.46000     -3.0707003E-08
   20.52000     -3.1247179E-08
   20.58000     -3.1746723E-08
   20.64000     -3.2143149E-08
   20.70000     -3.2380097E-08
   20.76000     -3.2418111E-08
   20.82000     -3.2244891E-08
   20.88000     -3.1879409E-08
   20.94000     -3.1366532E-08
   21.00000     -3.0763140E-08
   21.06000     -3.0120798E-08
   21.12000     -2.9471268E-08
   21.18000     -2.8819526E-08
   21.24000     -2.8145555E-08
   21.30000     -2.7413178E-08
   21.36000     -2.6582454E-08
   21.42000     -2.5621762E-08
   21.48000     -2.4516286E-08
   21.54000     -2.3270889E-08
   21.60000     -2.1907233E-08
   21.66000     -2.0457051E-08
   21.72000     -1.8954836E-08
   21.78000     -1.7432892E-08
   21.84000     -1.5919623E-08
   21.90000     -1.4439508E-08
   21.96000     -1.3012285E-08
   22.02000     -1.1650354E-08
   22.08000     -1.0356310E-08
   22.14000     -9.1241796E-09
   22.20000     -7.9465083E-09
   22.26000     -6.8250277E-09
   22.32000     -5.7785070E-09
   22.38000     -4.8410582E-09
   22.44000     -4.0489985E-09
   22.50000     -3.4218210E-09
   22.56000     -2.9478784E-09
   22.62000     -2.5839721E-09
   22.68000     -2.2703783E-09
   22.74000     -1.9535804E-09
   22.80000     -1.6043616E-09
   22.86000     -1.2221666E-09
   22.92000     -8.2570484E-10
   22.98000     -4.3835255E-10
   23.04000     -7.9098297E-11
   23.10000      2.3581673E-10
   23.16000      4.8452387E-10
   23.22000      6.3417366E-10
   23.28000      6.4640931E-10
   23.34000      4.9306415E-10
   23.40000      1.7275897E-10
   23.46000     -2.8336175E-10
   23.52000     -8.2246027E-10
   23.58000     -1.3924456E-09
   23.64000     -1.9631159E-09
   23.70000     -2.5334934E-09
   23.76000     -3.1215199E-09
   23.82000     -3.7435042E-09
   23.88000     -4.3969832E-09
   23.94000     -5.0579243E-09
   24.00000     -5.6934266E-09
   24.06000     -6.2809646E-09
   24.12000     -6.8213546E-09
   24.18000     -7.3372988E-09
   24.24000     -7.8590112E-09
   24.30000     -8.4064995E-09
   24.36000     -8.9793764E-09
   24.42000     -9.5592378E-09
   24.48000     -1.0121137E-08
   24.54000     -1.0645421E-08
   24.60000     -1.1122375E-08
   24.66000     -1.1548440E-08
   24.72000     -1.1919353E-08
   24.78000     -1.2227537E-08
   24.84000     -1.2467290E-08
   24.90000     -1.2644588E-08
   24.96000     -1.2783752E-08
   25.02000     -1.2924172E-08
   25.08000     -1.3106400E-08
   25.14000     -1.3354040E-08
   25.20000     -1.3661198E-08
   25.26000     -1.3992533E-08
   25.32000     -1.4295892E-08
   25.38000     -1.4520701E-08
   25.44000     -1.4632981E-08
   25.50000     -1.4621067E-08
   25.56000     -1.4492331E-08
   25.62000     -1.4266219E-08
   25.68000     -1.3969482E-08
   25.74000     -1.3635819E-08
   25.80000     -1.3307272E-08
   25.86000     -1.3032253E-08
   25.92000     -1.2856850E-08
   25.98000     -1.2810911E-08
   26.04000     -1.2894922E-08
   26.10000     -1.3074906E-08
   26.16000     -1.3289469E-08
   26.22000     -1.3467279E-08
   26.28000     -1.3548270E-08
   26.34000     -1.3500047E-08
   26.40000     -1.3323546E-08
   26.46000     -1.3047210E-08
   26.52000     -1.2714172E-08
   26.58000     -1.2369421E-08
   26.64000     -1.2052698E-08
   26.70000     -1.1798552E-08
   26.76000     -1.1640290E-08
   26.82000     -1.1611903E-08
   26.88000     -1.1743465E-08
   26.94000     -1.2050164E-08
   27.00000     -1.2520597E-08
   27.06000     -1.3112592E-08
   27.12000     -1.3762384E-08
   27.18000     -1.4406082E-08
   27.24000     -1.5004751E-08
   27.30000     -1.5560902E-08
   27.36000     -1.6117488E-08
   27.42000     -1.6739516E-08
   27.48000     -1.7487952E-08
   27.54000     -1.8399700E-08
   27.60000     -1.9483382E-08
   27.66000     -2.0730718E-08
   27.72000     -2.2133662E-08
   27.78000     -2.3694820E-08
   27.84000     -2.5424388E-08
   27.90000     -2.7327275E-08
   27.96000     -2.9391730E-08
   28.02000     -3.1590176E-08
   28.08000     -3.3894107E-08
   28.14000     -3.6294040E-08
   28.20000     -3.8810295E-08
   28.26000     -4.1485098E-08
   28.32000     -4.4358394E-08
   28.38000     -4.7440988E-08
   28.44000     -5.0701448E-08
   28.50000     -5.4075318E-08
   28.56000     -5.7491501E-08
   28.62000     -6.0900199E-08
   28.68000     -6.4286333E-08
   28.74000     -6.7662164E-08
   28.80000     -7.1046117E-08
   28.86000     -7.4442816E-08
   28.92000     -7.7836951E-08
   28.98000     -8.1203005E-08
   29.04000     -8.4521339E-08
   29.10000     -8.7787335E-08
   29.16000     -9.1005795E-08
   29.22000     -9.4174261E-08
   29.28000     -9.7267460E-08
   29.34000     -1.0023528E-07
   29.40000     -1.0301765E-07
   29.46000     -1.0556806E-07
   29.52000     -1.0787118E-07
   29.58000     -1.0994317E-07
   29.64000     -1.1181412E-07
   29.70000     -1.1350343E-07
   29.76000     -1.1500300E-07
   29.82000     -1.1627852E-07
   29.88000     -1.1728717E-07
   29.94000     -1.1800101E-07
   30.00000     -1.1842189E-07
   30.06000     -1.1857966E-07
   30.12000     -1.1851548E-07
   30.18000     -1.1825993E-07
   30.24000     -1.1781759E-07
   30.30000     -1.1716462E-07
   30.36000     -1.1625850E-07
   30.42000     -1.1505319E-07
   30.48000     -1.1351200E-07
   30.54000     -1.1161418E-07
   30.60000     -1.0935556E-07
   30.66000     -1.0674719E-07
   30.72000     -1.0381525E-07
   30.78000     -1.0060274E-07
   30.84000     -9.7170130E-08
   30.90000     -9.3591012E-08
   30.96000     -8.9940372E-08
   31.02000     -8.6277780E-08
   31.08000     -8.2631963E-08
   31.14000     -7.8994958E-08
   31.20000     -7.5331499E-08
   31.26000     -7.1602102E-08
   31.32000     -6.7791035E-08
   31.38000     -6.3925953E-08
   31.44000     -6.0078534E-08
   31.50000     -5.6344216E-08
   31.56000     -5.2809764E-08
   31.62000     -4.9524196E-08
   31.68000     -4.6486665E-08
   31.74000     -4.3655771E-08
   31.80000     -4.0973351E-08
   31.86000     -3.8389349E-08
   31.92000     -3.5876468E-08
   31.98000     -3.3432130E-08
   32.04000     -3.1073665E-08
   32.10000     -2.8835276E-08
   32.16000     -2.6769799E-08
   32.22000     -2.4950239E-08
   32.28000     -2.3462052E-08
   32.34000     -2.2381860E-08
   32.40000     -2.1748990E-08
   32.46000     -2.1545153E-08
   32.52000     -2.1697128E-08
   32.58000     -2.2106001E-08
   32.64000     -2.2690744E-08
   32.70000     -2.3423834E-08
   32.76000     -2.4339572E-08
   32.82000     -2.5510502E-08
   32.88000     -2.7005079E-08
   32.94000     -2.8849643E-08
   33.00000     -3.1013975E-08
   33.06000     -3.3425330E-08
   33.12000     -3.6000245E-08
   33.18000     -3.8675683E-08
   33.24000     -4.1424883E-08
   33.30000     -4.4254261E-08
   33.36000     -4.7188347E-08
   33.42000     -5.0253483E-08
   33.48000     -5.3467442E-08
   33.54000     -5.6835482E-08
   33.60000     -6.0348810E-08
   33.66000     -6.3982036E-08
   33.72000     -6.7690237E-08
   33.78000     -7.1409573E-08
   33.84000     -7.5065131E-08
   33.90000     -7.8585515E-08
   33.96000     -8.1918763E-08
   34.02000     -8.5041599E-08
   34.08000     -8.7956444E-08
   34.14000     -9.0675982E-08
   34.20000     -9.3201905E-08
   34.26000     -9.5507559E-08
   34.32000     -9.7533743E-08
   34.38000     -9.9200861E-08
   34.44000     -1.0043355E-07
   34.50000     -1.0118745E-07
   34.56000     -1.0146609E-07
   34.62000     -1.0131978E-07
   34.68000     -1.0082635E-07
   34.74000     -1.0006170E-07
   34.80000     -9.9073034E-08
   34.86000     -9.7865289E-08
   34.92000     -9.6404754E-08
   34.98000     -9.4635425E-08
   35.04000     -9.2499164E-08
   35.10000     -8.9951641E-08
   35.16000     -8.6971248E-08
   35.22000     -8.3562924E-08
   35.28000     -7.9760014E-08
   35.34000     -7.5624392E-08
   35.40000     -7.1241324E-08
   35.46000     -6.6705340E-08
   35.52000     -6.2098238E-08
   35.58000     -5.7467247E-08
   35.64000     -5.2815192E-08
   35.70000     -4.8110543E-08
   35.76000     -4.3314856E-08
   35.82000     -3.8414306E-08
   35.88000     -3.3438152E-08
   35.94000     -2.8453428E-08
   36.00000     -2.3539016E-08
   36.06000     -1.8754637E-08
   36.12000     -1.4123187E-08
   36.18000     -9.6363131E-09
   36.24000     -5.2782574E-09
   36.30000     -1.0517138E-09
   36.36000      3.0111351E-09
   36.42000      6.8588140E-09
   36.48000      1.0444255E-08
   36.54000      1.3745827E-08
   36.60000      1.6772159E-08
   36.66000      1.9548759E-08
   36.72000      2.2096522E-08
   36.78000      2.4416860E-08
   36.84000      2.6492298E-08
   36.90000      2.8299882E-08
   36.96000      2.9825763E-08
   37.02000      3.1069529E-08
   37.08000      3.2035299E-08
   37.14000      3.2717555E-08
   37.20000      3.3094523E-08
   37.26000      3.3137077E-08
   37.32000      3.2829938E-08
   37.38000      3.2192062E-08
   37.44000      3.1281644E-08
   37.50000      3.0179674E-08
   37.56000      2.8959118E-08
   37.62000      2.7655940E-08
   37.68000      2.6257750E-08
   37.74000      2.4715892E-08
   37.80000      2.2973710E-08
   37.86000      2.0995456E-08
   37.92000      1.8781209E-08
   37.98000      1.6362161E-08
   38.04000      1.3781436E-08
   38.10000      1.1072376E-08
   38.16000      8.2454195E-09
   38.22000      5.2883928E-09
   38.28000      2.1774604E-09
   38.34000     -1.1084490E-09
   38.40000     -4.5765836E-09
   38.46000     -8.2159177E-09
   38.52000     -1.1998448E-08
   38.58000     -1.5883195E-08
   38.64000     -1.9820231E-08
   38.70000     -2.3754017E-08
   38.76000     -2.7627152E-08
   38.82000     -3.1386115E-08
   38.88000     -3.4989252E-08
   38.94000     -3.8414907E-08
   39.00000     -4.1665746E-08
   39.06000     -4.4765287E-08
   39.12000     -4.7745392E-08
   39.18000     -5.0627921E-08
   39.24000     -5.3407849E-08
   39.30000     -5.6046051E-08
   39.36000     -5.8476509E-08
   39.42000     -6.0625794E-08
   39.48000     -6.2436335E-08
   39.54000     -6.3882489E-08
   39.60000     -6.4972369E-08
   39.66000     -6.5735733E-08
   39.72000     -6.6205907E-08
   39.78000     -6.6405626E-08
   39.84000     -6.6343432E-08
   39.90000     -6.6019950E-08
   39.96000     -6.5437987E-08
   40.02000     -6.4609495E-08
   40.08000     -6.3556278E-08
   40.14000     -6.2306540E-08
   40.20000     -6.0891779E-08
   40.26000     -5.9346871E-08
   40.32000     -5.7712057E-08
   40.38000     -5.6033109E-08
   40.44000     -5.4356448E-08
   40.50000     -5.2720328E-08
   40.56000     -5.1146568E-08
   40.62000     -4.9638139E-08
   40.68000     -4.8184670E-08
   40.74000     -4.6773170E-08
   40.80000     -4.5398238E-08
   40.86000     -4.4066731E-08
   40.92000     -4.2795428E-08
   40.98000     -4.1604110E-08
   41.04000     -4.0508358E-08
   41.10000     -3.9515385E-08
   41.16000     -3.8623941E-08
   41.22000     -3.7827039E-08
   41.28000     -3.7115555E-08
   41.34000     -3.6480987E-08
   41.40000     -3.5916337E-08
   41.46000     -3.5414772E-08
   41.52000     -3.4966646E-08
   41.58000     -3.4556535E-08
   41.64000     -3.4162703E-08
   41.70000     -3.3761161E-08
   41.76000     -3.3333908E-08
   41.82000     -3.2877981E-08
   41.88000     -3.2409890E-08
   41.94000     -3.1961282E-08
   42.00000     -3.1566071E-08
   42.06000     -3.1244447E-08
   42.12000     -3.0991774E-08
   42.18000     -3.0778551E-08
   42.24000     -3.0561800E-08
   42.30000     -3.0302431E-08
   42.36000     -2.9980420E-08
   42.42000     -2.9601832E-08
   42.48000     -2.9196745E-08
   42.54000     -2.8811659E-08
   42.60000     -2.8500974E-08
   42.66000     -2.8319809E-08
   42.72000     -2.8317029E-08
   42.78000     -2.8526388E-08
   42.84000     -2.8955890E-08
   42.90000     -2.9579462E-08
   42.96000     -3.0337418E-08
   43.02000     -3.1149995E-08
   43.08000     -3.1942204E-08
   43.14000     -3.2671117E-08
   43.20000     -3.3343305E-08
   43.26000     -3.4012853E-08
   43.32000     -3.4758820E-08
   43.38000     -3.5650636E-08
   43.44000     -3.6716127E-08
   43.50000     -3.7925716E-08
   43.56000     -3.9198891E-08
   43.62000     -4.0428709E-08
   43.68000     -4.1512831E-08
   43.74000     -4.2378325E-08
   43.80000     -4.2992738E-08
   43.86000     -4.3361524E-08
   43.92000     -4.3517595E-08
   43.98000     -4.3509502E-08
   44.04000     -4.3391090E-08
   44.10000     -4.3211603E-08
   44.16000     -4.3004064E-08
   44.22000     -4.2772875E-08
   44.28000     -4.2486104E-08
   44.34000     -4.2079588E-08
   44.40000     -4.1476255E-08
   44.46000     -4.0615969E-08
   44.52000     -3.9483702E-08
   44.58000     -3.8122344E-08
   44.64000     -3.6622822E-08
   44.70000     -3.5095361E-08
   44.76000     -3.3635473E-08
   44.82000     -3.2300512E-08
   44.88000     -3.1106030E-08
   44.94000     -3.0040177E-08
   45.00000     -2.9085196E-08
   45.06000     -2.8233311E-08
   45.12000     -2.7490312E-08
   45.18000     -2.6868987E-08
   45.24000     -2.6380651E-08
   45.30000     -2.6032346E-08
   45.36000     -2.5831101E-08
   45.42000     -2.5789966E-08
   45.48000     -2.5928282E-08
   45.54000     -2.6262844E-08
   45.60000     -2.6794101E-08
   45.66000     -2.7497011E-08
   45.72000     -2.8325124E-08
   45.78000     -2.9228817E-08
   45.84000     -3.0179052E-08
   45.90000     -3.1182825E-08
   45.96000     -3.2279775E-08
   46.02000     -3.3519761E-08
   46.08000     -3.4932910E-08
   46.14000     -3.6508879E-08
   46.20000     -3.8197445E-08
   46.26000     -3.9930384E-08
   46.32000     -4.1652100E-08
   46.38000     -4.3341398E-08
   46.44000     -4.5012577E-08
   46.50000     -4.6696790E-08
   46.56000     -4.8416517E-08
   46.62000     -5.0169344E-08
   46.68000     -5.1930293E-08
   46.74000     -5.3669286E-08
   46.80000     -5.5370570E-08
   46.86000     -5.7040214E-08
   46.92000     -5.8696404E-08
   46.98000     -6.0348974E-08
   47.04000     -6.1981794E-08
   47.10000     -6.3549379E-08
   47.16000     -6.4989521E-08
   47.22000     -6.6243359E-08
   47.28000     -6.7270513E-08
   47.34000     -6.8051129E-08
   47.40000     -6.8576490E-08
   47.46000     -6.8837366E-08
   47.52000     -6.8819965E-08
   47.58000     -6.8512755E-08
   47.64000     -6.7918421E-08
   47.70000     -6.7060775E-08
   47.76000     -6.5979236E-08
   47.82000     -6.4712474E-08
   47.88000     -6.3281163E-08
   47.94000     -6.1681803E-08
   48.00000     -5.9897381E-08
   48.06000     -5.7919731E-08
   48.12000     -5.5770016E-08
   48.18000     -5.3503598E-08
   48.24000     -5.1194409E-08
   48.30000     -4.8906347E-08
   48.36000     -4.6667747E-08
   48.42000     -4.4463718E-08
   48.48000     -4.2250910E-08
   48.54000     -3.9986233E-08
   48.60000     -3.7653475E-08
   48.66000     -3.5274045E-08
   48.72000     -3.2898505E-08
   48.78000     -3.0586833E-08
   48.84000     -2.8390373E-08
   48.90000     -2.6344413E-08
   48.96000     -2.4471202E-08
   49.02000     -2.2785912E-08
   49.08000     -2.1297899E-08
   49.14000     -2.0005929E-08
   49.20000     -1.8893248E-08
   49.26000     -1.7930352E-08
   49.32000     -1.7088068E-08
   49.38000     -1.6355282E-08
   49.44000     -1.5750826E-08
   49.50000     -1.5321829E-08
   49.56000     -1.5129668E-08
   49.62000     -1.5232928E-08
   49.68000     -1.5678658E-08
   49.74000     -1.6507306E-08
   49.80000     -1.7767592E-08
   49.86000     -1.9531859E-08
   49.92000     -2.1903638E-08
   49.98000     -2.5015680E-08
   50.04000     -2.9023207E-08
   50.10000     -3.4099028E-08
   50.16000     -4.0434131E-08
   50.22000     -4.8242789E-08
   50.28000     -5.7768833E-08
   50.34000     -6.9291168E-08
   50.40000     -8.3129081E-08
   50.46000     -9.9649270E-08
   50.52000     -1.1927537E-07
   50.58000     -1.4249891E-07
   50.64000     -1.6989082E-07
   50.70000     -2.0211358E-07
   50.76000     -2.3993493E-07
   50.82000     -2.8424338E-07
   50.88000     -3.3606293E-07
   50.94000     -3.9656337E-07
   51.00000     -4.6706640E-07
   51.06000     -5.4905394E-07
   51.12000     -6.4418879E-07
   51.18000     -7.5435349E-07
   51.24000     -8.8170140E-07
   51.30000     -1.0287052E-06
   51.36000     -1.1981847E-06
   51.42000     -1.3933089E-06
   51.48000     -1.6175901E-06
   51.54000     -1.8748908E-06
   51.60000     -2.1694686E-06
   51.66000     -2.5060517E-06
   51.72000     -2.8899226E-06
   51.78000     -3.3269771E-06
   51.84000     -3.8237463E-06
   51.90000     -4.3873911E-06
   51.96000     -5.0257054E-06
   52.02000     -5.7471502E-06
   52.08000     -6.5609233E-06
   52.14000     -7.4770387E-06
   52.20000     -8.5063812E-06
   52.26000     -9.6607282E-06
   52.32000     -1.0952747E-05
   52.38000     -1.2396007E-05
   52.44000     -1.4005019E-05
   52.50000     -1.5795296E-05
   52.56000     -1.7783412E-05
   52.62000     -1.9987014E-05
   52.68000     -2.2424772E-05
   52.74000     -2.5116333E-05
   52.80000     -2.8082241E-05
   52.86000     -3.1343927E-05
   52.92000     -3.4923691E-05
   52.98000     -3.8844715E-05
   53.04000     -4.3131004E-05
   53.10000     -4.7807309E-05
   53.16000     -5.2899035E-05
   53.22000     -5.8432070E-05
   53.28000     -6.4432665E-05
   53.34000     -7.0927272E-05
   53.40000     -7.7942364E-05
   53.46000     -8.5504296E-05
   53.52000     -9.3639035E-05
   53.58000     -1.0237198E-04
   53.64000     -1.1172774E-04
   53.70000     -1.2172997E-04
   53.76000     -1.3240112E-04
   53.82000     -1.4376231E-04
   53.88000     -1.5583288E-04
   53.94000     -1.6863026E-04
   54.00000     -1.8216953E-04
   54.06000     -1.9646324E-04
   54.12000     -2.1152102E-04
   54.18000     -2.2734945E-04
   54.24000     -2.4395171E-04
   54.30000     -2.6132751E-04
   54.36000     -2.7947282E-04
   54.42000     -2.9837966E-04
   54.48000     -3.1803575E-04
   54.54000     -3.3842440E-04
   54.60000     -3.5952462E-04
   54.66000     -3.8131062E-04
   54.72000     -4.0375200E-04
   54.78000     -4.2681373E-04
   54.84000     -4.5045619E-04
   54.90000     -4.7463510E-04
   54.96000     -4.9930159E-04
   55.02000     -5.2440236E-04
   55.08000     -5.4988003E-04
   55.14000     -5.7567307E-04
   55.20000     -6.0171651E-04
   55.26000     -6.2794244E-04
   55.32000     -6.5427989E-04
   55.38000     -6.8065565E-04
   55.44000     -7.0699386E-04
   55.50000     -7.3321699E-04
   55.56000     -7.5924624E-04